Membrane in water
40167
    1TCq1    O1    1   2.682   1.404  11.400  0.4725 -0.4600  0.5175
    1TCq1    C1    2   2.602   1.512  11.433 -0.5071 -0.3912 -0.7903
    1TCq1    O2    3   2.640   1.628  11.426 -0.6549  0.3569 -0.4619
    1TCq1    C2    4   2.507   1.464  11.531 -0.6887  0.1800  0.2390
    1TCq1    C3    5   2.487   1.537  11.643 -0.1271  0.4498  0.3313
    1TCq1    C4    6   2.378   1.496  11.721  0.2729  0.4213 -0.0985
    1TCq1    C5    7   2.308   1.384  11.704 -0.4722 -0.2675 -0.2591
    1TCq1    C6    8   2.341   1.308  11.598 -0.3547  0.2878  0.6020
    1TCq1    C7    9   2.435   1.347  11.505 -0.3658  0.0930 -0.6762
    1TCq1    C8   10   2.287   1.170  11.588  0.9245  0.1384  0.4098
    1TCq1    O4   11   2.195   1.134  11.656 -0.5684 -0.2457 -0.2966
    1TCq1    C9   12   2.357   1.587  11.830 -0.0977  0.3764  0.2813
    1TCq1    O5   13   2.238   1.578  11.872 -0.6001 -0.2729  0.2551
    1TCq1    O6   14   2.450   1.660  11.867 -0.7740  0.0832  0.4452
    1TCq1    H1   15   2.637   1.319  11.418 -0.0631 -0.4889 -0.9521
    1TCq1    H2   16   2.533   1.633  11.660 -1.4766  0.9666  1.1360
    1TCq1    H3   17   2.227   1.353  11.769 -0.4682  1.1722  0.4343
    1TCq1    H4   18   2.428   1.291  11.412 -0.4807 -0.0944 -0.5561
    2MPD2     C   19   2.297   0.674  11.444  0.1854 -0.1112 -0.0831
    2MPD2    C1   20   2.194   0.750  11.489 -0.3053 -0.2604  0.5462
    2MPD2    C2   21   2.208   0.888  11.520 -0.1588 -0.0681  0.4526
    2MPD2    C3   22   2.331   0.946  11.492 -0.8487 -0.6143 -0.0406
    2MPD2    C4   23   2.432   0.868  11.458 -0.2730  0.0477 -0.0396
    2MPD2    C5   24   2.420   0.733  11.438  0.0907  0.2849 -0.2435
    2MPD2     H   25   2.119   0.935  11.560 -0.7616 -0.4408 -0.4737
    2MPD2    H1   26   2.529   0.910  11.434  0.1367 -0.7501  0.1985
    2MPD2    H2   27   2.292   0.568  11.422  0.4423 -0.3245  0.8907
    2MPD2    H3   28   2.500   0.668  11.405 -1.8649 -2.1975 -0.1033
    2MPD2     N   29   2.368   1.076  11.517  0.0732  0.1291  0.5011
    2MPD2    H5   30   2.464   1.106  11.500  0.1042  0.5268  1.3715
    2MPD2    N1   31   2.067   0.689  11.517 -0.3819  0.0194  0.4803
    2MPD2    H7   32   1.999   0.761  11.538  0.6868  0.7432  1.4265
    3TCq1    O1   33   0.848   0.663  11.589 -0.0888  0.1694  0.3286
    3TCq1    C1   34   0.779   0.762  11.642 -0.2435  0.4210 -0.0549
    3TCq1    O2   35   0.714   0.766  11.747 -0.7490 -0.1009 -0.0799
    3TCq1    C2   36   0.816   0.879  11.571 -0.0447  0.6389 -0.4670
    3TCq1    C3   37   0.777   0.897  11.445 -0.9552 -0.6042 -0.0023
    3TCq1    C4   38   0.762   1.025  11.393 -0.1814  0.2710 -0.3616
    3TCq1    C5   39   0.788   1.140  11.465  0.1068  0.7784  0.4204
    3TCq1    C6   40   0.837   1.119  11.593 -0.6421  0.2364 -0.7862
    3TCq1    C7   41   0.843   0.991  11.651  0.1229  0.3934 -0.8066
    3TCq1    C8   42   0.828   1.223  11.684 -0.2664  0.0830 -0.1084
    3TCq1    O4   43   0.831   1.189  11.799  0.1495 -0.2292 -0.1877
    3TCq1    C9   44   0.726   1.030  11.250  0.6800 -0.3162 -0.1847
    3TCq1    O5   45   0.697   0.930  11.189 -0.3530 -0.2525 -0.8105
    3TCq1    O6   46   0.702   1.147  11.202 -0.3238  0.5641 -0.3170
    3TCq1    H1   47   0.910   0.681  11.516  1.8344  1.3484  2.2401
    3TCq1    H2   48   0.758   0.818  11.373  1.0551  0.3507 -1.5571
    3TCq1    H3   49   0.776   1.231  11.408  0.3131  0.7129  0.2713
    3TCq1    H4   50   0.872   0.978  11.754 -1.9715 -1.4017 -0.4519
    4MPD2     C   51   0.701   1.701  11.820 -0.1876 -0.0198 -0.4752
    4MPD2    C1   52   0.719   1.695  11.683 -0.0466 -0.2440  0.0554
    4MPD2    C2   53   0.754   1.580  11.617 -0.1110 -0.3093  0.1394
    4MPD2    C3   54   0.776   1.466  11.689 -0.2876  0.2370  0.3819
    4MPD2    C4   55   0.755   1.471  11.825 -0.1404 -0.0700 -0.1797
    4MPD2    C5   56   0.713   1.584  11.888 -0.2132 -0.5355 -0.1777
    4MPD2     H   57   0.764   1.581  11.509  0.9031  1.4827  0.2398
    4MPD2    H1   58   0.760   1.385  11.891 -0.5132 -0.0576 -0.1395
    4MPD2    H2   59   0.660   1.791  11.863 -2.7237 -1.1580 -0.4986
    4MPD2    H3   60   0.691   1.573  11.993 -0.0067  1.3464  0.0600
    4MPD2     N   61   0.805   1.345  11.620 -0.0856 -0.1027  0.0612
    4MPD2    H5   62   0.822   1.358  11.521 -1.6611 -0.3772 -0.2444
    4MPD2    N1   63   0.685   1.810  11.605  0.3867 -0.2132  0.5865
    4MPD2    H7   64   0.708   1.805  11.507  1.8481 -0.7651  0.9502
    5TCq1    O1   65   0.005   3.051  10.729  0.4830  0.7968 -0.5038
    5TCq1    C1   66   0.125   2.984  10.731 -0.3300  1.3475  0.2702
    5TCq1    O2   67   0.142   2.896  10.648  0.3454 -0.2155 -0.0523
    5TCq1    C2   68   0.179   2.959  10.866 -0.7601 -0.4417 -0.1839
    5TCq1    C3   69   0.125   3.023  10.981 -0.0597 -0.8298 -0.1479
    5TCq1    C4   70   0.212   3.040  11.080 -0.4902  0.0266  0.0343
    5TCq1    C5   71   0.339   2.977  11.079 -0.3629  0.1256 -0.1004
    5TCq1    C6   72   0.382   2.905  10.967 -0.6891 -1.2649 -1.0642
    5TCq1    C7   73   0.300   2.901  10.860 -0.1653  0.0847  0.3286
    5TCq1    C8   74   0.510   2.836  10.961  0.0792  0.4332  0.5105
    5TCq1    O4   75   0.597   2.864  11.042  0.0601 -0.2764 -0.1646
    5TCq1    C9   76   0.166   3.096  11.205  0.1654 -0.7862 -0.3094
    5TCq1    O5   77   0.247   3.109  11.299 -0.0533  0.0261 -0.2859
    5TCq1    O6   78   0.045   3.108  11.216 -0.2756 -0.3756  0.2937
    5TCq1    H1   79   0.006   3.128  10.790 -0.7883  0.2892  0.1469
    5TCq1    H2   80   0.028   3.073  10.986  0.4338  0.1060 -0.0298
    5TCq1    H3   81   0.405   2.987  11.165  0.0715 -0.0300 -0.4188
    5TCq1    H4   82   0.339   2.869  10.764  0.5517  0.4547  0.5000
    6MPD2     C   83   0.587   2.560  10.730  0.1552  0.0974 -0.0210
    6MPD2    C1   84   0.617   2.659  10.825  0.3323 -0.0610 -0.1089
    6MPD2    C2   85   0.750   2.675  10.870  0.6209 -0.8237 -0.5343
    6MPD2    C3   86   0.850   2.602  10.806  0.0614  0.5390  0.2693
    6MPD2    C4   87   0.815   2.519  10.694 -0.1066  0.3595 -0.5143
    6MPD2    C5   88   0.685   2.493  10.664 -0.0888  0.5636  0.4888
    6MPD2     H   89   0.778   2.753  10.939 -1.0639  0.2467 -1.0608
    6MPD2    H1   90   0.888   2.474  10.627  0.8848 -0.6088  1.2052
    6MPD2    H2   91   0.484   2.555  10.694 -0.1891  2.2112  0.6849
    6MPD2    H3   92   0.662   2.423  10.585  0.3140 -0.8502  1.6191
    6MPD2     N   93   0.983   2.627  10.845 -0.2566  0.0270  0.2769
    6MPD2    H5   94   1.002   2.696  10.917 -0.9374  0.8332 -0.3294
    6MPD2    N1   95   0.510   2.735  10.870 -0.6508  0.2166 -0.2598
    6MPD2    H7   96   0.423   2.717  10.823  0.1810  0.0495 -1.7257
    7TCq1    O1   97   3.376   3.387  13.654  0.1637  0.1089  0.1440
    7TCq1    C1   98   3.440   3.360  13.537 -0.1192  0.4556  0.2487
    7TCq1    O2   99   3.453   3.446  13.451 -0.2793 -0.4462  0.1643
    7TCq1    C2  100   3.416   3.221  13.506 -1.4760 -0.0663 -1.3025
    7TCq1    C3  101   3.369   3.192  13.378  0.2734  0.4756  0.4746
    7TCq1    C4  102   3.379   3.058  13.334 -0.5236  0.2818 -0.3290
    7TCq1    C5  103   3.432   2.965  13.417  0.0825 -0.9401 -0.3888
    7TCq1    C6  104   3.496   3.006  13.533  0.1821  0.3275 -0.4485
    7TCq1    C7  105   3.487   3.130  13.588 -0.2881 -0.3660  0.0460
    7TCq1    C8  106   3.589   2.905  13.584  0.0176  0.1791  0.1790
    7TCq1    O4  107   3.575   2.784  13.552 -0.0029  0.3645  0.0896
    7TCq1    C9  108   3.341   3.022  13.198 -0.0899  0.0013  0.1062
    7TCq1    O5  109   3.289   3.114  13.131 -0.0824 -0.0354 -0.0168
    7TCq1    O6  110   3.380   2.910  13.160  0.3772 -0.1751  0.3627
    7TCq1    H1  111   3.323   3.317  13.696 -0.4687  0.1358 -0.6057
    7TCq1    H2  112   3.347   3.278  13.315 -2.5390 -1.4602 -1.2276
    7TCq1    H3  113   3.431   2.860  13.389 -1.8349 -0.7664 -0.9408
    7TCq1    H4  114   3.516   3.151  13.690  0.3632 -1.9122  0.1611
    8MPD2     C  115   3.993   2.761  13.864  0.0541  0.1289  0.4551
    8MPD2    C1  116   3.916   2.691  13.769 -0.7057  0.4996  0.4131
    8MPD2    C2  117   3.811   2.755  13.711  0.2335  0.3420 -0.5081
    8MPD2    C3  118   3.791   2.891  13.730  0.0792  0.1679 -1.0298
    8MPD2    C4  119   3.879   2.965  13.809 -0.1091 -0.0621  0.0951
    8MPD2    C5  120   3.974   2.894  13.884  0.1266  0.0843  0.2827
    8MPD2     H  121   3.761   2.699  13.633 -0.6311  1.7647 -0.9863
    8MPD2    H1  122   3.859   3.069  13.833  0.4347  0.4720 -1.7405
    8MPD2    H2  123   4.071   2.706  13.916 -0.4065 -0.5776  0.4052
    8MPD2    H3  124   4.039   2.940  13.958  2.5829 -0.5778 -1.4453
    8MPD2     N  125   3.685   2.968  13.671  0.1061 -0.1628  0.4621
    8MPD2    H5  126   3.688   3.069  13.681 -2.2375  0.0806 -1.4544
    8MPD2    N1  127   3.959   2.559  13.748  0.0843 -0.1704  0.4506
    8MPD2    H7  128   4.044   2.523  13.789 -0.3895  0.0853  1.6587
    9TCq1    O1  129   1.155   0.745  11.041 -0.3359 -0.4401  0.6211
    9TCq1    C1  130   1.240   0.759  11.144  0.2612  0.2235 -0.4985
    9TCq1    O2  131   1.219   0.817  11.247  0.0507  0.4754 -0.2036
    9TCq1    C2  132   1.367   0.777  11.078 -0.6647  0.2216  0.5003
    9TCq1    C3  133   1.402   0.677  10.995  0.2331  0.4077 -0.5414
    9TCq1    C4  134   1.530   0.681  10.940 -0.5396 -0.0457  0.3267
    9TCq1    C5  135   1.603   0.798  10.957 -0.2368 -0.3127 -0.4655
    9TCq1    C6  136   1.560   0.903  11.032 -0.0741  0.0210 -0.3227
    9TCq1    C7  137   1.439   0.896  11.104 -0.5872 -0.4029 -0.0221
    9TCq1    C8  138   1.643   1.024  11.058 -0.1075 -0.5201 -0.3915
    9TCq1    O4  139   1.750   1.027  11.001  0.5398  0.4949  0.7795
    9TCq1    C9  140   1.574   0.568  10.856 -0.0912  0.4599 -0.5249
    9TCq1    O5  141   1.491   0.480  10.818  0.7067 -0.2647  0.1695
    9TCq1    O6  142   1.689   0.585  10.803 -0.1382  0.0552  0.4289
    9TCq1    H1  143   1.192   0.756  10.951 -1.0001  0.8498  0.5035
    9TCq1    H2  144   1.350   0.583  10.984 -0.0216  0.6836 -1.6664
    9TCq1    H3  145   1.707   0.806  10.929 -0.3344 -2.2747 -1.4430
    9TCq1    H4  146   1.393   0.980  11.153  0.2662 -0.7264  1.3447
   10MPD2     C  147   1.771   1.273  11.139  0.5217 -0.2320  0.2001
   10MPD2    C1  148   1.663   1.219  11.203 -0.1853 -0.3873  0.0212
   10MPD2    C2  149   1.614   1.277  11.323 -0.2692 -0.0952  0.0894
   10MPD2    C3  150   1.685   1.374  11.390  0.1633  0.1012  0.6802
   10MPD2    C4  151   1.782   1.442  11.318 -0.5861  0.2008  0.1280
   10MPD2    C5  152   1.818   1.393  11.197  0.1160  0.8277 -0.1748
   10MPD2     H  153   1.523   1.235  11.363 -0.2562 -0.8057 -0.6359
   10MPD2    H1  154   1.820   1.538  11.349  1.2901  0.0876 -1.8533
   10MPD2    H2  155   1.821   1.243  11.048  0.9415  0.6333  0.1400
   10MPD2    H3  156   1.898   1.443  11.144  0.7102  2.0264  1.8273
   10MPD2     N  157   1.643   1.421  11.522  0.6178 -0.0009  0.4812
   10MPD2    H5  158   1.680   1.507  11.559  0.3643  0.5684 -0.5981
   10MPD2    N1  159   1.594   1.107  11.155 -0.7183  0.3512  0.4036
   10MPD2    H7  160   1.507   1.082  11.202 -1.2005  0.6839 -0.3116
   11TCq1    O1  161   2.299   1.712  14.994  0.2023 -0.0278  0.2090
   11TCq1    C1  162   2.284   1.764  14.873  0.6406  0.8889 -0.0762
   11TCq1    O2  163   2.238   1.878  14.853 -0.7478 -0.1908  0.0277
   11TCq1    C2  164   2.271   1.651  14.782  0.3494 -0.6658 -0.3403
   11TCq1    C3  165   2.170   1.560  14.816 -0.4534  0.5498 -0.1401
   11TCq1    C4  166   2.123   1.477  14.716  0.3914 -1.0185  0.4959
   11TCq1    C5  167   2.179   1.484  14.593 -0.5336 -0.2105  0.0012
   11TCq1    C6  168   2.262   1.585  14.560 -0.1918  0.0840 -0.1457
   11TCq1    C7  169   2.305   1.674  14.652  0.0534 -0.0917  0.1102
   11TCq1    C8  170   2.314   1.591  14.425 -0.2001 -0.1875  0.4624
   11TCq1    O4  171   2.381   1.689  14.389  0.0515 -0.8104 -0.9465
   11TCq1    C9  172   2.023   1.379  14.745  0.8858  0.0287 -0.4144
   11TCq1    O5  173   1.994   1.282  14.662  0.2492  0.5556  0.1265
   11TCq1    O6  174   1.941   1.422  14.836 -0.2990  0.9056 -0.2870
   11TCq1    H1  175   2.345   1.626  14.981 -2.1349 -1.3244  0.4679
   11TCq1    H2  176   2.134   1.546  14.918  0.5279  0.8972  0.2598
   11TCq1    H3  177   2.129   1.425  14.516  2.9614 -2.9972 -0.1462
   11TCq1    H4  178   2.385   1.745  14.636 -0.2236 -0.1162 -1.4056
   12MPD2     C  179   2.457   1.488  14.170 -0.3553 -0.4829  0.2606
   12MPD2    C1  180   2.368   1.416  14.246 -0.2136 -0.0023 -0.5693
   12MPD2    C2  181   2.332   1.289  14.206  0.2801 -0.6423 -0.8077
   12MPD2    C3  182   2.385   1.232  14.086 -0.1164 -0.3738 -0.0294
   12MPD2    C4  183   2.476   1.308  14.011  0.4004  0.3544 -0.4991
   12MPD2    C5  184   2.517   1.432  14.061  0.0095  0.2824  0.1637
   12MPD2     H  185   2.255   1.238  14.263  0.3581  0.0991 -0.0399
   12MPD2    H1  186   2.519   1.266  13.921  3.1858 -0.5899  1.2755
   12MPD2    H2  187   2.470   1.593  14.195  0.4237 -0.2994 -0.9598
   12MPD2    H3  188   2.583   1.493  14.000  0.5929 -3.1539 -2.6451
   12MPD2     N  189   2.326   1.106  14.052  0.2135 -0.7244  0.1703
   12MPD2    H5  190   2.267   1.067  14.125  0.8020 -0.0538  1.0111
   12MPD2    N1  191   2.308   1.461  14.369  0.0582  0.0468 -0.0644
   12MPD2    H7  192   2.251   1.392  14.417  2.0023  0.2360  2.4996
   13TCq1    O1  193   2.172   1.223  11.282  0.1324  0.3823 -0.0647
   13TCq1    C1  194   2.228   1.165  11.176 -0.2316 -0.4571 -0.0239
   13TCq1    O2  195   2.316   1.216  11.110  0.3730  0.1607 -0.2663
   13TCq1    C2  196   2.179   1.038  11.139  0.6256 -0.0186  0.5551
   13TCq1    C3  197   2.268   0.939  11.103  0.5966 -0.1596 -0.1174
   13TCq1    C4  198   2.229   0.810  11.109  0.4584 -0.0465  0.2668
   13TCq1    C5  199   2.097   0.771  11.144  0.2796 -0.1111  0.7834
   13TCq1    C6  200   2.002   0.874  11.164  0.0162  0.0321 -1.1979
   13TCq1    C7  201   2.045   1.006  11.152 -0.5816  0.3891 -0.7639
   13TCq1    C8  202   1.886   0.837  11.250 -0.1472 -0.1522  0.6835
   13TCq1    O4  203   1.838   0.917  11.327  0.3578  0.7256  0.2135
   13TCq1    C9  204   2.317   0.708  11.062 -0.4171  0.0148  0.4384
   13TCq1    O5  205   2.281   0.588  11.078  0.1705  0.1429 -0.6422
   13TCq1    O6  206   2.426   0.742  11.004  0.5107 -0.2048  0.3526
   13TCq1    H1  207   2.110   1.176  11.342  0.2760  1.5917  1.0189
   13TCq1    H2  208   2.370   0.966  11.079  1.3965 -2.6294  0.5476
   13TCq1    H3  209   2.077   0.665  11.154 -0.1149  0.1636  2.8394
   13TCq1    H4  210   1.978   1.090  11.167  0.1807  1.0798 -1.1690
   14MPD2     C  211   1.727   0.507  11.232 -0.5402  0.0253 -0.3113
   14MPD2    C1  212   1.734   0.641  11.270 -0.9915 -0.2565  0.1360
   14MPD2    C2  213   1.640   0.701  11.349  0.3542 -0.8468  0.1728
   14MPD2    C3  214   1.529   0.627  11.388 -0.3784  0.1087 -0.4211
   14MPD2    C4  215   1.515   0.495  11.348  0.0009  0.0981 -0.5044
   14MPD2    C5  216   1.613   0.444  11.268 -0.4766  0.3771 -0.0923
   14MPD2     H  217   1.649   0.807  11.374  2.5659 -0.5303 -1.9745
   14MPD2    H1  218   1.451   0.422  11.396  0.1958  1.1688  1.4192
   14MPD2    H2  219   1.800   0.462  11.166 -0.3927 -2.0015  1.2372
   14MPD2    H3  220   1.616   0.336  11.257  2.0363  0.3778  0.5651
   14MPD2     N  221   1.427   0.691  11.468 -0.0052  0.0910  0.0247
   14MPD2    H5  222   1.447   0.788  11.490  1.6945 -0.1935 -0.2485
   14MPD2    N1  223   1.850   0.709  11.225  0.1494  0.2732 -0.2416
   14MPD2    H7  224   1.920   0.656  11.174  0.6915  1.8827 -1.1578
   15TCq1    O1  225   2.426   0.588   2.036  0.3392  0.3651  0.1936
   15TCq1    C1  226   2.410   0.521   1.925  1.1367  0.1396  0.8704
   15TCq1    O2  227   2.308   0.490   1.866 -0.3172  0.2211  0.5064
   15TCq1    C2  228   2.547   0.479   1.882  0.0330  0.0850  0.6875
   15TCq1    C3  229   2.629   0.449   1.988  0.0592 -0.3741 -0.1769
   15TCq1    C4  230   2.732   0.354   1.973 -0.4874 -0.1075 -0.3548
   15TCq1    C5  231   2.718   0.274   1.859 -0.1965 -0.3157 -0.2267
   15TCq1    C6  232   2.640   0.308   1.757 -0.0891  0.2885 -0.6045
   15TCq1    C7  233   2.550   0.410   1.764  0.1568  0.4877 -1.0427
   15TCq1    C8  234   2.653   0.247   1.623  0.1550 -0.0008 -0.7158
   15TCq1    O4  235   2.681   0.128   1.624 -0.1584 -0.1711  0.5638
   15TCq1    C9  236   2.822   0.319   2.075 -0.2569 -0.2634 -1.1423
   15TCq1    O5  237   2.821   0.381   2.180 -0.1630 -0.4198 -0.6011
   15TCq1    O6  238   2.890   0.219   2.054 -0.0358  0.2239  0.0603
   15TCq1    H1  239   2.520   0.611   2.024  0.6629  0.0064  2.0379
   15TCq1    H2  240   2.621   0.500   2.083  0.9587 -1.1620  0.3175
   15TCq1    H3  241   2.785   0.191   1.843 -0.3830 -0.8549  1.7594
   15TCq1    H4  242   2.482   0.423   1.681 -1.1019  0.8178  0.0453
   16MPD2     C  243   2.667   0.391   1.280  0.0441 -0.3372  0.3700
   16MPD2    C1  244   2.689   0.298   1.382  0.0836  0.1713 -0.5418
   16MPD2    C2  245   2.768   0.186   1.354 -0.5786  0.3324 -0.4621
   16MPD2    C3  246   2.821   0.169   1.232 -0.4315 -0.4829  0.1754
   16MPD2    C4  247   2.805   0.267   1.138  0.1298 -0.0034 -0.2679
   16MPD2    C5  248   2.727   0.376   1.166  0.2155 -0.2340 -0.8142
   16MPD2     H  249   2.795   0.112   1.428 -2.7400  0.1358  0.1005
   16MPD2    H1  250   2.837   0.268   1.034 -0.9572  0.1115 -0.5932
   16MPD2    H2  251   2.600   0.475   1.298  1.9244  1.1712  0.4272
   16MPD2    H3  252   2.711   0.442   1.082 -0.1592 -1.5313 -1.7650
   16MPD2     N  253   2.882   0.050   1.204  0.0343 -0.6459  0.2725
   16MPD2    H5  254   2.897   4.715   1.285 -3.4394 -2.0781 -0.1621
   16MPD2    N1  255   2.635   0.327   1.512 -0.2324 -0.2079 -0.4485
   16MPD2    H7  256   2.613   0.424   1.529 -0.3019 -0.3903  0.4917
   17TCq1    O1  257   1.290   0.544  10.668  0.3135 -0.0726  0.0165
   17TCq1    C1  258   1.165   0.533  10.688 -0.2711  0.3630 -0.2844
   17TCq1    O2  259   1.075   0.587  10.621  0.4867 -0.0026 -0.2677
   17TCq1    C2  260   1.128   0.456  10.807 -0.0969  0.2641 -0.9368
   17TCq1    C3  261   1.027   0.501  10.879  0.6954 -0.2458 -0.0652
   17TCq1    C4  262   1.023   0.453  11.011 -0.4779  0.0714 -0.3017
   17TCq1    C5  263   1.105   0.363  11.066 -0.2124  0.3955 -0.1403
   17TCq1    C6  264   1.217   0.327  10.989  1.1905  0.4758 -0.0319
   17TCq1    C7  265   1.220   0.369  10.860  0.0079  0.5620  0.4720
   17TCq1    C8  266   1.319   0.239  11.042  0.3202  0.5418  0.2605
   17TCq1    O4  267   1.295   0.172  11.143 -0.2560  0.4029  0.2123
   17TCq1    C9  268   0.914   0.501  11.095  0.6147 -0.4213  0.4634
   17TCq1    O5  269   0.833   0.580  11.038 -0.1472  0.7790 -0.4581
   17TCq1    O6  270   0.928   0.486  11.221  0.7572  0.2004  0.5341
   17TCq1    H1  271   1.354   0.503  10.731  0.3141 -0.7343 -0.4107
   17TCq1    H2  272   0.974   0.591  10.851  0.1430 -0.6964 -0.4611
   17TCq1    H3  273   1.089   0.318  11.163  1.3724  0.7525  0.2871
   17TCq1    H4  274   1.295   0.326  10.794 -2.6112  0.2688 -2.3309
   18MPD2     C  275   1.560   0.055  11.073  0.4674  0.5269 -0.7355
   18MPD2    C1  276   1.566   0.171  11.001  0.1781 -0.1964 -0.0940
   18MPD2    C2  277   1.687   0.213  10.949 -0.6089 -0.0580 -0.0233
   18MPD2    C3  278   1.804   0.142  10.948 -0.0656  0.2927 -0.2796
   18MPD2    C4  279   1.801   0.030  11.026 -0.0285 -0.2611 -0.1707
   18MPD2    C5  280   1.683   4.717  11.090 -0.2226  0.2651  0.9571
   18MPD2     H  281   1.689   0.295  10.878  0.3802 -0.4446 -0.4432
   18MPD2    H1  282   1.888   4.695  11.052  0.9547  1.3111  0.1232
   18MPD2    H2  283   1.478   0.012  11.130 -0.1355  1.2527 -1.0464
   18MPD2    H3  284   1.690   4.630  11.154  2.8890  1.2332  1.9482
   18MPD2     N  285   1.919   0.183  10.878 -0.2177 -0.1570 -0.2700
   18MPD2    H5  286   2.003   0.137  10.913 -0.8537 -0.4834  0.8220
   18MPD2    N1  287   1.454   0.256  10.990  0.1956 -0.2317 -0.1963
   18MPD2    H7  288   1.465   0.341  10.935  1.0947  0.7637  1.5355
   19TMC2    C1  289   3.273   1.253  14.210  0.8630  0.6331 -0.4922
   19TMC2    C2  290   3.209   1.322  14.108  0.2948 -0.1525  0.4509
   19TMC2    C3  291   3.101   1.268  14.037 -0.1051 -0.3800 -0.1078
   19TMC2    C4  292   3.236   1.127  14.247 -0.0989 -0.3817  0.1229
   19TMC2    C5  293   3.130   1.072  14.173 -0.2886 -0.1654 -0.2023
   19TMC2    C6  294   3.065   1.137  14.064 -1.4969 -0.6705  0.2332
   19TMC2     C  295   3.391   1.312  14.272  0.5703 -0.4869  0.2611
   19TMC2     O  296   3.420   1.426  14.242 -0.0942 -0.1506 -0.3581
   19TMC2     H  297   3.227   1.427  14.093 -0.7773  0.3074  2.5217
   19TMC2    H1  298   3.274   1.078  14.336  0.8199  1.1725  0.6001
   19TMC2    H2  299   2.971   1.103  14.022 -0.7857  0.8195 -2.5855
   19TMC2    C7  300   3.100   0.924  14.190 -0.0867 -0.2126 -0.3139
   19TMC2    C8  301   3.037   1.355  13.934  0.3315 -0.2074  0.3437
   19TMC2    O1  302   3.125   0.880  14.298  0.3435  0.2747  0.3406
   19TMC2    O2  303   3.069   1.471  13.910  0.4970  0.4108 -0.6414
   19TMC2    O5  304   2.982   1.280  13.839 -0.2181 -0.4195 -0.6122
   19TMC2    H5  305   2.994   1.182  13.845 -5.3951 -1.0834 -0.9281
   20MPD2     C  306   3.647   1.394  14.434  0.2141 -0.3734 -0.3922
   20MPD2    C1  307   3.594   1.266  14.416  0.1340 -0.7612  0.1148
   20MPD2    C2  308   3.662   1.160  14.482 -0.2940  0.2664  0.2323
   20MPD2    C3  309   3.767   1.191  14.561  0.2914 -0.2168 -0.2526
   20MPD2    C4  310   3.815   1.318  14.582  0.0518 -0.8007 -0.5881
   20MPD2    C5  311   3.751   1.418  14.519 -0.1047 -0.8333  0.0667
   20MPD2     H  312   3.627   1.057  14.478 -0.3628  0.2473  1.4143
   20MPD2    H1  313   3.896   1.333  14.653  0.0789 -1.5967 -0.4474
   20MPD2    H2  314   3.604   1.473  14.373  0.5890  0.0131 -0.1505
   20MPD2    H3  315   3.784   1.520  14.535 -2.2620 -0.1548  0.1915
   20MPD2     N  316   3.840   1.094  14.626 -0.3332 -0.0062  0.2718
   20MPD2    H5  317   3.918   1.127  14.682 -0.8787  0.3084  0.8466
   20MPD2    N1  318   3.485   1.226  14.338  0.0642 -0.5758  0.3758
   20MPD2    H7  319   3.469   1.126  14.350 -1.6953 -0.5037 -1.4160
   21MPD2     C  320   0.272   1.104  14.208  0.0127  0.0993 -0.0360
   21MPD2    C1  321   0.337   1.017  14.291  0.1754 -0.9123 -0.6105
   21MPD2    C2  322   0.295   1.006  14.424  0.2811  1.0349 -0.2463
   21MPD2    C3  323   0.182   1.070  14.471  0.1901 -0.2247 -0.4280
   21MPD2    C4  324   0.120   1.160  14.382  0.4232  0.1923 -0.0978
   21MPD2    C5  325   0.160   1.174  14.252  0.4216 -0.4886  0.2175
   21MPD2     H  326   0.352   0.946  14.494  1.1733 -1.1744 -2.8779
   21MPD2    H1  327   0.037   1.222  14.414  0.8808 -0.1600  1.7416
   21MPD2    H2  328   0.313   1.126  14.110  0.1740 -0.6199 -0.1284
   21MPD2    H3  329   0.100   1.239  14.189 -0.3789  0.0457  1.5138
   21MPD2     N  330   0.139   1.065  14.599  0.4777 -0.2646  0.7292
   21MPD2    H5  331   0.081   1.143  14.628  1.0596  0.4234  0.0462
   21MPD2    N1  332   0.453   0.942  14.253 -0.5053  0.4297  0.2630
   21MPD2    H7  333   0.519   0.905  14.321  2.0269  0.9988 -1.8703
   22TCq2    C1  334   0.183   0.966  14.687  0.4779  0.2438 -0.1284
   22TCq2    O2  335   0.226   0.859  14.651 -0.2928  0.5491 -0.1525
   22TCq2    C2  336   0.174   1.003  14.830  0.6210  0.2915  0.1861
   22TCq2    C3  337   0.198   0.904  14.919  0.3011 -0.4898  1.2735
   22TCq2    C4  338   0.262   0.931  15.039 -0.1526  0.0090  0.2902
   22TCq2    C5  339   0.308   1.060  15.063  0.1812  0.0481  0.3286
   22TCq2    C6  340   0.266   1.159  14.982  0.3025 -0.3651 -0.4924
   22TCq2    C7  341   0.205   1.132  14.863  0.2297  0.3731  0.1637
   22TCq2    C8  342   0.302   1.298  15.014 -0.1997 -0.2991 -0.3896
   22TCq2    O4  343   0.366   1.313  15.117  0.2685 -0.0666 -0.1285
   22TCq2    C9  344   0.294   0.818  15.124  0.2084 -0.1281  0.2220
   22TCq2    O5  345   0.267   0.707  15.069 -0.1488 -0.6388  0.3754
   22TCq2    O6  346   0.405   0.827  15.181  0.5147 -0.0879  0.1268
   22TCq2    H2  347   0.157   0.804  14.910  0.1287 -0.1724 -1.4894
   22TCq2    H3  348   0.339   1.080  15.165  1.3932  1.8850 -0.4017
   22TCq2    H4  349   0.190   1.211  14.791 -4.4291 -0.4310  0.2801
   23MPD2     C  350   2.663   1.759  14.742  0.2643  0.1890  0.2278
   23MPD2    C1  351   2.672   1.865  14.831  0.3519  0.7984  0.5606
   23MPD2    C2  352   2.637   1.984  14.784  0.3452  0.0052  0.2803
   23MPD2    C3  353   2.591   2.014  14.660  0.3081 -0.1131 -0.3152
   23MPD2    C4  354   2.597   1.912  14.568  0.0441  0.1186  0.9179
   23MPD2    C5  355   2.618   1.780  14.612  0.5811 -0.1825 -0.1571
   23MPD2     H  356   2.638   2.058  14.864 -2.6784  0.0122  0.3265
   23MPD2    H1  357   2.565   1.920  14.465  0.6959 -0.1060  0.6989
   23MPD2    H2  358   2.698   1.659  14.765 -1.8498  0.0567  2.9031
   23MPD2    H3  359   2.621   1.700  14.539 -0.3703 -0.8184  0.5063
   23MPD2     N  360   2.531   2.139  14.625  0.5943 -0.5789 -0.3108
   23MPD2    H5  361   2.505   2.146  14.527 -1.9299  2.0110  0.5452
   23MPD2    N1  362   2.733   1.855  14.964  0.4418  0.0961  0.0430
   23MPD2    H7  363   2.764   1.941  15.010  0.9118 -0.4137  0.6888
   24TCq2    C1  364   2.474   2.228  14.717 -0.5509 -0.0865  0.6360
   24TCq2    O2  365   2.462   2.218  14.838 -0.3099 -0.0871  0.4820
   24TCq2    C2  366   2.405   2.345  14.659 -0.2788 -0.3096  0.7322
   24TCq2    C3  367   2.438   2.399  14.534  0.0325 -0.7929  0.1660
   24TCq2    C4  368   2.421   2.533  14.509 -0.1738  0.0777  0.3592
   24TCq2    C5  369   2.336   2.605  14.585  0.1058 -0.5090  0.3196
   24TCq2    C6  370   2.302   2.552  14.703 -0.0686 -0.2339  0.3007
   24TCq2    C7  371   2.340   2.424  14.742 -0.2382 -0.0121  0.1629
   24TCq2    C8  372   2.222   2.634  14.797  0.1174  1.0987  0.7684
   24TCq2    O4  373   2.232   2.755  14.781  0.1278 -0.8276  0.1974
   24TCq2    C9  374   2.470   2.590  14.383 -0.2261 -0.0891 -0.3019
   24TCq2    O5  375   2.531   2.519  14.298  0.0286  0.4268 -0.2187
   24TCq2    O6  376   2.460   2.718  14.375 -0.3813 -0.5307 -0.3284
   24TCq2    H2  377   2.487   2.342  14.455 -0.0061  0.7021 -0.9294
   24TCq2    H3  378   2.312   2.709  14.565 -1.3414 -0.8405  0.3309
   24TCq2    H4  379   2.315   2.388  14.841  0.2130 -0.6651  0.0373
   25TMC2    C1  380   0.789   4.434  11.310 -1.0140  0.0807 -0.0462
   25TMC2    C2  381   0.863   4.320  11.288 -0.1938 -0.5999 -0.5000
   25TMC2    C3  382   0.909   4.247  11.400  0.4184  0.0179 -0.6782
   25TMC2    C4  383   0.752   4.470  11.435  0.4184 -0.6044 -0.6286
   25TMC2    C5  384   0.797   4.396  11.541 -0.1437  0.0089  0.1143
   25TMC2    C6  385   0.890   4.295  11.522  0.2426 -0.0361 -0.4894
   25TMC2     C  386   0.708   4.474  11.203  0.0590 -0.2206  0.7029
   25TMC2     O  387   0.703   4.590  11.163  0.3444  0.3737  0.2565
   25TMC2     H  388   0.887   4.291  11.187 -0.3824 -3.1883  0.2072
   25TMC2    H1  389   0.674   4.546  11.440 -0.5104 -1.5948  0.1474
   25TMC2    H2  390   0.922   4.231  11.603  0.6941  1.1618  0.2812
   25TMC2    C7  391   0.775   4.441  11.676 -0.2782 -0.3270 -0.8020
   25TMC2    C8  392   1.025   4.158  11.371  0.0842 -0.7686 -0.1815
   25TMC2    O1  393   0.827   4.374  11.767 -0.0744 -0.1058  0.1132
   25TMC2    O2  394   1.119   4.158  11.450 -0.1327  0.4303  0.2961
   25TMC2    O5  395   1.028   4.114  11.244 -0.4624 -0.0388 -0.5546
   25TMC2    H5  396   0.942   4.103  11.199 -0.4477 -1.7873 -0.1232
   26MPD2     C  397   0.459   4.294  10.780  0.2245 -0.7537  0.2417
   26MPD2    C1  398   0.471   4.193  10.874 -0.0307 -0.0588 -0.8379
   26MPD2    C2  399   0.536   4.223  10.994  0.1668 -0.1375  0.3766
   26MPD2    C3  400   0.587   4.353  11.022 -0.1884  0.1342  0.3096
   26MPD2    C4  401   0.562   4.450  10.927 -0.2833  0.0864  0.7881
   26MPD2    C5  402   0.504   4.419  10.810  0.1011 -0.3714 -0.4068
   26MPD2     H  403   0.531   4.153  11.076 -4.0035  2.1250  2.0676
   26MPD2    H1  404   0.596   4.551  10.950  0.4228  0.1220 -0.4157
   26MPD2    H2  405   0.408   4.278  10.685 -0.1190  2.7755 -0.1553
   26MPD2    H3  406   0.491   4.501  10.740 -2.2608  1.8818  2.6901
   26MPD2     N  407   0.657   4.363  11.144  0.5420  0.1227 -0.2799
   26MPD2    H5  408   0.660   4.280  11.202 -0.0637  1.1548  1.2361
   26MPD2    N1  409   0.424   4.060  10.853  0.0191 -0.0220 -0.4862
   26MPD2    H7  410   0.389   4.040  10.759  1.6384 -1.5489 -0.7541
   27TMC2    C1  411   0.043   1.858  12.181 -0.2095  0.0191  0.0138
   27TMC2    C2  412   0.004   1.914  12.060 -0.3451 -0.4510  1.0350
   27TMC2    C3  413   0.063   2.032  12.024 -0.0330  0.1804  0.2108
   27TMC2    C4  414   0.145   1.909  12.251  0.6530  0.6832  0.2014
   27TMC2    C5  415   0.207   2.028  12.210  0.9085 -0.1254  0.0031
   27TMC2    C6  416   0.170   2.083  12.095  0.0953 -0.5393  0.4162
   27TMC2     C  417   4.692   1.753  12.242 -0.4095  0.4571  0.8196
   27TMC2     O  418   0.030   1.692  12.324 -0.2845  0.2609  0.3405
   27TMC2     H  419   4.638   1.887  12.008  0.3830 -0.6008 -0.1613
   27TMC2    H1  420   0.168   1.866  12.347  0.0481  1.9441  0.9105
   27TMC2    H2  421   0.215   2.174  12.058  0.0892 -0.9455 -0.6083
   27TMC2    C7  422   0.181   2.119  12.315 -0.8037 -0.7432 -0.2739
   27TMC2    C8  423   0.029   2.094  11.899  0.0798  0.0098 -0.6186
   27TMC2    O1  424   0.215   2.099  12.430 -0.2379  0.6385  0.1549
   27TMC2    O2  425   4.647   2.093  11.844  0.2911  0.3264 -0.0474
   27TMC2    O5  426   0.139   2.059  11.831  0.1534 -0.6445  0.2194
   27TMC2    H5  427   0.222   2.047  11.882  0.8271 -1.4415 -1.0747
   28MPD2     C  428   4.291   1.548  12.468  0.1335 -1.1520  1.1147
   28MPD2    C1  429   4.259   1.675  12.439 -0.4194  0.3054  0.4201
   28MPD2    C2  430   4.342   1.754  12.363 -0.4994 -0.1376  0.6296
   28MPD2    C3  431   4.465   1.700  12.320 -0.2136 -0.3869 -0.0723
   28MPD2    C4  432   4.501   1.571  12.367 -0.7245  0.0240 -0.6928
   28MPD2    C5  433   4.407   1.491  12.428  0.1906 -0.3891 -0.2263
   28MPD2     H  434   4.316   1.854  12.329 -2.8430 -1.2152 -0.7273
   28MPD2    H1  435   4.598   1.524  12.354 -1.6104 -1.6984 -1.1628
   28MPD2    H2  436   4.229   1.496  12.540  2.0952 -3.5732  1.0732
   28MPD2    H3  437   4.430   1.390  12.460  0.6022  0.0792  0.9144
   28MPD2     N  438   4.557   1.776  12.240  0.0875 -0.1068 -0.9051
   28MPD2    H5  439   4.523   1.849  12.179  2.3478  0.8152 -1.0527
   28MPD2    N1  440   4.140   1.727  12.495  0.1600 -0.0590  0.7970
   28MPD2    H7  441   4.084   1.667  12.554 -1.2667  1.3490  0.8543
   29MPD2     C  442   3.924   3.753  13.744 -0.1189  0.8680 -0.0387
   29MPD2    C1  443   4.038   3.735  13.812 -0.1395  0.0228 -0.7399
   29MPD2    C2  444   4.090   3.839  13.886  0.2548  0.1026  0.8581
   29MPD2    C3  445   4.025   3.959  13.902 -0.0552  0.0689 -0.1275
   29MPD2    C4  446   3.902   3.969  13.842 -0.0025 -0.0509  0.4943
   29MPD2    C5  447   3.855   3.868  13.762  0.5476  0.4725  0.1040
   29MPD2     H  448   4.184   3.819  13.937  0.6217 -2.4706 -0.8499
   29MPD2    H1  449   3.855   4.067  13.839 -0.1127 -0.0735  1.3687
   29MPD2    H2  450   3.867   3.673  13.697  1.7083 -0.5812  0.1928
   29MPD2    H3  451   3.762   3.875  13.707 -0.7562  1.1451  2.3971
   29MPD2     N  452   4.083   4.068  13.971 -0.8910  0.5730  0.2589
   29MPD2    H5  453   4.021   4.148  13.980  0.2035  1.1841  2.3797
   29MPD2    N1  454   4.099   3.603  13.813 -0.2268  0.3713 -0.7973
   29MPD2    H7  455   4.177   3.592  13.878 -0.1947  1.6025 -0.6362
   30TCq2    C1  456   4.212   4.072  14.022  0.6503  0.2515  0.7268
   30TCq2    O2  457   4.293   3.980  14.027 -0.1181 -0.0058 -1.0215
   30TCq2    C2  458   4.239   4.190  14.105  0.9429 -0.0018  0.4822
   30TCq2    C3  459   4.334   4.162  14.204 -0.3147 -0.0172 -0.0487
   30TCq2    C4  460   4.325   4.215  14.320 -0.9596 -0.1822 -0.3206
   30TCq2    C5  461   4.232   4.308  14.350  0.1712 -0.5259  0.1770
   30TCq2    C6  462   4.147   4.342  14.249 -0.3078 -0.3513 -0.0181
   30TCq2    C7  463   4.149   4.293  14.120 -0.1064  0.3515 -0.7950
   30TCq2    C8  464   4.108   4.476  14.256  0.1059  0.2158  0.3144
   30TCq2    O4  465   4.027   4.509  14.170 -0.2140  0.4268  0.7816
   30TCq2    C9  466   4.420   4.187  14.425  0.4485  0.0606  0.6561
   30TCq2    O5  467   4.505   4.097  14.398  0.1297 -0.0741  0.3569
   30TCq2    O6  468   4.381   4.219  14.539  0.3636 -0.0384  0.1903
   30TCq2    H2  469   4.407   4.082  14.197  1.4025  1.4384  1.2380
   30TCq2    H3  470   4.229   4.347  14.451 -1.0684 -1.8292  0.6384
   30TCq2    H4  471   4.076   4.313  14.042  2.1726  1.4832 -2.6219
   31MPD2     C  472   2.623   3.696  14.559  0.8512  0.1669  0.0588
   31MPD2    C1  473   2.509   3.651  14.513 -0.3299 -0.0102 -0.1532
   31MPD2    C2  474   2.422   3.586  14.596 -0.8555  0.5055 -0.5328
   31MPD2    C3  475   2.459   3.556  14.731  0.2891 -0.0857 -0.7457
   31MPD2    C4  476   2.578   3.587  14.771 -0.2249  0.6259  0.5459
   31MPD2    C5  477   2.655   3.655  14.686  0.0378  0.1499 -0.4995
   31MPD2     H  478   2.325   3.566  14.553 -0.5469 -1.7132 -0.2132
   31MPD2    H1  479   2.617   3.578  14.872 -0.2616  0.4805  0.5479
   31MPD2    H2  480   2.697   3.755  14.506 -0.4375  1.3979 -0.3747
   31MPD2    H3  481   2.746   3.694  14.731 -1.5170  3.5226 -0.2923
   31MPD2     N  482   2.374   3.491  14.821  0.0719 -0.0904  0.3406
   31MPD2    H5  483   2.415   3.439  14.899  1.4652  1.2217  0.4867
   31MPD2    N1  484   2.485   3.669  14.372 -0.2945  0.0529 -0.6344
   31MPD2    H7  485   2.555   3.726  14.325 -0.1930 -1.3304 -2.1741
   32TCq2    C1  486   2.240   3.463  14.800  0.3343  0.5040 -0.2740
   32TCq2    O2  487   2.164   3.531  14.737 -0.1599 -0.5416  0.2946
   32TCq2    C2  488   2.189   3.362  14.890 -0.5385  0.7225  0.5878
   32TCq2    C3  489   2.064   3.321  14.855  0.3495  0.3550  0.4270
   32TCq2    C4  490   2.001   3.225  14.928 -0.6124  0.1696 -0.0825
   32TCq2    C5  491   2.063   3.159  15.027 -0.2973 -0.4623  0.3163
   32TCq2    C6  492   2.186   3.210  15.063 -0.3477  0.0485  0.1808
   32TCq2    C7  493   2.252   3.304  14.993 -0.0480  0.5117  0.2867
   32TCq2    C8  494   2.246   3.149  15.181  0.3090  0.5628  0.9601
   32TCq2    O4  495   2.167   3.082  15.249  0.3277 -0.1560 -0.0322
   32TCq2    C9  496   1.863   3.199  14.898  0.6343 -0.0584 -0.2605
   32TCq2    O5  497   1.816   3.103  14.960 -0.1649  0.0503  0.6810
   32TCq2    O6  498   1.810   3.259  14.804 -0.4201  0.4005  0.6747
   32TCq2    H2  499   2.005   3.389  14.795 -0.9552 -0.6775  0.5523
   32TCq2    H3  500   2.012   3.085  15.088  0.7258  0.8897  2.8006
   32TCq2    H4  501   2.334   3.351  15.047 -0.1837  0.5552  0.4530
   33MPD2     C  502   1.854   0.200  10.091 -0.4172  0.3320  0.4015
   33MPD2    C1  503   1.974   0.248  10.138 -0.1551  0.5492 -0.2939
   33MPD2    C2  504   2.062   0.312  10.045 -0.8729  0.3842 -0.1510
   33MPD2    C3  505   2.029   0.310   9.912  0.7160  0.3485  0.1980
   33MPD2    C4  506   1.908   0.258   9.871 -0.2415 -0.5930  0.2304
   33MPD2    C5  507   1.824   0.200   9.960 -1.0023  0.3564  0.3779
   33MPD2     H  508   2.156   0.353  10.080 -1.8106 -1.0052  3.9842
   33MPD2    H1  509   1.874   0.256   9.768  0.9268  0.6367 -0.1625
   33MPD2    H2  510   1.794   0.143  10.161 -1.2159  0.0338 -0.5335
   33MPD2    H3  511   1.742   0.140   9.924 -0.3810 -1.5974  2.1760
   33MPD2     N  512   2.114   0.348   9.806 -0.0520  0.2280 -0.2894
   33MPD2    H5  513   2.089   0.328   9.709  2.6555  0.0455 -0.9480
   33MPD2    N1  514   2.006   0.231  10.278 -0.9409  0.5816 -0.1886
   33MPD2    H7  515   1.935   0.185  10.334  0.1032  1.1940  1.6273
   34TCq2    C1  516   2.224   0.431   9.818  0.2310  0.6273 -0.3249
   34TCq2    O2  517   2.261   0.502   9.909  0.0939  0.3720  0.0270
   34TCq2    C2  518   2.260   0.470   9.676  0.2613 -1.1025  1.1542
   34TCq2    C3  519   2.210   0.400   9.569 -0.2092  0.0441 -0.3004
   34TCq2    C4  520   2.238   0.455   9.444  0.0214 -0.0007  0.3372
   34TCq2    C5  521   2.287   0.579   9.433  0.1165 -0.2116 -0.1969
   34TCq2    C6  522   2.330   0.644   9.544  0.0552 -0.2081 -0.7275
   34TCq2    C7  523   2.325   0.588   9.667 -0.2268  0.0613  0.3056
   34TCq2    C8  524   2.340   0.788   9.550 -0.1390  0.4052  0.0376
   34TCq2    O4  525   2.365   0.832   9.663  0.4694 -0.3521  0.0934
   34TCq2    C9  526   2.173   0.394   9.333  0.2014 -0.4196  0.4200
   34TCq2    O5  527   2.137   0.274   9.351  0.2879 -0.1646  0.8293
   34TCq2    O6  528   2.131   0.476   9.245 -0.5149  0.4032 -0.6141
   34TCq2    H2  529   2.158   0.306   9.584  0.3954 -0.3498 -0.6763
   34TCq2    H3  530   2.311   0.626   9.338  0.8145  1.4714  0.7988
   34TCq2    H4  531   2.366   0.637   9.755  2.0762 -2.2580  0.5143
   35MPD2     C  532   3.742   2.395  11.919 -0.3427 -0.0333  0.1451
   35MPD2    C1  533   3.753   2.254  11.925  0.3208  0.2252  0.3326
   35MPD2    C2  534   3.707   2.187  11.816 -0.9203  0.2948 -0.4561
   35MPD2    C3  535   3.632   2.248  11.713 -0.4456 -0.2189  0.4061
   35MPD2    C4  536   3.630   2.388  11.712 -0.6302 -0.8345  0.4209
   35MPD2    C5  537   3.683   2.464  11.812 -0.6487 -0.7406 -0.1224
   35MPD2     H  538   3.714   2.078  11.813  1.1970  0.4520 -1.3867
   35MPD2    H1  539   3.580   2.446  11.635 -1.6208 -0.9631  0.9740
   35MPD2    H2  540   3.787   2.455  11.998  0.0478 -3.5970  2.6153
   35MPD2    H3  541   3.683   2.572  11.817  2.0800 -0.7142 -0.6491
   35MPD2     N  542   3.573   2.171  11.609  0.0799  0.2830  0.6703
   35MPD2    H5  543   3.589   2.071  11.605  0.5347  0.4208 -1.2464
   35MPD2    N1  544   3.807   2.193  12.044  0.0947  0.3131 -0.7504
   35MPD2    H7  545   3.812   2.252  12.126 -1.8985 -1.0360  0.3309
   36TCq2    C1  546   3.519   2.229  11.494 -0.6105 -1.1657 -0.4371
   36TCq2    O2  547   3.523   2.341  11.449  0.4221 -0.1601 -0.0402
   36TCq2    C2  548   3.491   2.123  11.396  0.3450  0.1442  0.6208
   36TCq2    C3  549   3.461   2.172  11.277  0.0761 -0.4733  0.2613
   36TCq2    C4  550   3.398   2.084  11.189  0.0772 -0.8216  1.0864
   36TCq2    C5  551   3.371   1.954  11.221  0.1731 -0.6111 -0.1476
   36TCq2    C6  552   3.404   1.913  11.348  0.3845  0.0246 -0.2765
   36TCq2    C7  553   3.467   1.996  11.438 -0.0724 -0.3609 -0.4003
   36TCq2    C8  554   3.374   1.772  11.378 -0.5375 -0.7332  0.0112
   36TCq2    O4  555   3.297   1.723  11.295 -0.3759 -0.2301 -0.4932
   36TCq2    C9  556   3.357   2.134  11.056 -0.5470  0.5576 -0.4648
   36TCq2    O5  557   3.409   2.246  11.025 -0.2903 -0.4438  0.1091
   36TCq2    O6  558   3.308   2.046  10.980 -0.0594 -0.4270  0.6620
   36TCq2    H2  559   3.456   2.277  11.252  0.7771 -0.1589  1.4009
   36TCq2    H3  560   3.335   1.884  11.147 -0.0969 -0.0848 -0.5164
   36TCq2    H4  561   3.463   1.972  11.544 -1.7347  0.6364 -0.2422
   37TMC2    C1  562   1.017   2.066  11.667  0.4586  0.5831 -0.7224
   37TMC2    C2  563   1.011   2.071  11.535  0.1269 -0.9469 -0.5110
   37TMC2    C3  564   1.133   2.071  11.470  0.0950 -0.6827 -0.6055
   37TMC2    C4  565   1.132   2.040  11.743 -0.1418  0.0411 -0.3694
   37TMC2    C5  566   1.247   2.036  11.675 -0.1514 -0.3526  0.5010
   37TMC2    C6  567   1.249   2.061  11.539 -0.4253 -0.5833 -0.1013
   37TMC2     C  568   0.908   2.134  11.734 -0.3884  0.0483 -0.3391
   37TMC2     O  569   0.817   2.180  11.662 -0.3252  0.1549 -0.5394
   37TMC2     H  570   0.916   2.082  11.484  0.1760  0.8174 -0.2111
   37TMC2    H1  571   1.133   2.020  11.850 -1.0353 -0.2417 -0.4092
   37TMC2    H2  572   1.334   2.065  11.473 -0.0701 -1.7655  0.3007
   37TMC2    C7  573   1.365   2.067  11.757 -0.8779 -0.4949  1.2486
   37TMC2    C8  574   1.143   2.118  11.336 -0.6652 -0.1811  0.2864
   37TMC2    O1  575   1.353   2.096  11.875 -0.4237 -0.5488 -0.2926
   37TMC2    O2  576   1.185   2.229  11.307  0.4180  0.7574 -0.5986
   37TMC2    O5  577   1.047   2.055  11.262 -0.3382 -0.3447  0.5273
   37TMC2    H5  578   1.034   1.958  11.270  1.5121 -0.5776  0.7421
   38MPD2     C  579   0.634   2.265  12.159 -0.1576  0.0821  0.3151
   38MPD2    C1  580   0.768   2.243  12.192  0.1078 -0.0637  1.0185
   38MPD2    C2  581   0.860   2.200  12.095  0.9730  0.3110  0.4135
   38MPD2    C3  582   0.821   2.182  11.962  0.1572  0.9914  0.2102
   38MPD2    C4  583   0.690   2.200  11.928 -0.0492  0.4223  0.3798
   38MPD2    C5  584   0.601   2.239  12.026  0.4102 -0.1302 -0.2650
   38MPD2     H  585   0.966   2.192  12.118  1.3669 -1.7678 -2.0446
   38MPD2    H1  586   0.654   2.183  11.827 -0.8760  0.8037  0.6118
   38MPD2    H2  587   0.554   2.308  12.220 -0.1534 -1.3347  1.3289
   38MPD2    H3  588   0.498   2.252  11.993  0.6185 -2.1553 -1.7252
   38MPD2     N  589   0.921   2.147  11.868  0.5263  0.6156  0.4190
   38MPD2    H5  590   1.012   2.129  11.910  0.1575  0.3279  1.0875
   38MPD2    N1  591   0.815   2.265  12.319 -0.1157 -0.2240 -0.3912
   38MPD2    H7  592   0.916   2.264  12.335 -0.2112  0.6894  0.2984
   39MPD2     C  593   3.672   3.781   1.297 -0.0114  0.1883 -0.8487
   39MPD2    C1  594   3.568   3.800   1.376  0.1816  0.4319 -0.2752
   39MPD2    C2  595   3.464   3.886   1.340 -0.1279  0.1085  0.2516
   39MPD2    C3  596   3.487   3.966   1.223  0.1259 -0.3860  0.4255
   39MPD2    C4  597   3.602   3.950   1.150  0.3491 -0.0419  0.3052
   39MPD2    C5  598   3.693   3.858   1.191  0.6768 -0.0554  0.2809
   39MPD2     H  599   3.376   3.898   1.402 -1.2910  2.7931 -1.9142
   39MPD2    H1  600   3.615   4.009   1.061 -1.0119  0.3787  0.3914
   39MPD2    H2  601   3.749   3.712   1.330 -0.1155 -0.2375 -1.5202
   39MPD2    H3  602   3.794   3.840   1.154 -0.5781  0.1008 -3.1805
   39MPD2     N  603   3.390   4.056   1.161  0.3335  0.2874  0.3469
   39MPD2    H5  604   3.408   4.093   1.069  0.5385 -3.0808 -0.9392
   39MPD2    N1  605   3.557   3.712   1.492  0.3217 -0.2903  0.7493
   39MPD2    H7  606   3.634   3.649   1.516  0.6102 -0.2151  0.0271
   40TCq2    C1  607   3.445   3.690   1.569  0.2432  0.0904 -0.5259
   40TCq2    O2  608   3.330   3.725   1.555 -0.1756 -0.2519 -0.1982
   40TCq2    C2  609   3.471   3.603   1.687 -0.0983 -0.3407  0.2310
   40TCq2    C3  610   3.359   3.552   1.751 -0.8672 -0.1418  0.0010
   40TCq2    C4  611   3.374   3.492   1.871  0.4495 -0.0121 -0.4694
   40TCq2    C5  612   3.493   3.482   1.938 -0.2496 -0.3862  0.0780
   40TCq2    C6  613   3.601   3.523   1.866  0.2891  0.5534 -0.1858
   40TCq2    C7  614   3.594   3.594   1.747  0.5664  1.1851 -0.1120
   40TCq2    C8  615   3.724   3.531   1.933  0.1140  0.4413  0.3283
   40TCq2    O4  616   3.764   3.427   1.991 -0.2163  0.7990  0.5852
   40TCq2    C9  617   3.262   3.424   1.924  0.5736 -0.0725  0.2126
   40TCq2    O5  618   3.173   3.394   1.843 -0.4164  0.4704  0.6713
   40TCq2    O6  619   3.278   3.371   2.037 -0.2166 -0.3219  0.5178
   40TCq2    H2  620   3.265   3.555   1.697  0.4037  0.9644 -2.1792
   40TCq2    H3  621   3.498   3.427   2.031 -0.9244 -0.1497  0.2521
   40TCq2    H4  622   3.686   3.613   1.691  1.4340  0.3087  1.0276
   41TMC2    C1  623   3.184   2.333  13.666 -0.0565 -0.3293 -0.8291
   41TMC2    C2  624   3.089   2.426  13.706  0.5934  0.1274 -0.2761
   41TMC2    C3  625   2.998   2.454  13.604 -0.0041  0.1771  0.4062
   41TMC2    C4  626   3.205   2.289  13.532 -0.2882 -0.1595  0.8033
   41TMC2    C5  627   3.116   2.322  13.440 -0.3959 -0.1037  0.4322
   41TMC2    C6  628   3.024   2.422  13.472 -0.2981 -0.2118  0.0803
   41TMC2     C  629   3.254   2.267  13.782  0.5587  0.4307 -0.8012
   41TMC2     O  630   3.347   2.190  13.763  0.3524  0.0392 -0.3321
   41TMC2     H  631   3.072   2.467  13.804 -0.2911 -1.2969  0.1622
   41TMC2    H1  632   3.283   2.223  13.496 -0.0035  0.7815 -0.3022
   41TMC2    H2  633   2.965   2.452  13.387  0.4791 -0.3084 -0.4955
   41TMC2    C7  634   3.117   2.257  13.305 -0.7261  0.2603 -0.9026
   41TMC2    C8  635   2.874   2.533  13.637 -0.0648 -0.4029 -0.6160
   41TMC2    O1  636   3.169   2.146  13.311 -0.0715 -0.4214  0.2212
   41TMC2    O2  637   2.836   2.541  13.756  0.1060 -0.2623  0.0955
   41TMC2    O5  638   2.790   2.499  13.533 -0.4515 -0.0494  0.5309
   41TMC2    H5  639   2.823   2.503  13.441 -0.0618  2.6247  0.8163
   42MPD2     C  640   3.336   2.139  14.047 -0.2139 -0.1179 -0.9289
   42MPD2    C1  641   3.232   2.228  14.028 -0.0681  0.2787 -1.2498
   42MPD2    C2  642   3.137   2.234  14.132 -0.5642  0.1602 -0.5085
   42MPD2    C3  643   3.154   2.178  14.261 -0.1038 -0.0064  0.8996
   42MPD2    C4  644   3.270   2.101  14.275 -0.3762 -0.0005 -0.1664
   42MPD2    C5  645   3.352   2.072  14.167  0.1837 -0.4993 -0.4472
   42MPD2     H  646   3.045   2.287  14.108 -1.5527 -1.6481 -0.6672
   42MPD2    H1  647   3.291   2.049  14.368 -0.3346 -1.1414 -0.8191
   42MPD2    H2  648   3.421   2.134  13.979  0.4800 -1.1826  0.0045
   42MPD2    H3  649   3.440   2.010  14.173 -0.5685 -1.6349 -1.1924
   42MPD2     N  650   3.069   2.187  14.371 -0.2032 -0.1582 -0.0018
   42MPD2    H5  651   3.100   2.142  14.457 -0.1994  1.6803  0.9656
   42MPD2    N1  652   3.205   2.300  13.904  0.2107 -0.5744  1.2027
   42MPD2    H7  653   3.124   2.362  13.908  0.9400  0.3668  1.1692
   43MPD2     C  654   4.261   0.469   0.761 -0.4887  0.0680 -0.1001
   43MPD2    C1  655   4.314   0.360   0.830  0.7588  0.7439  0.6327
   43MPD2    C2  656   4.328   0.372   0.962  0.1394 -0.4431  0.0919
   43MPD2    C3  657   4.291   0.488   1.029 -0.3155  0.2239  0.0688
   43MPD2    C4  658   4.248   0.595   0.952 -0.4500  0.6321  0.3787
   43MPD2    C5  659   4.241   0.589   0.816  0.1162 -0.5830 -0.1203
   43MPD2     H  660   4.348   0.279   1.015  3.5198  1.2432  1.7996
   43MPD2    H1  661   4.226   0.693   0.993 -0.4946  0.6938  0.2055
   43MPD2    H2  662   4.247   0.467   0.654 -0.2379 -1.5324 -0.0927
   43MPD2    H3  663   4.194   0.669   0.761 -1.8996  0.2766  2.8374
   43MPD2     N  664   4.303   0.520   1.167 -0.4374  0.1253  0.2603
   43MPD2    H5  665   4.283   0.615   1.197 -3.9749 -0.8160  0.9224
   43MPD2    N1  666   4.337   0.238   0.770  0.9713 -0.7361 -0.0918
   43MPD2    H7  667   4.363   0.167   0.837  1.4907 -1.9624 -1.6084
   44TCq2    C1  668   4.358   0.851   1.517 -0.0706  0.0057  0.1882
   44TCq2    O2  669   4.474   0.886   1.488 -0.4078  0.2000 -0.0598
   44TCq2    C2  670   4.336   0.705   1.510  0.1311 -0.0035 -0.1936
   44TCq2    C3  671   4.297   0.636   1.622  0.4027 -0.4852  0.0965
   44TCq2    C4  672   4.286   0.502   1.614 -0.4723 -0.0187 -0.0305
   44TCq2    C5  673   4.305   0.433   1.494  0.2102  1.2002 -0.1770
   44TCq2    C6  674   4.345   0.501   1.386  0.4280 -0.3828 -0.0190
   44TCq2    C7  675   4.361   0.641   1.391  0.6146 -0.6650 -0.1111
   44TCq2    C8  676   4.348   0.438   1.258  0.6277  0.4046 -0.0987
   44TCq2    O4  677   4.390   0.324   1.246 -0.5547 -0.6432  0.2789
   44TCq2    C9  678   4.239   0.436   1.727  0.1312  0.1109  0.4125
   44TCq2    O5  679   4.186   0.320   1.712 -0.1150 -0.1171 -0.2645
   44TCq2    O6  680   4.223   0.508   1.828 -0.0777 -0.0498 -0.2646
   44TCq2    H2  681   4.285   0.692   1.714  1.5744 -0.3813  0.1821
   44TCq2    H3  682   4.274   0.329   1.483 -0.4254  1.4150 -0.3833
   44TCq2    H4  683   4.390   0.697   1.303 -1.6562 -1.7605 -1.5756
   45TMC2    C1  684   0.583   1.839   9.469 -0.2871  0.1319  0.4595
   45TMC2    C2  685   0.691   1.785   9.405 -0.0953 -0.5282 -0.7253
   45TMC2    C3  686   0.814   1.842   9.416  0.0294 -0.2372  0.0786
   45TMC2    C4  687   0.594   1.954   9.547 -0.0648 -0.4925  0.3447
   45TMC2    C5  688   0.721   1.995   9.573 -0.1166 -1.0143  1.0435
   45TMC2    C6  689   0.830   1.944   9.505  0.3455  0.1490  0.7076
   45TMC2     C  690   0.455   1.767   9.462  0.5864 -0.8273 -0.2882
   45TMC2     O  691   0.460   1.655   9.421  0.0182 -0.0344 -0.3234
   45TMC2     H  692   0.681   1.698   9.340  2.0803 -0.2562 -1.4076
   45TMC2    H1  693   0.507   2.002   9.591  0.0468  0.5018 -0.5281
   45TMC2    H2  694   0.931   1.970   9.535  1.2999  1.1699 -3.3132
   45TMC2    C7  695   0.734   2.125   9.639 -0.6917  0.3884 -0.0447
   45TMC2    C8  696   0.924   1.761   9.371 -0.5113 -0.3790 -0.1787
   45TMC2    O1  697   0.635   2.149   9.705 -0.3609  0.0748 -0.1975
   45TMC2    O2  698   0.911   1.636   9.366 -0.3010 -0.4383  0.1106
   45TMC2    O5  699   1.043   1.825   9.377  0.1548  0.2395  0.4202
   45TMC2    H5  700   1.032   1.921   9.357  4.1997  0.4161 -1.0898
   46MPD2     C  701   0.182   1.646   9.463  0.0006 -0.1198 -0.5153
   46MPD2    C1  702   0.213   1.783   9.464 -0.3115 -0.0618 -0.3447
   46MPD2    C2  703   0.107   1.875   9.444 -0.3208 -0.3487 -0.1900
   46MPD2    C3  704   4.703   1.837   9.423  0.6805  0.4690 -0.4600
   46MPD2    C4  705   4.673   1.700   9.426  0.5085  0.0392 -0.4911
   46MPD2    C5  706   0.051   1.610   9.439  0.1024  0.9210 -0.0900
   46MPD2     H  707   0.125   1.981   9.459 -4.1238  0.1991  0.5211
   46MPD2    H1  708   4.571   1.664   9.417  0.2092  0.5984  0.6243
   46MPD2    H2  709   0.248   1.564   9.488 -0.2160  0.0561  0.6285
   46MPD2    H3  710   0.023   1.506   9.437 -2.9772  1.7902 -2.4920
   46MPD2     N  711   4.602   1.937   9.429 -0.1254  0.0262 -0.1639
   46MPD2    H5  712   4.640   2.022   9.471  0.9512 -0.5098 -0.0508
   46MPD2    N1  713   0.343   1.842   9.483  0.1749  0.1245  0.3279
   46MPD2    H7  714   0.351   1.943   9.486 -1.1885  0.2817 -1.4227
   47TMC2    C1  715   1.725   2.845   9.604  0.1659  0.3821  0.4522
   47TMC2    C2  716   1.745   2.716   9.559  0.1300 -0.2716  0.1073
   47TMC2    C3  717   1.636   2.636   9.545  0.5036 -0.1945 -0.4778
   47TMC2    C4  718   1.597   2.894   9.616  0.0052  0.6749 -0.8437
   47TMC2    C5  719   1.492   2.811   9.602  0.3610 -0.4068 -0.5982
   47TMC2    C6  720   1.512   2.670   9.579 -0.1095  0.3609  0.0365
   47TMC2     C  721   1.839   2.926   9.640 -0.1464 -0.2151 -0.7650
   47TMC2     O  722   1.816   3.044   9.652 -0.4309 -0.1648  0.6806
   47TMC2     H  723   1.844   2.679   9.533  1.5104  1.8688  2.2755
   47TMC2    H1  724   1.584   2.991   9.662  2.1959  0.0015  1.2011
   47TMC2    H2  725   1.430   2.601   9.598 -0.3749  0.9282  0.9432
   47TMC2    C7  726   1.366   2.851   9.655 -0.2138  0.5120 -0.8758
   47TMC2    C8  727   1.675   2.488   9.546 -0.2598  0.4202  0.3311
   47TMC2    O1  728   1.281   2.764   9.668  0.0559  0.3830 -0.1285
   47TMC2    O2  729   1.781   2.466   9.607 -0.4567  0.3473 -0.6693
   47TMC2    O5  730   1.576   2.397   9.521 -0.0380  0.0931  0.0588
   47TMC2    H5  731   1.498   2.428   9.471  0.7461  2.1428  0.1333
   48MPD2     C  732   2.095   3.042   9.755  0.1974  0.3641 -1.0057
   48MPD2    C1  733   2.084   2.912   9.710  0.2780  0.4205  0.1113
   48MPD2    C2  734   2.198   2.830   9.694 -0.7898 -0.1591 -0.2377
   48MPD2    C3  735   2.321   2.875   9.733 -0.1133  0.8662 -0.4445
   48MPD2    C4  736   2.329   3.006   9.774 -0.2388  0.2090  0.0870
   48MPD2    C5  737   2.220   3.088   9.790  0.0823 -0.2462 -0.9269
   48MPD2     H  738   2.178   2.728   9.664  1.2597 -0.6616  0.0780
   48MPD2    H1  739   2.421   3.060   9.794 -0.7516  1.0741  0.1237
   48MPD2    H2  740   2.011   3.110   9.747  0.4670  1.2299  3.4688
   48MPD2    H3  741   2.221   3.193   9.820 -0.3657 -0.6619  0.5540
   48MPD2     N  742   2.435   2.788   9.720 -0.4517 -0.2604  0.4385
   48MPD2    H5  743   2.416   2.691   9.696  0.8516 -1.0363  2.5468
   48MPD2    N1  744   1.960   2.855   9.663  0.0108  0.5136  0.2881
   48MPD2    H7  745   1.945   2.755   9.656  0.9326  0.4411 -0.5946
   49MPD2     C  746   1.374   4.648  10.571 -0.1226  0.0957 -0.0258
   49MPD2    C1  747   1.240   4.670  10.582 -0.8265 -0.0210 -0.5721
   49MPD2    C2  748   1.179   4.692  10.709  0.8027  0.1654  0.7755
   49MPD2    C3  749   1.250   4.680  10.823 -0.1377 -0.9222  0.1223
   49MPD2    C4  750   1.388   4.660  10.813 -0.3489 -0.4693  0.4823
   49MPD2    C5  751   1.445   4.656  10.686  0.8788 -0.5067 -0.3992
   49MPD2     H  752   1.072   4.708  10.712  0.8653  0.3357  1.8301
   49MPD2    H1  753   1.457   4.630  10.892  0.4921  0.5915  0.1487
   49MPD2    H2  754   1.422   4.622  10.477 -0.3944  1.0109 -0.4200
   49MPD2    H3  755   1.548   4.625  10.676  1.4451  0.6312  1.9718
   49MPD2     N  756   1.193   4.678  10.956  0.4293 -0.2176 -0.2388
   49MPD2    H5  757   1.252   4.655  11.035  0.2950  0.7099  0.1275
   49MPD2    N1  758   1.163   4.662  10.461  0.0434 -0.0467 -0.2343
   49MPD2    H7  759   1.064   4.684  10.468 -0.0759 -1.2064  1.8230
   50TCq2    C1  760   1.205   4.658  10.333 -0.2362  0.1308 -0.9504
   50TCq2    O2  761   1.320   4.664  10.291 -0.3974 -0.5246 -0.6012
   50TCq2    C2  762   1.103   4.703  10.241 -0.2314  0.6298 -0.5764
   50TCq2    C3  763   1.152   0.034  10.126 -0.6102  0.4224 -0.1492
   50TCq2    C4  764   1.067   0.048  10.024 -0.3855  0.7419  0.3123
   50TCq2    C5  765   0.931   0.017  10.040 -0.5036  0.5936  0.6357
   50TCq2    C6  766   0.893   4.666  10.148  0.4177 -0.3966 -0.4145
   50TCq2    C7  767   0.982   4.643  10.254 -0.7299  0.6413 -0.4051
   50TCq2    C8  768   0.756   4.607  10.144  0.2627  0.0654 -0.4704
   50TCq2    O4  769   0.722   4.545  10.241 -0.0988  0.4944  0.1476
   50TCq2    C9  770   1.113   0.106   9.898 -0.5715  0.1654 -0.3366
   50TCq2    O5  771   1.027   0.149   9.812 -0.3068  0.1069  0.1424
   50TCq2    O6  772   1.238   0.137   9.899 -0.1920 -0.5182 -0.0571
   50TCq2    H2  773   1.259   0.049  10.118 -0.3469 -2.2027 -1.5363
   50TCq2    H3  774   0.856   0.037   9.964 -0.3246 -0.3162  0.2242
   50TCq2    H4  775   0.954   4.579  10.337 -0.1589  0.2181 -0.5397
   51MPD2     C  776   1.422   4.281   1.429 -0.6400  0.4218 -0.4692
   51MPD2    C1  777   1.302   4.220   1.443  0.5480 -0.0652  0.6840
   51MPD2    C2  778   1.191   4.299   1.478 -0.1268 -0.0799  0.0502
   51MPD2    C3  779   1.202   4.429   1.508 -0.2880 -0.3312  0.0901
   51MPD2    C4  780   1.333   4.478   1.514  0.2448 -0.8478  0.0777
   51MPD2    C5  781   1.437   4.403   1.475  0.7085 -0.7302 -0.2851
   51MPD2     H  782   1.093   4.254   1.466 -0.2834  0.1006  0.6861
   51MPD2    H1  783   1.356   4.574   1.559 -1.4933 -1.2750  1.8733
   51MPD2    H2  784   1.513   4.223   1.416 -0.1042  1.6493 -2.2465
   51MPD2    H3  785   1.537   4.446   1.470  0.4430 -0.0363  0.5046
   51MPD2     N  786   1.082   4.512   1.522 -0.0394 -0.4187 -0.2577
   51MPD2    H5  787   1.089   4.613   1.528  3.1372 -0.5183 -2.3944
   51MPD2    N1  788   1.280   4.081   1.411 -0.1121  0.2179  0.1907
   51MPD2    H7  789   1.186   4.044   1.418  1.2499 -3.5341 -0.9830
   52TCq2    C1  790   0.954   4.469   1.545 -0.0822  0.8724 -0.2770
   52TCq2    O2  791   0.904   4.357   1.570  0.0859 -0.6232 -1.1491
   52TCq2    C2  792   0.861   4.578   1.556  0.4133 -0.1170  0.4819
   52TCq2    C3  793   0.750   4.556   1.632  0.0977  0.4704  0.2789
   52TCq2    C4  794   0.664   4.663   1.650  0.4440  0.8700 -0.3920
   52TCq2    C5  795   0.696   0.063   1.598 -0.7246 -0.2097  0.8808
   52TCq2    C6  796   0.809   0.076   1.519 -0.4949  0.0983 -0.4536
   52TCq2    C7  797   0.897   4.699   1.499  0.5425 -0.0015  0.1736
   52TCq2    C8  798   0.859   0.210   1.481  0.0222 -0.2911  0.3813
   52TCq2    O4  799   0.979   0.218   1.466  0.1547 -0.6669 -0.0474
   52TCq2    C9  800   0.556   4.644   1.745  0.3621  0.8966  0.7821
   52TCq2    O5  801   0.513   0.030   1.798 -0.4811 -0.2219  0.3593
   52TCq2    O6  802   0.508   4.529   1.751 -0.2034 -0.4296 -0.1326
   52TCq2    H2  803   0.734   4.463   1.686 -1.0895 -0.1165 -1.0850
   52TCq2    H3  804   0.630   0.145   1.625 -0.8173  0.6714 -2.0412
   52TCq2    H4  805   0.978   4.719   1.430  0.2919 -2.0095 -0.7127
   53TMC2    C1  806   1.865   2.467  12.119  0.7804 -0.2640 -0.7330
   53TMC2    C2  807   1.957   2.463  12.216  0.3255  0.4105  0.1114
   53TMC2    C3  808   1.942   2.513  12.338 -0.0379 -0.0143 -0.2400
   53TMC2    C4  809   1.752   2.531  12.137  0.3077  0.2575 -0.6590
   53TMC2    C5  810   1.727   2.573  12.269  0.0972 -0.0504 -0.4568
   53TMC2    C6  811   1.818   2.569  12.370  0.5207 -0.0166  0.1938
   53TMC2     C  812   1.880   2.365  12.016 -0.0738 -0.9150  0.8082
   53TMC2     O  813   1.988   2.312  11.998  0.1434  0.0863 -0.1497
   53TMC2     H  814   2.048   2.418  12.179 -0.2617  1.0895 -2.1643
   53TMC2    H1  815   1.685   2.541  12.053 -3.2531  1.0585  2.3019
   53TMC2    H2  816   1.799   2.616  12.466  0.1567 -2.5872  1.3785
   53TMC2    C7  817   1.591   2.605  12.295 -0.0572 -0.3252 -0.1403
   53TMC2    C8  818   2.047   2.535  12.435 -1.0047  0.2755 -0.4496
   53TMC2    O1  819   1.517   2.574  12.205 -0.1203 -0.4263  0.0916
   53TMC2    O2  820   2.040   2.597  12.538 -0.9133 -0.2892  0.3552
   53TMC2    O5  821   2.161   2.494  12.378 -0.4319  0.4802  0.0546
   53TMC2    H5  822   2.154   2.458  12.287 -2.1523 -0.5721  0.6058
   54MPD2     C  823   1.855   2.184  11.780 -0.6998  0.1865 -0.2022
   54MPD2    C1  824   1.749   2.242  11.850 -0.1216 -0.1913 -0.2280
   54MPD2    C2  825   1.623   2.198  11.826  0.4572  0.3183  0.3385
   54MPD2    C3  826   1.603   2.113  11.719  0.6535 -0.4161  0.0185
   54MPD2    C4  827   1.704   2.076  11.633  0.1557  0.0384  0.2339
   54MPD2    C5  828   1.836   2.096  11.672  0.0050  0.4371  0.7184
   54MPD2     H  829   1.536   2.231  11.883  1.8588  2.0232  1.5028
   54MPD2    H1  830   1.687   2.008  11.550 -0.9835 -0.4378  0.8706
   54MPD2    H2  831   1.960   2.201  11.801 -0.6690 -0.0335 -0.1821
   54MPD2    H3  832   1.914   2.048  11.614 -1.6273 -1.3721  0.0023
   54MPD2     N  833   1.478   2.067  11.684  0.1895  0.2051 -0.0110
   54MPD2    H5  834   1.468   2.019  11.595 -0.4738 -1.1058  0.7724
   54MPD2    N1  835   1.757   2.333  11.958  0.0821  0.0783  0.3165
   54MPD2    H7  836   1.666   2.361  11.995 -0.0936  0.6569 -0.5559
   55MPD2     C  837   2.065   0.305  17.557 -0.0380 -0.2426 -0.9639
   55MPD2    C1  838   1.995   0.221  17.634 -0.0191 -0.9073  0.1692
   55MPD2    C2  839   1.878   0.265  17.697 -0.4605 -0.4044 -0.5303
   55MPD2    C3  840   1.831   0.395  17.677  0.2063 -0.0098  0.1981
   55MPD2    C4  841   1.908   0.481  17.596  0.5047  0.5372  0.1702
   55MPD2    C5  842   2.023   0.432  17.532  0.4171  0.9360  0.6311
   55MPD2     H  843   1.809   0.195   0.044 -2.3398  0.4772 -1.9781
   55MPD2    H1  844   1.884   0.582  17.567  0.6153  0.9400  1.4584
   55MPD2    H2  845   2.158   0.269  17.514  1.6367 -0.4596  2.8388
   55MPD2    H3  846   2.079   0.489  17.459  0.3056  1.8421  1.2519
   55MPD2     N  847   1.712   0.435   0.038 -0.3186  0.2903 -0.5001
   55MPD2    H5  848   1.660   0.357   0.078 -0.6928 -0.0682 -1.6990
   55MPD2    N1  849   2.051   0.091  17.663 -0.4341 -0.4602 -0.6045
   55MPD2    H7  850   2.129   0.049  17.614 -0.8408 -3.1194  1.0276
   56TCq2    C1  851   2.011   0.028   0.078 -0.2867 -0.4811  0.6883
   56TCq2    O2  852   1.935   0.062   0.166 -0.5258  0.3656  0.4995
   56TCq2    C2  853   2.094   4.636   0.099  0.1881  0.1114 -0.4112
   56TCq2    C3  854   2.180   4.600   0.002 -0.1008  0.6594 -0.0660
   56TCq2    C4  855   2.301   4.544   0.028  0.3262 -0.2001  0.0523
   56TCq2    C5  856   2.343   4.531   0.158 -0.1846  0.1092 -0.0948
   56TCq2    C6  857   2.257   4.566   0.256  0.1814 -0.6067  0.3141
   56TCq2    C7  858   2.134   4.609   0.226 -0.5647  0.5363 -0.6434
   56TCq2    C8  859   2.284   4.554   0.390 -0.8045  0.4968  0.7011
   56TCq2    O4  860   2.372   4.479   0.423  0.1751  0.5727 -1.0223
   56TCq2    C9  861   2.393   4.524  17.624  0.0884  0.4381 -0.5056
   56TCq2    O5  862   2.360   4.540  17.503  0.1648  0.8909 -0.9606
   56TCq2    O6  863   2.509   4.490  17.651  0.1886  0.1639 -0.1409
   56TCq2    H2  864   2.150   4.597  17.598 -0.4564 -4.1852  0.1764
   56TCq2    H3  865   2.444   4.503   0.187  1.1807  3.9722 -1.0945
   56TCq2    H4  866   2.063   4.628   0.305 -0.8366 -2.3607 -0.1846
   57TMC2    C1  867   1.626   1.293  13.729  0.0730 -0.8079  0.6484
   57TMC2    C2  868   1.719   1.286  13.827  0.3947 -0.6129 -0.5082
   57TMC2    C3  869   1.842   1.227  13.814  0.0030 -0.1139  0.4010
   57TMC2    C4  870   1.666   1.249  13.604 -0.0660  0.6850 -0.3185
   57TMC2    C5  871   1.790   1.199  13.590 -0.0359 -0.2484  0.8926
   57TMC2    C6  872   1.879   1.179  13.695 -0.1472 -0.5029  0.4598
   57TMC2     C  873   1.485   1.280  13.765  0.4071 -0.8384  0.1937
   57TMC2     O  874   1.462   1.339  13.871 -0.0430 -0.5814 -0.2365
   57TMC2     H  875   1.685   1.308  13.928 -1.0536 -0.8629 -0.9555
   57TMC2    H1  876   1.606   1.272  13.516 -1.3093 -0.1669  0.3079
   57TMC2    H2  877   1.976   1.133  13.685  0.5999  1.0172  0.6117
   57TMC2    C7  878   1.846   1.179  13.464 -0.3749  0.3471  0.1505
   57TMC2    C8  879   1.907   1.188  13.937 -0.3449 -0.0729 -0.2655
   57TMC2    O1  880   1.811   1.260  13.379  0.0688  0.1684  0.1319
   57TMC2    O2  881   1.972   1.089  13.950  0.4829 -0.5414 -0.1947
   57TMC2    O5  882   1.901   1.286  14.029 -0.2452 -0.1846 -0.1611
   57TMC2    H5  883   1.851   1.367  14.009  0.2172  0.4358  1.1369
   58MPD2     C  884   1.031   1.042  13.729 -0.1756 -0.0701 -0.3209
   58MPD2    C1  885   1.081   1.128  13.825 -0.7807 -0.2494  0.0941
   58MPD2    C2  886   1.209   1.174  13.814  0.7952 -0.2887  0.2032
   58MPD2    C3  887   1.293   1.131  13.714 -0.8707 -0.6126 -0.1333
   58MPD2    C4  888   1.249   1.047  13.616 -0.1593  0.2641 -0.3161
   58MPD2    C5  889   1.120   1.001  13.630 -0.2823  0.9106  0.2483
   58MPD2     H  890   1.237   1.259  13.876 -2.7543  0.2125  1.1464
   58MPD2    H1  891   1.316   1.019  13.536  0.2361  0.4150 -0.0375
   58MPD2    H2  892   0.925   1.018  13.719 -0.6520  1.5185  1.0226
   58MPD2    H3  893   1.079   0.931  13.559  0.0500 -1.0469  2.0105
   58MPD2     N  894   1.420   1.188  13.690 -0.7115  0.1870 -0.0912
   58MPD2    H5  895   1.468   1.153  13.608  0.1273  0.5744  0.2422
   58MPD2    N1  896   1.009   1.185  13.926 -0.5918  0.5332 -0.2918
   58MPD2    H7  897   1.046   1.262  13.980  0.8248  0.8105 -1.6756
   59MPD2     C  898   3.676   1.395  13.446  0.4407  0.1960 -0.2319
   59MPD2    C1  899   3.767   1.393  13.339  0.2948 -0.3785 -0.7524
   59MPD2    C2  900   3.885   1.475  13.347  0.2623  0.2701  0.5454
   59MPD2    C3  901   3.903   1.567  13.448 -1.0060  0.6890  0.1239
   59MPD2    C4  902   3.806   1.572  13.544 -0.4564 -0.2659  0.1559
   59MPD2    C5  903   3.705   1.476  13.553  0.0169  0.2644 -0.0174
   59MPD2     H  904   3.959   1.469  13.268 -0.0596  1.2432  0.1699
   59MPD2    H1  905   3.802   1.649  13.620 -0.8255  0.4781 -0.6103
   59MPD2    H2  906   3.597   1.321  13.451  1.1534 -0.5786 -0.4780
   59MPD2    H3  907   3.646   1.474  13.643  1.5733  0.6632  1.0194
   59MPD2     N  908   4.014   1.655  13.459 -0.5741  0.3484  0.5585
   59MPD2    H5  909   4.019   1.701  13.549 -0.7205  0.7171  0.3755
   59MPD2    N1  910   3.754   1.314  13.224  0.0289  0.0401  0.5196
   59MPD2    H7  911   3.809   1.350  13.146  0.7615 -1.7647  0.1993
   60TCq2    C1  912   3.664   1.210  13.208  0.0559  0.7036  0.3331
   60TCq2    O2  913   3.568   1.176  13.282 -0.3940 -0.4732  0.7231
   60TCq2    C2  914   3.664   1.162  13.070 -0.3177 -0.3542  0.1543
   60TCq2    C3  915   3.541   1.124  13.021  0.1686  0.2524  0.6468
   60TCq2    C4  916   3.517   1.118  12.885  0.2913  0.7784  0.3834
   60TCq2    C5  917   3.622   1.136  12.796  0.4651  0.4716 -0.9397
   60TCq2    C6  918   3.746   1.176  12.848  0.4897 -0.1431 -0.5222
   60TCq2    C7  919   3.773   1.189  12.989 -0.0259 -0.3221 -0.2803
   60TCq2    C8  920   3.850   1.226  12.752 -0.9790  0.5625 -0.0873
   60TCq2    O4  921   3.966   1.211  12.774  0.3239 -0.3816  0.7450
   60TCq2    C9  922   3.384   1.125  12.830  0.7809  0.0786 -0.6723
   60TCq2    O5  923   3.291   1.122  12.917  0.4288  0.0018  0.0301
   60TCq2    O6  924   3.376   1.123  12.705 -0.6316  0.3148 -0.5028
   60TCq2    H2  925   3.451   1.107  13.079  0.0724 -0.5037  0.2734
   60TCq2    H3  926   3.607   1.139  12.689  0.4942 -0.7897 -0.9827
   60TCq2    H4  927   3.871   1.213  13.027  0.5362 -1.6766 -0.8984
   61MPD2     C  928   3.440   2.834  14.341  0.1531 -0.1928  0.1447
   61MPD2    C1  929   3.343   2.861  14.442 -0.1626 -0.5308 -0.1621
   61MPD2    C2  930   3.237   2.942  14.419 -0.3813  0.7292  0.1437
   61MPD2    C3  931   3.232   3.000  14.300 -0.9900 -0.5289 -0.1707
   61MPD2    C4  932   3.320   2.974  14.200  1.0934  0.2844  0.4333
   61MPD2    C5  933   3.431   2.892  14.215 -0.8694  0.2738  0.2289
   61MPD2     H  934   3.166   2.954  14.500  0.0789  0.3187  0.6095
   61MPD2    H1  935   3.310   3.024  14.105 -1.3785  0.6584  0.9042
   61MPD2    H2  936   3.530   2.780  14.365 -0.2485 -1.5657 -1.4333
   61MPD2    H3  937   3.504   2.879  14.136 -2.0498  0.5163 -0.9049
   61MPD2     N  938   3.135   3.099  14.267 -0.2370 -0.1808 -0.0207
   61MPD2    H5  939   3.160   3.169  14.198 -1.2551 -0.1980 -0.4137
   61MPD2    N1  940   3.369   2.825  14.572  0.3144  0.0487  0.2954
   61MPD2    H7  941   3.307   2.867  14.641  1.6377  1.0966  0.8688
   62TCq2    C1  942   3.472   2.745  14.620 -0.5914 -0.5190 -0.1998
   62TCq2    O2  943   3.540   2.662  14.557  0.8284  0.5566  0.0949
   62TCq2    C2  944   3.488   2.758  14.761 -0.2904 -0.1370  0.7822
   62TCq2    C3  945   3.542   2.653  14.828 -0.2977  0.4168 -0.3228
   62TCq2    C4  946   3.584   2.681  14.958  0.4681 -0.3749 -0.6879
   62TCq2    C5  947   3.549   2.794  15.024 -0.9193 -0.5305  0.5975
   62TCq2    C6  948   3.465   2.880  14.958  0.1978 -0.1175  0.0602
   62TCq2    C7  949   3.443   2.871  14.825 -0.4793  0.0608 -0.0436
   62TCq2    C8  950   3.423   3.000  15.027  0.1732 -0.0435  0.5188
   62TCq2    O4  951   3.477   3.042  15.129 -0.4211 -0.1201 -0.0631
   62TCq2    C9  952   3.661   2.578  15.024  0.5326 -0.2606 -0.0695
   62TCq2    O5  953   3.694   2.473  14.959 -0.8995 -0.6360  0.2269
   62TCq2    O6  954   3.696   2.607  15.142  0.6972  0.3844 -0.5929
   62TCq2    H2  955   3.560   2.563  14.770  1.3749  1.1891 -1.0097
   62TCq2    H3  956   3.578   2.812  15.127 -0.6709  0.3028  0.3815
   62TCq2    H4  957   3.407   2.957  14.770 -0.0704  1.9617  2.6251
   63TMC2    C1  958   3.012   2.611  10.825 -0.1998 -0.1138 -0.8417
   63TMC2    C2  959   3.116   2.670  10.895 -0.0080  0.1593  0.1287
   63TMC2    C3  960   3.202   2.742  10.818  0.1410  0.0445  0.0170
   63TMC2    C4  961   2.991   2.628  10.695 -0.3565 -0.1657  0.4632
   63TMC2    C5  962   3.086   2.692  10.621 -0.2929 -0.3135 -0.8724
   63TMC2    C6  963   3.189   2.755  10.676  0.1779 -0.6036 -0.2012
   63TMC2     C  964   2.922   2.523  10.904 -0.0011  0.0558  0.5057
   63TMC2     O  965   2.935   2.521  11.025  0.0112  0.1853 -0.5558
   63TMC2     H  966   3.125   2.670  11.003 -0.2959 -1.2263  0.1530
   63TMC2    H1  967   2.892   2.607  10.656  0.7867  1.3596 -3.2605
   63TMC2    H2  968   3.263   2.823  10.633  0.0636  0.1840  0.8333
   63TMC2    C7  969   3.057   2.706  10.480  0.4790  0.3326 -0.4825
   63TMC2    C8  970   3.297   2.826  10.890  0.0358  0.4270  0.4958
   63TMC2    O1  971   2.968   2.640  10.431  0.0650 -0.2575  0.0298
   63TMC2    O2  972   3.292   2.950  10.868 -0.2085  0.4089 -0.0384
   63TMC2    O5  973   3.338   2.764  11.002 -0.2172  0.2433  0.4367
   63TMC2    H5  974   3.340   2.667  10.993  0.9266  0.5148 -2.2667
   64MPD2     C  975   2.541   2.178  10.957  0.4685  0.6757  0.4911
   64MPD2    C1  976   2.582   2.165  10.828 -0.5568 -0.4316  0.8555
   64MPD2    C2  977   2.673   2.266  10.785 -0.4718 -0.3314  0.2210
   64MPD2    C3  978   2.735   2.359  10.873 -0.0175 -0.1689 -0.2988
   64MPD2    C4  979   2.692   2.346  11.005 -0.5791  0.0632 -0.2213
   64MPD2    C5  980   2.593   2.262  11.043 -0.0683 -0.0913 -0.5728
   64MPD2     H  981   2.699   2.273  10.680 -2.2900  0.6629 -0.1709
   64MPD2    H1  982   2.730   2.417  11.078  0.0841  0.7275 -1.2268
   64MPD2    H2  983   2.469   2.105  10.992  0.0160  1.3672  1.0042
   64MPD2    H3  984   2.567   2.261  11.149  0.3624 -1.5035 -0.4886
   64MPD2     N  985   2.836   2.448  10.825 -0.4872 -0.1387 -0.5829
   64MPD2    H5  986   2.826   2.466  10.725 -0.7912 -0.7634 -0.6618
   64MPD2    N1  987   2.551   2.060  10.738 -0.6935  0.0539 -0.1898
   64MPD2    H7  988   2.582   2.070  10.642  3.5949 -2.3140  0.9723
   65MPD2     C  989   4.187   2.462  16.056  0.2928  0.4545  0.0199
   65MPD2    C1  990   4.197   2.474  15.919  0.0051  0.0361 -0.2411
   65MPD2    C2  991   4.155   2.374  15.836  0.8642 -0.2667  0.6605
   65MPD2    C3  992   4.071   2.271  15.876  0.3297  0.1354  0.4892
   65MPD2    C4  993   4.063   2.254  16.015 -0.3144  0.9216 -0.6456
   65MPD2    C5  994   4.116   2.356  16.106  0.2237  0.2854 -0.0400
   65MPD2     H  995   4.172   2.385  15.729 -0.2010 -0.0021  0.5137
   65MPD2    H1  996   4.008   2.171  16.059 -0.0559 -0.1799 -2.3899
   65MPD2    H2  997   4.223   2.533  16.130 -0.7454  1.0379 -0.0261
   65MPD2    H3  998   4.088   2.356  16.210 -0.2692  2.1964 -0.1747
   65MPD2     N  999   4.006   2.190  15.790 -0.2976  0.5748  0.0383
   65MPD2    H5 1000   3.959   2.108  15.829  3.6696 -1.8720 -0.3194
   65MPD2    N1 1001   4.263   2.575  15.851 -0.6237  0.7570 -0.0043
   65MPD2    H7 1002   4.266   2.576  15.749 -1.3161 -0.7813 -0.0465
   66TCq2    C1 1003   4.300   2.697  15.914  0.3681  0.4505 -0.4016
   66TCq2    O2 1004   4.260   2.736  16.022 -0.0392 -0.5568  0.0528
   66TCq2    C2 1005   4.340   2.800  15.812 -0.8024 -0.6917  0.1953
   66TCq2    C3 1006   4.381   2.759  15.684 -0.8263 -0.5406  0.2536
   66TCq2    C4 1007   4.395   2.852  15.589 -0.5354 -0.3889 -0.0623
   66TCq2    C5 1008   4.352   2.978  15.597  0.1179  0.4063  0.3683
   66TCq2    C6 1009   4.301   3.014  15.721  0.0329 -0.2080 -0.2245
   66TCq2    C7 1010   4.300   2.928  15.830  0.5181  0.1286 -0.5146
   66TCq2    C8 1011   4.243   3.152  15.732 -0.5544  0.8881 -0.2181
   66TCq2    O4 1012   4.273   3.234  15.644 -0.2845 -0.4041  0.1755
   66TCq2    C9 1013   4.450   2.802  15.462  0.5289 -0.7216  0.2164
   66TCq2    O5 1014   4.456   2.884  15.369  0.5640  0.5692 -0.3143
   66TCq2    O6 1015   4.449   2.679  15.448  0.4571  0.2583 -0.4600
   66TCq2    H2 1016   4.413   2.656  15.673  0.2406 -0.2720  0.7802
   66TCq2    H3 1017   4.341   3.036  15.506  0.9722  1.6956  1.0808
   66TCq2    H4 1018   4.276   2.963  15.930  1.0664 -0.1240 -0.2894
   67MPD2     C 1019   3.991   1.710  14.373  0.2160  0.3233  1.2047
   67MPD2    C1 1020   3.909   1.785  14.461 -0.1167 -0.8061  0.6137
   67MPD2    C2 1021   3.779   1.795  14.422  0.1030  0.3771  0.0623
   67MPD2    C3 1022   3.725   1.732  14.314  0.5386 -0.1837 -0.6180
   67MPD2    C4 1023   3.801   1.658  14.232 -0.3237  0.3501  0.0757
   67MPD2    C5 1024   3.936   1.654  14.265  0.1115 -0.6338 -0.6214
   67MPD2     H 1025   3.707   1.856  14.476  0.4272  1.2676 -0.4978
   67MPD2    H1 1026   3.766   1.588  14.157 -1.9861  1.8439 -0.5257
   67MPD2    H2 1027   4.096   1.703  14.398  0.9924  0.1869 -2.0498
   67MPD2    H3 1028   4.000   1.598  14.198  1.3025 -0.3107  0.2302
   67MPD2     N 1029   3.580   1.737  14.301  0.5816  0.9838  0.1981
   67MPD2    H5 1030   3.534   1.778  14.382 -1.2052 -1.4672  0.4306
   67MPD2    N1 1031   3.954   1.840  14.585  0.6345  0.1895  0.7869
   67MPD2    H7 1032   3.881   1.888  14.637 -3.1678 -2.0524 -2.4935
   68TCq2    C1 1033   4.081   1.828  14.643 -0.0530 -0.0469  1.0401
   68TCq2    O2 1034   4.174   1.751  14.614 -0.4509  0.0119 -0.0015
   68TCq2    C2 1035   4.084   1.880  14.783  0.2081  0.1299  0.4385
   68TCq2    C3 1036   4.004   1.991  14.815  0.1982  0.2213  0.2688
   68TCq2    C4 1037   4.031   2.063  14.927 -0.1591 -0.9463 -0.5857
   68TCq2    C5 1038   4.123   2.023  15.015 -0.3376 -0.6345  0.0119
   68TCq2    C6 1039   4.197   1.910  14.982 -0.4470 -0.3588 -0.2582
   68TCq2    C7 1040   4.177   1.832  14.870  0.1163  0.1175 -0.3073
   68TCq2    C8 1041   4.323   1.890  15.039 -0.9225  0.1309 -0.0121
   68TCq2    O4 1042   4.408   1.836  14.974 -0.2115  0.2598 -0.1923
   68TCq2    C9 1043   3.974   2.197  14.939  0.3261 -0.2575 -0.6721
   68TCq2    O5 1044   3.931   2.229  15.051  0.6689 -0.5591  0.0724
   68TCq2    O6 1045   3.941   2.260  14.835  0.5066 -0.5773 -0.9518
   68TCq2    H2 1046   3.951   2.041  14.735  0.0535 -1.5435 -0.7370
   68TCq2    H3 1047   4.150   2.092  15.095 -2.4946 -0.4038  0.5228
   68TCq2    H4 1048   4.236   1.745  14.846 -2.1724 -1.7096  0.7314
   69TMC2    C1 1049   0.528   2.615  12.807  0.2872  0.3878  0.3942
   69TMC2    C2 1050   0.398   2.618  12.847 -0.2317 -0.3863 -0.2493
   69TMC2    C3 1051   0.311   2.706  12.788 -0.2633  0.5899 -0.0583
   69TMC2    C4 1052   0.584   2.705  12.714 -0.1337  1.0715 -0.5012
   69TMC2    C5 1053   0.488   2.782  12.647  0.0988  0.3826 -0.6442
   69TMC2    C6 1054   0.350   2.780  12.682 -0.8466 -0.5644  0.0227
   69TMC2     C 1055   0.623   2.538  12.888  0.3402  0.6702 -0.0501
   69TMC2     O 1056   0.576   2.436  12.932 -0.1259 -0.1894  0.2858
   69TMC2     H 1057   0.364   2.564  12.934 -0.4832 -0.1895 -0.2261
   69TMC2    H1 1058   0.687   2.701  12.681 -0.1559 -0.7973 -0.3755
   69TMC2    H2 1059   0.285   2.859  12.645  0.6822 -0.2554 -2.0006
   69TMC2    C7 1060   0.550   2.863  12.540 -0.8404 -0.2383  0.7865
   69TMC2    C8 1061   0.168   2.694  12.807 -0.2782 -0.5673 -0.7786
   69TMC2    O1 1062   0.673   2.867  12.546  0.0811 -0.2809 -0.3449
   69TMC2    O2 1063   0.100   2.795  12.799  0.1480  0.2124  0.5240
   69TMC2    O5 1064   0.145   2.579  12.876 -0.0004  0.0267 -0.1984
   69TMC2    H5 1065   0.189   2.500  12.838  0.7974  0.1477  0.4717
   70MPD2     C 1066   0.979   2.610  12.949  1.1366 -0.0520  0.3092
   70MPD2    C1 1067   0.865   2.532  12.951 -0.1658  0.0028  0.4149
   70MPD2    C2 1068   0.869   2.405  12.993  0.1361 -0.9401  0.0880
   70MPD2    C3 1069   0.990   2.346  13.044 -0.1801  0.8163  0.2687
   70MPD2    C4 1070   1.101   2.426  13.042  0.7762 -0.0669  0.2130
   70MPD2    C5 1071   1.097   2.557  12.994  0.1353 -0.7528 -0.7987
   70MPD2     H 1072   0.786   2.338  12.973  0.4623 -1.2963 -0.0870
   70MPD2    H1 1073   1.193   2.392  13.088  0.1980 -0.9048  0.7400
   70MPD2    H2 1074   0.986   2.708  12.906  0.4167 -0.9243 -1.7582
   70MPD2    H3 1075   1.190   2.612  12.994  1.9584 -3.8153  2.2231
   70MPD2     N 1076   0.995   2.207  13.092 -0.1032  0.4259  0.4800
   70MPD2    H5 1077   1.085   2.166  13.115  0.8113  1.6481 -0.9119
   70MPD2    N1 1078   0.749   2.592  12.885  0.2986 -0.7146 -0.3752
   70MPD2    H7 1079   0.762   2.687  12.852  0.5473 -1.0258 -1.1613
   71TMC2    C1 1080   4.140   3.594   1.052  0.1864 -0.3439 -0.0833
   71TMC2    C2 1081   4.258   3.521   1.023  0.0308 -0.0091 -0.3847
   71TMC2    C3 1082   4.275   3.404   1.097  0.2386  0.1762  0.1938
   71TMC2    C4 1083   4.037   3.550   1.130  0.2937  0.0105  0.8268
   71TMC2    C5 1084   4.066   3.422   1.179  0.4896 -0.0071  0.7175
   71TMC2    C6 1085   4.176   3.347   1.173  0.3979 -0.5003 -0.3911
   71TMC2     C 1086   4.126   3.724   0.988  0.1774 -0.6052 -0.4929
   71TMC2     O 1087   4.014   3.768   0.979 -0.1909  0.5119 -0.4280
   71TMC2     H 1088   4.335   3.544   0.949  2.2347  0.4322  2.0329
   71TMC2    H1 1089   3.943   3.602   1.149  0.5164 -0.0519  2.1517
   71TMC2    H2 1090   4.205   3.264   1.236 -0.5580  0.8114  1.7876
   71TMC2    C7 1091   3.951   3.362   1.251 -0.0678  0.3622 -0.1013
   71TMC2    C8 1092   4.403   3.344   1.066 -0.7340  0.5359 -0.6150
   71TMC2    O1 1093   3.863   3.443   1.272 -0.0598  0.4331 -0.0662
   71TMC2    O2 1094   4.503   3.402   1.023  0.6784 -0.2380 -0.4455
   71TMC2    O5 1095   4.374   3.216   1.057  0.0902  0.2029  0.2175
   71TMC2    H5 1096   4.284   3.185   1.082 -0.5986  0.1374 -2.3152
   72MPD2     C 1097   4.348   4.073   0.680  0.6126 -0.1438 -0.5092
   72MPD2    C1 1098   4.214   4.037   0.693 -0.7818  0.2381  0.1038
   72MPD2    C2 1099   4.183   3.939   0.781 -0.4562  0.1731  0.3248
   72MPD2    C3 1100   4.278   3.880   0.865  0.3137 -0.4283 -0.6686
   72MPD2    C4 1101   4.407   3.908   0.847  1.3452 -0.3337  0.0051
   72MPD2    C5 1102   4.443   4.011   0.760 -0.3097 -0.0605  0.5912
   72MPD2     H 1103   4.082   3.901   0.782 -0.2055 -0.5449 -2.0267
   72MPD2    H1 1104   4.487   3.868   0.908  1.7961  1.2902  0.4880
   72MPD2    H2 1105   4.380   4.157   0.620  0.9143 -0.4663 -0.7993
   72MPD2    H3 1106   4.544   4.052   0.764 -0.0426 -0.8650  2.0221
   72MPD2     N 1107   4.248   3.780   0.960  0.5656 -0.0596  0.8517
   72MPD2    H5 1108   4.330   3.736   1.001  0.1970 -2.4826 -1.0497
   72MPD2    N1 1109   4.109   4.110   0.629  0.3154  0.4826  0.0124
   72MPD2    H7 1110   4.023   4.059   0.642 -0.7270  1.9004 -1.3236
   73TMC2    C1 1111   3.505   0.518  14.136 -0.0124 -0.3200 -0.9028
   73TMC2    C2 1112   3.410   0.488  14.229 -0.4867  0.3899  0.2437
   73TMC2    C3 1113   3.451   0.457  14.355  0.2625 -0.1071  0.1597
   73TMC2    C4 1114   3.640   0.520  14.164 -0.7024  0.0500  0.1609
   73TMC2    C5 1115   3.674   0.499  14.300  0.0516  0.5236 -0.8376
   73TMC2    C6 1116   3.584   0.466  14.396  0.1867 -0.6326  0.0407
   73TMC2     C 1117   3.474   0.654  14.092  0.3526  0.7830  0.3113
   73TMC2     O 1118   3.538   0.739  14.154  0.9773 -0.1579 -0.3258
   73TMC2     H 1119   3.305   0.485  14.205 -0.8899 -0.7129  2.1762
   73TMC2    H1 1120   3.720   0.537  14.092 -3.3373  0.8751 -2.5841
   73TMC2    H2 1121   3.606   0.449  14.501 -0.1044 -0.9334  0.0547
   73TMC2    C7 1122   3.788   0.572  14.345  0.3721 -0.3737 -0.2498
   73TMC2    C8 1123   3.360   0.420  14.456  0.0148  0.1332 -0.1705
   73TMC2    O1 1124   3.850   0.531  14.442 -0.1220  0.0067 -0.2061
   73TMC2    O2 1125   3.373   0.443  14.577 -0.0126 -0.9623  0.5226
   73TMC2    O5 1126   3.303   0.309  14.401 -0.5886  0.4305 -0.0488
   73TMC2    H5 1127   3.352   0.295  14.317 -0.1013 -0.5030  0.3950
   74MPD2     C 1128   3.298   1.033  13.791 -0.4014 -0.1521 -0.4089
   74MPD2    C1 1129   3.387   1.036  13.890  0.0906 -0.2445 -0.1292
   74MPD2    C2 1130   3.409   0.923  13.974  0.0624  0.0106 -0.4343
   74MPD2    C3 1131   3.351   0.805  13.936 -0.5434 -0.2576 -0.1980
   74MPD2    C4 1132   3.256   0.801  13.835 -0.0885  0.1553  0.3706
   74MPD2    C5 1133   3.233   0.916  13.765  0.1904  0.2949 -0.1041
   74MPD2     H 1134   3.471   0.934  14.062  1.4540  0.3723 -1.4586
   74MPD2    H1 1135   3.204   0.708  13.815  0.5337  0.1613 -1.2290
   74MPD2    H2 1136   3.294   1.116  13.720 -2.2205 -1.5349 -1.9127
   74MPD2    H3 1137   3.150   0.907  13.696  0.2585 -4.1649  0.4072
   74MPD2     N 1138   3.371   0.672  14.002  0.1179  0.3526 -0.5907
   74MPD2    H5 1139   3.317   0.593  13.970  1.5333 -0.8749  0.0450
   74MPD2    N1 1140   3.453   1.162  13.904  1.0531  0.0162 -0.6219
   74MPD2    H7 1141   3.417   1.233  13.840  1.4279  1.5017  0.8180
   75TCq2    C1 1142   3.517   1.715  14.187  0.8195  0.3536 -0.1965
   75TCq2    O2 1143   3.568   1.686  14.077 -0.0048  0.5120  0.4803
   75TCq2    C2 1144   3.376   1.734  14.194 -0.7755 -0.6914 -0.6015
   75TCq2    C3 1145   3.318   1.743  14.321 -0.0797  0.5968  0.1767
   75TCq2    C4 1146   3.187   1.773  14.325  0.2305  0.3910  0.2576
   75TCq2    C5 1147   3.115   1.802  14.204  0.2517 -0.2118  0.5452
   75TCq2    C6 1148   3.186   1.788  14.090  0.4211 -0.2964 -0.9418
   75TCq2    C7 1149   3.315   1.750  14.077  0.8377  0.5150  0.2236
   75TCq2    C8 1150   3.132   1.839  13.965 -0.2859  0.5237 -0.8346
   75TCq2    O4 1151   3.189   1.806  13.860  0.3646  0.1577 -0.1351
   75TCq2    C9 1152   3.112   1.783  14.450  0.3152 -0.2822 -0.4461
   75TCq2    O5 1153   3.004   1.843  14.450 -0.5490  0.2810  0.5621
   75TCq2    O6 1154   3.152   1.700  14.537  0.9782  0.2100 -0.0044
   75TCq2    H2 1155   3.377   1.713  14.407  1.1947 -0.3176 -1.0265
   75TCq2    H3 1156   3.007   1.818  14.205  0.3813  0.6796  0.9954
   75TCq2    H4 1157   3.369   1.748  13.982  1.2488 -0.5685  0.4767
   76MPD2     C 1158   1.469   2.993  12.396  0.2149  0.3524 -0.2013
   76MPD2    C1 1159   1.503   2.971  12.266 -0.4903  0.1053 -0.6557
   76MPD2    C2 1160   1.636   2.959  12.232  0.8178 -0.0811  0.3162
   76MPD2    C3 1161   1.731   2.979  12.327  0.0508 -0.6226  0.1949
   76MPD2    C4 1162   1.691   3.017  12.452  0.0407 -0.0572  0.4550
   76MPD2    C5 1163   1.560   3.026  12.489  0.0311 -0.1452 -0.6461
   76MPD2     H 1164   1.656   2.945  12.127  0.6701  1.1931  0.1190
   76MPD2    H1 1165   1.769   3.038  12.525  0.3324 -1.0568  0.4366
   76MPD2    H2 1166   1.364   2.987  12.422  0.9288 -1.5822  2.2307
   76MPD2    H3 1167   1.540   3.057  12.591  2.3840 -0.5310 -0.0696
   76MPD2     N 1168   1.872   2.974  12.297 -0.1199 -0.1805  0.2198
   76MPD2    H5 1169   1.941   3.005  12.364  1.6276 -0.4255 -1.4528
   76MPD2    N1 1170   1.404   2.956  12.165  0.3579 -0.5515  0.6614
   76MPD2    H7 1171   1.444   2.930  12.075  1.6808 -2.8392  1.9055
   77TCq2    C1 1172   1.914   2.909  12.186 -0.1330 -0.5438  0.4416
   77TCq2    O2 1173   1.851   2.823  12.129  0.2778  0.2927  0.5355
   77TCq2    C2 1174   2.061   2.906  12.176  0.2344 -0.0138  0.4493
   77TCq2    C3 1175   2.114   3.027  12.140  0.4995  0.2091 -0.3484
   77TCq2    C4 1176   2.242   3.028  12.103  0.7958 -0.1200 -0.5008
   77TCq2    C5 1177   2.322   2.911  12.097  0.9237 -0.4445 -0.8860
   77TCq2    C6 1178   2.254   2.790  12.124 -1.5243 -0.2285 -0.3877
   77TCq2    C7 1179   2.119   2.788  12.148 -0.2998  0.2379  0.2670
   77TCq2    C8 1180   2.336   2.671  12.140  0.0986  0.1207  0.3561
   77TCq2    O4 1181   2.275   2.565  12.156 -0.0342  0.5767 -0.6104
   77TCq2    C9 1182   2.309   3.153  12.059  0.1172  0.2266 -0.2941
   77TCq2    O5 1183   2.428   3.142  12.034 -0.0774  0.0799 -0.4752
   77TCq2    O6 1184   2.244   3.262  12.060  0.3237  0.4453  0.5319
   77TCq2    H2 1185   2.059   3.117  12.163 -0.4395 -0.5974  0.6052
   77TCq2    H3 1186   2.425   2.922  12.066  1.2461  0.8640  0.6809
   77TCq2    H4 1187   2.072   2.694  12.173  2.7035 -1.5255 -0.6911
   78MPD1     C 1188   2.584   3.137   1.459  0.1093 -0.6983  0.1513
   78MPD1    C1 1189   2.595   3.031   1.369  0.2315  1.0274  0.7685
   78MPD1    C2 1190   2.678   2.927   1.397  0.2624  0.2768 -0.2111
   78MPD1    C3 1191   2.772   2.934   1.499 -0.1300 -0.2633 -0.1320
   78MPD1    C4 1192   2.762   3.042   1.582 -0.7059 -0.8411  0.2376
   78MPD1    C5 1193   2.671   3.142   1.559  1.1780 -0.0135 -0.6279
   78MPD1     H 1194   2.676   2.844   1.328  1.3527  0.6799 -0.7315
   78MPD1    H1 1195   2.837   3.062   1.657 -0.5213 -0.2759 -0.0905
   78MPD1    H2 1196   2.515   3.219   1.441 -0.7847 -1.3169  0.7642
   78MPD1    H3 1197   2.666   3.216   1.639 -2.0896 -0.9567  0.0340
   78MPD1     N 1198   2.873   2.835   1.533 -0.4279 -0.2224  0.2097
   78MPD1    H5 1199   2.941   2.864   1.603 -1.5188 -1.4467  1.7928
   78MPD1    N1 1200   2.501   3.020   1.263 -0.0672  0.0537  0.8194
   78MPD1    H6 1201   2.473   3.108   1.218 -0.7962 -0.1523  0.8699
   78MPD1    H7 1202   2.516   2.951   1.190 -0.9913  0.3766  0.3216
   79TCq2    C1 1203   2.895   2.725   1.451  0.0567 -0.2103  0.0468
   79TCq2    O2 1204   2.826   2.675   1.364 -0.0188  0.0405  0.0450
   79TCq2    C2 1205   3.033   2.664   1.456 -0.3362  0.1222 -0.4063
   79TCq2    C3 1206   3.043   2.531   1.435  0.9130 -0.5397  0.1154
   79TCq2    C4 1207   3.144   2.459   1.486  0.3440  0.3245 -0.1859
   79TCq2    C5 1208   3.242   2.526   1.547 -0.4285 -0.3795  0.8022
   79TCq2    C6 1209   3.229   2.657   1.585 -0.3553  0.3735  0.1816
   79TCq2    C7 1210   3.128   2.729   1.531 -0.3940 -0.8660  0.3857
   79TCq2    C8 1211   3.360   2.721   1.623  0.3803  0.5088  0.2311
   79TCq2    O4 1212   3.464   2.657   1.619  0.9931 -0.0419  1.0524
   79TCq2    C9 1213   3.145   2.317   1.471  0.4187 -0.3821 -0.0863
   79TCq2    O5 1214   3.055   2.259   1.405  0.3301 -0.1178  0.2050
   79TCq2    O6 1215   3.252   2.258   1.501  0.5363 -0.8037 -0.1236
   79TCq2    H2 1216   2.958   2.481   1.390  1.4811 -1.5993  0.2108
   79TCq2    H3 1217   3.319   2.468   1.596  1.1207  1.6333  0.7733
   79TCq2    H4 1218   3.134   2.837   1.529 -0.9990 -0.7918  2.6265
   80MPD2     C 1219   1.680   2.237  12.495 -0.3666 -0.2219 -0.4140
   80MPD2    C1 1220   1.575   2.205  12.411 -0.0691 -0.7869  0.5756
   80MPD2    C2 1221   1.447   2.252  12.450  0.0096 -0.5094  0.4953
   80MPD2    C3 1222   1.424   2.319  12.568 -0.4532  0.1287  0.1958
   80MPD2    C4 1223   1.528   2.352  12.652 -0.2901 -0.6074  0.0742
   80MPD2    C5 1224   1.656   2.305  12.614 -0.3076  0.1434 -0.5262
   80MPD2     H 1225   1.369   2.216  12.385  2.1094 -0.6372 -1.9335
   80MPD2    H1 1226   1.513   2.419  12.736  1.9918 -0.5553  0.4605
   80MPD2    H2 1227   1.781   2.204  12.473 -0.3776 -1.4055  1.2724
   80MPD2    H3 1228   1.742   2.315  12.678 -1.0335  1.0501  0.3080
   80MPD2     N 1229   1.292   2.346  12.607  0.0845  0.3058 -0.2878
   80MPD2    H5 1230   1.265   2.370  12.702 -0.6051 -0.8510 -0.1869
   80MPD2    N1 1231   1.586   2.119  12.298  0.0076  0.7964 -0.2565
   80MPD2    H7 1232   1.500   2.098  12.249  0.8916 -2.2105 -0.5121
   81TCq2    C1 1233   1.707   2.073  12.239  0.0836 -0.2842 -0.2256
   81TCq2    O2 1234   1.819   2.091  12.284 -0.0775 -0.4771 -0.3245
   81TCq2    C2 1235   1.703   2.000  12.115  1.0432 -0.4002  0.1359
   81TCq2    C3 1236   1.818   1.966  12.050 -0.4470  0.0015 -0.2203
   81TCq2    C4 1237   1.816   1.877  11.943  0.3016 -0.3436 -0.0150
   81TCq2    C5 1238   1.703   1.812  11.912  0.2413  0.2013 -0.6287
   81TCq2    C6 1239   1.591   1.842  11.981 -0.0703 -0.2434 -0.0998
   81TCq2    C7 1240   1.585   1.939  12.082  0.3421 -0.0160  0.6016
   81TCq2    C8 1241   1.467   1.772  11.954 -0.6616  0.2697  1.0066
   81TCq2    O4 1242   1.438   1.736  11.838 -0.2950  0.2628 -0.1963
   81TCq2    C9 1243   1.938   1.825  11.892 -0.5329 -0.6474 -0.1072
   81TCq2    O5 1244   2.038   1.836  11.958  0.7454 -0.0189  0.0443
   81TCq2    O6 1245   1.936   1.759  11.786  0.1959  0.1360 -0.2162
   81TCq2    H2 1246   1.914   2.012  12.070 -0.8020  0.9741 -0.7376
   81TCq2    H3 1247   1.707   1.738  11.833  2.1827 -0.3134 -0.0499
   81TCq2    H4 1248   1.491   1.947  12.134  0.0033  0.1033 -0.0239
   82MPD2     C 1249   0.094   1.380  10.506  0.7210 -0.0626 -0.4244
   82MPD2    C1 1250   4.715   1.298  10.549  0.3529  0.3078 -0.1800
   82MPD2    C2 1251   0.027   1.170  10.584 -0.0969  0.0752 -0.5454
   82MPD2    C3 1252   0.160   1.118  10.588  0.8934 -0.8089 -0.6022
   82MPD2    C4 1253   0.262   1.205  10.555  0.4708  0.4637 -0.1339
   82MPD2    C5 1254   0.224   1.336  10.510 -0.2918 -0.6651 -0.2062
   82MPD2     H 1255   4.677   1.096  10.611  0.3875 -1.1388 -2.4806
   82MPD2    H1 1256   0.367   1.178  10.546  0.2697 -0.5623  0.5642
   82MPD2    H2 1257   0.083   1.485  10.481  0.2998 -0.5084 -2.0755
   82MPD2    H3 1258   0.304   1.396  10.469  0.7344  0.0489  2.8294
   82MPD2     N 1259   0.202   0.988  10.618 -0.7829  0.0013 -0.1449
   82MPD2    H5 1260   0.302   0.975  10.612 -0.9530  0.3079 -3.6518
   82MPD2    N1 1261   4.583   1.348  10.555  0.8487  0.0389 -0.3681
   82MPD2    H7 1262   4.579   1.434  10.502  0.6438  0.1582 -0.1594
   83TCq2    C1 1263   0.123   0.882  10.656  0.3694 -0.7112 -0.5496
   83TCq2    O2 1264   0.003   0.881  10.681  0.0786  0.0133  0.1093
   83TCq2    C2 1265   0.199   0.771  10.717  0.0107 -0.2664 -0.5767
   83TCq2    C3 1266   0.306   0.811  10.792  0.4970 -0.7781 -0.5961
   83TCq2    C4 1267   0.345   0.734  10.896 -0.6931 -0.0251  0.1284
   83TCq2    C5 1268   0.256   0.631  10.942  0.1657 -0.4568  0.0106
   83TCq2    C6 1269   0.141   0.607  10.875 -0.2121 -1.1192 -0.8170
   83TCq2    C7 1270   0.125   0.664  10.751 -0.6146 -0.0831 -0.6842
   83TCq2    C8 1271   0.026   0.583  10.966 -0.5764  0.6228 -0.0285
   83TCq2    O4 1272   0.046   0.554  11.081  0.5919 -0.1212  0.6287
   83TCq2    C9 1273   0.472   0.765  10.961  0.4005  0.6097 -0.4256
   83TCq2    O5 1274   0.549   0.849  10.910  0.1391  0.1131 -0.3419
   83TCq2    O6 1275   0.508   0.679  11.046 -0.1177  1.2249 -0.4332
   83TCq2    H2 1276   0.371   0.889  10.754  0.2778  0.0527  0.7324
   83TCq2    H3 1277   0.285   0.572  11.028 -3.0656 -3.1310 -0.7127
   83TCq2    H4 1278   0.032   0.642  10.700 -0.6016 -3.7336  0.8351
   84TCq2    C1 1279   1.064   4.698  10.988 -0.2123 -0.2556 -0.2723
   84TCq2    O2 1280   0.970   0.023  10.928 -0.4558 -0.0093  0.2111
   84TCq2    C2 1281   1.051   4.684  11.141  0.7429  0.9281  0.4563
   84TCq2    C3 1282   1.129   4.593  11.206 -0.5209  0.3086  0.3700
   84TCq2    C4 1283   1.109   4.576  11.336 -0.8293 -0.3656  0.3022
   84TCq2    C5 1284   1.020   4.645  11.406 -0.4884 -0.0415 -0.0316
   84TCq2    C6 1285   0.934   0.005  11.337  0.2998 -0.1613 -0.1905
   84TCq2    C7 1286   0.953   0.033  11.204  0.0468  0.4810  0.2205
   84TCq2    C8 1287   0.848   0.093  11.412 -0.3917 -0.3561 -0.2616
   84TCq2    O4 1288   0.858   0.106  11.535  0.0108 -0.1162  0.8445
   84TCq2    C9 1289   1.187   4.473  11.403 -0.6216 -0.4110  0.2298
   84TCq2    O5 1290   1.278   4.418  11.342 -0.1706  0.1247 -0.4090
   84TCq2    O6 1291   1.173   4.456  11.530 -0.3584 -0.3385  0.0961
   84TCq2    H2 1292   1.202   4.528  11.160 -0.1499  0.8623  0.1821
   84TCq2    H3 1293   1.011   4.623  11.511 -0.8486  0.3733  0.0270
   84TCq2    H4 1294   0.897   0.108  11.149 -0.0889  0.5274  0.4214
   85MPD2     C 1295   0.811   3.349  16.080  0.0848  0.8642 -0.8320
   85MPD2    C1 1296   0.946   3.353  16.098  0.5576 -0.0893 -0.2321
   85MPD2    C2 1297   1.019   3.451  16.035  0.3640  0.3819 -0.1669
   85MPD2    C3 1298   0.955   3.537  15.946 -0.7907 -0.4383  0.4386
   85MPD2    C4 1299   0.819   3.541  15.949  0.3139 -0.3747  0.2936
   85MPD2    C5 1300   0.743   3.448  16.011 -0.2827 -0.1557  0.2084
   85MPD2     H 1301   1.127   3.460  16.032  0.1635  1.8123 -3.8112
   85MPD2    H1 1302   0.755   3.614  15.900 -0.4811 -1.2678  0.0044
   85MPD2    H2 1303   0.759   3.258  16.107  1.0932  1.1052  1.9490
   85MPD2    H3 1304   0.636   3.457  15.992  0.1468  0.6896 -1.8050
   85MPD2     N 1305   1.027   3.623  15.863  0.1950  0.2925  0.1141
   85MPD2    H5 1306   1.126   3.606  15.876  0.1069  0.0789  0.5081
   85MPD2    N1 1307   1.015   3.243  16.162  0.0645  0.3036 -0.4580
   85MPD2    H7 1308   1.116   3.236  16.151  0.2033 -0.3555  1.3133
   86TCq2    C1 1309   0.985   3.730  15.793  0.0689  0.4031  0.6733
   86TCq2    O2 1310   0.872   3.780  15.805  0.1285 -0.5994  0.6035
   86TCq2    C2 1311   1.082   3.811  15.717 -0.8699  0.5818 -0.5123
   86TCq2    C3 1312   1.061   3.946  15.698 -0.1938 -0.1469 -0.3203
   86TCq2    C4 1313   1.164   4.023  15.657 -0.4014  0.7050 -0.2278
   86TCq2    C5 1314   1.280   3.962  15.611 -0.3851 -0.7410  0.0815
   86TCq2    C6 1315   1.288   3.825  15.619  0.1724 -0.0639 -0.1761
   86TCq2    C7 1316   1.195   3.748  15.677  0.1379 -0.0957 -0.1739
   86TCq2    C8 1317   1.412   3.754  15.582  0.1054 -0.4214 -0.3913
   86TCq2    O4 1318   1.432   3.641  15.632 -0.0510  0.3303 -0.2229
   86TCq2    C9 1319   1.157   4.159  15.677  0.1313 -0.0321  0.0764
   86TCq2    O5 1320   1.272   4.207  15.690  0.1667 -0.4469 -0.0007
   86TCq2    O6 1321   1.053   4.198  15.731  0.1378  0.0179  0.1771
   86TCq2    H2 1322   0.964   3.986  15.724  0.0491  0.4830 -0.3756
   86TCq2    H3 1323   1.352   4.018  15.552 -1.1467 -0.8201 -0.9198
   86TCq2    H4 1324   1.204   3.641  15.694 -0.6603  0.3248  2.8672
   87MPD2     C 1325   3.671   1.976   0.915  0.6363  0.1355  0.6776
   87MPD2    C1 1326   3.559   1.937   0.983 -0.6380  0.2159  0.1949
   87MPD2    C2 1327   3.493   2.035   1.053 -0.5015 -0.7242  0.2345
   87MPD2    C3 1328   3.529   2.171   1.042 -0.6202  0.2790  0.2157
   87MPD2    C4 1329   3.629   2.202   0.963 -0.0793 -0.0464 -0.1683
   87MPD2    C5 1330   3.704   2.105   0.898  0.2538  0.4445 -0.2538
   87MPD2     H 1331   3.407   2.006   1.113 -0.3153  0.6541  1.1774
   87MPD2    H1 1332   3.667   2.302   0.946 -0.8555  0.0352 -1.3662
   87MPD2    H2 1333   3.727   1.900   0.862 -2.5786 -0.7946 -1.3891
   87MPD2    H3 1334   3.791   2.128   0.836 -0.3828  2.0788 -0.5610
   87MPD2     N 1335   3.458   2.275   1.099  0.0535  0.5287 -0.2879
   87MPD2    H5 1336   3.496   2.367   1.081  2.2671 -0.7128 -1.9780
   87MPD2    N1 1337   3.530   1.795   0.992 -0.2252  0.3655  0.0841
   87MPD2    H7 1338   3.596   1.734   0.944  1.0987  1.4641  0.4823
   88TCq2    C1 1339   3.413   1.743   1.049  0.2266 -0.3525 -0.0670
   88TCq2    O2 1340   3.316   1.805   1.081 -0.4912  0.6231 -1.0831
   88TCq2    C2 1341   3.409   1.594   1.056 -0.0585 -0.0694  0.5494
   88TCq2    C3 1342   3.290   1.525   1.055  0.1304  0.7367  0.2328
   88TCq2    C4 1343   3.286   1.387   1.045 -0.3911 -0.6986  0.1059
   88TCq2    C5 1344   3.409   1.317   1.031  0.6664 -0.5602  0.5643
   88TCq2    C6 1345   3.527   1.390   1.027 -0.6166  0.2755  0.9775
   88TCq2    C7 1346   3.529   1.525   1.037 -0.3218 -0.1340  0.6407
   88TCq2    C8 1347   3.650   1.325   0.981  0.6624 -0.3660  0.1735
   88TCq2    O4 1348   3.731   1.390   0.914 -0.6584  0.3539  0.4913
   88TCq2    C9 1349   3.166   1.314   1.056  0.7334 -0.6431 -1.1577
   88TCq2    O5 1350   3.068   1.378   1.083  0.0998  0.1884  0.9176
   88TCq2    O6 1351   3.167   1.195   1.026 -0.2346  0.9206 -0.5766
   88TCq2    H2 1352   3.195   1.576   1.052  1.2025  2.8509  2.5646
   88TCq2    H3 1353   3.405   1.213   1.001  2.3746 -0.2411 -0.7819
   88TCq2    H4 1354   3.629   1.564   1.048 -0.5750  1.0661 -1.1663
   89MPD2     C 1355   4.017   3.587   1.963  0.6744 -0.5716 -0.0829
   89MPD2    C1 1356   3.929   3.671   1.901 -0.6942  0.0820 -0.4375
   89MPD2    C2 1357   3.980   3.785   1.840 -0.0941  0.3201 -0.2937
   89MPD2    C3 1358   4.114   3.810   1.827 -0.1893 -0.2368  0.3168
   89MPD2    C4 1359   4.199   3.725   1.896  0.0424  0.3130 -0.4363
   89MPD2    C5 1360   4.152   3.616   1.960  0.8839  0.6163 -0.4684
   89MPD2     H 1361   3.907   3.843   1.784 -1.6229  0.5448  1.9514
   89MPD2    H1 1362   4.307   3.736   1.887 -0.0586 -0.5256 -2.7492
   89MPD2    H2 1363   3.992   3.496   2.015 -1.6862  1.3123  2.0432
   89MPD2    H3 1364   4.227   3.545   1.993 -0.9937 -0.5489  1.2637
   89MPD2     N 1365   4.153   3.919   1.751  0.0204  0.0349 -0.6276
   89MPD2    H5 1366   4.082   3.985   1.723  1.9332  1.1995 -2.6931
   89MPD2    N1 1367   3.792   3.646   1.888 -0.1877  0.5939  0.3882
   89MPD2    H7 1368   3.734   3.721   1.852 -0.8968  0.2720  0.8586
   90TCq2    C1 1369   4.286   3.941   1.706 -0.3701 -0.0063 -0.5715
   90TCq2    O2 1370   4.386   3.872   1.715 -0.0293 -0.2342 -0.3448
   90TCq2    C2 1371   4.301   4.081   1.664  0.0708  0.0958 -0.7760
   90TCq2    C3 1372   4.219   4.177   1.704 -0.1737  1.2547 -0.1111
   90TCq2    C4 1373   4.237   4.315   1.672  0.6731 -0.4874 -0.3253
   90TCq2    C5 1374   4.337   4.349   1.584  0.3787  0.6194  0.5749
   90TCq2    C6 1375   4.423   4.250   1.547  0.0764  0.5038  0.1735
   90TCq2    C7 1376   4.409   4.120   1.591  0.6130 -0.5961 -0.2971
   90TCq2    C8 1377   4.541   4.276   1.460 -0.3523 -0.3872  0.5640
   90TCq2    O4 1378   4.627   4.187   1.463  0.3449 -0.0368 -0.4847
   90TCq2    C9 1379   4.133   4.405   1.728 -0.1298 -0.1254 -0.0031
   90TCq2    O5 1380   4.146   4.529   1.704  0.1789 -0.0394  0.5338
   90TCq2    O6 1381   4.031   4.353   1.780  0.0530 -0.1740 -0.3962
   90TCq2    H2 1382   4.146   4.162   1.783 -2.4605  0.9534 -2.2902
   90TCq2    H3 1383   4.363   4.449   1.552 -1.3793  1.3952  1.5658
   90TCq2    H4 1384   4.476   4.042   1.557  0.2371 -1.4029  0.8092
   91TMC2    C1 1385   1.344   4.121  16.263 -0.2200 -0.4329  0.3801
   91TMC2    C2 1386   1.401   4.088  16.384 -0.8065 -0.4488  0.4175
   91TMC2    C3 1387   1.334   4.133  16.499  0.7137 -0.5177  0.7817
   91TMC2    C4 1388   1.231   4.197  16.250  0.4556  0.1714 -0.7193
   91TMC2    C5 1389   1.173   4.232  16.367 -0.2078 -0.6395  0.2400
   91TMC2    C6 1390   1.218   4.201  16.489  0.0881 -0.4472 -0.1956
   91TMC2     C 1391   1.403   4.068  16.139 -0.5059 -0.2329 -0.7493
   91TMC2     O 1392   1.337   4.098  16.038  0.6110  0.3150  0.4785
   91TMC2     H 1393   1.474   4.008  16.390 -0.9908 -0.5334  1.5974
   91TMC2    H1 1394   1.187   4.242  16.162  0.0839 -1.0015 -1.1326
   91TMC2    H2 1395   1.152   4.210  16.574 -1.9432  0.5732 -1.8994
   91TMC2    C7 1396   1.032   4.270  16.362  0.0081 -0.8438 -0.0114
   91TMC2    C8 1397   1.367   4.079  16.637 -0.4864 -0.3223  0.1208
   91TMC2    O1 1398   0.981   4.303  16.468 -0.5162  0.0340 -0.5089
   91TMC2    O2 1399   1.286   4.069  16.729 -0.9032  0.2874 -0.5671
   91TMC2    O5 1400   1.482   4.006  16.635 -0.2658  0.1825 -0.0424
   91TMC2    H5 1401   1.540   4.028  16.559 -1.9879  1.8974 -0.8777
   92MPD2     C 1402   1.599   3.903  15.956 -0.3389 -0.0194 -0.5246
   92MPD2    C1 1403   1.637   3.988  16.059  0.1213  0.0618 -0.6675
   92MPD2    C2 1404   1.777   3.997  16.086 -0.5386 -0.5731 -0.1934
   92MPD2    C3 1405   1.871   3.931  16.004 -0.7684  0.3497 -0.3814
   92MPD2    C4 1406   1.826   3.846  15.907  0.0749 -0.0649 -0.3384
   92MPD2    C5 1407   1.690   3.831  15.886 -0.5276 -0.6740 -0.4057
   92MPD2     H 1408   1.812   4.061  16.166  1.6381 -1.2819 -0.5708
   92MPD2    H1 1409   1.896   3.794  15.843  0.2645 -0.1370 -0.0761
   92MPD2    H2 1410   1.498   3.877  15.925 -0.2394 -2.2934  1.0123
   92MPD2    H3 1411   1.656   3.762  15.810  0.2175 -0.6073 -0.7971
   92MPD2     N 1412   2.010   3.963  16.007 -0.1310 -0.0086 -0.0518
   92MPD2    H5 1413   2.029   4.042  16.067 -1.0952 -0.9953  1.5768
   92MPD2    N1 1414   1.542   4.044  16.152 -0.5553  0.6966 -0.2508
   92MPD2    H7 1415   1.580   4.068  16.243 -2.1060 -1.3160  0.9265
   93MPD2     C 1416   3.041   4.666  13.475 -0.3991 -0.2578  0.2117
   93MPD2    C1 1417   3.028   4.669  13.610 -0.0228 -0.2082  0.2099
   93MPD2    C2 1418   2.916   4.634  13.680 -0.2400  0.1052 -0.0074
   93MPD2    C3 1419   2.811   4.594  13.599  0.5957 -0.3607  0.8660
   93MPD2    C4 1420   2.822   4.586  13.460  0.4082  0.0976  0.4095
   93MPD2    C5 1421   2.937   4.626  13.395  0.0223  0.5107  0.1201
   93MPD2     H 1422   2.907   4.638  13.788  2.6161  2.6433  0.1331
   93MPD2    H1 1423   2.742   4.549  13.397  0.8566  1.7231 -1.1060
   93MPD2    H2 1424   3.132   4.696  13.425 -0.6255 -0.5395 -0.3715
   93MPD2    H3 1425   2.952   4.631  13.287 -1.0927 -3.4868 -0.2313
   93MPD2     N 1426   2.692   4.551  13.651 -0.2382 -0.0216  0.4352
   93MPD2    H5 1427   2.619   4.521  13.586  0.9046  0.0466 -0.8831
   93MPD2    N1 1428   3.138   4.709  13.696 -0.4720 -0.1033  0.5807
   93MPD2    H7 1429   3.120   0.013  13.792 -1.5564  0.4934  0.1890
   94TCq2    C1 1430   3.270   4.718  13.659  0.1460  0.3924 -0.7094
   94TCq2    O2 1431   3.324   4.676  13.552  0.9761  0.1232 -0.0101
   94TCq2    C2 1432   3.359   0.016  13.768 -0.0313  0.3767  0.1683
   94TCq2    C3 1433   3.312   0.083  13.874 -0.1591  0.6984  0.4220
   94TCq2    C4 1434   3.380   0.083  13.993 -0.1161 -0.6547 -0.2605
   94TCq2    C5 1435   3.504   0.020  14.009 -0.1001  0.3557 -0.7353
   94TCq2    C6 1436   3.549   4.683  13.892  0.6045 -0.1836 -0.6549
   94TCq2    C7 1437   3.478   4.680  13.775 -0.2312 -0.2876  0.2636
   94TCq2    C8 1438   3.681   4.620  13.892  0.3377 -0.4329 -0.3999
   94TCq2    O4 1439   3.765   4.647  13.978 -0.1701  0.1435 -0.6445
   94TCq2    C9 1440   3.318   0.153  14.107  0.1923  0.0771 -0.4929
   94TCq2    O5 1441   3.205   0.206  14.083  0.5851  0.0196  0.3240
   94TCq2    O6 1442   3.386   0.166  14.211 -0.6487  0.0443  0.4989
   94TCq2    H2 1443   3.225   0.147  13.866 -0.6773  0.1467  1.6345
   94TCq2    H3 1444   3.554   0.038  14.104  1.3801 -2.7772 -0.9187
   94TCq2    H4 1445   3.507   4.615  13.693  0.1181  0.2698 -0.0548
   95TMC2    C1 1446   3.772   1.204  16.013  0.5015  0.3625  0.4020
   95TMC2    C2 1447   3.826   1.079  16.004  0.1076 -0.0181 -0.5025
   95TMC2    C3 1448   3.770   0.991  16.092  0.4550  0.0414 -0.1757
   95TMC2    C4 1449   3.674   1.247  16.100 -1.0162 -0.3405 -0.0662
   95TMC2    C5 1450   3.632   1.154  16.190  0.7184  0.3045 -0.8377
   95TMC2    C6 1451   3.682   1.029  16.187 -0.1974 -0.8825 -0.2362
   95TMC2     C 1452   3.799   1.299  15.907  1.0687 -0.4152  0.8555
   95TMC2     O 1453   3.796   1.411  15.948 -0.2579  0.7335 -0.5324
   95TMC2     H 1454   3.909   1.054  15.938  0.7236  0.6531  0.0187
   95TMC2    H1 1455   3.611   1.335  16.090  0.0758  0.4358 -0.1952
   95TMC2    H2 1456   3.649   0.951  16.256  1.7843 -1.5397 -0.0314
   95TMC2    C7 1457   3.544   1.184  16.305 -0.3624  0.2225  0.2147
   95TMC2    C8 1458   3.827   0.854  16.106  0.3915  0.8559 -0.7127
   95TMC2    O1 1459   3.499   1.094  16.373 -0.1173  0.4608  0.1320
   95TMC2    O2 1460   3.820   0.790  16.211 -0.1279 -0.1621 -0.4399
   95TMC2    O5 1461   3.820   0.803  15.980  0.6225 -0.4511  0.0879
   95TMC2    H5 1462   3.794   0.870  15.913 -1.6132 -1.8242 -0.3831
   96MPD2     C 1463   3.830   1.450  15.436 -0.3888  0.0780 -0.0415
   96MPD2    C1 1464   3.817   1.526  15.545  0.4850 -0.1275  0.3538
   96MPD2    C2 1465   3.815   1.459  15.668 -0.1218 -0.1804  1.1432
   96MPD2    C3 1466   3.824   1.320  15.673 -0.0116 -0.0449 -0.8082
   96MPD2    C4 1467   3.838   1.249  15.563 -0.5598  0.0141  0.1435
   96MPD2    C5 1468   3.845   1.313  15.444 -0.3133 -0.8633 -0.2001
   96MPD2     H 1469   3.799   1.522  15.754  0.3962 -1.4394  2.1786
   96MPD2    H1 1470   3.878   1.148  15.564  2.9843  1.4345 -0.0744
   96MPD2    H2 1471   3.847   1.499  15.341  0.9051 -1.0647 -0.3919
   96MPD2    H3 1472   3.858   1.255  15.353  1.0952 -2.0627  0.7620
   96MPD2     N 1473   3.827   1.247  15.791 -1.0617 -1.0209 -0.4673
   96MPD2    H5 1474   3.834   1.146  15.786  0.3268 -0.9103 -0.7252
   96MPD2    N1 1475   3.807   1.670  15.541 -0.4462 -0.6562  0.6706
   96MPD2    H7 1476   3.826   1.714  15.451  1.0319 -3.0011 -0.1507
   97MPD2     C 1477   0.526   3.080   1.027  0.5521 -0.6820  0.0321
   97MPD2    C1 1478   0.461   3.196   1.066  0.8258  0.7129  0.1270
   97MPD2    C2 1479   0.522   3.321   1.040  0.4185 -0.3099  0.3703
   97MPD2    C3 1480   0.647   3.325   0.982 -0.9128 -0.1063  0.2667
   97MPD2    C4 1481   0.702   3.210   0.939 -0.0706 -0.4575  0.2860
   97MPD2    C5 1482   0.647   3.091   0.959 -0.6278 -0.4139  0.1920
   97MPD2     H 1483   0.485   3.410   1.090 -0.0596 -0.6535  0.6402
   97MPD2    H1 1484   0.804   3.224   0.905 -0.0981 -1.4582 -0.2193
   97MPD2    H2 1485   0.489   2.979   1.037  0.6774 -0.6225  1.1248
   97MPD2    H3 1486   0.693   2.995   0.937  0.4916 -0.2201  1.6807
   97MPD2     N 1487   0.733   3.436   0.968 -0.3900  0.4092  0.0202
   97MPD2    H5 1488   0.827   3.426   0.932  0.5028  0.5802  2.3171
   97MPD2    N1 1489   0.348   3.179   1.146 -0.3996  0.1958  0.2368
   97MPD2    H7 1490   0.319   3.092   1.189 -1.8800 -0.2364 -1.5958
   98TCq2    C1 1491   0.700   3.563   1.009 -0.2453 -0.2590  0.7179
   98TCq2    O2 1492   0.598   3.607   1.065  0.4305  0.1904  0.2525
   98TCq2    C2 1493   0.807   3.653   0.987 -0.0231 -0.1344  0.2573
   98TCq2    C3 1494   0.879   3.624   0.869 -0.0205 -0.7114  0.5470
   98TCq2    C4 1495   0.990   3.705   0.838  0.5916  0.0237  0.0592
   98TCq2    C5 1496   1.011   3.821   0.906  0.1673 -0.2140  0.5006
   98TCq2    C6 1497   0.926   3.846   1.009 -0.8738  0.7129 -0.8719
   98TCq2    C7 1498   0.824   3.765   1.054  0.1499 -0.0357 -0.1772
   98TCq2    C8 1499   0.917   3.984   1.057 -0.0029 -0.6052 -0.3067
   98TCq2    O4 1500   1.016   4.052   1.037 -0.5344 -0.7981 -0.3456
   98TCq2    C9 1501   1.093   3.662   0.746 -0.7052 -0.1559  0.3414
   98TCq2    O5 1502   1.186   3.741   0.726  0.4340 -0.1087  0.2476
   98TCq2    O6 1503   1.063   3.561   0.678 -0.3846  0.5636 -0.2142
   98TCq2    H2 1504   0.871   3.537   0.805 -1.8144 -1.4562  1.7583
   98TCq2    H3 1505   1.091   3.886   0.873 -0.0085  0.2532  1.0001
   98TCq2    H4 1506   0.759   3.790   1.136 -0.3220 -0.3582 -0.4528
   99MPD2     C 1507   4.210   1.334   1.557 -0.1350  0.5537  0.3384
   99MPD2    C1 1508   4.100   1.262   1.594  0.2180 -0.5732 -0.8727
   99MPD2    C2 1509   4.112   1.124   1.582 -0.4077  0.7700  0.2435
   99MPD2    C3 1510   4.234   1.059   1.554  0.2484  0.5385 -0.1401
   99MPD2    C4 1511   4.345   1.139   1.524 -0.1796 -0.7291  0.8908
   99MPD2    C5 1512   4.327   1.270   1.524 -0.2168 -0.6498  0.0378
   99MPD2     H 1513   4.025   1.067   1.613 -0.3943  0.6371  0.0375
   99MPD2    H1 1514   4.447   1.106   1.503 -0.4231 -2.5639  2.6162
   99MPD2    H2 1515   4.199   1.442   1.557  1.3786  0.7039  0.1274
   99MPD2    H3 1516   4.411   1.334   1.498 -1.7211  1.1585 -0.3534
   99MPD2     N 1517   4.243   0.921   1.543 -0.3168  0.4480 -0.2501
   99MPD2    H5 1518   4.152   0.877   1.559 -0.4351  0.5493 -0.6314
   99MPD2    N1 1519   3.973   1.325   1.630  0.3981 -0.4431  0.4614
   99MPD2    H7 1520   3.912   1.258   1.676 -0.4985 -0.6886 -1.1162
  100TCq2    C1 1521   3.940   1.459   1.625  0.6738 -0.6007 -0.6396
  100TCq2    O2 1522   4.010   1.558   1.608  0.3521  0.4360 -0.1065
  100TCq2    C2 1523   3.799   1.485   1.653 -0.7170  0.2054  0.1456
  100TCq2    C3 1524   3.770   1.617   1.663 -0.4794 -0.0478  0.2544
  100TCq2    C4 1525   3.653   1.661   1.716 -0.4187 -0.1183  0.4857
  100TCq2    C5 1526   3.564   1.568   1.758  0.1408  0.0861  0.5591
  100TCq2    C6 1527   3.595   1.429   1.743 -0.3235  0.0959  0.6821
  100TCq2    C7 1528   3.714   1.386   1.691 -0.5889 -0.5207  0.7228
  100TCq2    C8 1529   3.503   1.333   1.792 -0.7998  0.4860  0.0254
  100TCq2    O4 1530   3.383   1.366   1.790  0.1249 -0.0579 -0.3162
  100TCq2    C9 1531   3.610   1.796   1.703  0.9939  0.1947 -0.0081
  100TCq2    O5 1532   3.514   1.841   1.766 -0.6703  0.0675 -0.6254
  100TCq2    O6 1533   3.681   1.879   1.638  0.0704  0.1812 -0.1939
  100TCq2    H2 1534   3.834   1.692   1.616 -0.4833 -0.6020 -0.6324
  100TCq2    H3 1535   3.478   1.608   1.811 -0.6630  0.5637 -1.1025
  100TCq2    H4 1536   3.739   1.281   1.689 -1.8434 -0.7748 -2.4024
  101MPD2     C 1537   0.024   2.059  12.829 -0.3146 -0.6227 -0.1660
  101MPD2    C1 1538   4.646   2.140  12.865 -0.1138 -0.4060  0.6010
  101MPD2    C2 1539   4.561   2.099  12.969 -0.0781 -0.5323 -0.3860
  101MPD2    C3 1540   4.576   1.977  13.034 -0.5288 -0.1394  0.1708
  101MPD2    C4 1541   4.684   1.897  12.998  0.1551 -0.0017 -0.7377
  101MPD2    C5 1542   0.052   1.943  12.896 -0.4587  0.0328 -0.1057
  101MPD2     H 1543   4.480   2.162  13.004  0.4505  1.1522 -2.2072
  101MPD2    H1 1544   4.710   1.806  13.051 -1.9737 -0.4017 -0.3636
  101MPD2    H2 1545   0.110   2.077  12.765  2.0319  0.6742  3.3413
  101MPD2    H3 1546   0.138   1.884  12.869  0.4256  0.2968  2.1558
  101MPD2     N 1547   4.490   1.948  13.149  0.1433 -0.0842 -0.2282
  101MPD2    H5 1548   4.401   1.996  13.148 -0.5640 -1.3756  0.6891
  101MPD2    N1 1549   4.629   2.261  12.790  0.3322 -0.0874 -0.2387
  101MPD2    H7 1550   4.701   2.275  12.720  0.3316 -2.7027 -0.7514
  102TCq2    C1 1551   0.020   2.599  12.457 -0.3800  0.6125  1.0970
  102TCq2    O2 1552   0.123   2.554  12.506  0.1432 -0.0878  0.1011
  102TCq2    C2 1553   4.623   2.577  12.538  0.0584  0.0231 -0.0927
  102TCq2    C3 1554   4.499   2.614  12.488  0.5058  0.1220  0.6302
  102TCq2    C4 1555   4.390   2.562  12.551 -0.0530  0.2250  0.4071
  102TCq2    C5 1556   4.395   2.471  12.651  0.2422  0.9070  0.6237
  102TCq2    C6 1557   4.516   2.436  12.695  0.2403 -0.6388 -0.3863
  102TCq2    C7 1558   4.634   2.493  12.645  0.3196 -0.4417 -0.0271
  102TCq2    C8 1559   4.513   2.341  12.798 -0.4389  0.8372 -0.3123
  102TCq2    O4 1560   4.423   2.344  12.879  0.2218  0.5651 -0.2563
  102TCq2    C9 1561   4.261   2.601  12.501  0.2124  0.0646 -0.2530
  102TCq2    O5 1562   4.243   2.624  12.379  0.3515  0.6298 -0.1394
  102TCq2    O6 1563   4.172   2.581  12.585 -0.5482 -0.2357 -0.1857
  102TCq2    H2 1564   4.481   2.692  12.415 -0.8732 -0.4363  0.3782
  102TCq2    H3 1565   4.307   2.425  12.695 -0.0758  1.3768  0.4720
  102TCq2    H4 1566   0.003   2.484  12.700  0.9460 -0.3506 -1.0690
  103TMC2    C1 1567   3.087   2.740  12.417 -0.1553  0.3942  0.2813
  103TMC2    C2 1568   3.162   2.852  12.411 -0.2359 -1.0556  0.1476
  103TMC2    C3 1569   3.253   2.872  12.508 -0.3515  0.5472 -0.3420
  103TMC2    C4 1570   3.076   2.665  12.531  0.5599  0.1433  1.0910
  103TMC2    C5 1571   3.161   2.692  12.631 -0.7893 -0.9233 -0.0350
  103TMC2    C6 1572   3.252   2.794  12.625  0.3096  0.5448  0.5073
  103TMC2     C 1573   2.980   2.728  12.317 -0.0798 -0.6249 -0.2128
  103TMC2     O 1574   2.949   2.826  12.245  0.1071  0.2735 -0.0674
  103TMC2     H 1575   3.156   2.924  12.330 -0.5449 -2.0886 -0.7548
  103TMC2    H1 1576   3.002   2.587  12.542  0.5753  0.0067  0.2192
  103TMC2    H2 1577   3.326   2.800  12.704 -1.5998 -0.4241  2.3753
  103TMC2    C7 1578   3.138   2.634  12.753  0.3530 -0.1851  0.5031
  103TMC2    C8 1579   3.303   3.006  12.514  0.0236 -0.2919 -0.1870
  103TMC2    O1 1580   3.153   2.707  12.854  0.3248  0.1161  0.0056
  103TMC2    O2 1581   3.350   3.065  12.609 -0.6206  0.2566  0.1847
  103TMC2    O5 1582   3.346   3.035  12.391  0.2332  0.1349 -0.3659
  103TMC2    H5 1583   3.312   2.967  12.329 -2.1974 -0.5598  1.7002
  104MPD2     C 1584   2.762   2.430  12.268  0.1551  0.0751 -0.4491
  104MPD2    C1 1585   2.797   2.568  12.270  0.7725  0.1381 -0.3012
  104MPD2    C2 1586   2.699   2.654  12.223  0.2628  0.0478 -0.3623
  104MPD2    C3 1587   2.569   2.616  12.194 -0.0335 -1.0268  0.9796
  104MPD2    C4 1588   2.542   2.473  12.193  0.0521 -0.1306 -0.1034
  104MPD2    C5 1589   2.644   2.387  12.225 -0.7888  0.6736 -0.4125
  104MPD2     H 1590   2.722   2.760  12.226 -2.6471  0.6704 -0.5202
  104MPD2    H1 1591   2.449   2.424  12.166 -0.3978 -0.4680  2.0842
  104MPD2    H2 1592   2.837   2.356  12.294  0.5167  0.9040  0.8542
  104MPD2    H3 1593   2.632   2.279  12.224 -2.4329  0.8043  2.3648
  104MPD2     N 1594   2.465   2.708  12.164 -0.5496 -0.3372  0.4004
  104MPD2    H5 1595   2.493   2.805  12.156  2.4044 -0.9715  2.8875
  104MPD2    N1 1596   2.929   2.604  12.312  0.1958  0.4064 -0.1267
  104MPD2    H7 1597   2.982   2.531  12.358 -0.8277  1.2678  2.4068
  105MPD2     C 1598   0.257   1.154   0.180 -0.5085 -0.2358  0.2411
  105MPD2    C1 1599   0.187   1.271   0.179 -0.6450 -0.1862 -0.2471
  105MPD2    C2 1600   0.073   1.290   0.258  0.4215  0.8898  0.6077
  105MPD2    C3 1601   0.026   1.188   0.329 -0.4134  0.4636  0.2936
  105MPD2    C4 1602   0.093   1.069   0.330 -0.4348 -0.1999 -0.1282
  105MPD2    C5 1603   0.210   1.049   0.260  0.0980 -0.1499  0.1743
  105MPD2     H 1604   0.009   1.376   0.249 -0.0743  0.4218 -0.2766
  105MPD2    H1 1605   0.073   0.989   0.401  0.3855 -0.4712 -0.1983
  105MPD2    H2 1606   0.340   1.135   0.112  0.5563 -0.6949  1.6495
  105MPD2    H3 1607   0.273   0.961   0.252 -0.3220 -0.2322 -2.3864
  105MPD2     N 1608   4.624   1.211   0.386  0.2285 -0.0691  0.2406
  105MPD2    H5 1609   4.582   1.303   0.379 -0.0344 -0.0712  1.6393
  105MPD2    N1 1610   0.204   1.365   0.076 -0.7662  0.0876  0.1289
  105MPD2    H7 1611   0.149   1.450   0.080  0.3993  0.7698  1.8821
  106TCq2    C1 1612   4.544   1.109   0.439  0.1771  0.2048  0.1380
  106TCq2    O2 1613   4.560   0.989   0.428 -0.0922 -0.2213  0.1492
  106TCq2    C2 1614   4.440   1.162   0.524 -0.0673  0.1345  0.7063
  106TCq2    C3 1615   4.432   1.299   0.536 -0.1837 -0.8632 -0.4961
  106TCq2    C4 1616   4.349   1.348   0.629 -0.1927  0.3016 -0.1333
  106TCq2    C5 1617   4.279   1.262   0.708 -0.4474 -0.3488 -0.2535
  106TCq2    C6 1618   4.287   1.124   0.688 -0.4064 -0.2422  0.5823
  106TCq2    C7 1619   4.362   1.071   0.593 -0.1671 -0.1237 -0.2547
  106TCq2    C8 1620   4.202   1.033   0.760  0.2276  0.5270  0.3877
  106TCq2    O4 1621   4.212   0.915   0.750  0.0820  0.5911  0.2198
  106TCq2    C9 1622   4.315   1.490   0.636 -0.7260 -0.6088 -0.2084
  106TCq2    O5 1623   4.213   1.528   0.698 -0.5414  0.0200 -0.2229
  106TCq2    O6 1624   4.387   1.568   0.567  0.3485  0.0198 -0.8590
  106TCq2    H2 1625   4.482   1.375   0.478  0.0263  1.3289  2.5699
  106TCq2    H3 1626   4.247   1.302   0.804  2.5951  2.4191 -0.4023
  106TCq2    H4 1627   4.373   0.965   0.569  0.5284 -0.1652  0.2569
  107TMC2    C1 1628   0.354   0.732  11.926 -0.8243 -0.2354  0.1314
  107TMC2    C2 1629   0.364   0.633  12.019 -0.5004  0.7539 -0.1417
  107TMC2    C3 1630   0.424   0.514  11.981  0.0260  0.5487  0.1399
  107TMC2    C4 1631   0.374   0.711  11.793  0.2540 -0.5177  0.2690
  107TMC2    C5 1632   0.415   0.585  11.752  0.7493 -0.0405  0.0815
  107TMC2    C6 1633   0.445   0.488  11.846 -0.0153  0.0300 -0.9330
  107TMC2     C 1634   0.266   0.842  11.967  1.0663  0.6859 -0.1515
  107TMC2     O 1635   0.206   0.813  12.075 -0.2859 -0.2626 -0.1723
  107TMC2     H 1636   0.335   0.649  12.122  4.0703 -1.0410  1.3962
  107TMC2    H1 1637   0.337   0.779  11.716  1.4379 -1.1234 -0.8215
  107TMC2    H2 1638   0.475   0.388  11.818 -0.6472 -0.4292  0.0593
  107TMC2    C7 1639   0.427   0.558  11.609 -1.2246 -0.0359  0.0800
  107TMC2    C8 1640   0.434   0.409  12.084 -0.7342 -0.1309 -0.2614
  107TMC2    O1 1641   0.382   0.637  11.531 -0.4509  0.3924 -0.0710
  107TMC2    O2 1642   0.409   0.443  12.200 -0.0270 -0.2303 -0.0346
  107TMC2    O5 1643   0.388   0.292  12.028  0.0914  0.2523  0.1121
  107TMC2    H5 1644   0.360   0.305  11.935 -3.3109 -1.4615  0.9114
  108MPD2     C 1645   0.178   1.139  11.785 -0.3829  0.3159 -1.2837
  108MPD2    C1 1646   0.187   1.062  11.901  0.1072 -0.1492 -0.7582
  108MPD2    C2 1647   0.107   1.087  12.005 -0.1379  0.3645 -0.1609
  108MPD2    C3 1648   0.019   1.193  12.008  0.1443 -0.1045 -0.3898
  108MPD2    C4 1649   0.006   1.268  11.891 -0.0262 -0.1903  0.0720
  108MPD2    C5 1650   0.084   1.238  11.778  0.0625 -0.3605  0.8261
  108MPD2     H 1651   0.123   1.024  12.092  1.2877 -0.9680 -1.3908
  108MPD2    H1 1652   4.654   1.344  11.886  0.9031  0.7398 -0.1150
  108MPD2    H2 1653   0.234   1.101  11.701  2.7092 -1.2898  1.4717
  108MPD2    H3 1654   0.072   1.290  11.683  1.1569 -2.5564 -0.5179
  108MPD2     N 1655   4.648   1.206  12.106 -0.1835  0.3100 -0.6016
  108MPD2    H5 1656   4.577   1.277  12.091 -0.8833 -0.3685 -0.5144
  108MPD2    N1 1657   0.273   0.950  11.887 -0.1143 -0.0901  1.1398
  108MPD2    H7 1658   0.345   0.949  11.816 -1.7793 -0.2649 -0.5405
  109MPD2     C 1659   4.220   2.557   2.178  0.8044 -0.0730 -0.3820
  109MPD2    C1 1660   4.275   2.679   2.145  0.1149  0.5887  0.1560
  109MPD2    C2 1661   4.398   2.706   2.202  0.3404  1.2475 -0.0623
  109MPD2    C3 1662   4.460   2.631   2.292  0.5496 -0.0423  0.2286
  109MPD2    C4 1663   4.404   2.510   2.325  0.4353  0.5319  0.7453
  109MPD2    C5 1664   4.285   2.476   2.270 -0.0506 -0.3718  0.1121
  109MPD2     H 1665   4.453   2.797   2.181  0.7472  0.8461 -0.7336
  109MPD2    H1 1666   4.450   2.438   2.392  0.7928 -1.4725 -1.6402
  109MPD2    H2 1667   4.126   2.524   2.136 -0.9693  1.8257  2.1300
  109MPD2    H3 1668   4.235   2.390   2.313  3.4385 -3.9765 -3.0279
  109MPD2     N 1669   4.596   2.664   2.320  0.3942  0.1762 -0.1305
  109MPD2    H5 1670   4.630   2.755   2.293 -0.8921  0.9529  0.8417
  109MPD2    N1 1671   4.212   2.752   2.044  0.3774 -0.4699  0.4990
  109MPD2    H7 1672   4.125   2.719   2.002  0.1772  2.7103 -1.6402
  110TCq2    C1 1673   4.685   2.586   2.397  0.8330  0.3055  0.3177
  110TCq2    O2 1674   4.675   2.476   2.451 -0.2677 -0.1686  0.0385
  110TCq2    C2 1675   0.099   2.632   2.378  0.1073 -0.0308 -0.0549
  110TCq2    C3 1676   0.204   2.558   2.419 -0.3268 -0.4307  0.0208
  110TCq2    C4 1677   0.329   2.576   2.373  0.5176 -0.6571  0.5203
  110TCq2    C5 1678   0.356   2.667   2.271  0.1033  0.2212  0.0216
  110TCq2    C6 1679   0.252   2.754   2.234  0.6678  0.5059 -0.1545
  110TCq2    C7 1680   0.127   2.734   2.288 -0.6212 -0.8017  0.0665
  110TCq2    C8 1681   0.274   2.849   2.115  0.3432 -0.7910  0.0150
  110TCq2    O4 1682   0.171   2.891   2.062 -0.1772  0.0046  0.3188
  110TCq2    C9 1683   0.421   2.476   2.423 -0.8758  0.4140  0.6756
  110TCq2    O5 1684   0.384   2.402   2.518  0.0832  0.1241 -0.1828
  110TCq2    O6 1685   0.540   2.476   2.378  0.3685 -0.3715  0.2299
  110TCq2    H2 1686   0.182   2.470   2.479  0.9538 -0.4807  0.4284
  110TCq2    H3 1687   0.442   2.653   2.207  0.0893 -2.7419  0.6390
  110TCq2    H4 1688   0.048   2.801   2.254  1.2635 -0.1042 -2.9509
  111TMC2    C1 1689   0.656   2.449  11.116  0.3559  0.4905 -0.3776
  111TMC2    C2 1690   0.738   2.386  11.026 -0.2684  0.3528  0.1338
  111TMC2    C3 1691   0.869   2.352  11.064  0.1136 -0.4917 -0.9701
  111TMC2    C4 1692   0.697   2.480  11.241  0.0130  0.0765 -1.2655
  111TMC2    C5 1693   0.830   2.462  11.270 -0.3143  0.0488 -0.1100
  111TMC2    C6 1694   0.917   2.392  11.186 -0.1804 -0.2449 -0.7810
  111TMC2     C 1695   0.519   2.474  11.075 -0.3493 -0.0913  0.1114
  111TMC2     O 1696   0.475   2.393  10.990  0.1617 -0.3463 -0.1833
  111TMC2     H 1697   0.707   2.375  10.923  1.6103 -0.4198 -0.3332
  111TMC2    H1 1698   0.631   2.525  11.315 -1.0115 -0.4950 -1.8361
  111TMC2    H2 1699   1.023   2.379  11.205 -0.4263  0.3466  1.0019
  111TMC2    C7 1700   0.869   2.495  11.403  0.2262 -0.5098 -0.4053
  111TMC2    C8 1701   0.944   2.260  10.986  0.2049 -0.0496  0.0323
  111TMC2    O1 1702   0.781   2.550  11.472  0.6391  0.2589  0.2997
  111TMC2    O2 1703   1.054   2.285  10.942  0.6531  0.1815  0.2277
  111TMC2    O5 1704   0.849   2.188  10.930 -0.1155  0.3750 -0.4315
  111TMC2    H5 1705   0.775   2.165  10.989 -0.2083  0.4391 -0.5224
  112MPD2     C 1706   0.063   2.702  11.134  0.6843 -0.0184  0.4107
  112MPD2    C1 1707   0.114   2.643  11.023  0.2276  0.2429  0.3806
  112MPD2    C2 1708   0.240   2.585  11.026  0.0769  0.1627  0.4627
  112MPD2    C3 1709   0.324   2.597  11.140  0.0361  0.5866 -0.5013
  112MPD2    C4 1710   0.273   2.656  11.252  0.3615  0.9371 -0.3172
  112MPD2    C5 1711   0.143   2.707  11.245 -0.1383  0.4654 -0.9599
  112MPD2     H 1712   0.278   2.525  10.944 -0.6608 -2.6512  2.1754
  112MPD2    H1 1713   0.330   2.657  11.344 -0.6755  0.7308  0.3288
  112MPD2    H2 1714   4.697   2.761  11.144  1.6082  1.7002 -1.2799
  112MPD2    H3 1715   0.108   2.757  11.335 -1.1289  1.2129 -1.7677
  112MPD2     N 1716   0.452   2.553  11.158  0.6055  0.0920  0.2443
  112MPD2    H5 1717   0.509   2.594  11.232  1.8446 -1.4607  0.1452
  112MPD2    N1 1718   0.050   2.632  10.892  0.0302  0.3136 -0.6218
  112MPD2    H7 1719   0.097   2.583  10.817 -2.1329 -2.5871 -0.0949
  113MPD2     C 1720   2.681   0.895   1.244  0.2945  0.3384 -0.3382
  113MPD2    C1 1721   2.716   1.009   1.178 -0.3009 -0.1072  0.0870
  113MPD2    C2 1722   2.650   1.039   1.059  0.1084  0.0455  0.9783
  113MPD2    C3 1723   2.544   0.959   1.016  0.1572  0.6041 -1.1526
  113MPD2    C4 1724   2.515   0.849   1.078 -0.0176 -0.4813  0.5660
  113MPD2    C5 1725   2.584   0.813   1.195 -0.8052 -0.1425 -0.4797
  113MPD2     H 1726   2.678   1.127   1.003 -0.8951 -0.3707 -0.1614
  113MPD2    H1 1727   2.428   0.786   1.065  0.3185 -0.5607 -1.2790
  113MPD2    H2 1728   2.723   0.881   1.343  0.9234 -2.1034 -0.9612
  113MPD2    H3 1729   2.554   0.728   1.255  2.9239 -0.6821  0.6160
  113MPD2     N 1730   2.457   0.980   0.906 -0.3710 -0.4591  0.5822
  113MPD2    H5 1731   2.382   0.912   0.900 -0.6982 -0.1672  1.3992
  113MPD2    N1 1732   2.823   1.096   1.216  0.0776 -0.9841 -0.3606
  113MPD2    H7 1733   2.818   1.183   1.165  2.0315  0.1793  1.4058
  114TCq2    C1 1734   2.458   1.080   0.814  0.5281 -0.6145 -1.3672
  114TCq2    O2 1735   2.527   1.185   0.809  0.5800  0.0873 -0.3868
  114TCq2    C2 1736   2.371   1.049   0.697 -0.0571 -0.8403  0.1650
  114TCq2    C3 1737   2.359   1.143   0.602 -0.0372  0.2443 -0.0302
  114TCq2    C4 1738   2.317   1.114   0.474  0.1942 -0.7640 -0.3454
  114TCq2    C5 1739   2.285   0.990   0.439  0.0808  0.5533 -0.5379
  114TCq2    C6 1740   2.310   0.890   0.528 -0.1172 -0.0065 -0.2359
  114TCq2    C7 1741   2.354   0.916   0.661 -0.0556 -0.6707 -0.2294
  114TCq2    C8 1742   2.281   0.751   0.496  0.7155  0.7750  0.0991
  114TCq2    O4 1743   2.281   0.714   0.378  0.6293 -0.2308 -0.5353
  114TCq2    C9 1744   2.298   1.228   0.398  0.1437  0.4794  0.0503
  114TCq2    O5 1745   2.253   1.217   0.281 -0.0508 -0.6856 -0.0008
  114TCq2    O6 1746   2.347   1.336   0.446  0.0131 -0.0803  0.0539
  114TCq2    H2 1747   2.379   1.246   0.628 -0.7531  0.2273  0.5894
  114TCq2    H3 1748   2.261   0.972   0.335 -0.3906 -0.9289 -0.1767
  114TCq2    H4 1749   2.398   0.841   0.726  0.7662  0.0183 -0.0045
  115TMC2    C1 1750   4.451   3.505   0.282 -0.4755 -0.1879  0.4047
  115TMC2    C2 1751   4.574   3.456   0.247  0.2392  0.5775  0.1241
  115TMC2    C3 1752   4.670   3.546   0.224  0.2636 -0.4594  0.9179
  115TMC2    C4 1753   4.420   3.636   0.273 -0.3389 -0.9686  0.5143
  115TMC2    C5 1754   4.519   3.720   0.225  0.2845 -0.1481 -0.2818
  115TMC2    C6 1755   4.647   3.678   0.200  0.1857  0.1475  0.4897
  115TMC2     C 1756   4.350   3.406   0.303 -0.4367 -0.6899  0.6648
  115TMC2     O 1757   4.383   3.287   0.293 -0.7550 -0.1757 -0.2409
  115TMC2     H 1758   4.596   3.352   0.266 -0.6752  0.6319  1.4329
  115TMC2    H1 1759   4.322   3.674   0.302  0.0304  0.7918 -0.5087
  115TMC2    H2 1760   0.002   3.751   0.191 -0.5184  0.9220  0.4909
  115TMC2    C7 1761   4.497   3.855   0.274 -0.1378 -0.5530 -0.3738
  115TMC2    C8 1762   0.082   3.520   0.274 -1.1660 -0.0300  0.0304
  115TMC2    O1 1763   4.416   3.877   0.368 -0.5138 -0.1482  0.5440
  115TMC2    O2 1764   0.161   3.617   0.284 -0.8906  0.0404  0.2794
  115TMC2    O5 1765   0.112   3.387   0.269 -0.2284  0.2161  0.4487
  115TMC2    H5 1766   0.050   3.330   0.220  0.2773  0.6615 -0.7204
  116MPD2     C 1767   3.856   3.299   0.426  0.1955  0.8340 -0.8442
  116MPD2    C1 1768   3.946   3.220   0.357 -0.2841 -0.1438 -0.4191
  116MPD2    C2 1769   4.075   3.265   0.336  0.4398  0.6518  0.4445
  116MPD2    C3 1770   4.112   3.393   0.374 -0.5047 -0.0167 -0.4566
  116MPD2    C4 1771   4.016   3.474   0.443  0.0983 -0.3846 -1.5655
  116MPD2    C5 1772   3.888   3.426   0.464  0.0410  0.1387 -0.0905
  116MPD2     H 1773   4.149   3.198   0.293 -1.9802 -0.2068 -2.3986
  116MPD2    H1 1774   4.037   3.577   0.471 -1.5590 -0.1836 -1.0546
  116MPD2    H2 1775   3.752   3.277   0.446  0.3901 -0.1716 -0.9335
  116MPD2    H3 1776   3.813   3.478   0.523  1.9152  0.9350  1.5651
  116MPD2     N 1777   4.230   3.459   0.340  0.3473 -0.3512  0.1048
  116MPD2    H5 1778   4.235   3.558   0.364  0.9167 -0.0048 -1.4333
  116MPD2    N1 1779   3.889   3.098   0.309 -0.2728  0.5489 -0.5594
  116MPD2    H7 1780   3.790   3.083   0.325 -0.0814  0.8669  0.9790
  117TMC2    C1 1781   2.657   0.205  14.475 -1.1752 -0.5027  0.1681
  117TMC2    C2 1782   2.658   0.218  14.608  0.0800  0.1103  0.4009
  117TMC2    C3 1783   2.761   0.299  14.654  0.4537 -0.4343  0.1169
  117TMC2    C4 1784   2.749   0.263  14.389  0.9656  0.6344 -0.2293
  117TMC2    C5 1785   2.844   0.356  14.433  0.1761 -0.1266 -0.8765
  117TMC2    C6 1786   2.844   0.371  14.567 -0.4752  0.8926 -0.0787
  117TMC2     C 1787   2.532   0.161  14.415 -0.9617 -0.1879  0.1219
  117TMC2     O 1788   2.470   0.073  14.473 -0.2567 -0.3082  0.1026
  117TMC2     H 1789   2.590   0.165  14.673 -0.1247  0.3167  0.3546
  117TMC2    H1 1790   2.740   0.238  14.284  0.2668 -2.4459  0.5636
  117TMC2    H2 1791   2.898   0.455  14.610 -0.8436  1.2658 -0.3420
  117TMC2    C7 1792   2.940   0.428  14.353 -0.3665 -0.4943  0.9161
  117TMC2    C8 1793   2.756   0.327  14.796  0.2918  0.7305  0.0698
  117TMC2    O1 1794   3.024   0.495  14.416  0.4042 -0.3023  0.4153
  117TMC2    O2 1795   2.652   0.297  14.850 -0.4830  0.2871 -0.2030
  117TMC2    O5 1796   2.881   0.322  14.835  0.4601  0.0626 -0.2824
  117TMC2    H5 1797   2.941   0.284  14.766  0.7128 -0.8835  0.4625
  118MPD2     C 1798   2.915   0.484  13.991 -0.4645 -0.3080  0.6051
  118MPD2    C1 1799   2.948   0.513  14.123  0.0253  0.2250  0.8341
  118MPD2    C2 1800   2.995   0.640  14.155  0.0547 -0.4377 -0.0089
  118MPD2    C3 1801   3.007   0.736  14.054 -0.0520  0.9349 -0.3451
  118MPD2    C4 1802   2.960   0.703  13.930 -0.6425 -1.0291 -0.7370
  118MPD2    C5 1803   2.916   0.581  13.899  0.2190  0.6093 -0.3976
  118MPD2     H 1804   3.021   0.659  14.258  1.0773  0.8924 -0.5132
  118MPD2    H1 1805   2.972   0.778  13.853  0.1760  0.4379  0.8131
  118MPD2    H2 1806   2.878   0.388  13.959  1.1236 -1.1419  1.2606
  118MPD2    H3 1807   2.892   0.552  13.797 -1.2082 -0.8860  0.3690
  118MPD2     N 1808   3.051   0.868  14.072  0.1266 -0.1235 -0.1570
  118MPD2    H5 1809   3.059   0.925  13.989 -0.4667 -1.6181 -1.2455
  118MPD2    N1 1810   2.924   0.411  14.219 -0.6064 -0.0799  0.7963
  118MPD2    H7 1811   2.864   0.333  14.193  1.0016  0.1856 -3.6267
  119MPD2     C 1812   1.147   1.637  13.973 -0.9836 -0.7005  1.1298
  119MPD2    C1 1813   1.037   1.585  14.027  0.1228 -0.0608 -0.0493
  119MPD2    C2 1814   0.941   1.537  13.942  0.1701  0.1301  0.3803
  119MPD2    C3 1815   0.955   1.542  13.801  0.7375  0.2663 -0.0905
  119MPD2    C4 1816   1.069   1.598  13.745  0.2960  0.2132 -0.3684
  119MPD2    C5 1817   1.165   1.632  13.831 -0.3795 -0.3716  0.6151
  119MPD2     H 1818   0.845   1.506  13.983 -0.0532  1.8080  1.1602
  119MPD2    H1 1819   1.080   1.627  13.641 -0.0361 -0.1221 -0.4950
  119MPD2    H2 1820   1.227   1.679  14.033  0.1462 -1.3564  0.0812
  119MPD2    H3 1821   1.257   1.672  13.790 -0.7084 -0.5691 -0.3156
  119MPD2     N 1822   0.854   1.516  13.707 -0.1822  0.4453 -0.0854
  119MPD2    H5 1823   0.883   1.529  13.611  0.8637  2.2993  0.4772
  119MPD2    N1 1824   1.035   1.590  14.172  0.0285 -0.7248  0.6759
  119MPD2    H7 1825   1.105   1.643  14.223 -0.8332  1.5738 -0.4992
  120TCq2    C1 1826   0.740   1.444  13.734  0.4051  0.5857  0.0154
  120TCq2    O2 1827   0.703   1.403  13.841 -0.0901  0.3994 -0.5208
  120TCq2    C2 1828   0.684   1.381  13.612  0.2195  0.3675  0.0024
  120TCq2    C3 1829   0.736   1.421  13.493  0.0365 -0.2210 -0.9304
  120TCq2    C4 1830   0.677   1.381  13.374  0.3463 -0.3515  0.2954
  120TCq2    C5 1831   0.579   1.294  13.380  0.5889  0.3915 -0.7652
  120TCq2    C6 1832   0.528   1.249  13.496  0.1903 -0.8450 -0.6079
  120TCq2    C7 1833   0.585   1.286  13.617  0.3871 -0.1319  0.4446
  120TCq2    C8 1834   0.386   1.210  13.505  0.0182  0.1247  0.1347
  120TCq2    O4 1835   0.315   1.241  13.407  0.4107 -0.5783 -0.9277
  120TCq2    C9 1836   0.732   1.430  13.249 -0.4643 -0.0754 -0.0058
  120TCq2    O5 1837   0.853   1.468  13.248 -0.6945 -0.3199  0.4427
  120TCq2    O6 1838   0.677   1.389  13.143  0.0895 -0.4733  0.3493
  120TCq2    H2 1839   0.824   1.480  13.474 -0.1177  0.1718 -0.4164
  120TCq2    H3 1840   0.532   1.274  13.284 -0.5104 -1.9106  0.2519
  120TCq2    H4 1841   0.540   1.257  13.711  0.2075  0.2095  0.4631
  121TMC2    C1 1842   2.195   3.268  14.151 -0.2918  0.0714  0.0359
  121TMC2    C2 1843   2.204   3.292  14.281 -0.0696  0.1085 -0.0736
  121TMC2    C3 1844   2.112   3.237  14.362 -0.3208 -0.0406 -0.0043
  121TMC2    C4 1845   2.084   3.208  14.095  0.9607 -0.4605 -0.5562
  121TMC2    C5 1846   1.992   3.156  14.181 -0.1566 -0.5098  0.0578
  121TMC2    C6 1847   2.005   3.169  14.317  0.2594 -0.5642 -0.1415
  121TMC2     C 1848   2.283   3.349  14.075  0.7066 -0.1338  0.1013
  121TMC2     O 1849   2.387   3.386  14.124 -0.1003 -0.2273  0.4173
  121TMC2     H 1850   2.298   3.322  14.326 -0.0080 -0.5369  0.2220
  121TMC2    H1 1851   2.084   3.178  13.991 -1.6543 -0.3025 -0.6148
  121TMC2    H2 1852   1.921   3.138  14.378  1.2141 -2.6046  0.1148
  121TMC2    C7 1853   1.855   3.152  14.144  0.0713 -0.3663  0.2788
  121TMC2    C8 1854   2.125   3.279  14.503  0.2561  0.3854 -0.3954
  121TMC2    O1 1855   1.785   3.085  14.215 -0.1504 -0.1809 -0.6965
  121TMC2    O2 1856   2.233   3.288  14.555  0.4685 -0.1997  0.5019
  121TMC2    O5 1857   2.027   3.368  14.517  0.1367  0.1767 -0.5573
  121TMC2    H5 1858   1.954   3.351  14.454  1.0716 -1.1856 -1.2461
  122MPD2     C 1859   2.409   3.515  13.862  0.0163 -1.0214  0.2092
  122MPD2    C1 1860   2.274   3.482  13.861  0.7382  0.6432 -0.4243
  122MPD2    C2 1861   2.193   3.524  13.759  0.2329  0.7562 -1.1754
  122MPD2    C3 1862   2.247   3.601  13.657 -0.1510 -0.3129  0.0573
  122MPD2    C4 1863   2.382   3.639  13.669 -0.0892 -0.0932 -0.1853
  122MPD2    C5 1864   2.466   3.592  13.770  0.2179  0.5088 -0.7144
  122MPD2     H 1865   2.089   3.495  13.759  0.5542 -0.3762  1.0754
  122MPD2    H1 1866   2.429   3.698  13.590 -1.0434 -0.8041 -1.2746
  122MPD2    H2 1867   2.479   3.484  13.939  2.2602 -0.2541 -1.5419
  122MPD2    H3 1868   2.570   3.623  13.771  0.3497  0.0495 -0.0196
  122MPD2     N 1869   2.176   3.649  13.539  0.5082 -0.6412 -0.3290
  122MPD2    H5 1870   2.233   3.701  13.473  0.8997  0.5007  0.9057
  122MPD2    N1 1871   2.220   3.389  13.953  0.2772 -0.4963 -0.0098
  122MPD2    H7 1872   2.127   3.357  13.931 -0.5681  0.2023  2.5832
  123MPD2     C 1873   0.718   0.823   9.029 -0.9447  0.1203 -0.5726
  123MPD2    C1 1874   0.768   0.795   9.154 -0.1820 -0.2765 -0.6856
  123MPD2    C2 1875   0.903   0.780   9.182  0.4237 -0.7363 -0.6575
  123MPD2    C3 1876   0.998   0.785   9.075  0.4890  0.1680 -0.7675
  123MPD2    C4 1877   0.946   0.813   8.950  0.2291 -0.5304 -0.3203
  123MPD2    C5 1878   0.809   0.822   8.925  0.0003  0.0958 -0.2007
  123MPD2     H 1879   0.938   0.766   9.283  0.8384  0.2553 -0.6719
  123MPD2    H1 1880   1.008   0.830   8.863  0.8041 -0.3161  0.1262
  123MPD2    H2 1881   0.617   0.848   9.001 -1.7916 -0.3651  2.0423
  123MPD2    H3 1882   0.762   0.832   8.828 -1.0660 -1.4301  0.1584
  123MPD2     N 1883   1.133   0.758   9.100 -0.2458  0.2025 -0.4535
  123MPD2    H5 1884   1.162   0.752   9.197 -1.1031  0.6456 -0.1636
  123MPD2    N1 1885   0.678   0.788   9.267  0.5343  0.1111 -0.4443
  123MPD2    H7 1886   0.716   0.763   9.358 -0.4151  1.6738  0.3778
  124TCq2    C1 1887   1.225   0.744   9.000  0.1936  0.2216  0.5503
  124TCq2    O2 1888   1.216   0.739   8.876 -0.1906 -0.9712  0.1259
  124TCq2    C2 1889   1.363   0.736   9.058  0.2401  0.0104  0.5688
  124TCq2    C3 1890   1.474   0.747   8.974 -0.5680  0.4980  0.3698
  124TCq2    C4 1891   1.596   0.730   9.031  0.4329  0.5120  0.5997
  124TCq2    C5 1892   1.613   0.684   9.158 -0.5686  0.4568  0.0233
  124TCq2    C6 1893   1.501   0.694   9.243  0.6838  0.3118 -0.5694
  124TCq2    C7 1894   1.378   0.722   9.194  0.1373 -0.0440 -0.1877
  124TCq2    C8 1895   1.520   0.704   9.387 -0.1311  0.2873  0.0987
  124TCq2    O4 1896   1.426   0.739   9.457 -0.4683 -0.0328 -0.5092
  124TCq2    C9 1897   1.716   0.754   8.953  0.4538  0.0136 -0.5776
  124TCq2    O5 1898   1.709   0.768   8.832 -0.4158  0.4490  0.1163
  124TCq2    O6 1899   1.822   0.726   9.018 -0.1144 -1.0119 -0.3398
  124TCq2    H2 1900   1.463   0.771   8.868  0.3587 -0.3822  0.0715
  124TCq2    H3 1901   1.709   0.654   9.198 -0.7567  0.5164  0.5124
  124TCq2    H4 1902   1.296   0.732   9.264  1.3832 -0.3394  1.3215
  125TMC2    C1 1903   0.475   2.892   9.832 -0.2710  0.3406 -0.6346
  125TMC2    C2 1904   0.496   2.773   9.773  0.0896  0.8830 -0.2500
  125TMC2    C3 1905   0.577   2.763   9.664 -0.8911 -0.0111 -0.6301
  125TMC2    C4 1906   0.545   3.003   9.793  0.2226 -0.4245  0.1185
  125TMC2    C5 1907   0.639   2.986   9.691  0.2063 -0.2245  0.3530
  125TMC2    C6 1908   0.663   2.867   9.625  0.0294  0.1277  0.0264
  125TMC2     C 1909   0.401   2.883   9.959 -0.6949 -0.2152 -0.2443
  125TMC2     O 1910   0.360   2.777  10.001  0.4648  0.1188 -0.3838
  125TMC2     H 1911   0.432   2.692   9.807  0.6219 -0.8921 -3.5139
  125TMC2    H1 1912   0.521   3.100   9.837 -0.1703 -0.9020  0.9571
  125TMC2    H2 1913   0.716   2.863   9.531  1.6330  1.6078  0.8675
  125TMC2    C7 1914   0.746   3.083   9.694  0.0787  0.4063 -0.5848
  125TMC2    C8 1915   0.561   2.643   9.575  0.9745 -0.4934 -0.3606
  125TMC2    O1 1916   0.725   3.201   9.720  0.1751  0.3532  0.1897
  125TMC2    O2 1917   0.611   2.644   9.463 -0.2557  0.1228  0.1197
  125TMC2    O5 1918   0.530   2.532   9.647  0.2130 -0.3265 -0.2379
  125TMC2    H5 1919   0.497   2.547   9.737  0.2935  0.2194 -0.2987
  126MPD1     C 1920   0.194   3.095  10.377  0.1712  0.0338 -0.3338
  126MPD1    C1 1921   0.247   3.191  10.307 -0.2408  0.0163 -0.1518
  126MPD1    C2 1922   0.313   3.162  10.190  0.1234 -0.0040  0.3993
  126MPD1    C3 1923   0.332   3.031  10.146  0.2550  0.2899 -0.0067
  126MPD1    C4 1924   0.287   2.933  10.226 -0.5019  0.8443  0.4157
  126MPD1    C5 1925   0.212   2.968  10.337 -0.2011  0.1556  0.4184
  126MPD1     H 1926   0.360   3.237  10.128 -2.3364  0.5327 -0.8145
  126MPD1    H1 1927   0.300   2.826  10.210 -0.9196  1.3461 -3.1916
  126MPD1    H2 1928   0.134   3.119  10.464 -0.5224  0.2493 -0.8738
  126MPD1    H3 1929   0.165   2.890  10.396  0.0515 -0.6269 -0.4240
  126MPD1     N 1930   0.399   3.009  10.027 -0.0756  0.1926  0.7704
  126MPD1    H5 1931   0.435   3.091   9.978  1.1819 -0.8773 -0.0816
  126MPD1    N1 1932   0.231   3.325  10.349 -0.7099  0.4703 -0.3643
  126MPD1    H6 1933   0.203   3.339  10.445 -0.2180 -2.0129  0.1574
  126MPD1    H7 1934   0.315   3.380  10.329 -0.4204 -0.2336 -1.0842
  127MPD2     C 1935   2.759   1.971   9.317 -0.2371  0.4986  0.6309
  127MPD2    C1 1936   2.766   1.975   9.455 -0.0614 -0.0850  0.8591
  127MPD2    C2 1937   2.768   2.095   9.529  0.2628  0.0262 -0.3712
  127MPD2    C3 1938   2.766   2.215   9.455  0.1229  0.3010 -0.1354
  127MPD2    C4 1939   2.754   2.209   9.313 -0.4276 -0.0890  0.1563
  127MPD2    C5 1940   2.759   2.091   9.246 -0.1679 -0.1094 -0.1812
  127MPD2     H 1941   2.763   2.094   9.637  1.2073 -0.2163 -0.3293
  127MPD2    H1 1942   2.733   2.295   9.250 -0.1288 -0.7392 -0.8394
  127MPD2    H2 1943   2.762   1.879   9.261  0.5931 -0.0991  1.6450
  127MPD2    H3 1944   2.752   2.088   9.138  0.5188 -0.8267 -0.2037
  127MPD2     N 1945   2.783   2.339   9.524 -0.6112 -0.2979  0.8707
  127MPD2    H5 1946   2.815   2.337   9.620 -2.7142  1.8105  1.6051
  127MPD2    N1 1947   2.758   1.848   9.523  0.0434  0.2472 -0.4271
  127MPD2    H7 1948   2.745   1.766   9.465  1.2450  0.7042 -1.3444
  128TCq2    C1 1949   2.742   1.826   9.656 -0.2557 -0.7855 -0.7537
  128TCq2    O2 1950   2.769   1.895   9.750  0.3246 -0.6836 -0.3676
  128TCq2    C2 1951   2.685   1.697   9.686 -0.1604 -0.4026  0.5576
  128TCq2    C3 1952   2.710   1.653   9.813  0.1165  0.0395 -0.9963
  128TCq2    C4 1953   2.625   1.559   9.858  0.4219 -0.0312  0.1129
  128TCq2    C5 1954   2.550   1.481   9.772 -0.6402 -0.1005  0.1318
  128TCq2    C6 1955   2.531   1.521   9.645 -0.6277 -0.4543 -0.2248
  128TCq2    C7 1956   2.588   1.639   9.600  0.4858  0.7366  0.1587
  128TCq2    C8 1957   2.450   1.457   9.541 -0.3699  0.1378  0.7171
  128TCq2    O4 1958   2.435   1.512   9.431  0.8718  0.3458 -0.0073
  128TCq2    C9 1959   2.629   1.517  10.000  0.1623  0.6037  0.1439
  128TCq2    O5 1960   2.615   1.606  10.085  0.0297  0.0827 -1.0252
  128TCq2    O6 1961   2.659   1.399  10.026  0.0871 -0.7710 -0.0704
  128TCq2    H2 1962   2.782   1.696   9.882 -1.4151  0.2026  0.5214
  128TCq2    H3 1963   2.502   1.399   9.824 -0.5559  0.1372  0.5919
  128TCq2    H4 1964   2.558   1.689   9.509  0.2466 -0.5730 -0.4817
  129MPD2     C 1965   0.605   3.357   1.377 -0.1604  0.3421 -0.0500
  129MPD2    C1 1966   0.725   3.287   1.346  0.2119  0.7576 -0.1169
  129MPD2    C2 1967   0.839   3.353   1.309 -0.1298  0.4001 -0.4999
  129MPD2    C3 1968   0.844   3.493   1.314  0.3432 -0.1420  0.5322
  129MPD2    C4 1969   0.728   3.559   1.346  0.1195  0.0360  0.4467
  129MPD2    C5 1970   0.612   3.492   1.378  0.5263 -0.0314  0.0206
  129MPD2     H 1971   0.930   3.296   1.292  0.1291  0.7116 -0.1711
  129MPD2    H1 1972   0.730   3.668   1.350  2.5158 -0.0075  0.3363
  129MPD2    H2 1973   0.510   3.309   1.395  1.2223 -2.6528 -0.6908
  129MPD2    H3 1974   0.521   3.541   1.411 -0.5246 -0.9598 -1.5173
  129MPD2     N 1975   0.973   3.548   1.283  0.8082  0.2565  0.4089
  129MPD2    H5 1976   1.047   3.483   1.259 -0.7440 -1.8963  1.4148
  129MPD2    N1 1977   0.740   3.148   1.366 -0.0369 -0.5552  0.1271
  129MPD2    H7 1978   0.839   3.131   1.374  0.0003  0.1454  1.1401
  130TCq2    C1 1979   0.641   3.058   1.394  0.6900 -0.0380  0.1727
  130TCq2    O2 1980   0.521   3.069   1.396  0.1913 -0.8409 -0.0628
  130TCq2    C2 1981   0.680   2.939   1.469  0.5152  0.8618 -0.3164
  130TCq2    C3 1982   0.814   2.933   1.517 -0.5614  0.0397  0.0461
  130TCq2    C4 1983   0.842   2.832   1.606  0.4249  0.6337 -1.0886
  130TCq2    C5 1984   0.757   2.730   1.628  0.2043 -0.2435  0.7048
  130TCq2    C6 1985   0.626   2.743   1.582  0.6772  0.9698 -0.2577
  130TCq2    C7 1986   0.583   2.850   1.510 -0.9911 -0.6891  0.0858
  130TCq2    C8 1987   0.515   2.691   1.667 -0.4886  0.4049 -0.7089
  130TCq2    O4 1988   0.406   2.733   1.637  0.2906  0.2518  0.0719
  130TCq2    C9 1989   0.977   2.834   1.660  0.8698 -0.3171  0.1542
  130TCq2    O5 1990   1.045   2.933   1.620  0.1428 -0.0911 -0.1746
  130TCq2    O6 1991   1.010   2.732   1.725  0.5254  0.6340  0.3201
  130TCq2    H2 1992   0.884   3.015   1.505 -0.0615 -0.5720 -1.3227
  130TCq2    H3 1993   0.784   2.655   1.702  0.5938 -3.1429 -2.4084
  130TCq2    H4 1994   0.485   2.853   1.464 -0.2431 -0.2029 -1.4872
  131MPD2     C 1995   0.045   1.344   9.731  0.3056  0.0845  0.2516
  131MPD2    C1 1996   0.181   1.335   9.722 -0.4347 -0.0155  0.1525
  131MPD2    C2 1997   0.239   1.219   9.675  0.5582 -0.2584 -0.6996
  131MPD2    C3 1998   0.167   1.112   9.636  0.1243  0.7782  0.5269
  131MPD2    C4 1999   0.034   1.133   9.631 -0.1391 -0.9325 -0.0775
  131MPD2    C5 2000   4.696   1.242   9.685 -0.0619 -0.1538  0.2168
  131MPD2     H 2001   0.345   1.208   9.656  0.3408 -0.0631 -2.0736
  131MPD2    H1 2002   4.700   1.047   9.599 -1.1433  0.1407 -1.1116
  131MPD2    H2 2003   4.721   1.434   9.768  0.4477  0.3559 -0.2256
  131MPD2    H3 2004   4.588   1.236   9.689 -0.2983  3.3325 -0.8167
  131MPD2     N 2005   0.231   0.989   9.594 -0.2616  0.1835  0.0238
  131MPD2    H5 2006   0.332   0.983   9.608 -0.1685 -0.3644 -0.8978
  131MPD2    N1 2007   0.252   1.451   9.769  0.9178 -0.4420  0.6600
  131MPD2    H7 2008   0.191   1.521   9.810  0.7519 -0.6109  0.6997
  132TCq2    C1 2009   0.750   1.750   9.872 -0.2719  0.0417 -0.1262
  132TCq2    O2 2010   0.815   1.645   9.875  0.6170  0.0127  0.3761
  132TCq2    C2 2011   0.605   1.742   9.856  0.3505  0.0955 -0.5979
  132TCq2    C3 2012   0.519   1.848   9.850 -0.0107  0.4419  0.0464
  132TCq2    C4 2013   0.385   1.822   9.824 -0.9633  0.2715 -0.2626
  132TCq2    C5 2014   0.338   1.700   9.803  0.0960 -0.2471  0.1671
  132TCq2    C6 2015   0.425   1.593   9.806  0.5668  0.3010 -0.1214
  132TCq2    C7 2016   0.552   1.610   9.842  0.4300  0.1972  0.1859
  132TCq2    C8 2017   0.388   1.462   9.773 -0.4329 -1.0156 -0.4103
  132TCq2    O4 2018   0.479   1.376   9.751  0.4902  0.7692  0.4932
  132TCq2    C9 2019   0.285   1.932   9.819 -0.9855  0.0947  0.1531
  132TCq2    O5 2020   0.326   2.043   9.850  0.0344  0.2665 -0.2726
  132TCq2    O6 2021   0.158   1.911   9.813  0.5134 -0.0846  0.1520
  132TCq2    H2 2022   0.545   1.953   9.858  1.3026 -0.1549  3.6880
  132TCq2    H3 2023   0.233   1.701   9.777 -0.4218 -1.1596  2.2048
  132TCq2    H4 2024   0.611   1.520   9.855  0.4764  0.4612  1.7933
  133MPD2     C 2025   4.466   2.868   9.632  1.1342 -0.0373 -0.0520
  133MPD2    C1 2026   4.537   2.798   9.533  0.0110 -0.1033 -0.4480
  133MPD2    C2 2027   4.532   2.653   9.541 -0.2353 -0.3438 -0.9094
  133MPD2    C3 2028   4.444   2.587   9.629  0.8023 -1.1269 -0.1635
  133MPD2    C4 2029   4.367   2.663   9.715  0.8898 -0.9667  1.0214
  133MPD2    C5 2030   4.374   2.804   9.712  0.2816 -0.8052 -0.1017
  133MPD2     H 2031   4.585   2.595   9.467 -1.7993 -3.1330  0.1472
  133MPD2    H1 2032   4.284   2.615   9.765  0.6660 -0.1591  1.4246
  133MPD2    H2 2033   4.461   2.976   9.639 -1.4539 -0.1850  0.4680
  133MPD2    H3 2034   4.314   2.869   9.774  2.2254  1.0382 -0.1619
  133MPD2     N 2035   4.406   2.452   9.616  0.0854 -0.1391  0.0563
  133MPD2    H5 2036   4.343   2.421   9.689 -0.3768 -0.1036 -0.3256
  133MPD2    N1 2037   4.617   2.864   9.443 -0.4420 -0.5672 -0.3426
  133MPD2    H7 2038   4.630   2.963   9.463  0.9379 -1.1266  1.6414
  134TCq2    C1 2039   4.690   2.819   9.332  0.4671 -0.0857  0.4725
  134TCq2    O2 2040   4.667   2.723   9.257  0.0344 -0.0034  0.7014
  134TCq2    C2 2041   0.047   2.934   9.284  1.3074  0.4266  0.0502
  134TCq2    C3 2042   0.098   2.928   9.151 -0.8221 -0.1923  0.4005
  134TCq2    C4 2043   0.169   3.035   9.105 -0.0896 -0.4870  0.0823
  134TCq2    C5 2044   0.189   3.147   9.175 -0.2082 -0.3068  0.4531
  134TCq2    C6 2045   0.147   3.146   9.303  0.4491 -0.7898 -0.7735
  134TCq2    C7 2046   0.077   3.044   9.360  0.0418  0.0259  0.3548
  134TCq2    C8 2047   0.164   3.272   9.371  0.2055  0.2735  0.0772
  134TCq2    O4 2048   0.242   3.355   9.326 -0.1729  0.3516 -0.1117
  134TCq2    C9 2049   0.225   3.033   8.970  0.4331  0.0699 -0.2800
  134TCq2    O5 2050   0.315   3.119   8.948  0.0760  0.2213 -0.1781
  134TCq2    O6 2051   0.190   2.934   8.897 -0.1430 -0.5770 -0.5874
  134TCq2    H2 2052   0.085   2.840   9.088  0.6565 -1.7702  2.3157
  134TCq2    H3 2053   0.225   3.233   9.119 -0.0657 -0.5126  0.2279
  134TCq2    H4 2054   0.058   3.051   9.466  0.1715  1.4357  0.2841
  135MPD2     C 2055   2.276   3.628   9.887 -0.0819  0.6851 -0.7119
  135MPD2    C1 2056   2.158   3.587   9.835  0.4250 -0.3026 -0.0684
  135MPD2    C2 2057   2.160   3.492   9.735 -0.1301  0.8761  0.0056
  135MPD2    C3 2058   2.276   3.439   9.686 -0.3527 -0.0426  0.2389
  135MPD2    C4 2059   2.393   3.495   9.732  0.5674  0.7102  0.6002
  135MPD2    C5 2060   2.394   3.581   9.838 -0.8870  1.0006  0.2525
  135MPD2     H 2061   2.060   3.462   9.706 -0.0520  1.4457 -0.8427
  135MPD2    H1 2062   2.488   3.457   9.697  0.8690  1.5355  0.5278
  135MPD2    H2 2063   2.290   3.700   9.967  0.1315 -0.3203  0.1517
  135MPD2    H3 2064   2.489   3.612   9.881 -1.4249 -0.3280  2.4117
  135MPD2     N 2065   2.283   3.331   9.595 -0.1246  0.9461  0.0992
  135MPD2    H5 2066   2.374   3.288   9.580  1.0706  2.6637  2.3923
  135MPD2    N1 2067   2.030   3.634   9.874  0.0943  0.1710  0.2708
  135MPD2    H7 2068   1.951   3.595   9.825 -0.1636  0.0977  0.7438
  136TCq2    C1 2069   2.006   3.736   9.971 -0.2097 -0.1756  0.8304
  136TCq2    O2 2070   2.081   3.778  10.060 -0.7092 -0.2221 -0.8054
  136TCq2    C2 2071   1.864   3.768   9.981 -0.0530 -0.1981  0.3766
  136TCq2    C3 2072   1.767   3.727   9.895 -0.2177 -0.2450  0.4938
  136TCq2    C4 2073   1.648   3.686   9.944 -0.0721 -0.3999  0.5461
  136TCq2    C5 2074   1.614   3.681  10.077  0.5521 -0.3320  0.3337
  136TCq2    C6 2075   1.707   3.738  10.162  0.2610  0.8657 -0.3085
  136TCq2    C7 2076   1.834   3.779  10.116  0.1187 -0.5415 -0.2890
  136TCq2    C8 2077   1.680   3.753  10.303  0.0008  0.1179 -0.2050
  136TCq2    O4 2078   1.730   3.857  10.350 -0.4268  0.1253  0.1676
  136TCq2    C9 2079   1.556   3.633   9.848 -0.8406  0.4219  0.0535
  136TCq2    O5 2080   1.435   3.655   9.872  0.5589 -0.5637 -0.2536
  136TCq2    O6 2081   1.607   3.620   9.732 -0.3513 -0.3733 -0.2366
  136TCq2    H2 2082   1.793   3.723   9.790 -1.2685  4.0206  0.0502
  136TCq2    H3 2083   1.519   3.640  10.110 -0.1557  1.5505  0.6447
  136TCq2    H4 2084   1.891   3.830  10.193  0.0760  1.0491 -1.3013
  137MPD2     C 2085   2.165   1.928  10.441 -0.4686 -0.3597  0.1367
  137MPD2    C1 2086   2.206   2.049  10.397  0.0046  0.1689 -0.4605
  137MPD2    C2 2087   2.219   2.150  10.485  0.0088 -0.0840 -0.6405
  137MPD2    C3 2088   2.193   2.124  10.623  0.1474  0.2589  0.8391
  137MPD2    C4 2089   2.163   1.993  10.665 -0.1349  0.2961 -0.2269
  137MPD2    C5 2090   2.141   1.898  10.572  0.6767 -0.1448  0.0284
  137MPD2     H 2091   2.240   2.247  10.441  3.0351 -0.1570  0.6255
  137MPD2    H1 2092   2.133   1.966  10.765  1.6183  0.2849  0.2981
  137MPD2    H2 2093   2.137   1.854  10.366 -1.8088  0.2394  0.0343
  137MPD2    H3 2094   2.100   1.801  10.595 -0.9013  0.4117 -0.4415
  137MPD2     N 2095   2.191   2.235  10.707 -0.4551  0.0175  0.4028
  137MPD2    H5 2096   2.190   2.323  10.658 -1.2081 -0.1496  0.1245
  137MPD2    N1 2097   2.213   2.073  10.257 -0.5142  0.6318 -0.2253
  137MPD2    H7 2098   2.170   2.004  10.195  0.6350 -0.4432  0.1730
  138TCq2    C1 2099   2.275   2.185  10.198  0.5913  0.2335  0.1690
  138TCq2    O2 2100   2.356   2.260  10.250  0.3525  0.2911 -0.3283
  138TCq2    C2 2101   2.237   2.195  10.055 -0.4701  0.5847  0.2111
  138TCq2    C3 2102   2.159   2.108   9.990  0.4634 -0.7667 -0.6589
  138TCq2    C4 2103   2.087   2.143   9.879  0.4090  0.0923  0.4451
  138TCq2    C5 2104   2.085   2.270   9.843 -0.9275  0.3012 -0.5410
  138TCq2    C6 2105   2.162   2.364   9.909  0.1881 -0.2029 -0.1691
  138TCq2    C7 2106   2.244   2.324  10.014  0.8391 -0.4591 -0.4551
  138TCq2    C8 2107   2.125   2.500   9.916 -0.7919 -0.1520  0.5448
  138TCq2    O4 2108   2.203   2.582   9.969  0.3039 -0.0614 -0.4066
  138TCq2    C9 2109   2.014   2.039   9.808 -0.2504  0.5709  0.4926
  138TCq2    O5 2110   1.947   2.075   9.710 -0.6733  0.1114 -0.3297
  138TCq2    O6 2111   2.010   1.919   9.851  0.3585 -0.5206  0.3417
  138TCq2    H2 2112   2.156   2.002  10.013  0.9305 -0.4827  0.7063
  138TCq2    H3 2113   2.035   2.300   9.751  0.5871 -0.5311 -1.6541
  138TCq2    H4 2114   2.315   2.385  10.069 -0.5366  1.1359 -0.4606
  139TMC2    C1 2115   2.500   1.014  13.186 -0.3572  0.3302 -0.3217
  139TMC2    C2 2116   2.500   1.093  13.073  0.7045 -0.5781 -0.2394
  139TMC2    C3 2117   2.446   1.217  13.085 -0.6630 -0.0785 -0.0773
  139TMC2    C4 2118   2.427   1.043  13.296 -0.5352  0.0578  0.9146
  139TMC2    C5 2119   2.359   1.165  13.305  0.8331 -0.3204  0.6864
  139TMC2    C6 2120   2.372   1.254  13.199  0.0782  0.3028  0.1170
  139TMC2     C 2121   2.556   0.878  13.173 -0.4346  0.2483 -0.2120
  139TMC2     O 2122   2.562   0.836  13.060 -0.3300 -0.0557 -0.2291
  139TMC2     H 2123   2.566   1.059  12.994  0.7052  1.4310 -1.1126
  139TMC2    H1 2124   2.402   0.960  13.361  0.5722 -0.0546  1.1881
  139TMC2    H2 2125   2.327   1.352  13.214 -0.6256  0.0484 -0.3042
  139TMC2    C7 2126   2.335   1.216  13.442  0.2965  0.1551 -0.2163
  139TMC2    C8 2127   2.506   1.316  13.017 -0.4548 -0.4034  0.6161
  139TMC2    O1 2128   2.382   1.139  13.524  0.3802  0.7459  0.4718
  139TMC2    O2 2129   2.494   1.429  13.056 -0.9542 -0.3372 -0.0747
  139TMC2    O5 2130   2.513   1.289  12.884  0.3578  0.0519 -0.2813
  139TMC2    H5 2131   2.492   1.197  12.858 -0.4029  0.4156 -0.9383
  140MPD2     C 2132   2.660   0.675  13.459 -0.1585 -0.0362 -0.1495
  140MPD2    C1 2133   2.633   0.697  13.326  0.6549 -0.7496  0.0433
  140MPD2    C2 2134   2.662   0.602  13.233  0.2555 -0.7286  0.1493
  140MPD2    C3 2135   2.717   0.479  13.276  0.4651 -0.4432  0.2085
  140MPD2    C4 2136   2.743   0.462  13.409 -0.3409  0.3800 -0.4767
  140MPD2    C5 2137   2.722   0.560  13.500  0.0327  0.2404  0.0823
  140MPD2     H 2138   2.642   0.615  13.128 -2.1148 -2.5104  0.3734
  140MPD2    H1 2139   2.793   0.373  13.447 -1.3261  0.7588  1.6727
  140MPD2    H2 2140   2.634   0.739  13.542 -1.2654 -0.0120 -0.5181
  140MPD2    H3 2141   2.739   0.548  13.606  0.5863  0.8838  0.0709
  140MPD2     N 2142   2.753   0.381  13.179  0.5520  0.1963  0.2248
  140MPD2    H5 2143   2.751   0.403  13.080 -0.4496 -2.2053 -0.2935
  140MPD2    N1 2144   2.593   0.829  13.296 -0.0844  0.3296  0.1771
  140MPD2    H7 2145   2.604   0.898  13.370  0.9722 -0.3109  0.6092
  141TCq2    C1 2146   2.955   2.255  14.379  0.2453 -0.6063  0.4389
  141TCq2    O2 2147   2.916   2.338  14.301  0.2631 -0.0078  0.3471
  141TCq2    C2 2148   2.900   2.250  14.509 -0.8572  0.5225 -0.4968
  141TCq2    C3 2149   2.936   2.145  14.592 -0.2495  0.5901 -0.5775
  141TCq2    C4 2150   2.915   2.155  14.728 -0.3078  0.0057  0.1250
  141TCq2    C5 2151   2.861   2.272  14.776  0.2410 -0.2055 -0.2784
  141TCq2    C6 2152   2.844   2.381  14.698 -0.0386 -0.3217 -0.0520
  141TCq2    C7 2153   2.861   2.373  14.566  0.0481 -0.3078 -0.2122
  141TCq2    C8 2154   2.772   2.496  14.763  0.7260 -0.5173  0.7320
  141TCq2    O4 2155   2.700   2.473  14.860  0.2213 -0.2250 -0.5723
  141TCq2    C9 2156   2.944   2.050  14.829 -0.0085 -0.5153 -0.1393
  141TCq2    O5 2157   2.990   1.938  14.786 -0.4268  0.7057 -0.4305
  141TCq2    O6 2158   2.917   2.083  14.948  0.0517  0.2495 -0.7542
  141TCq2    H2 2159   2.955   2.045  14.557 -0.7737  1.6166 -3.8414
  141TCq2    H3 2160   2.851   2.292  14.882  0.6097  2.6113 -0.7568
  141TCq2    H4 2161   2.827   2.453  14.501  0.8764 -0.3819 -0.7338
  142MPD2     C 2162   0.828   0.169  10.524 -0.0503  0.7492 -0.4768
  142MPD2    C1 2163   0.812   0.204  10.393 -0.1165  0.3386  0.3688
  142MPD2    C2 2164   0.924   0.263  10.328 -0.5133  0.2300 -0.0853
  142MPD2    C3 2165   1.048   0.271  10.395 -0.3781 -0.4143  0.0537
  142MPD2    C4 2166   1.048   0.242  10.529  0.4010  0.6588 -0.1749
  142MPD2    C5 2167   0.944   0.190  10.595 -0.2071 -0.0864 -0.2760
  142MPD2     H 2168   0.919   0.282  10.221 -2.4902 -1.2851 -0.2693
  142MPD2    H1 2169   1.142   0.256  10.580 -0.2235 -1.1646  1.4459
  142MPD2    H2 2170   0.743   0.138  10.584 -0.6203  0.0971 -1.6029
  142MPD2    H3 2171   0.955   0.178  10.702 -0.3451  0.7732 -0.1717
  142MPD2     N 2172   1.168   0.316  10.336 -0.0332 -0.0758 -0.5739
  142MPD2    H5 2173   1.251   0.308  10.394 -0.3810 -0.1775 -0.0915
  142MPD2    N1 2174   0.688   0.175  10.335 -0.0625 -0.1878 -0.3576
  142MPD2    H7 2175   0.616   0.138  10.396  1.0119 -1.0554  0.3955
  143TCq2    C1 2176   1.185   0.394  10.216  0.1509  0.0265 -0.4786
  143TCq2    O2 2177   1.096   0.449  10.150 -0.5841 -0.6325 -0.1248
  143TCq2    C2 2178   1.321   0.420  10.181  0.4122 -0.4796  0.2827
  143TCq2    C3 2179   1.413   0.398  10.276  0.5592 -1.5591  0.3077
  143TCq2    C4 2180   1.540   0.450  10.259  0.0935 -0.1618 -0.9134
  143TCq2    C5 2181   1.567   0.528  10.147 -0.5486 -0.4807 -0.0076
  143TCq2    C6 2182   1.468   0.544  10.052  0.3059  0.6186 -0.5957
  143TCq2    C7 2183   1.346   0.496  10.069 -0.3719 -0.4527  0.1201
  143TCq2    C8 2184   1.499   0.600   9.921  0.3598  0.3901 -0.0068
  143TCq2    O4 2185   1.415   0.671   9.864 -0.0960 -0.0701  0.0913
  143TCq2    C9 2186   1.643   0.421  10.351  0.3152 -0.2489  0.8306
  143TCq2    O5 2187   1.753   0.484  10.329  0.1011 -0.2783 -0.1782
  143TCq2    O6 2188   1.613   0.353  10.454  0.7587 -0.1301  0.4950
  143TCq2    H2 2189   1.403   0.329  10.359  0.0651 -2.3701 -0.4211
  143TCq2    H3 2190   1.669   0.564  10.139 -0.1533 -1.5570  0.2303
  143TCq2    H4 2191   1.272   0.494   9.989  1.6382 -1.0719 -1.7199
  144MPD2     C 2192   2.716   0.470   0.636  0.0340  0.3998  0.3276
  144MPD2    C1 2193   2.802   0.373   0.597  0.0499  0.2844  0.5875
  144MPD2    C2 2194   2.906   0.335   0.677  0.1276  0.3299 -0.3978
  144MPD2    C3 2195   2.924   0.396   0.801 -0.3262 -0.6045  0.8079
  144MPD2    C4 2196   2.840   0.494   0.840 -0.4022 -0.4853  0.1874
  144MPD2    C5 2197   2.737   0.528   0.760  0.1154 -0.0488  0.1808
  144MPD2     H 2198   2.982   0.268   0.638  0.3462  0.8254 -0.8359
  144MPD2    H1 2199   2.848   0.531   0.942  2.0167 -0.2767 -0.0647
  144MPD2    H2 2200   2.626   0.497   0.582 -0.0921 -0.3464  0.1682
  144MPD2    H3 2201   2.669   0.606   0.790 -0.9143 -0.5292 -0.8661
  144MPD2     N 2202   3.036   0.357   0.884 -0.1329  0.3833  0.5794
  144MPD2    H5 2203   3.054   0.407   0.970  0.8315 -1.3552  1.3991
  144MPD2    N1 2204   2.758   0.291   0.491 -0.6099  0.1641  0.5614
  144MPD2    H7 2205   2.800   0.199   0.485  1.6093  1.4030 -2.6174
  145TCq2    C1 2206   3.139   0.262   0.856  0.7727  0.0765  0.1602
  145TCq2    O2 2207   3.157   0.189   0.761  0.2157 -0.0281 -0.8661
  145TCq2    C2 2208   3.225   0.234   0.967  1.0204 -0.3953  0.3059
  145TCq2    C3 2209   3.354   0.205   0.945  0.7411 -0.6838  0.1323
  145TCq2    C4 2210   3.435   0.181   1.054  0.3129 -0.6608  0.1331
  145TCq2    C5 2211   3.393   0.199   1.186  0.4265  0.4512  0.4514
  145TCq2    C6 2212   3.260   0.235   1.196  0.8474 -0.0293  0.3809
  145TCq2    C7 2213   3.177   0.250   1.092 -0.1574 -0.7132  0.2632
  145TCq2    C8 2214   3.209   0.210   1.324  0.6986 -0.4118  0.2316
  145TCq2    O4 2215   3.276   0.137   1.395  0.0712 -0.0297 -0.4244
  145TCq2    C9 2216   3.567   0.146   1.021  0.3241 -0.2622 -0.3988
  145TCq2    O5 2217   3.597   0.148   0.900  0.5153  0.0224  0.2105
  145TCq2    O6 2218   3.634   0.086   1.109 -0.5259 -0.5131 -0.2939
  145TCq2    H2 2219   3.397   0.206   0.845  3.2351 -1.9456  1.1972
  145TCq2    H3 2220   3.453   0.171   1.271  2.2340 -0.9916 -1.3192
  145TCq2    H4 2221   3.072   0.266   1.115  0.0019  1.1278 -0.2942
  146TMC2    C1 2222   4.075   3.075  12.516  0.9149  1.0050  0.1771
  146TMC2    C2 2223   3.976   2.989  12.498  0.0903 -0.3076 -0.0812
  146TMC2    C3 2224   3.998   2.891  12.399  0.1143 -0.2997  0.1866
  146TMC2    C4 2225   4.196   3.071  12.450  0.1803  0.6989  0.6114
  146TMC2    C5 2226   4.206   2.981  12.352 -0.1874 -0.0751  0.0734
  146TMC2    C6 2227   4.111   2.890  12.317 -0.1820 -0.4708 -0.6926
  146TMC2     C 2228   4.079   3.119  12.658 -0.3846 -0.0223  0.5588
  146TMC2     O 2229   3.971   3.152  12.706  0.1077 -0.1460 -0.3056
  146TMC2     H 2230   3.893   2.979  12.567  0.3015  0.0853  0.2256
  146TMC2    H1 2231   4.269   3.151  12.460 -0.4749  1.4329 -0.4767
  146TMC2    H2 2232   4.137   2.813  12.245  0.1214  0.4097 -1.5311
  146TMC2    C7 2233   4.319   2.980  12.263  0.3709  0.2228 -0.2393
  146TMC2    C8 2234   3.922   2.767  12.415 -0.0384  0.5907 -0.1017
  146TMC2    O1 2235   4.317   2.944  12.144  0.1158 -0.3262  0.5883
  146TMC2    O2 2236   3.818   2.763  12.480 -0.1083 -0.2548 -0.0198
  146TMC2    O5 2237   3.969   2.669  12.324  0.4076  0.1172  0.4084
  146TMC2    H5 2238   4.066   2.659  12.336  0.3076  0.8056  1.7441
  147MPD2     C 2239   0.061   3.185  12.166 -0.3922 -0.1209 -0.2329
  147MPD2    C1 2240   0.038   3.195  12.298 -0.1287 -0.3128  0.3300
  147MPD2    C2 2241   4.641   3.141  12.349 -1.2215  0.4246 -0.5615
  147MPD2    C3 2242   4.542   3.092  12.267 -0.3874  0.5714 -0.2138
  147MPD2    C4 2243   4.566   3.085  12.127 -0.6327  0.1967  0.1431
  147MPD2    C5 2244   4.694   3.122  12.086 -0.0946  0.0664  0.1120
  147MPD2     H 2245   4.611   3.148  12.453  1.0289 -0.5228  0.1430
  147MPD2    H1 2246   4.498   3.046  12.052 -0.2372  1.5670 -0.9424
  147MPD2    H2 2247   0.151   3.217  12.115 -1.3005  0.9440 -1.1698
  147MPD2    H3 2248   4.723   3.106  11.983 -1.5042  1.2189 -0.4662
  147MPD2     N 2249   4.420   3.047  12.325  0.1301 -0.6314 -0.3212
  147MPD2    H5 2250   4.415   3.047  12.426 -2.0845 -2.3204 -0.4317
  147MPD2    N1 2251   0.147   3.249  12.377  0.1724  0.1019  0.5174
  147MPD2    H7 2252   0.218   3.299  12.326  0.3933  1.4575  2.1581
  148MPD2     C 2253   4.530   2.242  10.241 -0.2761 -0.7796 -0.4418
  148MPD2    C1 2254   4.606   2.139  10.197 -0.4090  0.5672 -0.2166
  148MPD2    C2 2255   4.541   2.018  10.183  0.3913  0.4096  0.1538
  148MPD2    C3 2256   4.404   1.999  10.191 -0.0243 -0.3546  0.0081
  148MPD2    C4 2257   4.330   2.111  10.242 -0.2726  0.3260 -0.3438
  148MPD2    C5 2258   4.395   2.225  10.269 -0.4130 -0.6702  0.0504
  148MPD2     H 2259   4.603   1.933  10.155 -0.0767 -0.2567  1.1531
  148MPD2    H1 2260   4.223   2.103  10.253 -0.3075 -0.0342 -0.9315
  148MPD2    H2 2261   4.571   2.336  10.276  0.1541 -1.0325 -0.2693
  148MPD2    H3 2262   4.349   2.314  10.310  1.3289 -0.6155  1.8949
  148MPD2     N 2263   4.332   1.879  10.176 -0.5534  0.2662  0.3547
  148MPD2    H5 2264   4.231   1.888  10.170 -0.4997  0.6799  0.1046
  148MPD2    N1 2265   0.014   2.148  10.169  0.7338 -0.1775 -0.0841
  148MPD2    H7 2266   0.060   2.061  10.144  1.5447  0.8246 -2.1252
  149TCq2    C1 2267   0.075   2.264  10.129  0.3756  0.5848  0.2772
  149TCq2    O2 2268   0.013   2.355  10.076  0.3510 -0.8111  0.0774
  149TCq2    C2 2269   0.215   2.255  10.105  0.4631 -0.0006  0.4110
  149TCq2    C3 2270   0.281   2.359  10.050 -0.1827  0.4907  0.2088
  149TCq2    C4 2271   0.417   2.354  10.057 -0.3387  0.4447  0.0684
  149TCq2    C5 2272   0.485   2.239  10.097  0.5542  0.7728 -0.0914
  149TCq2    C6 2273   0.415   2.142  10.150  0.0957 -0.0766  0.0451
  149TCq2    C7 2274   0.277   2.145  10.156 -0.0998  0.1638 -0.1762
  149TCq2    C8 2275   0.487   2.025  10.179 -0.7323 -0.9859 -0.1376
  149TCq2    O4 2276   0.599   2.041  10.225 -0.3509  0.1545  0.0866
  149TCq2    C9 2277   0.472   2.437   9.953 -0.2832  0.3276  0.8211
  149TCq2    O5 2278   0.595   2.451   9.964  0.0667 -0.8550 -0.1276
  149TCq2    O6 2279   0.402   2.483   9.859 -0.0366  0.0487 -0.4362
  149TCq2    H2 2280   0.226   2.436   9.997 -0.4453  2.0655  2.7945
  149TCq2    H3 2281   0.590   2.229  10.072 -0.2332 -0.5927 -2.8460
  149TCq2    H4 2282   0.229   2.065  10.212  0.2680 -1.4349 -2.1627
  150MPD2     C 2283   1.919   1.190  12.241 -0.1027  0.3211  0.5319
  150MPD2    C1 2284   1.912   1.312  12.174 -0.2046 -0.3417  0.4943
  150MPD2    C2 2285   2.027   1.397  12.172  0.0578  0.3371  0.3158
  150MPD2    C3 2286   2.141   1.355  12.240 -0.2969  0.0277 -0.5760
  150MPD2    C4 2287   2.142   1.231  12.308  0.1383 -0.7414 -0.7325
  150MPD2    C5 2288   2.031   1.154  12.308  0.4868  0.3730  0.8476
  150MPD2     H 2289   2.019   1.493  12.123  0.6731  1.1301  1.7455
  150MPD2    H1 2290   2.222   1.209  12.378 -0.7994 -1.5576  0.0859
  150MPD2    H2 2291   1.844   1.112  12.238  0.6387 -0.3587 -0.5398
  150MPD2    H3 2292   2.039   1.059  12.359 -0.6308 -1.5428 -2.5607
  150MPD2     N 2293   2.259   1.432  12.235 -0.0460 -0.2510 -0.1099
  150MPD2    H5 2294   2.257   1.526  12.196 -0.1812  0.2040  0.9955
  150MPD2    N1 2295   1.786   1.346  12.107 -0.1464  0.4528  0.0342
  150MPD2    H7 2296   1.713   1.275  12.111 -1.0161  1.5545  3.8194
  151TCq2    C1 2297   2.381   1.393  12.282 -0.4190  0.0364  0.2285
  151TCq2    O2 2298   2.426   1.297  12.334  0.2471  0.3396 -0.0582
  151TCq2    C2 2299   2.479   1.502  12.284 -0.3880 -0.1452 -0.2993
  151TCq2    C3 2300   2.464   1.619  12.211  0.9259 -0.0490 -0.1620
  151TCq2    C4 2301   2.516   1.738  12.250  0.1320 -0.0193  0.5540
  151TCq2    C5 2302   2.599   1.743  12.355 -0.5669  0.0852  0.9941
  151TCq2    C6 2303   2.624   1.619  12.425 -0.0919 -0.0714 -0.7296
  151TCq2    C7 2304   2.563   1.502  12.391 -0.0266  0.5426  0.1725
  151TCq2    C8 2305   2.737   1.618  12.516 -0.3295  1.1803  0.0856
  151TCq2    O4 2306   2.766   1.725  12.569 -0.0497  0.2588 -0.3515
  151TCq2    C9 2307   2.493   1.863  12.174 -0.1650 -0.0209 -0.4485
  151TCq2    O5 2308   2.429   1.848  12.066  0.3988  0.4263  0.5531
  151TCq2    O6 2309   2.566   1.964  12.203  0.2756 -0.3130 -0.0805
  151TCq2    H2 2310   2.415   1.614  12.115  0.8389 -0.3790 -0.1017
  151TCq2    H3 2311   2.655   1.830  12.387 -1.9562  0.8402  1.3887
  151TCq2    H4 2312   2.584   1.414  12.450  1.1485  0.9532  0.3709
  152MPD2     C 2313   1.702   0.951  12.878 -0.5689 -0.2494  0.3071
  152MPD2    C1 2314   1.710   1.051  12.782 -0.6246  0.9312 -0.1151
  152MPD2    C2 2315   1.593   1.103  12.733 -0.4836 -0.6011 -0.6548
  152MPD2    C3 2316   1.467   1.054  12.758  0.4059 -0.0298 -0.1558
  152MPD2    C4 2317   1.464   0.948  12.851 -0.9583 -0.3087  0.5325
  152MPD2    C5 2318   1.578   0.899  12.908 -1.0411 -0.4659 -0.2791
  152MPD2     H 2319   1.592   1.185  12.661  1.7083 -0.2964 -0.3345
  152MPD2    H1 2320   1.369   0.896  12.864  1.1130 -4.2207  0.1722
  152MPD2    H2 2321   1.786   0.906  12.931 -0.1306 -1.7595 -1.6752
  152MPD2    H3 2322   1.571   0.826  12.988 -1.9766  0.4823  0.5071
  152MPD2     N 2323   1.350   1.107  12.701 -0.5655 -0.2682 -0.6962
  152MPD2    H5 2324   1.356   1.178  12.629  0.6580  1.4135  1.0644
  152MPD2    N1 2325   1.839   1.102  12.746  0.1230  0.2917  0.6398
  152MPD2    H7 2326   1.911   1.048  12.793 -2.3557 -0.4227  3.6622
  153TCq2    C1 2327   1.867   1.211  12.670 -0.1641  0.2417  0.7972
  153TCq2    O2 2328   1.791   1.301  12.616 -0.3085 -0.5595  0.1686
  153TCq2    C2 2329   2.006   1.214  12.627 -0.1517 -0.3297  0.6617
  153TCq2    C3 2330   2.090   1.115  12.667  0.2487 -0.3551 -0.7150
  153TCq2    C4 2331   2.223   1.145  12.691  0.6133  0.4871  0.4736
  153TCq2    C5 2332   2.271   1.269  12.675 -0.0179 -0.3891 -0.4008
  153TCq2    C6 2333   2.187   1.366  12.620 -0.4016 -0.0146  0.8003
  153TCq2    C7 2334   2.053   1.344  12.604 -0.9268 -0.5078  0.2163
  153TCq2    C8 2335   2.227   1.503  12.613  0.2363  0.6458 -0.2165
  153TCq2    O4 2336   2.149   1.580  12.557  0.6326  0.2209 -0.3251
  153TCq2    C9 2337   2.311   1.044  12.744 -0.1389 -0.2583  0.3005
  153TCq2    O5 2338   2.425   1.079  12.781 -0.0398  0.6090  0.1123
  153TCq2    O6 2339   2.264   0.926  12.762 -0.6376 -0.4914  0.1086
  153TCq2    H2 2340   2.065   1.010  12.667  0.9519 -0.5087  3.0951
  153TCq2    H3 2341   2.379   1.280  12.673  0.0571 -0.7535  1.5542
  153TCq2    H4 2342   1.983   1.425  12.586  0.3885  0.3423 -1.1092
  154MPD2     C 2343   3.361   1.220   0.254 -0.3275 -0.1907  0.1493
  154MPD2    C1 2344   3.384   1.266   0.380 -0.0250 -0.5722  0.5908
  154MPD2    C2 2345   3.317   1.385   0.426 -0.7757  0.0143  0.0672
  154MPD2    C3 2346   3.227   1.444   0.341 -0.6575  0.1743  0.1211
  154MPD2    C4 2347   3.214   1.401   0.209  0.2002  0.3002 -0.1798
  154MPD2    C5 2348   3.288   1.292   0.165  0.2634 -0.2411  0.8691
  154MPD2     H 2349   3.336   1.425   0.524 -3.2657  0.3257  0.4362
  154MPD2    H1 2350   3.152   1.445   0.132  0.3370 -0.4741 -0.7291
  154MPD2    H2 2351   3.397   1.127   0.211  1.1815 -0.2073  1.4413
  154MPD2    H3 2352   3.288   1.259   0.062  1.6614 -3.0885  1.7736
  154MPD2     N 2353   3.139   1.540   0.400  0.3157  0.3537 -0.4312
  154MPD2    H5 2354   3.134   1.553   0.501  0.4498 -0.3441 -0.3340
  154MPD2    N1 2355   3.489   1.200   0.451 -0.4064  0.3266  0.0598
  154MPD2    H7 2356   3.547   1.133   0.401  2.3021  2.1560  0.7378
  155TCq2    C1 2357   3.517   1.231   0.584 -0.2712  0.0759 -0.1159
  155TCq2    O2 2358   3.431   1.264   0.669 -0.0130 -0.0749 -0.3317
  155TCq2    C2 2359   3.639   1.157   0.632 -0.2909 -0.6189  0.1796
  155TCq2    C3 2360   3.594   1.034   0.669  0.6565 -0.0902 -0.1523
  155TCq2    C4 2361   3.685   0.933   0.663 -0.4664 -0.2093  0.2356
  155TCq2    C5 2362   3.810   0.951   0.612  0.2214 -0.3936  0.1681
  155TCq2    C6 2363   3.849   1.073   0.565 -0.0662  1.4177  0.3149
  155TCq2    C7 2364   3.760   1.175   0.560  0.1115 -0.0759  0.0604
  155TCq2    C8 2365   3.969   1.076   0.475 -0.3446 -0.4982 -0.6303
  155TCq2    O4 2366   4.023   0.970   0.455 -0.3260 -0.1465 -0.5919
  155TCq2    C9 2367   3.650   0.811   0.721  0.1014 -0.0653  0.1453
  155TCq2    O5 2368   3.542   0.798   0.784  0.3755 -0.6022 -0.6392
  155TCq2    O6 2369   3.729   0.713   0.718  0.1424  0.2312  0.2133
  155TCq2    H2 2370   3.493   1.016   0.703  0.5298  1.9866  0.5805
  155TCq2    H3 2371   3.887   0.879   0.637 -1.6093 -1.7429  1.8557
  155TCq2    H4 2372   3.782   1.273   0.521  1.9159 -0.7268 -0.5703
  156MPD2     C 2373   1.259   3.313  11.863  0.1776 -0.4087  0.0469
  156MPD2    C1 2374   1.368   3.250  11.809  0.0895 -0.5253 -0.2746
  156MPD2    C2 2375   1.481   3.244  11.890  0.0244  1.0437  0.2715
  156MPD2    C3 2376   1.490   3.285  12.023 -0.0961  0.2549  0.3287
  156MPD2    C4 2377   1.380   3.353  12.067  0.8088  0.1447 -0.1068
  156MPD2    C5 2378   1.267   3.363  11.988 -0.7199 -0.8618 -0.1402
  156MPD2     H 2379   1.574   3.207  11.849 -1.7142 -0.5038 -2.2763
  156MPD2    H1 2380   1.379   3.401  12.163 -2.8946  0.4795 -0.3241
  156MPD2    H2 2381   1.175   3.331  11.797 -0.3644 -2.5962  0.1502
  156MPD2    H3 2382   1.177   3.414  12.024  0.4949  2.1244 -1.3319
  156MPD2     N 2383   1.607   3.268  12.096  0.7445  0.0066  0.5791
  156MPD2    H5 2384   1.688   3.224  12.053  0.4393  0.2204 -0.2151
  156MPD2    N1 2385   1.370   3.223  11.670 -0.2784 -0.4548  0.1762
  156MPD2    H7 2386   1.291   3.259  11.617 -0.2516 -0.3859  0.1827
  157TCq2    C1 2387   1.464   3.147  11.606 -0.2018  0.3256  0.5247
  157TCq2    O2 2388   1.555   3.085  11.659 -0.5702  0.8941 -0.6390
  157TCq2    C2 2389   1.451   3.143  11.459  0.7693 -0.3711 -0.4853
  157TCq2    C3 2390   1.576   3.147  11.397 -0.8358 -0.1474 -0.2299
  157TCq2    C4 2391   1.603   3.222  11.283  0.6177  0.2083  0.3693
  157TCq2    C5 2392   1.512   3.293  11.222 -0.3326  0.1466  0.3408
  157TCq2    C6 2393   1.393   3.291  11.281  0.1240 -0.5719  0.2709
  157TCq2    C7 2394   1.359   3.223  11.393 -0.3139  0.0256  0.3022
  157TCq2    C8 2395   1.301   3.398  11.251  0.0799 -0.1514 -0.3135
  157TCq2    O4 2396   1.187   3.389  11.290  0.5592  0.3703  0.2836
  157TCq2    C9 2397   1.731   3.207  11.225  0.0023 -0.5415  0.3875
  157TCq2    O5 2398   1.816   3.135  11.279 -0.9038  0.6296  0.3004
  157TCq2    O6 2399   1.762   3.291  11.134  0.5041  0.2820 -0.6978
  157TCq2    H2 2400   1.662   3.102  11.445 -1.0434  0.9888  1.1692
  157TCq2    H3 2401   1.531   3.336  11.124  1.2623  1.4670  1.2347
  157TCq2    H4 2402   1.258   3.218  11.431 -0.3717  0.6884  0.2365
  158TMC2    C1 2403   2.334   2.594  13.093  0.7884  0.0631  0.6809
  158TMC2    C2 2404   2.384   2.649  12.979 -0.1327 -0.6374 -0.1945
  158TMC2    C3 2405   2.332   2.593  12.866  0.1481  0.4890 -0.1826
  158TMC2    C4 2406   2.274   2.472  13.094 -0.2543  0.2548 -0.6054
  158TMC2    C5 2407   2.225   2.418  12.976 -0.0251  0.2396 -0.3999
  158TMC2    C6 2408   2.260   2.479  12.859 -0.1257 -0.7456  0.2578
  158TMC2     C 2409   2.390   2.644  13.215 -0.6739  0.4087  0.0725
  158TMC2     O 2410   2.491   2.713  13.201 -0.1566 -0.1804  0.6516
  158TMC2     H 2411   2.431   2.747  12.984  0.5624 -1.0497  1.1970
  158TMC2    H1 2412   2.260   2.413  13.183 -0.0963 -0.3855 -1.0050
  158TMC2    H2 2413   2.214   2.444  12.767  2.0791 -0.8007 -0.8415
  158TMC2    C7 2414   2.114   2.320  12.972  0.0778  0.5305 -0.5228
  158TMC2    C8 2415   2.338   2.655  12.740  0.1286 -0.5169  0.4355
  158TMC2    O1 2416   2.109   2.249  12.871  0.5989  0.5580 -0.3734
  158TMC2    O2 2417   2.358   2.584  12.644  0.2824  0.7443  0.4688
  158TMC2    O5 2418   2.365   2.785  12.758  0.4505  0.3082 -0.4850
  158TMC2    H5 2419   2.315   2.814  12.838 -1.0903 -0.1949 -1.2691
  159MPD2     C 2420   2.455   2.655  13.719  0.8678  0.0491 -0.4881
  159MPD2    C1 2421   2.326   2.629  13.694  0.6475  0.2144  0.1484
  159MPD2    C2 2422   2.281   2.624  13.565  0.6943 -0.0097  0.0964
  159MPD2    C3 2423   2.365   2.645  13.457  0.0933 -0.0652  0.6038
  159MPD2    C4 2424   2.500   2.664  13.488  0.5574  0.4220  0.3238
  159MPD2    C5 2425   2.541   2.666  13.615 -0.3005 -0.0679 -0.3701
  159MPD2     H 2426   2.176   2.612  13.541  0.4805 -1.8101  1.9390
  159MPD2    H1 2427   2.582   2.683  13.421 -2.1485  3.5777 -2.1058
  159MPD2    H2 2428   2.496   2.658  13.819 -2.3979 -1.8804  0.8991
  159MPD2    H3 2429   2.645   2.689  13.631 -0.1410  0.5379 -2.2462
  159MPD2     N 2430   2.319   2.612  13.327  1.2432  0.0051 -0.2812
  159MPD2    H5 2431   2.228   2.570  13.317 -0.4746  3.6773  0.0286
  159MPD2    N1 2432   2.251   2.604  13.812  0.0305  0.4837 -0.3993
  159MPD2    H7 2433   2.307   2.612  13.896  1.6690  0.3728 -1.4834
  160TMC2    C1 2434   2.078   0.760   1.587 -0.8027 -0.4269 -0.4059
  160TMC2    C2 2435   2.205   0.752   1.627  0.0303 -0.1295 -0.1269
  160TMC2    C3 2436   2.308   0.774   1.532 -0.1146 -0.5322  0.0929
  160TMC2    C4 2437   2.042   0.785   1.458  0.2437  0.2962  0.2701
  160TMC2    C5 2438   2.141   0.806   1.369 -0.1999 -0.9465  0.3271
  160TMC2    C6 2439   2.271   0.789   1.403 -0.8390 -0.6805  0.6681
  160TMC2     C 2440   1.977   0.772   1.695 -0.3178  0.0845 -0.7733
  160TMC2     O 2441   2.014   0.741   1.806  0.0933  0.4838 -0.6917
  160TMC2     H 2442   2.226   0.720   1.729  1.4735  0.2752 -0.2984
  160TMC2    H1 2443   1.936   0.793   1.434  0.0319 -0.6055  0.9085
  160TMC2    H2 2444   2.361   0.785   1.343 -2.2119  1.4754 -1.5412
  160TMC2    C7 2445   2.108   0.851   1.235  0.3580  0.3481 -0.1192
  160TMC2    C8 2446   2.426   0.690   1.559 -0.0096  0.1894  0.1165
  160TMC2    O1 2447   2.010   0.801   1.187  0.0410  0.5820 -0.1198
  160TMC2    O2 2448   2.451   0.585   1.499 -0.0909  0.8353 -0.8047
  160TMC2    O5 2449   2.480   0.734   1.677  0.3398  0.7072  0.1977
  160TMC2    H5 2450   2.432   0.811   1.713 -0.0100 -0.1990  1.6471
  161MPD2     C 2451   1.719   0.781   1.831 -0.1950  0.8871  0.0361
  161MPD2    C1 2452   1.748   0.862   1.723  0.7683  0.4397 -0.0474
  161MPD2    C2 2453   1.639   0.928   1.657  0.0101  0.4165  0.2325
  161MPD2    C3 2454   1.509   0.909   1.697  0.0412  0.1655  0.5308
  161MPD2    C4 2455   1.489   0.840   1.818  0.6527 -0.5720 -1.0655
  161MPD2    C5 2456   1.593   0.777   1.879  0.4321 -0.4240 -0.9051
  161MPD2     H 2457   1.651   0.983   1.564  0.5695 -1.5261 -0.8634
  161MPD2    H1 2458   1.396   0.815   1.867  0.6045  2.0698  0.2009
  161MPD2    H2 2459   1.789   0.711   1.875 -1.5281 -0.2342  0.3943
  161MPD2    H3 2460   1.578   0.714   1.966 -3.0030 -0.0473 -1.2349
  161MPD2     N 2461   1.395   0.972   1.635 -0.3610  0.4608  0.4788
  161MPD2    H5 2462   1.305   0.965   1.681 -0.4885 -1.4098 -0.0687
  161MPD2    N1 2463   1.869   0.855   1.655  0.2451 -0.4488  0.3912
  161MPD2    H7 2464   1.871   0.904   1.567 -1.9610 -1.9494 -0.4887
  162TMC2    C1 2465   4.687   2.775   0.948  0.3471  0.0194 -0.3645
  162TMC2    C2 2466   4.674   2.876   0.855  0.8449  0.4505  0.2963
  162TMC2    C3 2467   4.550   2.929   0.842  0.5097 -0.1494  0.3215
  162TMC2    C4 2468   4.576   2.731   1.021  0.3721 -0.4693  0.1817
  162TMC2    C5 2469   4.458   2.796   1.002  0.3142  0.5720 -0.6919
  162TMC2    C6 2470   4.438   2.895   0.911 -0.2303 -0.5167 -0.6955
  162TMC2     C 2471   0.086   2.700   0.951  0.2108 -0.6567  0.4693
  162TMC2     O 2472   0.085   2.592   1.011 -0.2826 -0.3078 -0.5457
  162TMC2     H 2473   0.033   2.917   0.799  0.3401  0.2417 -0.6155
  162TMC2    H1 2474   4.591   2.640   1.079 -1.8606 -0.4229  0.8198
  162TMC2    H2 2475   4.345   2.945   0.885 -1.4198 -1.7450  1.1639
  162TMC2    C7 2476   4.343   2.760   1.075 -0.1945 -0.2741  0.2027
  162TMC2    C8 2477   4.538   3.014   0.730  0.0749 -0.8102  0.0253
  162TMC2    O1 2478   4.236   2.789   1.023 -0.6519 -0.7255  0.1216
  162TMC2    O2 2479   4.462   3.112   0.729  0.3529  0.1895  0.1848
  162TMC2    O5 2480   4.560   2.933   0.621 -0.3535 -0.0186  0.4361
  162TMC2    H5 2481   4.593   2.844   0.645 -0.2941 -0.3164 -0.7667
  163MPD2     C 2482   0.518   2.595   0.696 -0.1750 -0.2534 -0.5228
  163MPD2    C1 2483   0.420   2.519   0.751  0.2298 -0.4439  0.0106
  163MPD2    C2 2484   0.320   2.571   0.837  0.1133  0.4282 -0.2706
  163MPD2    C3 2485   0.311   2.705   0.847  0.1925  0.3137  0.7247
  163MPD2    C4 2486   0.401   2.790   0.791 -0.2783  0.3943 -0.5732
  163MPD2    C5 2487   0.501   2.733   0.721 -0.2603  0.4751  0.1520
  163MPD2     H 2488   0.252   2.508   0.893  1.3641 -0.9559 -0.2924
  163MPD2    H1 2489   0.392   2.898   0.782  0.8306  0.7403  2.2991
  163MPD2    H2 2490   0.591   2.556   0.625  0.9519 -0.1348  0.5784
  163MPD2    H3 2491   0.567   2.806   0.675 -1.1154  0.8520 -0.4589
  163MPD2     N 2492   0.194   2.766   0.895 -0.0551 -0.7513 -0.0087
  163MPD2    H5 2493   0.197   2.868   0.899 -1.0343 -0.6844 -0.9283
  163MPD2    N1 2494   0.446   2.378   0.732  0.4780  0.6937  0.0240
  163MPD2    H7 2495   0.526   2.353   0.675 -1.2867 -2.1914 -1.1990
  164TCq2    C1 2496   0.613   1.926  11.643 -0.5866  0.2302  0.0357
  164TCq2    O2 2497   0.559   1.959  11.747 -0.1955 -0.2599  0.7266
  164TCq2    C2 2498   0.589   2.012  11.526 -0.3911 -0.6631  0.4087
  164TCq2    C3 2499   0.641   1.984  11.409  0.1417 -0.4110  0.0320
  164TCq2    C4 2500   0.620   2.060  11.298  0.0389 -0.9083  0.1179
  164TCq2    C5 2501   0.530   2.164  11.306 -0.2217 -0.0640 -0.3863
  164TCq2    C6 2502   0.470   2.189  11.425 -0.0160 -0.4774  0.2464
  164TCq2    C7 2503   0.496   2.118  11.542 -0.5543 -0.5813  0.7258
  164TCq2    C8 2504   0.350   2.275  11.438  0.2557  0.5871  0.2989
  164TCq2    O4 2505   0.274   2.257  11.345  0.4229 -0.2645  0.0998
  164TCq2    C9 2506   0.691   2.024  11.174 -0.1239 -1.1784 -0.3512
  164TCq2    O5 2507   0.666   2.083  11.064 -0.4389  0.0448  0.2052
  164TCq2    O6 2508   0.735   1.910  11.173 -0.2837 -0.0055  0.0625
  164TCq2    H2 2509   0.715   1.907  11.395  0.6112  0.3243 -1.6027
  164TCq2    H3 2510   0.513   2.220  11.215 -1.4891  1.1063  0.5733
  164TCq2    H4 2511   0.431   2.118  11.629 -1.8759 -1.4952 -0.2626
  165MPD2     C 2512   0.679   0.510   1.385  0.0561  0.3243 -0.7155
  165MPD2    C1 2513   0.789   0.441   1.427 -0.5725 -0.6017  0.6248
  165MPD2    C2 2514   0.914   0.489   1.400 -0.7535  0.1283  0.4036
  165MPD2    C3 2515   0.933   0.611   1.330 -0.0151  0.2191  0.2475
  165MPD2    C4 2516   0.820   0.681   1.301  0.1422 -0.5083 -0.0488
  165MPD2    C5 2517   0.696   0.632   1.330  0.3912 -0.2429 -0.3640
  165MPD2     H 2518   1.000   0.434   1.437 -0.1364  1.3037  0.7216
  165MPD2    H1 2519   0.825   0.776   1.250 -0.2142 -0.4740 -0.0168
  165MPD2    H2 2520   0.576   0.481   1.404  0.7940 -0.1720  2.4521
  165MPD2    H3 2521   0.609   0.684   1.292  0.5751  1.9757  2.2085
  165MPD2     N 2522   1.060   0.669   1.294 -0.5775 -0.7368  0.6696
  165MPD2    H5 2523   1.065   0.744   1.225  1.8747 -1.2556  0.2891
  165MPD2    N1 2524   0.764   0.309   1.466 -0.0346 -0.2685  0.1231
  165MPD2    H7 2525   0.666   0.283   1.473 -0.5568  2.2807  2.5046
  166TCq2    C1 2526   1.183   0.632   1.349 -0.0410  0.0290  0.4447
  166TCq2    O2 2527   1.198   0.574   1.453  0.2015 -0.6611  0.0800
  166TCq2    C2 2528   1.291   0.690   1.281  0.1303  0.5955 -0.2560
  166TCq2    C3 2529   1.277   0.742   1.151  0.1252 -0.2874  0.1281
  166TCq2    C4 2530   1.394   0.762   1.076  0.3577 -0.1025  0.8966
  166TCq2    C5 2531   1.514   0.745   1.143 -1.0235  0.8451  0.1167
  166TCq2    C6 2532   1.526   0.707   1.273  0.1446  0.3443 -0.6050
  166TCq2    C7 2533   1.411   0.674   1.339  0.4907 -0.7127 -0.3031
  166TCq2    C8 2534   1.656   0.655   1.316  0.2827  0.2056  0.2103
  166TCq2    O4 2535   1.741   0.645   1.229  0.1151 -0.3614  0.4201
  166TCq2    C9 2536   1.389   0.802   0.934  0.0836 -0.3883  0.4455
  166TCq2    O5 2537   1.497   0.779   0.866 -0.4123  0.2779 -0.6123
  166TCq2    O6 2538   1.275   0.821   0.883 -0.2935  0.1002 -0.5481
  166TCq2    H2 2539   1.184   0.752   1.096 -1.3047  0.3639  2.6691
  166TCq2    H3 2540   1.607   0.772   1.096 -0.8616 -0.8327 -0.5559
  166TCq2    H4 2541   1.412   0.653   1.445 -0.2347  1.1317  0.0570
  167TMC2    C1 2542   4.292   2.005  12.691  0.3601 -0.3750  0.2262
  167TMC2    C2 2543   4.188   2.037  12.780 -0.1913  0.3534  0.1861
  167TMC2    C3 2544   4.154   1.952  12.881  0.0957 -0.1098 -0.2448
  167TMC2    C4 2545   4.363   1.882  12.701  0.3996  0.9031  0.0033
  167TMC2    C5 2546   4.330   1.802  12.801  0.6496  0.4947  0.4150
  167TMC2    C6 2547   4.224   1.835  12.889  0.0736 -0.3569 -0.5511
  167TMC2     C 2548   4.323   2.099  12.589 -0.3853 -0.2616 -0.2422
  167TMC2     O 2549   4.242   2.185  12.564  0.3930 -0.1011  0.2421
  167TMC2     H 2550   4.133   2.129  12.768 -1.1178 -0.0640  1.2191
  167TMC2    H1 2551   4.440   1.853  12.631  0.1726 -0.9336  0.5126
  167TMC2    H2 2552   4.188   1.766  12.964 -0.8642  0.8588  0.1164
  167TMC2    C7 2553   4.367   1.661  12.808  0.2272 -0.3752  0.6940
  167TMC2    C8 2554   4.021   1.953  12.944 -0.0883 -0.3382  0.3489
  167TMC2    O1 2555   4.315   1.586  12.892 -0.1654  0.2602  0.0497
  167TMC2    O2 2556   3.950   1.856  12.960 -0.1117  0.4026  0.5991
  167TMC2    O5 2557   3.976   2.083  12.944 -0.4519  1.2399 -0.2247
  167TMC2    H5 2558   4.054   2.142  12.954  0.0688  0.5939 -0.4413
  168MPD2     C 2559   4.419   2.255  12.359  0.4812  0.2722 -0.3124
  168MPD2    C1 2560   4.497   2.169  12.437 -0.0296  0.0011 -0.2258
  168MPD2    C2 2561   4.634   2.154  12.409  0.0068  0.5249 -0.2711
  168MPD2    C3 2562   4.701   2.237  12.319 -0.0618  0.7713 -0.4258
  168MPD2    C4 2563   4.622   2.325  12.248  0.2842 -0.6222 -0.2177
  168MPD2    C5 2564   4.482   2.329  12.264 -0.4578  0.1529 -0.0522
  168MPD2     H 2565   4.688   2.101  12.487 -1.9353 -0.0658  0.6664
  168MPD2    H1 2566   4.670   2.389  12.175 -0.3192 -1.3242 -1.2319
  168MPD2    H2 2567   4.314   2.271  12.379  0.2191 -2.3188  0.4570
  168MPD2    H3 2568   4.436   2.408  12.207  0.8500  0.4316 -0.7341
  168MPD2     N 2569   0.105   2.227  12.276 -0.5829  0.2909  0.1375
  168MPD2    H5 2570   0.127   2.267  12.185  0.6898  1.1439  0.8177
  168MPD2    N1 2571   4.450   2.085  12.538  0.6144 -0.6931  0.1180
  168MPD2    H7 2572   4.505   2.006  12.570  1.5432  0.5638  1.6114
  169MPD1     C 2573   2.333   1.586   8.815  0.7018  0.8063 -0.2436
  169MPD1    C1 2574   2.313   1.637   8.947  0.0062  0.0228  0.3862
  169MPD1    C2 2575   2.384   1.580   9.048 -0.4721  0.5297  0.0017
  169MPD1    C3 2576   2.468   1.465   9.029 -0.1286  0.8256  0.0706
  169MPD1    C4 2577   2.478   1.409   8.898  0.6047 -0.4241 -0.3998
  169MPD1    C5 2578   2.423   1.483   8.795  0.4221 -0.5623  0.4626
  169MPD1     H 2579   2.384   1.613   9.151 -0.1511 -0.3843  0.2904
  169MPD1    H1 2580   2.542   1.329   8.862 -0.2152 -0.8427 -0.9243
  169MPD1    H2 2581   2.289   1.636   8.730 -0.6392 -0.5335 -0.3450
  169MPD1    H3 2582   2.429   1.443   8.695  2.4094  1.4940 -0.2296
  169MPD1     N 2583   2.547   1.424   9.140 -0.4022  0.2717  0.1667
  169MPD1    H5 2584   2.551   1.483   9.223  0.3125  1.0336 -0.4003
  169MPD1    N1 2585   2.242   1.752   8.969 -0.2634  0.4257  0.7670
  169MPD1    H6 2586   2.152   1.742   8.922 -0.1932 -0.0593  0.7418
  169MPD1    H7 2587   2.228   1.770   9.069  1.0999 -1.3163  1.2598
  170MPD1     C 2588   2.009   4.539  13.578  0.3318  0.1601  0.1798
  170MPD1    C1 2589   1.931   4.588  13.678  0.4564 -0.1145 -0.1606
  170MPD1    C2 2590   1.794   4.557  13.684 -0.3673  0.0930  0.0125
  170MPD1    C3 2591   1.737   4.490  13.572 -1.1522  0.3760 -0.2155
  170MPD1    C4 2592   1.816   4.443  13.467 -0.4059 -0.6437  0.0273
  170MPD1    C5 2593   1.951   4.473  13.473  0.4125  0.4570  0.1386
  170MPD1     H 2594   1.739   4.602  13.766 -0.6599 -1.4787  0.6706
  170MPD1    H1 2595   1.777   4.387  13.383 -0.1762  1.4517 -1.4638
  170MPD1    H2 2596   2.114   4.561  13.569 -0.0928  1.7232 -0.8708
  170MPD1    H3 2597   2.015   4.443  13.391  1.3528  1.9850  0.3020
  170MPD1     N 2598   1.598   4.470  13.574 -0.2339  0.8327  0.1209
  170MPD1    H5 2599   1.556   4.504  13.660 -0.7764  0.7347 -0.1057
  170MPD1    N1 2600   2.000   4.659  13.777  0.0586  0.2140  0.4065
  170MPD1    H6 2601   2.087   4.699  13.743  1.6172 -1.2452  2.6443
  170MPD1    H7 2602   1.941   0.011  13.810 -0.9625 -0.1836 -0.4777
  171MPD1     C 2603   3.850   0.403  16.035  0.0284 -0.2171  0.2455
  171MPD1    C1 2604   3.856   0.309  15.933  0.2929  0.5164 -0.7440
  171MPD1    C2 2605   3.968   0.233  15.930 -0.2676  0.1856  0.4861
  171MPD1    C3 2606   4.069   0.238  16.026 -0.7535 -0.2741 -0.0164
  171MPD1    C4 2607   4.050   0.322  16.133 -0.1388  1.0003 -0.5768
  171MPD1    C5 2608   3.952   0.406  16.130  0.2115  0.1710 -0.3220
  171MPD1     H 2609   3.982   0.161  15.851  2.0940  0.4661  0.6390
  171MPD1    H1 2610   4.113   0.316  16.221  1.3260 -0.9336 -1.7641
  171MPD1    H2 2611   3.768   0.475  16.031 -0.4978 -0.7643  1.1460
  171MPD1    H3 2612   3.948   0.486  16.203  0.6242  0.4178 -0.5698
  171MPD1     N 2613   4.191   0.164  16.022 -0.4694 -0.6179 -0.2921
  171MPD1    H5 2614   4.262   0.179  16.094  0.6889 -2.8414 -0.9671
  171MPD1    N1 2615   3.778   0.321  15.819 -0.2049  0.5112  0.2662
  171MPD1    H6 2616   3.760   0.230  15.778  3.5528  0.3044 -0.9189
  171MPD1    H7 2617   3.687   0.367  15.829  0.6305  2.1322  0.3824
  172MPD1     C 2618   2.764   4.380   0.230 -0.6769  0.0265  0.6043
  172MPD1    C1 2619   2.745   4.460   0.344  0.1558 -0.2832 -0.0813
  172MPD1    C2 2620   2.846   4.546   0.367  0.6447  0.0099  0.7613
  172MPD1    C3 2621   2.959   4.560   0.283  0.7156  1.0184  0.2205
  172MPD1    C4 2622   2.969   4.475   0.172  1.2273  0.0953  0.3105
  172MPD1    C5 2623   2.870   4.388   0.149 -0.1253 -0.4224  0.0260
  172MPD1     H 2624   2.837   4.600   0.461 -1.4184  2.0134 -0.5676
  172MPD1    H1 2625   3.048   4.482   0.098  0.7460  0.6299 -0.1562
  172MPD1    H2 2626   2.691   4.304   0.205  0.6403 -0.2804 -2.3053
  172MPD1    H3 2627   2.870   4.326   0.060 -0.6074 -1.0433  0.4643
  172MPD1     N 2628   3.072   4.649   0.299 -0.5610 -0.1778  0.0323
  172MPD1    H5 2629   3.151   4.625   0.240  0.5515 -0.2388  1.5551
  172MPD1    N1 2630   2.646   4.437   0.438  0.4045  0.1592 -0.0843
  172MPD1    H6 2631   2.645   4.515   0.503 -1.3665 -0.9985  1.2716
  172MPD1    H7 2632   2.554   4.411   0.403  0.8778  2.0567 -2.7205
  173MPD1     C 2633   0.748   4.156  14.717  0.4015  0.2041 -0.5780
  173MPD1    C1 2634   0.717   4.062  14.618  0.2077  0.1167  0.3901
  173MPD1    C2 2635   0.592   4.000  14.627 -0.1956  0.2680 -0.1144
  173MPD1    C3 2636   0.499   4.040  14.720 -0.0685 -0.2296 -0.2926
  173MPD1    C4 2637   0.525   4.144  14.804 -0.3017  0.3637 -0.2631
  173MPD1    C5 2638   0.648   4.199  14.801  0.3113 -0.0299 -0.5266
  173MPD1     H 2639   0.569   3.921  14.556  0.7650  1.5731 -1.8944
  173MPD1    H1 2640   0.454   4.175  14.881 -1.3318 -1.7999 -0.3560
  173MPD1    H2 2641   0.842   4.208  14.705 -1.4487  3.5581 -0.4710
  173MPD1    H3 2642   0.666   4.271  14.880 -1.2182  0.8408 -0.9787
  173MPD1     N 2643   0.377   3.968  14.731  0.2235 -0.0947 -1.5466
  173MPD1    H5 2644   0.380   3.878  14.683 -1.6520 -0.5103 -0.8693
  173MPD1    N1 2645   0.824   4.022  14.531  0.2192  0.1365  0.0913
  173MPD1    H6 2646   0.870   4.104  14.492  0.8851  1.0492  2.7250
  173MPD1    H7 2647   0.799   3.963  14.452  1.5742  1.0174 -0.9984
  174MPD1     C 2648   0.454   3.192  14.464 -0.5579 -0.0181  0.0782
  174MPD1    C1 2649   0.335   3.170  14.525 -0.4818 -0.3295 -0.5978
  174MPD1    C2 2650   0.267   3.274  14.584  0.2305  0.1597  0.5147
  174MPD1    C3 2651   0.310   3.404  14.574  0.3333  0.0316 -0.3054
  174MPD1    C4 2652   0.425   3.418  14.501 -0.0369  0.0810  0.9155
  174MPD1    C5 2653   0.498   3.318  14.450  0.8180 -0.5758  0.3191
  174MPD1     H 2654   0.170   3.247  14.624  0.3826 -1.5088 -0.2561
  174MPD1    H1 2655   0.474   3.514  14.487  3.1671 -1.7568 -0.5079
  174MPD1    H2 2656   0.518   3.115  14.423  0.6154  0.0082  1.8659
  174MPD1    H3 2657   0.586   3.339  14.391  0.0626  2.4238  0.2558
  174MPD1     N 2658   0.260   3.519  14.650 -0.0587  0.1561 -0.4900
  174MPD1    H5 2659   0.303   3.607  14.625  0.1441  0.2720  0.2855
  174MPD1    N1 2660   0.285   3.041  14.529  0.2391 -0.0060 -0.4631
  174MPD1    H6 2661   0.363   2.976  14.516 -0.6482 -1.5226  1.7652
  174MPD1    H7 2662   0.231   3.016  14.611  1.8194 -0.8159  0.3433
  175MPD1     C 2663   3.390   0.746  15.417  1.0594  0.3155 -0.8736
  175MPD1    C1 2664   3.459   0.638  15.452 -0.2315  0.2906  0.1733
  175MPD1    C2 2665   3.429   0.573  15.579 -0.5113  0.7338 -0.0828
  175MPD1    C3 2666   3.333   0.616  15.664  0.3998  0.2584 -0.4673
  175MPD1    C4 2667   3.256   0.727  15.617 -0.0975 -0.1063  0.4570
  175MPD1    C5 2668   3.292   0.790  15.501 -0.8480  0.3392  0.2795
  175MPD1     H 2669   3.482   0.482  15.606 -1.3618  0.5374  0.8788
  175MPD1    H1 2670   3.178   0.773  15.677  1.3328  0.2890  2.0340
  175MPD1    H2 2671   3.414   0.798  15.325  1.6388  2.3834  0.4448
  175MPD1    H3 2672   3.237   0.879  15.473 -1.6797 -0.4928 -0.7534
  175MPD1     N 2673   3.314   0.572  15.800 -0.7684 -0.3152 -0.3882
  175MPD1    H5 2674   3.255   0.630  15.859  2.0934  1.1646  1.0272
  175MPD1    N1 2675   3.576   0.608  15.379  0.0853 -0.2835 -0.1731
  175MPD1    H6 2676   3.611   0.513  15.393  0.8406 -0.2595 -1.7621
  175MPD1    H7 2677   3.584   0.627  15.279  0.7816 -0.3855 -0.1427
  176MPD1     C 2678   0.332   1.992  17.169 -0.3314 -0.1613  0.0293
  176MPD1    C1 2679   0.310   2.013  17.300  0.8133  0.4576  0.4906
  176MPD1    C2 2680   0.308   2.141  17.343 -0.2847 -0.2523  0.4430
  176MPD1    C3 2681   0.341   2.251  17.256  0.1864  0.0594  0.1627
  176MPD1    C4 2682   0.372   2.220  17.122 -0.4996 -0.3485 -0.6043
  176MPD1    C5 2683   0.368   2.094  17.082 -0.2326  0.4881 -0.0799
  176MPD1     H 2684   0.285   2.159  17.447 -0.4520 -1.7826  0.6675
  176MPD1    H1 2685   0.421   2.293  17.058 -0.7071 -2.5550 -3.2598
  176MPD1    H2 2686   0.325   1.893  17.127  2.6955 -0.3143 -0.1252
  176MPD1    H3 2687   0.390   2.065  16.979  1.8708  0.4342  0.3864
  176MPD1     N 2688   0.367   2.378  17.310  0.0200  0.5058 -0.2652
  176MPD1    H5 2689   0.350   2.386  17.410 -0.0448  2.3538 -0.4219
  176MPD1    N1 2690   0.258   1.914  17.385  0.1168 -0.2268 -0.9957
  176MPD1    H6 2691   0.306   1.824  17.379  0.5147 -0.0670 -0.2534
  176MPD1    H7 2692   0.162   1.899  17.355 -0.0497  1.1979 -1.1685
  177MPD1     C 2693   3.515   2.680   9.805  0.5283  0.3765  0.2597
  177MPD1    C1 2694   3.471   2.587   9.710 -1.0115 -0.3083 -0.0665
  177MPD1    C2 2695   3.335   2.579   9.689 -0.9466  0.3009  0.4253
  177MPD1    C3 2696   3.242   2.636   9.776 -1.1985 -0.1853 -0.4626
  177MPD1    C4 2697   3.287   2.724   9.869  0.2478 -0.3170 -1.0516
  177MPD1    C5 2698   3.420   2.752   9.876  0.0380  0.2880 -1.0386
  177MPD1     H 2699   3.297   2.512   9.612 -0.8774 -0.2987  0.9123
  177MPD1    H1 2700   3.222   2.772   9.942 -0.6091 -1.7211 -0.8907
  177MPD1    H2 2701   3.621   2.702   9.814  0.5620  0.1171  0.4775
  177MPD1    H3 2702   3.455   2.825   9.948 -1.8728  0.5272 -0.3589
  177MPD1     N 2703   3.110   2.603   9.757 -0.9763 -0.7023 -0.3684
  177MPD1    H5 2704   3.091   2.539   9.681 -0.1780 -0.6949 -0.5805
  177MPD1    N1 2705   3.559   2.537   9.615  0.2065 -0.4127 -0.3527
  177MPD1    H6 2706   3.657   2.536   9.644 -0.2265  2.2240  1.1982
  177MPD1    H7 2707   3.530   2.445   9.584  0.8511 -0.8117  0.2325
  178MPD1     C 2708   1.213   2.058   0.403 -0.5833  0.6272  0.8783
  178MPD1    C1 2709   1.150   2.152   0.487 -0.1515  0.2999 -0.2095
  178MPD1    C2 2710   1.153   2.285   0.451  0.0607  0.1210 -0.4533
  178MPD1    C3 2711   1.241   2.341   0.356 -0.2856  0.4717  0.3002
  178MPD1    C4 2712   1.318   2.245   0.295 -0.2174  0.0602  0.3537
  178MPD1    C5 2713   1.301   2.110   0.311 -0.2003  0.2120 -0.5029
  178MPD1     H 2714   1.104   2.356   0.517  0.1754 -1.6309  1.5048
  178MPD1    H1 2715   1.399   2.276   0.230 -2.5927 -1.1924 -3.2159
  178MPD1    H2 2716   1.202   1.950   0.405 -1.8616  0.7006 -1.5542
  178MPD1    H3 2717   1.359   2.038   0.255 -1.2518 -0.7930 -0.2829
  178MPD1     N 2718   1.257   2.482   0.336  0.3845  0.4501  0.3066
  178MPD1    H5 2719   1.332   2.509   0.273 -0.2875  0.7861 -0.3514
  178MPD1    N1 2720   1.059   2.096   0.572 -0.1369  0.1784 -0.2111
  178MPD1    H6 2721   0.974   2.067   0.525 -0.3182 -0.6028  0.5948
  178MPD1    H7 2722   1.033   2.165   0.643  1.7157  1.1407 -0.4615
  179MPD1     C 2723   0.354   2.457  16.798 -0.3595 -0.2475 -0.4707
  179MPD1    C1 2724   0.432   2.445  16.689  0.1494 -1.3182 -1.0567
  179MPD1    C2 2725   0.429   2.319  16.624  0.4536  0.5781 -0.1968
  179MPD1    C3 2726   0.337   2.218  16.660  0.1752  0.7760 -0.8906
  179MPD1    C4 2727   0.259   2.242  16.769  0.6369 -0.2979 -0.5687
  179MPD1    C5 2728   0.267   2.356  16.842 -0.5250  0.3006 -0.0088
  179MPD1     H 2729   0.501   2.307  16.545  0.3215  0.4918 -0.3045
  179MPD1    H1 2730   0.188   2.167  16.802  1.7435 -1.4099 -0.7478
  179MPD1    H2 2731   0.352   2.549  16.856 -1.1160 -0.3568 -0.3247
  179MPD1    H3 2732   0.208   2.380  16.930  1.8581  2.6996  0.9394
  179MPD1     N 2733   0.324   2.097  16.588 -0.1873 -0.5231 -0.3798
  179MPD1    H5 2734   0.257   2.028  16.620 -0.4733  0.7369  1.8088
  179MPD1    N1 2735   0.529   2.537  16.659  0.0908 -0.5176 -0.6866
  179MPD1    H6 2736   0.508   2.633  16.686  0.8614 -0.4462 -0.3421
  179MPD1    H7 2737   0.550   2.536  16.559  1.8904  0.4738 -0.3317
  180MPD1     C 2738   4.612   3.061  14.733  0.2073  0.4306  0.0628
  180MPD1    C1 2739   0.016   3.065  14.785 -0.0706  0.2780  0.2670
  180MPD1    C2 2740   0.094   2.951  14.766  0.0402 -0.2441 -0.2737
  180MPD1    C3 2741   0.051   2.859  14.670  0.5698 -0.2719  0.3162
  180MPD1    C4 2742   4.650   2.871  14.606 -0.0719  0.4776  0.2763
  180MPD1    C5 2743   4.565   2.973  14.642  0.0634 -0.3036 -0.1343
  180MPD1     H 2744   0.187   2.935  14.820  0.0401 -0.4364 -0.3315
  180MPD1    H1 2745   4.626   2.799  14.529  2.2578  0.5090 -0.4849
  180MPD1    H2 2746   4.543   3.142  14.753 -0.0794  0.4968 -1.2196
  180MPD1    H3 2747   4.472   2.989  14.589 -0.5915 -1.2555  0.7380
  180MPD1     N 2748   0.144   2.757  14.634 -0.2566  0.2205  0.4549
  180MPD1    H5 2749   0.233   2.758  14.683 -0.2693 -0.7271  0.4913
  180MPD1    N1 2750   0.045   3.160  14.884 -0.2399  0.1336 -0.8873
  180MPD1    H6 2751   0.141   3.163  14.916 -0.8348 -1.9499  1.1750
  180MPD1    H7 2752   0.032   3.255  14.852 -3.0835  1.0414  2.9160
  181MPD1     C 2753   1.094   4.098   9.720  0.6085  0.4274  0.3313
  181MPD1    C1 2754   1.128   4.057   9.847 -0.2711 -0.4558 -0.7153
  181MPD1    C2 2755   1.254   4.041   9.891 -0.4708 -0.8605  0.1733
  181MPD1    C3 2756   1.356   4.078   9.801 -0.2343  0.2232  0.5531
  181MPD1    C4 2757   1.321   4.123   9.678 -0.2278 -0.8995 -0.0605
  181MPD1    C5 2758   1.191   4.138   9.634 -0.3781  0.7215  0.0616
  181MPD1     H 2759   1.277   4.010   9.992  1.1640 -0.5605 -0.1145
  181MPD1    H1 2760   1.405   4.161   9.621 -1.2802 -0.5776 -1.4028
  181MPD1    H2 2761   0.989   4.100   9.692  0.3496 -1.1124  1.2241
  181MPD1    H3 2762   1.168   4.177   9.535 -0.0508  1.7081  0.3742
  181MPD1     N 2763   1.494   4.083   9.834 -0.0490  0.3816  0.4672
  181MPD1    H5 2764   1.557   4.122   9.765  0.6993 -0.9581  0.3852
  181MPD1    N1 2765   1.024   4.008   9.926  0.3847  0.0699  0.2863
  181MPD1    H6 2766   0.951   4.079   9.926  1.4654  1.1734  2.7442
  181MPD1    H7 2767   1.058   3.990  10.020 -0.3973  0.3681  0.6293
  182MPD1     C 2768   2.404   2.988   0.649 -0.7805 -0.0813 -0.5177
  182MPD1    C1 2769   2.403   3.030   0.518  0.1873  0.2135 -0.7407
  182MPD1    C2 2770   2.418   3.167   0.487 -0.5970 -0.2898  0.2748
  182MPD1    C3 2771   2.391   3.263   0.584 -0.4318 -0.7285 -0.0362
  182MPD1    C4 2772   2.365   3.219   0.712 -0.4032 -0.1026  0.0013
  182MPD1    C5 2773   2.385   3.085   0.742  0.3844  0.8035 -0.0618
  182MPD1     H 2774   2.433   3.197   0.384 -0.4237 -0.8258  0.1446
  182MPD1    H1 2775   2.358   3.286   0.798 -0.8678  1.2904 -1.1263
  182MPD1    H2 2776   2.426   2.884   0.668 -1.9901 -0.3966 -0.8202
  182MPD1    H3 2777   2.372   3.063   0.847 -3.4921  0.1396 -0.6957
  182MPD1     N 2778   2.387   3.402   0.560 -0.0977  0.1268  0.0941
  182MPD1    H5 2779   2.361   3.472   0.628 -1.7677 -1.1713  0.7763
  182MPD1    N1 2780   2.407   2.935   0.421 -0.2033  0.0123 -0.6439
  182MPD1    H6 2781   2.376   2.842   0.448 -0.8134  0.5391  0.4364
  182MPD1    H7 2782   2.359   2.964   0.336  1.6048 -1.8886 -2.3111
  183MPD1     C 2783   1.900   4.435   9.434  0.1252 -0.4719  0.0762
  183MPD1    C1 2784   1.963   4.390   9.319  0.2691 -0.3725 -0.4267
  183MPD1    C2 2785   2.099   4.347   9.327  0.5163 -0.0950 -0.4150
  183MPD1    C3 2786   2.152   4.320   9.455  0.0182 -0.4576 -0.2595
  183MPD1    C4 2787   2.076   4.349   9.570 -0.4762 -0.3894  0.4696
  183MPD1    C5 2788   1.953   4.408   9.555  0.3478  0.4888  0.4345
  183MPD1     H 2789   2.147   4.308   9.238  0.4227  2.1158 -1.4366
  183MPD1    H1 2790   2.116   4.327   9.668  0.4045  0.4725  0.3033
  183MPD1    H2 2791   1.806   4.487   9.423  0.4490  0.1635  0.3079
  183MPD1    H3 2792   1.900   4.437   9.645 -0.4403 -2.5095  0.9603
  183MPD1     N 2793   2.278   4.258   9.464  0.6934 -0.2978 -0.7223
  183MPD1    H5 2794   2.336   4.249   9.381 -0.9776 -1.2595 -1.7647
  183MPD1    N1 2795   1.910   4.412   9.188 -0.2009  0.3998  0.0927
  183MPD1    H6 2796   1.811   4.388   9.188  0.0776 -0.7724 -0.9704
  183MPD1    H7 2797   1.947   4.345   9.121  0.0335  2.5162 -1.8509
  184MPD1     C 2798   2.192   1.311   9.911  0.6157  0.4264  0.1339
  184MPD1    C1 2799   2.253   1.397  10.003 -0.0710  0.4830  0.2360
  184MPD1    C2 2800   2.288   1.522   9.950  0.0068 -0.0671  0.4063
  184MPD1    C3 2801   2.252   1.563   9.819  0.6768  0.3084 -0.1516
  184MPD1    C4 2802   2.189   1.472   9.733  0.0203 -0.2568  0.1902
  184MPD1    C5 2803   2.167   1.345   9.778  0.3003 -1.0370  0.2741
  184MPD1     H 2804   2.353   1.582  10.013 -1.8792  2.3561  0.0559
  184MPD1    H1 2805   2.177   1.496   9.628 -0.5523  2.0108  0.7630
  184MPD1    H2 2806   2.174   1.210   9.946 -1.5267  1.1806  1.1879
  184MPD1    H3 2807   2.129   1.270   9.710  0.3826 -0.0553 -0.8489
  184MPD1     N 2808   2.295   1.690   9.768 -0.0027  0.4021 -0.3284
  184MPD1    H5 2809   2.280   1.713   9.671 -0.2006  0.3925 -0.3012
  184MPD1    N1 2810   2.308   1.351  10.126  0.0932  0.2735 -0.4779
  184MPD1    H6 2811   2.240   1.283  10.160 -0.0471 -0.8919 -3.0997
  184MPD1    H7 2812   2.306   1.424  10.196 -0.9204  1.9673 -2.2764
  185MPD1     C 2813   2.485   2.182   8.940 -0.0756  0.2998  1.0937
  185MPD1    C1 2814   2.447   2.057   8.983  0.7199 -0.2372 -0.4793
  185MPD1    C2 2815   2.431   2.036   9.119  0.6501 -0.8100 -0.1886
  185MPD1    C3 2816   2.445   2.136   9.215 -0.0520  0.1232  0.1943
  185MPD1    C4 2817   2.461   2.260   9.170 -0.1193  0.1694 -0.3612
  185MPD1    C5 2818   2.483   2.282   9.033  0.3213 -0.2845 -0.1377
  185MPD1     H 2819   2.416   1.937   9.161 -0.6742 -0.1118  0.9785
  185MPD1    H1 2820   2.474   2.343   9.240 -0.0424  1.7800 -2.2974
  185MPD1    H2 2821   2.492   2.207   8.835 -2.7440 -2.5842  0.2243
  185MPD1    H3 2822   2.499   2.385   9.004  2.1184 -0.1014  1.4908
  185MPD1     N 2823   2.437   2.117   9.349 -0.6412  0.1606  0.2618
  185MPD1    H5 2824   2.433   2.205   9.399 -1.2257  0.8423 -1.0182
  185MPD1    N1 2825   2.449   1.945   8.898  0.2241  0.5430  0.3094
  185MPD1    H6 2826   2.392   1.868   8.933  0.3992  0.3761  0.2292
  185MPD1    H7 2827   2.414   1.968   8.806 -1.4634 -1.0333  0.5631
  186MPD1     C 2828   0.928   1.465  15.815 -0.1044  0.4128 -0.2582
  186MPD1    C1 2829   1.042   1.513  15.872  0.1968 -0.0274  0.6764
  186MPD1    C2 2830   1.038   1.635  15.937 -0.3822  0.3128 -0.1962
  186MPD1    C3 2831   0.918   1.689  15.973 -0.9009 -0.0599  0.6227
  186MPD1    C4 2832   0.796   1.619  15.945 -0.6180  0.1802  0.1756
  186MPD1    C5 2833   0.805   1.511  15.865  0.5431 -0.1403 -0.5839
  186MPD1     H 2834   1.132   1.680  15.967 -0.5367  0.2657  0.3537
  186MPD1    H1 2835   0.703   1.657  15.986 -0.5124 -0.2178  0.7850
  186MPD1    H2 2836   0.929   1.377  15.752  1.6295  0.4152 -0.2342
  186MPD1    H3 2837   0.714   1.462  15.831 -0.5883 -0.0389  2.3029
  186MPD1     N 2838   0.900   1.820  16.024 -0.2399 -0.3549  0.2380
  186MPD1    H5 2839   0.811   1.859  16.053  0.1139 -0.4741  1.4646
  186MPD1    N1 2840   1.172   1.459  15.840  0.7740  0.3257  0.1217
  186MPD1    H6 2841   1.175   1.357  15.844 -0.4104  0.2022 -2.1968
  186MPD1    H7 2842   1.237   1.486  15.913 -1.2891  3.4571  0.8186
  187MPD1     C 2843   0.652   3.163   0.027  0.0264 -0.4029  0.1258
  187MPD1    C1 2844   0.731   3.275   0.007 -0.2375  0.5426  0.5997
  187MPD1    C2 2845   0.661   3.390  17.663  0.8269 -0.1599  0.1449
  187MPD1    C3 2846   0.528   3.393  17.644 -0.0110  0.5402  0.0314
  187MPD1    C4 2847   0.458   3.283  17.680 -0.5805  0.6504  0.1792
  187MPD1    C5 2848   0.522   3.166   0.023  0.6691 -0.4179 -0.7931
  187MPD1     H 2849   0.729   3.469  17.633  0.2291  0.0044 -0.7731
  187MPD1    H1 2850   0.353   3.276  17.654 -0.2147 -1.8110 -0.6540
  187MPD1    H2 2851   0.695   3.068   0.054  1.7834  0.5369  0.6345
  187MPD1    H3 2852   0.478   3.067   0.032  0.4209 -0.2365  0.0170
  187MPD1     N 2853   0.462   3.501  17.587  0.0735 -0.4253 -0.1556
  187MPD1    H5 2854   0.362   3.496  17.575 -0.0329 -0.4703  0.7498
  187MPD1    N1 2855   0.871   3.273   0.001  0.2630  0.1253 -0.4506
  187MPD1    H6 2856   0.906   3.355   0.051  1.7150  0.2361 -1.6340
  187MPD1    H7 2857   0.911   3.193   0.050 -2.4939  0.0529  1.6393
  188MPD1     C 2858   0.314   3.764  10.069  0.4819  0.5381  0.4906
  188MPD1    C1 2859   0.378   3.688   9.972  0.0455 -0.5354  0.3941
  188MPD1    C2 2860   0.317   3.571   9.940  0.1699 -0.1925  0.4343
  188MPD1    C3 2861   0.215   3.512  10.017  0.1578 -0.4881 -0.7136
  188MPD1    C4 2862   0.164   3.585  10.122  0.0234  0.5456 -0.1268
  188MPD1    C5 2863   0.216   3.709  10.145 -1.1412  0.0650  0.2993
  188MPD1     H 2864   0.360   3.519   9.856 -0.0290  0.3182  0.0148
  188MPD1    H1 2865   0.092   3.544  10.191  2.0923 -1.9485  0.5072
  188MPD1    H2 2866   0.356   3.858  10.104  0.3301  1.1531 -1.0158
  188MPD1    H3 2867   0.177   3.769  10.226  0.4330  2.0443 -0.4194
  188MPD1     N 2868   0.160   3.386   9.987 -0.7127 -0.5732 -0.1286
  188MPD1    H5 2869   0.082   3.352  10.043 -0.3841 -1.7323 -0.3726
  188MPD1    N1 2870   0.471   3.752   9.889  0.3373 -0.7403 -0.0087
  188MPD1    H6 2871   0.528   3.823   9.935 -2.0963  2.5241 -2.0487
  188MPD1    H7 2872   0.525   3.678   9.844  0.8441 -1.3037  1.5437
  189MPD1     C 2873   1.879   4.596   0.947  0.1493 -0.7189 -0.2620
  189MPD1    C1 2874   1.801   4.642   0.845 -1.2119 -0.0481 -0.0873
  189MPD1    C2 2875   1.667   4.670   0.874 -0.1093  0.2763 -0.5993
  189MPD1    C3 2876   1.626   4.666   1.011 -0.5458 -0.6411  0.2646
  189MPD1    C4 2877   1.705   4.615   1.113  0.4291  0.0140 -0.1948
  189MPD1    C5 2878   1.838   4.585   1.080 -0.3868  0.1993  0.0210
  189MPD1     H 2879   1.598   4.706   0.798  0.4405  0.5371 -0.9696
  189MPD1    H1 2880   1.668   4.604   1.214  1.5749  1.5927  0.3956
  189MPD1    H2 2881   1.979   4.558   0.933  0.7767  1.5748 -1.9388
  189MPD1    H3 2882   1.899   4.536   1.155 -1.4848  0.1591  0.8850
  189MPD1     N 2883   1.496   4.707   1.035  0.0624 -0.6664  0.0088
  189MPD1    H5 2884   1.436   4.714   0.953  1.1540  0.8449 -0.6607
  189MPD1    N1 2885   1.826   4.631   0.711  0.0557  0.1982 -0.3539
  189MPD1    H6 2886   1.924   4.656   0.705  0.2134  0.0471  1.7577
  189MPD1    H7 2887   1.784   4.699   0.648 -0.1210 -0.2136 -0.6812
  190MPD1     C 2888   0.323   2.552  15.344 -0.2123  0.0756 -0.3089
  190MPD1    C1 2889   0.276   2.648  15.431  0.1123 -0.8074  0.3475
  190MPD1    C2 2890   0.366   2.722  15.506 -0.7731  0.7528  0.9071
  190MPD1    C3 2891   0.497   2.715  15.478 -0.1578  0.7182 -0.9301
  190MPD1    C4 2892   0.546   2.617  15.391 -0.0713 -0.3523 -0.0219
  190MPD1    C5 2893   0.455   2.542  15.325 -0.8231  0.0508 -0.4340
  190MPD1     H 2894   0.341   2.805  15.571  0.5893  1.6232  0.3080
  190MPD1    H1 2895   0.650   2.599  15.366  0.0368 -0.2143  0.3222
  190MPD1    H2 2896   0.256   2.478  15.301 -1.1891  0.6630  0.1988
  190MPD1    H3 2897   0.496   2.461  15.266  2.8414  1.1090  0.6548
  190MPD1     N 2898   0.582   2.812  15.537 -0.5150  0.6370  0.0512
  190MPD1    H5 2899   0.547   2.857  15.621 -0.6000 -0.3311  0.5399
  190MPD1    N1 2900   0.134   2.651  15.465  0.0081 -0.7600  0.4031
  190MPD1    H6 2901   0.080   2.614  15.387  0.2256  1.2786 -0.7212
  190MPD1    H7 2902   0.120   2.589  15.544  0.2038 -1.2029  0.0908
  191MPD1     C 2903   4.487   4.341  13.476  0.0133 -0.2884  0.0472
  191MPD1    C1 2904   4.377   4.356  13.401 -0.1084  0.0969  0.0018
  191MPD1    C2 2905   4.375   4.440  13.286  0.0728 -0.5511 -0.1974
  191MPD1    C3 2906   4.492   4.509  13.249  0.0631  0.3027  0.5065
  191MPD1    C4 2907   4.610   4.478  13.317  0.0696  0.2068 -0.4044
  191MPD1    C5 2908   4.607   4.392  13.429  0.0361 -0.1419  0.2199
  191MPD1     H 2909   4.294   4.433  13.215 -2.2560  0.8978  2.3140
  191MPD1    H1 2910   4.696   4.542  13.304  0.7790 -0.3818  1.2890
  191MPD1    H2 2911   4.493   4.271  13.558 -1.2595  0.1577  0.5209
  191MPD1    H3 2912   4.695   4.391  13.493 -1.8428 -1.2919  2.7579
  191MPD1     N 2913   4.485   4.605  13.147 -0.1771 -0.5844  1.2139
  191MPD1    H5 2914   4.397   4.617  13.099 -0.0183  1.5974  1.4518
  191MPD1    N1 2915   4.266   4.275  13.426  0.1305  0.3973 -0.0934
  191MPD1    H6 2916   4.251   4.257  13.525  1.8159 -3.2460 -0.5210
  191MPD1    H7 2917   4.179   4.304  13.383 -0.1559 -0.3507 -0.0035
  192MPD1     C 2918   3.760   0.308  13.137 -0.0811  0.1286  0.0650
  192MPD1    C1 2919   3.835   0.385  13.052  0.6682  0.3831  0.2834
  192MPD1    C2 2920   3.966   0.344  13.025 -0.4448  0.2156 -0.1198
  192MPD1    C3 2921   4.024   0.227  13.074 -0.0301  0.3254  0.1634
  192MPD1    C4 2922   3.948   0.146  13.157 -0.1924 -0.6332 -0.4488
  192MPD1    C5 2923   3.821   0.192  13.191  0.2999  0.1288  0.0372
  192MPD1     H 2924   4.021   0.417  12.967  0.5083 -1.1339 -0.8900
  192MPD1    H1 2925   3.993   0.058  13.201 -1.2573 -0.6936  0.4990
  192MPD1    H2 2926   3.658   0.327  13.170  0.1522 -0.9167  1.3731
  192MPD1    H3 2927   3.761   0.137  13.264  1.2336 -2.4942 -1.1718
  192MPD1     N 2928   4.158   0.184  13.038  0.0793 -0.2072  0.3982
  192MPD1    H5 2929   4.194   0.100  13.081 -0.3645 -0.2213  0.7379
  192MPD1    N1 2930   3.782   0.504  12.993  0.0712  0.6133  0.0067
  192MPD1    H6 2931   3.825   0.560  12.920  0.1715  1.1990  0.5203
  192MPD1    H7 2932   3.681   0.499  12.989  0.1061  0.7467 -0.9884
  193MPD1     C 2933   4.521   0.281  17.689 -0.1075  0.0027  0.2053
  193MPD1    C1 2934   4.577   0.219  17.581  0.1639  0.0527 -0.5341
  193MPD1    C2 2935   4.623   0.301  17.483 -0.6053 -0.0261 -0.6235
  193MPD1    C3 2936   4.618   0.441  17.489  0.3554  0.6085 -0.2064
  193MPD1    C4 2937   4.548   0.495  17.593  0.0166  0.5923 -0.0896
  193MPD1    C5 2938   4.496   0.417  17.687 -0.4129  0.2764  0.8170
  193MPD1     H 2939   4.662   0.251  17.395  2.0395  0.5566  0.2041
  193MPD1    H1 2940   4.537   0.602  17.604  0.3844  0.6131  0.0627
  193MPD1    H2 2941   4.485   0.229   0.077 -2.1117  0.6489 -0.2468
  193MPD1    H3 2942   4.447   0.459   0.074  0.7025  0.9785  1.0984
  193MPD1     N 2943   4.690   0.527  17.411  0.6721  0.1939 -0.5652
  193MPD1    H5 2944   4.666   0.625  17.414 -2.0023 -0.4964  0.7217
  193MPD1    N1 2945   4.596   0.080  17.569  0.4917 -0.6963  0.3340
  193MPD1    H6 2946   4.607   0.055  17.471 -0.5865 -1.6941  0.4735
  193MPD1    H7 2947   4.529   0.027  17.624  1.4996 -2.1684  0.1435
  194MPD1     C 2948   3.171   2.789  16.219 -0.4435 -0.6775  0.5369
  194MPD1    C1 2949   3.045   2.752  16.183 -0.0211  0.1694  0.4939
  194MPD1    C2 2950   2.962   2.685  16.278  0.1365  0.1691 -0.7603
  194MPD1    C3 2951   3.016   2.643  16.399 -0.0110 -0.2338  0.0648
  194MPD1    C4 2952   3.145   2.685  16.427  0.3692 -0.0176 -0.1640
  194MPD1    C5 2953   3.219   2.770  16.350  0.0893 -0.3192  0.1867
  194MPD1     H 2954   2.866   2.654  16.239 -0.0756 -2.1275  1.5516
  194MPD1    H1 2955   3.199   2.664  16.519 -0.2722 -1.4805 -0.1194
  194MPD1    H2 2956   3.242   2.840  16.154 -1.4779  2.3153  1.7887
  194MPD1    H3 2957   3.314   2.814  16.377  0.5258 -1.0668 -0.1450
  194MPD1     N 2958   2.949   2.556  16.491  0.0345  0.0668 -0.4303
  194MPD1    H5 2959   2.983   2.545  16.586  2.8684 -2.7337 -1.7840
  194MPD1    N1 2960   2.984   2.791  16.064 -0.5293  0.2194 -0.0496
  194MPD1    H6 2961   2.899   2.740  16.040 -0.5584 -1.5586  3.8317
  194MPD1    H7 2962   3.045   2.809  15.985 -2.0688 -0.6323 -1.4494
  195MPD1     C 2963   0.691   4.061   0.760  0.1364 -0.6430 -0.1620
  195MPD1    C1 2964   0.760   3.956   0.690 -0.2248  0.3229 -0.5460
  195MPD1    C2 2965   0.695   3.837   0.660 -0.3869 -0.6997  0.2288
  195MPD1    C3 2966   0.580   3.803   0.732 -0.9090  0.2877 -0.0867
  195MPD1    C4 2967   0.514   3.904   0.792 -0.1786 -0.4255 -0.7210
  195MPD1    C5 2968   0.566   4.031   0.803  0.2240  0.1331  0.1034
  195MPD1     H 2969   0.740   3.768   0.591 -1.8862  0.2383 -1.6814
  195MPD1    H1 2970   0.418   3.890   0.840 -0.9945  1.5181 -1.7685
  195MPD1    H2 2971   0.747   4.148   0.792  0.5471 -0.7067 -0.7111
  195MPD1    H3 2972   0.514   4.105   0.863  0.0415  0.0770  0.0131
  195MPD1     N 2973   0.524   3.674   0.731 -0.2317 -0.1497 -1.0981
  195MPD1    H5 2974   0.443   3.654   0.790  0.6143 -0.3583 -0.0024
  195MPD1    N1 2975   0.888   3.983   0.638 -0.1885 -0.0007  0.4468
  195MPD1    H6 2976   0.952   3.910   0.609  1.2588  1.3926  0.0862
  195MPD1    H7 2977   0.933   4.059   0.689  1.1521 -0.4828 -0.0323
  196MPD1     C 2978   4.150   4.312  17.384 -0.3830  0.1824  0.5034
  196MPD1    C1 2979   4.050   4.394  17.424  0.0889 -0.0342  0.7703
  196MPD1    C2 2980   4.011   4.397  17.551 -0.2481  0.1581 -0.7122
  196MPD1    C3 2981   4.066   4.314  17.648  0.0728  0.2374 -0.0060
  196MPD1    C4 2982   4.182   4.240  17.609  0.5722 -0.3869  0.2063
  196MPD1    C5 2983   4.223   4.242  17.481  0.0783 -0.2473  0.1392
  196MPD1     H 2984   3.941   4.473  17.585 -1.5139 -1.0278 -0.6397
  196MPD1    H1 2985   4.246   4.188  17.678 -0.3727 -1.9148 -0.0768
  196MPD1    H2 2986   4.180   4.295  17.281 -0.4480  1.6280  0.2432
  196MPD1    H3 2987   4.305   4.176  17.456  0.6875  0.0553  1.3576
  196MPD1     N 2988   4.025   4.308   0.084 -0.0594 -0.5635 -0.1160
  196MPD1    H5 2989   4.077   4.238   0.135 -0.9712 -0.8088  0.4783
  196MPD1    N1 2990   3.979   4.455  17.314 -0.7195  0.1997 -0.1093
  196MPD1    H6 2991   3.914   4.524  17.351 -1.0830 -1.1496  1.7695
  196MPD1    H7 2992   4.051   4.499  17.256 -1.6782  3.4134  1.1326
  197MPD1     C 2993   2.947   0.355  17.391 -0.4349 -0.2836 -0.4601
  197MPD1    C1 2994   3.050   0.362  17.486  0.3040 -0.1452 -0.8285
  197MPD1    C2 2995   3.157   0.445  17.459 -0.0290 -0.1310  0.4061
  197MPD1    C3 2996   3.173   0.519  17.340 -0.2496  0.5051  0.3713
  197MPD1    C4 2997   3.068   0.505  17.243 -0.2750  0.1192  0.1443
  197MPD1    C5 2998   2.960   0.420  17.271 -0.2136 -0.7699 -0.6037
  197MPD1     H 2999   3.239   0.448  17.530  0.9420 -2.9960 -0.5795
  197MPD1    H1 3000   3.080   0.552  17.146 -0.8764 -0.8769 -0.4075
  197MPD1    H2 3001   2.865   0.285  17.398  1.2541 -2.2504 -0.4744
  197MPD1    H3 3002   2.877   0.410  17.202 -1.8083  0.7163  1.1033
  197MPD1     N 3003   3.285   0.595  17.297 -0.3098 -0.0782 -0.1627
  197MPD1    H5 3004   3.277   0.644  17.208  3.5313  1.3589  0.2546
  197MPD1    N1 3005   3.038   0.304  17.615  0.2513 -0.3076 -0.3321
  197MPD1    H6 3006   2.962   0.238  17.630 -1.1942  1.5352  0.5458
  197MPD1    H7 3007   3.122   0.280  17.667 -0.3868 -1.0988  0.3399
  198MPD1     C 3008   4.277   4.232  15.784  0.1347  0.9029  0.0144
  198MPD1    C1 3009   4.353   4.298  15.878  0.6302 -0.1029 -0.0606
  198MPD1    C2 3010   4.492   4.275  15.873  0.6269 -0.2651  0.3939
  198MPD1    C3 3011   4.541   4.181  15.783  0.4468 -0.1196  0.1965
  198MPD1    C4 3012   4.460   4.114  15.694  0.1945 -0.0837  0.4037
  198MPD1    C5 3013   4.328   4.143  15.694  0.3819  0.0835  0.2870
  198MPD1     H 3014   4.553   4.316  15.952 -0.8555  0.6792  1.0591
  198MPD1    H1 3015   4.495   4.047  15.616  1.7159 -0.7077  1.6261
  198MPD1    H2 3016   4.169   4.241  15.775 -0.3766 -0.4564  4.7577
  198MPD1    H3 3017   4.251   4.097  15.634  0.2059 -0.4036  0.8878
  198MPD1     N 3018   4.679   4.148  15.799 -0.1416  0.8185 -0.4897
  198MPD1    H5 3019   0.004   4.182  15.881 -1.0267  0.7979  0.0563
  198MPD1    N1 3020   4.295   4.396  15.958  0.1393 -0.3970 -0.2189
  198MPD1    H6 3021   4.340   4.408  16.049 -0.0970  1.2357 -0.3135
  198MPD1    H7 3022   4.197   4.382  15.981  0.1387  0.5558  0.3691
  199MPD1     C 3023   2.217   0.618  10.736 -0.0295  0.2368  0.3003
  199MPD1    C1 3024   2.215   0.693  10.623 -0.2606 -0.5696 -0.1601
  199MPD1    C2 3025   2.291   0.663  10.510 -0.5628  0.0711 -0.2762
  199MPD1    C3 3026   2.361   0.541  10.512 -0.0022  0.5128  0.6027
  199MPD1    C4 3027   2.371   0.470  10.626  0.4235  0.5179 -0.7062
  199MPD1    C5 3028   2.301   0.502  10.740  0.0017  0.4564 -0.1500
  199MPD1     H 3029   2.286   0.731  10.426  0.8459  1.2305  0.5667
  199MPD1    H1 3030   2.431   0.380  10.636  1.4092  1.0324 -2.1516
  199MPD1    H2 3031   2.155   0.644  10.821 -1.6977 -1.7826 -0.2788
  199MPD1    H3 3032   2.311   0.444  10.831  1.9997  2.7638  1.1100
  199MPD1     N 3033   2.435   0.494  10.401  0.9542  0.1583 -0.0284
  199MPD1    H5 3034   2.480   0.403  10.405 -1.4574 -1.0649 -0.5220
  199MPD1    N1 3035   2.148   0.820  10.622  0.0778  0.3150 -0.6068
  199MPD1    H6 3036   2.079   0.835  10.696  0.5072 -1.4664  0.1616
  199MPD1    H7 3037   2.110   0.854  10.534 -2.0206 -0.7581 -0.1439
  200MPD1     C 3038   1.554   0.311  14.433 -0.1736  0.4729 -0.0625
  200MPD1    C1 3039   1.460   0.348  14.331  0.3466 -0.1370 -0.2821
  200MPD1    C2 3040   1.499   0.424  14.228 -0.1719 -0.1693 -0.2402
  200MPD1    C3 3041   1.622   0.478  14.210 -0.8766 -0.1481 -0.2091
  200MPD1    C4 3042   1.718   0.437  14.306  0.4351 -0.1359 -0.0235
  200MPD1    C5 3043   1.684   0.351  14.407 -0.4857 -0.0933  0.0309
  200MPD1     H 3044   1.419   0.449  14.159  0.4157 -0.6152 -1.0803
  200MPD1    H1 3045   1.823   0.461  14.297  0.2621  0.7927  0.5299
  200MPD1    H2 3046   1.531   0.258  14.524  0.6845  0.8286  0.3656
  200MPD1    H3 3047   1.758   0.324  14.482 -1.4149 -1.6361  0.3886
  200MPD1     N 3048   1.655   0.556  14.101  0.4533 -0.2630  0.0302
  200MPD1    H5 3049   1.592   0.555  14.021  0.6491  0.5564 -0.1340
  200MPD1    N1 3050   1.322   0.320  14.357 -0.2295  0.6738 -0.0589
  200MPD1    H6 3051   1.263   0.302  14.276 -1.0191 -1.1673  0.9230
  200MPD1    H7 3052   1.313   0.247  14.428 -2.5877  1.4423  0.4236
  201MPD1     C 3053   3.566   3.924  13.495 -0.5301 -0.5498  0.1347
  201MPD1    C1 3054   3.571   3.783  13.503 -0.5109 -0.4303 -0.4298
  201MPD1    C2 3055   3.696   3.729  13.481 -0.0094 -0.4823 -0.7079
  201MPD1    C3 3056   3.791   3.805  13.414 -0.3239  0.1762 -0.1300
  201MPD1    C4 3057   3.783   3.944  13.410 -0.1272 -0.0301 -0.2939
  201MPD1    C5 3058   3.663   3.997  13.439 -0.5578  0.8870 -0.3193
  201MPD1     H 3059   3.712   3.623  13.497  2.3880  0.3040  2.1010
  201MPD1    H1 3060   3.863   4.008  13.375  1.0268 -1.8174 -0.9696
  201MPD1    H2 3061   3.483   3.981  13.535  0.2961  0.5853  0.2457
  201MPD1    H3 3062   3.651   4.105  13.435  0.0470  0.9267 -0.9618
  201MPD1     N 3063   3.918   3.738  13.385  0.5562 -0.3075  0.5994
  201MPD1    H5 3064   3.924   3.637  13.382  1.0445 -0.3211  2.1135
  201MPD1    N1 3065   3.468   3.708  13.570  0.0054  0.3240 -0.3132
  201MPD1    H6 3066   3.385   3.755  13.535 -1.7147 -1.5913  1.2836
  201MPD1    H7 3067   3.455   3.609  13.553  1.3625  0.1847 -0.5395
  202MPD1     C 3068   3.206   3.105   9.267 -0.0375 -0.3593  0.2078
  202MPD1    C1 3069   3.140   3.210   9.330 -0.2005  0.5696  0.2911
  202MPD1    C2 3070   3.216   3.302   9.390 -0.3836 -0.4295 -0.2973
  202MPD1    C3 3071   3.350   3.281   9.400 -0.3076  0.0036  0.3872
  202MPD1    C4 3072   3.418   3.175   9.340  0.2001  0.2274  0.9767
  202MPD1    C5 3073   3.334   3.089   9.276  0.0681 -0.3912  0.2888
  202MPD1     H 3074   3.171   3.396   9.419  3.0881  0.9959  0.4383
  202MPD1    H1 3075   3.526   3.169   9.337  0.2005  0.3497  0.7423
  202MPD1    H2 3076   3.148   3.036   9.207  1.0953 -1.6057  0.5422
  202MPD1    H3 3077   3.378   2.998   9.235 -0.1150  0.6525 -2.1806
  202MPD1     N 3078   3.435   3.360   9.478  1.2292 -0.0112  0.2533
  202MPD1    H5 3079   3.534   3.338   9.473  1.6435  1.8532  0.1089
  202MPD1    N1 3080   3.013   3.250   9.289 -0.0527  0.2258 -0.3155
  202MPD1    H6 3081   2.961   3.174   9.246  2.6430 -0.9489 -1.5076
  202MPD1    H7 3082   2.963   3.315   9.349  2.0867  2.7897 -1.3385
  203MPD1     C 3083   2.541   0.241  12.273  0.1517  0.2424 -0.5461
  203MPD1    C1 3084   2.557   0.131  12.186 -0.0375 -0.3339  0.2698
  203MPD1    C2 3085   2.604   0.015  12.238 -0.3294 -0.0630  0.2829
  203MPD1    C3 3086   2.632   0.001  12.378  1.1447 -0.3699 -0.5587
  203MPD1    C4 3087   2.621   0.115  12.452  0.2439 -0.2661 -0.7243
  203MPD1    C5 3088   2.569   0.229  12.403 -0.6016  0.4737 -0.3209
  203MPD1     H 3089   2.607   4.653  12.173  1.9255  0.0170  0.2747
  203MPD1    H1 3090   2.663   0.114  12.552 -1.1084 -1.4773 -0.1787
  203MPD1    H2 3091   2.503   0.335  12.235  1.2837  0.9080 -0.0500
  203MPD1    H3 3092   2.582   0.317  12.465  1.0872 -0.5164  0.7294
  203MPD1     N 3093   2.671   4.602  12.425  0.2376 -0.0720 -0.0306
  203MPD1    H5 3094   2.691   4.531  12.355 -3.4155 -2.2001  1.1031
  203MPD1    N1 3095   2.545   0.157  12.050  0.6233 -0.0651 -0.1510
  203MPD1    H6 3096   2.473   0.227  12.031 -0.0208 -0.6621  0.1202
  203MPD1    H7 3097   2.536   0.072  11.994  0.2110 -0.5399  0.6427
  204MPD1     C 3098   2.998   0.961   0.365  0.3691 -0.8148 -0.7042
  204MPD1    C1 3099   2.924   0.861   0.317 -0.0837 -0.1396  0.3140
  204MPD1    C2 3100   2.832   0.886   0.217  0.5901 -0.0131  0.6881
  204MPD1    C3 3101   2.853   0.993   0.139 -0.4357  0.2502  0.0395
  204MPD1    C4 3102   2.947   1.088   0.174 -0.6008 -0.6806 -0.1486
  204MPD1    C5 3103   3.011   1.075   0.291 -0.3575  0.2004 -0.6741
  204MPD1     H 3104   2.761   0.809   0.189  0.1098  0.7002 -0.0671
  204MPD1    H1 3105   2.963   1.180   0.118  0.5787 -1.4675 -1.0893
  204MPD1    H2 3106   3.061   0.951   0.453 -1.4804  2.5432  1.0360
  204MPD1    H3 3107   3.072   1.155   0.331  0.4312 -1.6291  1.7826
  204MPD1     N 3108   2.777   1.011   0.023 -0.5700  0.3978 -0.4760
  204MPD1    H5 3109   2.697   0.949   0.015  0.2089 -0.6273 -0.3618
  204MPD1    N1 3110   2.912   0.737   0.386 -1.0057 -0.3444 -0.1224
  204MPD1    H6 3111   2.998   0.712   0.434 -1.2519 -3.2236 -1.1898
  204MPD1    H7 3112   2.892   0.670   0.312 -0.5156 -0.6802  0.0474
  205MPD1     C 3113   2.130   0.636  16.621  0.3043 -0.1035  0.2971
  205MPD1    C1 3114   2.081   0.532  16.689 -0.0550 -0.2058 -0.1230
  205MPD1    C2 3115   1.984   0.553  16.793 -0.3269  0.0117 -0.4217
  205MPD1    C3 3116   1.945   0.686  16.834 -0.1681  0.6563 -0.9841
  205MPD1    C4 3117   2.011   0.793  16.769 -0.4375 -0.3037 -0.3912
  205MPD1    C5 3118   2.101   0.762  16.661  0.0456 -0.0956 -0.1047
  205MPD1     H 3119   1.938   0.470  16.845 -0.1625  0.8981  1.1277
  205MPD1    H1 3120   1.989   0.897  16.791 -0.6815 -1.0013  2.6503
  205MPD1    H2 3121   2.210   0.631  16.548 -0.2496  1.8810 -0.4478
  205MPD1    H3 3122   2.152   0.840  16.606 -0.0664 -1.0167 -1.5179
  205MPD1     N 3123   1.848   0.717  16.929 -0.6160  0.2095  0.1474
  205MPD1    H5 3124   1.825   0.815  16.943 -1.0729 -0.1132  1.5640
  205MPD1    N1 3125   2.133   0.405  16.660 -0.4126  0.5588 -0.2962
  205MPD1    H6 3126   2.176   0.401  16.568 -1.9949  2.8930 -1.1542
  205MPD1    H7 3127   2.077   0.320  16.668  1.2404 -0.6653 -1.7469
  206MPD1     C 3128   1.833   2.878  16.227  0.3668 -0.0688  0.9357
  206MPD1    C1 3129   1.912   2.781  16.280 -0.0413  0.0224  0.3743
  206MPD1    C2 3130   2.019   2.735  16.206 -0.1478  0.7074 -0.6538
  206MPD1    C3 3131   2.054   2.797  16.085 -0.0131 -0.4231 -0.2260
  206MPD1    C4 3132   1.989   2.909  16.049  0.0981  0.3931  0.8507
  206MPD1    C5 3133   1.882   2.952  16.121  0.1730  0.0947 -0.3773
  206MPD1     H 3134   2.076   2.657  16.255 -0.9804 -0.1281 -0.9939
  206MPD1    H1 3135   2.016   2.958  15.956 -2.2759  3.4697  1.7849
  206MPD1    H2 3136   1.749   2.918  16.283 -0.5251 -2.2141  1.1374
  206MPD1    H3 3137   1.828   3.035  16.077  1.7538  1.8225  0.9104
  206MPD1     N 3138   2.155   2.751  16.002  0.4093  0.0651  0.3950
  206MPD1    H5 3139   2.170   2.802  15.916  0.1888 -1.6370 -0.6458
  206MPD1    N1 3140   1.867   2.710  16.390 -0.1060 -0.1477 -0.1208
  206MPD1    H6 3141   1.944   2.681  16.451  1.7259  0.7400 -2.0278
  206MPD1    H7 3142   1.803   2.767  16.444  0.8443  1.3968 -0.6245
  207MPD1     C 3143   0.056   0.796   9.873  0.3968  0.0910  0.5259
  207MPD1    C1 3144   4.719   0.675   9.864  0.1589  0.2152  0.0357
  207MPD1    C2 3145   0.052   0.565   9.922  0.0941 -0.6828  1.4862
  207MPD1    C3 3146   0.184   0.574   9.959  0.1519  0.6713  0.2884
  207MPD1    C4 3147   0.251   0.691   9.949 -0.2770 -0.0868  0.7498
  207MPD1    C5 3148   0.190   0.804   9.912  0.2932 -0.2794 -0.1839
  207MPD1     H 3149   0.006   0.467   9.923 -2.6834  0.6245 -0.7235
  207MPD1    H1 3150   0.357   0.709   9.967 -0.4582  2.2974 -0.5183
  207MPD1    H2 3151   0.007   0.889   9.848 -1.1328 -0.9114 -0.2322
  207MPD1    H3 3152   0.241   0.900   9.909 -1.0879  0.4799  0.1598
  207MPD1     N 3153   0.260   0.470  10.013 -0.5427  0.3011 -0.2278
  207MPD1    H5 3154   0.358   0.484  10.036 -0.5121 -0.7489  0.2861
  207MPD1    N1 3155   4.583   0.672   9.849  0.6397 -0.7417  0.6863
  207MPD1    H6 3156   4.556   0.588   9.798  0.9592  0.7252 -1.8667
  207MPD1    H7 3157   4.554   0.758   9.804 -0.4281 -2.0304 -1.0845
  208MPD1     C 3158   2.010   4.676  16.643 -0.6342  0.0225 -0.0177
  208MPD1    C1 3159   1.963   0.044  16.735 -0.4769 -0.0228 -0.1597
  208MPD1    C2 3160   1.968   0.017  16.869  0.5180 -0.2487 -0.2464
  208MPD1    C3 3161   2.020   4.623  16.919  1.1097 -0.2321 -0.0526
  208MPD1    C4 3162   2.062   4.531  16.828  0.4468  0.0509  0.1658
  208MPD1    C5 3163   2.049   4.558  16.695  0.4943  0.1467  0.4286
  208MPD1     H 3164   1.942   0.091  16.944 -0.5197 -1.0016  0.1265
  208MPD1    H1 3165   2.082   4.431  16.863  1.6747  0.2373  0.0026
  208MPD1    H2 3166   2.010   4.697  16.537 -1.5611  1.1147  0.1918
  208MPD1    H3 3167   2.068   4.473  16.630 -0.0158 -0.5200  1.1372
  208MPD1     N 3168   2.012   4.594  17.061 -0.0250 -0.1680 -0.2346
  208MPD1    H5 3169   1.969   4.662  17.123  2.3320  1.6548 -0.6006
  208MPD1    N1 3170   1.946   0.178  16.696 -0.0230 -0.1498  0.9843
  208MPD1    H6 3171   1.926   0.178  16.596  2.4972 -0.6753  0.4673
  208MPD1    H7 3172   1.871   0.214  16.754 -1.0765 -0.2407 -0.3063
  209MPD1     C 3173   4.281   3.658  10.957 -0.2958 -0.7892 -0.0313
  209MPD1    C1 3174   4.387   3.648  11.038 -0.2009  0.6784 -0.3271
  209MPD1    C2 3175   4.492   3.738  11.019 -0.3612  0.7727  0.5511
  209MPD1    C3 3176   4.482   3.843  10.929  0.1290  0.2604  0.2604
  209MPD1    C4 3177   4.372   3.839  10.846 -0.4754  0.0035  0.1302
  209MPD1    C5 3178   4.281   3.735  10.849  0.2129 -0.4484 -0.6876
  209MPD1     H 3179   4.581   3.710  11.075 -0.8087 -0.4765  0.6453
  209MPD1    H1 3180   4.366   3.912  10.767  0.1040  1.6273  1.5790
  209MPD1    H2 3181   4.199   3.588  10.972  0.3553 -1.8824 -1.5301
  209MPD1    H3 3182   4.191   3.728  10.789 -0.8229  1.0149  0.6873
  209MPD1     N 3183   4.582   3.939  10.916  0.1660  0.4752  0.5367
  209MPD1    H5 3184   4.567   4.000  10.836 -2.8752  0.2209  0.8922
  209MPD1    N1 3185   4.400   3.529  11.108  0.0775  0.0829  0.9734
  209MPD1    H6 3186   4.310   3.487  11.130 -0.7945  1.5808  0.1862
  209MPD1    H7 3187   4.452   3.534  11.196 -1.6799  0.3479  1.9871
  210MPD1     C 3188   0.396   4.669  11.502  0.6265 -0.2595  0.2500
  210MPD1    C1 3189   0.392   4.534  11.526 -0.5542  0.3278  0.1284
  210MPD1    C2 3190   0.344   4.449  11.423 -0.2110 -0.0020  0.5540
  210MPD1    C3 3191   0.297   4.502  11.305 -0.0341  0.1371  0.1344
  210MPD1    C4 3192   0.303   4.636  11.287  0.4176 -0.1325 -0.3143
  210MPD1    C5 3193   0.354   4.720  11.382 -0.5493 -0.2247  0.9347
  210MPD1     H 3194   0.338   4.342  11.441 -4.8024  0.1613 -0.0171
  210MPD1    H1 3195   0.257   4.681  11.199  0.9526  2.1013  0.5640
  210MPD1    H2 3196   0.426   0.012  11.581 -0.0928  0.7868 -0.3752
  210MPD1    H3 3197   0.330   0.101  11.369 -1.6120 -0.4358  1.1791
  210MPD1     N 3198   0.246   4.433  11.192 -0.0275 -0.2105 -0.0792
  210MPD1    H5 3199   0.196   4.491  11.125  1.0167 -1.2392 -1.7634
  210MPD1    N1 3200   0.473   4.474  11.626 -0.2347  0.4425 -0.8723
  210MPD1    H6 3201   0.445   4.379  11.648  0.7102  0.6454  1.1528
  210MPD1    H7 3202   0.492   4.529  11.710 -0.5642  1.6604 -1.5849
  211MPD1     C 3203   3.078   3.968  15.691 -0.1990 -0.6904 -0.8096
  211MPD1    C1 3204   3.028   4.096  15.674 -0.2728 -0.4031  0.5781
  211MPD1    C2 3205   2.891   4.108  15.707  0.1345 -0.1363 -0.1682
  211MPD1    C3 3206   2.803   4.000  15.732 -0.3648 -0.8724  0.2916
  211MPD1    C4 3207   2.857   3.876  15.739  0.1194  0.4022 -0.1433
  211MPD1    C5 3208   2.992   3.864  15.725 -0.1057 -0.1809 -0.3409
  211MPD1     H 3209   2.847   4.206  15.715  1.3411  0.8035 -5.3053
  211MPD1    H1 3210   2.803   3.785  15.762  1.0818  0.3117  1.7464
  211MPD1    H2 3211   3.185   3.954  15.685  0.3062  2.8422 -0.0841
  211MPD1    H3 3212   3.041   3.769  15.744 -0.0717 -0.6769 -2.8247
  211MPD1     N 3213   2.673   4.033  15.780  0.1238  0.4379 -0.1971
  211MPD1    H5 3214   2.650   4.131  15.771  3.6135  1.3418  0.9297
  211MPD1    N1 3215   3.105   4.213  15.640  0.2194 -1.0094  0.0145
  211MPD1    H6 3216   3.055   4.290  15.597  2.2433 -1.2167 -2.7092
  211MPD1    H7 3217   3.196   4.199  15.595  1.3586 -1.4102  2.4008
  212MPD1     C 3218   2.191   2.532  17.418  1.2155 -0.3573  0.2554
  212MPD1    C1 3219   2.216   2.422  17.339 -0.3266 -0.2583 -0.2249
  212MPD1    C2 3220   2.108   2.355  17.285  0.0992  0.2938 -0.2848
  212MPD1    C3 3221   1.980   2.411  17.303  0.2828 -0.6016 -0.4478
  212MPD1    C4 3222   1.956   2.528  17.375  0.3818  0.1199  0.8903
  212MPD1    C5 3223   2.068   2.594  17.433 -0.0310  0.2540  0.4130
  212MPD1     H 3224   2.123   2.258  17.239 -0.0879 -0.0248  0.3193
  212MPD1    H1 3225   1.857   2.566  17.396  0.9003  1.2479  1.3320
  212MPD1    H2 3226   2.268   2.594  17.463  0.2206 -0.0727  1.5655
  212MPD1    H3 3227   2.058   2.688  17.486  1.4884  0.7569 -0.1930
  212MPD1     N 3228   1.859   2.345  17.264  0.3502  0.0072  0.8639
  212MPD1    H5 3229   1.773   2.386  17.297 -0.4665 -1.2442  0.2882
  212MPD1    N1 3230   2.349   2.365  17.333  0.0527 -0.3012 -0.0787
  212MPD1    H6 3231   2.373   2.310  17.250  2.4327 -0.2667  0.5912
  212MPD1    H7 3232   2.425   2.419  17.373  0.0982 -1.7175  1.7625
  213MPD1     C 3233   3.944   3.896  15.813 -0.3147  0.2879 -1.0209
  213MPD1    C1 3234   3.874   3.830  15.708 -0.1284  0.0789 -0.1076
  213MPD1    C2 3235   3.960   3.759  15.629 -0.0935  0.8120 -0.1076
  213MPD1    C3 3236   4.093   3.772  15.626  0.4986 -0.1523 -0.0501
  213MPD1    C4 3237   4.154   3.866  15.709 -0.3182 -0.4516 -0.9573
  213MPD1    C5 3238   4.076   3.934  15.805 -0.1209 -0.7720 -0.5060
  213MPD1     H 3239   3.916   3.680  15.570 -1.9295  0.6566  1.4612
  213MPD1    H1 3240   4.260   3.880  15.723 -0.6651  1.7240 -0.5027
  213MPD1    H2 3241   3.890   3.947  15.892 -0.7127  0.1147 -1.1789
  213MPD1    H3 3242   4.125   4.004  15.871  2.0255 -2.7017 -0.0287
  213MPD1     N 3243   4.158   3.677  15.550  0.4184 -0.4180 -0.1101
  213MPD1    H5 3244   4.108   3.620  15.482  0.9315  1.1436 -1.7965
  213MPD1    N1 3245   3.748   3.769  15.725  0.2094  0.4280 -0.8178
  213MPD1    H6 3246   3.689   3.831  15.780  0.4698  0.3341 -0.4284
  213MPD1    H7 3247   3.708   3.760  15.632  1.8844  0.4649 -1.5379
  214MPD1     C 3248   3.862   2.874  15.427 -0.4811 -0.9383  0.1102
  214MPD1    C1 3249   3.907   2.902  15.299 -0.1954 -0.1588  0.2581
  214MPD1    C2 3250   4.001   3.009  15.287  0.3218  0.4505 -0.0551
  214MPD1    C3 3251   4.032   3.089  15.397  0.4982  0.3533  0.1330
  214MPD1    C4 3252   3.978   3.058  15.522 -0.0362 -0.8602  0.2801
  214MPD1    C5 3253   3.896   2.957  15.534 -0.5072  0.2712  0.5340
  214MPD1     H 3254   4.050   3.037  15.194  2.7247  0.3812  1.2154
  214MPD1    H1 3255   3.999   3.115  15.612 -1.4364 -1.4281  0.9778
  214MPD1    H2 3256   3.787   2.801  15.454 -0.5482 -1.0664 -0.4155
  214MPD1    H3 3257   3.853   2.934  15.631  1.0633  0.9454  1.3930
  214MPD1     N 3258   4.123   3.198  15.396 -0.8336 -0.8539 -0.4443
  214MPD1    H5 3259   4.156   3.233  15.485 -0.2920 -0.3746 -0.8341
  214MPD1    N1 3260   3.898   2.816  15.190 -0.2918 -0.4042 -0.9169
  214MPD1    H6 3261   3.817   2.756  15.183 -1.3697  0.9610 -0.3076
  214MPD1    H7 3262   3.909   2.873  15.106  2.9579  0.6615  0.2400
  215MPD1     C 3263   3.796   3.867  10.886 -0.1023  0.2028 -0.0657
  215MPD1    C1 3264   3.832   3.936  11.007  0.8967 -0.3343 -0.1970
  215MPD1    C2 3265   3.945   4.010  11.019  0.0063  0.1301 -0.2771
  215MPD1    C3 3266   4.016   4.034  10.902 -0.4756  0.1501 -0.1946
  215MPD1    C4 3267   3.982   3.964  10.784 -0.4696 -0.0352  0.1623
  215MPD1    C5 3268   3.878   3.882  10.780  0.3535 -0.8942  0.0494
  215MPD1     H 3269   3.957   4.070  11.109 -0.6132 -1.8050  1.0883
  215MPD1    H1 3270   4.033   3.989  10.692  0.4609 -0.4928  0.5605
  215MPD1    H2 3271   3.708   3.804  10.885  0.9933 -1.2152 -4.8778
  215MPD1    H3 3272   3.848   3.833  10.688  0.7645  0.8986 -1.0388
  215MPD1     N 3273   4.124   4.125  10.906 -0.2247 -0.5162  0.3079
  215MPD1    H5 3274   4.141   4.173  10.994  0.1349  0.0876 -0.0898
  215MPD1    N1 3275   3.759   3.911  11.122 -0.0811  0.5569 -0.1176
  215MPD1    H6 3276   3.723   3.985  11.183  1.3930  0.9122  0.3070
  215MPD1    H7 3277   3.671   3.864  11.102  1.4622 -2.6530  0.6306
  216MPD1     C 3278   1.980   1.938  16.125  0.1967  0.2683 -0.3880
  216MPD1    C1 3279   2.015   1.801  16.133  0.2104  0.0792 -0.1346
  216MPD1    C2 3280   1.990   1.731  16.250 -0.0836  0.3336  0.9488
  216MPD1    C3 3281   1.973   1.803  16.364  0.4401 -0.2176  0.1149
  216MPD1    C4 3282   1.970   1.943  16.363  0.1796  0.5151 -0.1203
  216MPD1    C5 3283   1.963   2.010  16.243 -0.8731 -0.0899 -0.3356
  216MPD1     H 3284   1.990   1.623  16.251 -0.7933  0.3085 -0.9224
  216MPD1    H1 3285   1.926   2.001  16.444  2.2988  0.1638  1.2896
  216MPD1    H2 3286   1.969   1.985  16.028  1.1990 -1.4260 -1.3337
  216MPD1    H3 3287   1.916   2.108  16.240 -0.3166  0.1324 -1.9592
  216MPD1     N 3288   1.959   1.728  16.482  0.0060  0.7470 -0.2785
  216MPD1    H5 3289   1.958   1.627  16.471 -0.2835  0.6290  0.8054
  216MPD1    N1 3290   1.999   1.721  16.021  0.2983  0.1062 -0.2581
  216MPD1    H6 3291   2.018   1.780  15.940  0.3734 -1.8810 -1.6619
  216MPD1    H7 3292   2.069   1.648  16.024 -0.2322 -0.3494  1.1148
  217MPD1     C 3293   1.590   2.722   9.208  0.1506 -0.4489 -0.1386
  217MPD1    C1 3294   1.701   2.644   9.200 -0.0469  0.5361 -0.4813
  217MPD1    C2 3295   1.826   2.709   9.213  0.6537 -0.1228  0.0419
  217MPD1    C3 3296   1.831   2.834   9.265  0.1185  0.9658 -0.4388
  217MPD1    C4 3297   1.714   2.907   9.282  0.2326 -0.1920  0.0201
  217MPD1    C5 3298   1.594   2.851   9.247  0.0647 -0.3943 -0.6786
  217MPD1     H 3299   1.923   2.665   9.192  1.0482  0.6167  0.3216
  217MPD1    H1 3300   1.721   3.009   9.317  0.6505 -1.1386  2.6623
  217MPD1    H2 3301   1.491   2.681   9.194  0.6423 -2.3647  1.9744
  217MPD1    H3 3302   1.499   2.901   9.257  0.0242 -0.6351  0.1388
  217MPD1     N 3303   1.951   2.911   9.277  0.1548 -0.0499 -0.0828
  217MPD1    H5 3304   1.945   3.012   9.283 -2.3431 -0.1687 -0.6413
  217MPD1    N1 3305   1.697   2.505   9.163  0.3937  0.4803  0.4231
  217MPD1    H6 3306   1.767   2.438   9.195  3.4514  3.2925 -0.4225
  217MPD1    H7 3307   1.612   2.451   9.180 -1.6774  2.9013 -2.3030
  218MPD1     C 3308   4.052   0.050  13.537 -0.2454 -0.5025  0.1384
  218MPD1    C1 3309   3.913   0.033  13.543  0.6242 -0.9413 -0.1910
  218MPD1    C2 3310   3.864   4.650  13.468  0.1013  0.3301  0.5126
  218MPD1    C3 3311   3.943   4.563  13.402  1.1903 -0.2514  1.0825
  218MPD1    C4 3312   4.078   4.578  13.408 -0.1705  0.1143 -0.1516
  218MPD1    C5 3313   4.125   4.682  13.475  0.1044 -0.0249 -0.8216
  218MPD1     H 3314   3.760   4.621  13.464  0.4802 -0.9577  0.0234
  218MPD1    H1 3315   4.152   4.520  13.355 -0.6827  0.9091 -1.7359
  218MPD1    H2 3316   4.092   0.132  13.595 -1.4907 -1.2406  2.0528
  218MPD1    H3 3317   4.233   4.684  13.482 -0.0722  1.6940  1.6775
  218MPD1     N 3318   3.872   4.458  13.329 -0.5131 -0.1114 -0.0847
  218MPD1    H5 3319   3.771   4.452  13.331 -0.4926  0.0133  1.5672
  218MPD1    N1 3320   3.832   0.117  13.618 -0.1011 -0.4495 -0.0519
  218MPD1    H6 3321   3.864   0.212  13.638  0.2394  0.0750 -3.0987
  218MPD1    H7 3322   3.740   0.126  13.575 -1.0094 -1.2202  1.7298
  219MPD1     C 3323   3.015   4.012  13.137  0.1862 -0.9310  0.4394
  219MPD1    C1 3324   3.070   4.124  13.198  0.2729  0.1480 -0.2612
  219MPD1    C2 3325   3.202   4.149  13.195 -0.5863 -0.4898  0.2316
  219MPD1    C3 3326   3.292   4.048  13.150 -0.2616 -0.4875  0.0570
  219MPD1    C4 3327   3.241   3.929  13.103  0.0481 -0.7212  0.6095
  219MPD1    C5 3328   3.108   3.920  13.090  0.5260  0.2416  0.4566
  219MPD1     H 3329   3.233   4.248  13.227  0.4586 -2.1555  4.3854
  219MPD1    H1 3330   3.313   3.854  13.073  0.7016  0.5766 -1.0840
  219MPD1    H2 3331   2.908   3.997  13.130  0.0986  0.1116 -0.3307
  219MPD1    H3 3332   3.067   3.829  13.046 -0.0304  0.7562 -0.0819
  219MPD1     N 3333   3.428   4.071  13.139 -0.7235 -0.3735 -0.0975
  219MPD1    H5 3334   3.480   3.986  13.123  1.3133  0.7825  0.3452
  219MPD1    N1 3335   2.991   4.222  13.242 -0.0030 -0.4623  0.6882
  219MPD1    H6 3336   3.032   4.272  13.320 -0.9795 -1.6243  1.9479
  219MPD1    H7 3337   2.899   4.185  13.264  0.0813 -0.8296  0.4135
  220MPD1     C 3338   4.156   4.575   9.041  0.3639 -1.1914  0.0180
  220MPD1    C1 3339   4.124   4.467   9.114  0.5241  0.0846 -0.5745
  220MPD1    C2 3340   4.144   4.467   9.250  0.9139 -0.5286 -0.1282
  220MPD1    C3 3341   4.204   4.574   9.309 -0.2229  0.6211 -0.0587
  220MPD1    C4 3342   4.249   4.682   9.236 -0.3163  0.5494 -0.0934
  220MPD1    C5 3343   4.218   4.682   9.100  0.4700  0.6092  0.6486
  220MPD1     H 3344   4.100   4.385   9.305  0.6797 -0.2507  0.0986
  220MPD1    H1 3345   4.310   0.036   9.279 -0.3474 -0.6427  2.0964
  220MPD1    H2 3346   4.140   4.590   8.934 -3.4692 -2.5346  0.3712
  220MPD1    H3 3347   4.261   0.031   9.033 -0.4301  0.3406 -0.2223
  220MPD1     N 3348   4.218   4.569   9.450 -0.0820 -0.2623 -0.2499
  220MPD1    H5 3349   4.196   4.480   9.492 -0.9523  2.2224  4.5275
  220MPD1    N1 3350   4.040   4.364   9.068 -0.3163  0.3281  0.5917
  220MPD1    H6 3351   4.053   4.277   9.119 -0.6022  0.5277  1.0008
  220MPD1    H7 3352   4.067   4.341   8.972  1.3167 -1.1610  1.4122
  221MPD1     C 3353   1.975   2.876  17.032  0.6480 -0.0623 -0.0473
  221MPD1    C1 3354   1.957   3.006  16.989 -0.0062  0.1062  0.1587
  221MPD1    C2 3355   2.061   3.061  16.913 -0.6466 -0.0979  0.2014
  221MPD1    C3 3356   2.177   2.989  16.904  0.3427 -0.2014 -0.3584
  221MPD1    C4 3357   2.199   2.871  16.964 -0.0851 -0.9837  0.1325
  221MPD1    C5 3358   2.091   2.804  17.017  0.6113 -0.2390 -0.4525
  221MPD1     H 3359   2.055   3.156  16.861 -1.8472 -0.3554 -0.1230
  221MPD1    H1 3360   2.289   2.810  16.959  0.9906  0.4629  1.9025
  221MPD1    H2 3361   1.894   2.817  17.074  1.8602 -1.1487  0.7847
  221MPD1    H3 3362   2.111   2.709  17.064 -0.3542  0.5296  1.4852
  221MPD1     N 3363   2.291   3.033  16.834 -0.1080  0.1841  0.4900
  221MPD1    H5 3364   2.374   2.977  16.851  0.0361 -0.4191 -2.0575
  221MPD1    N1 3365   1.832   3.073  17.010  0.3869 -0.1414 -0.3164
  221MPD1    H6 3366   1.857   3.172  17.009  2.0363 -0.5607 -1.3884
  221MPD1    H7 3367   1.795   3.049  17.102  0.5258 -3.4892 -1.1380
  222MPD1     C 3368   3.258   2.727   0.195 -0.0835  0.1982 -0.7088
  222MPD1    C1 3369   3.241   2.640   0.096  0.7167  0.1962 -0.5655
  222MPD1    C2 3370   3.117   2.581   0.082  0.0310 -0.1020 -0.6813
  222MPD1    C3 3371   3.006   2.629   0.152 -0.0423 -0.1264  0.1989
  222MPD1    C4 3372   3.017   2.738   0.240 -0.5867  0.2215 -0.0183
  222MPD1    C5 3373   3.147   2.781   0.258  0.3560 -0.4185 -0.4743
  222MPD1     H 3374   3.094   2.507   0.006 -0.9676 -0.4408 -0.0398
  222MPD1    H1 3375   2.934   2.787   0.289 -1.1408 -1.8154  1.0792
  222MPD1    H2 3376   3.357   2.762   0.221 -0.2995 -1.0359  1.7288
  222MPD1    H3 3377   3.154   2.856   0.336  2.1144 -0.9577 -0.1067
  222MPD1     N 3378   2.877   2.585   0.134  0.3099 -0.6113  0.4186
  222MPD1    H5 3379   2.805   2.629   0.190  0.5566 -1.8777  1.7088
  222MPD1    N1 3380   3.353   2.596   0.030 -0.2667  0.3944 -0.3627
  222MPD1    H6 3381   3.428   2.664   0.026 -0.4330  0.6566  0.9520
  222MPD1    H7 3382   3.324   2.560  17.639  1.1799  1.4766 -1.2463
  223MPD1     C 3383   2.040   1.913  17.619 -0.5424 -0.6986 -0.0802
  223MPD1    C1 3384   2.050   1.974  17.495  0.0349  0.2761  0.7875
  223MPD1    C2 3385   2.159   2.057  17.474  0.0470  0.0980 -0.6741
  223MPD1    C3 3386   2.254   2.078  17.574  0.0307  1.0293  0.8337
  223MPD1    C4 3387   2.248   2.005  17.695  0.6315 -1.0457 -0.2640
  223MPD1    C5 3388   2.140   1.927   0.013 -0.7362  0.1696 -0.0561
  223MPD1     H 3389   2.158   2.116  17.383 -2.3831  0.6632 -0.2921
  223MPD1    H1 3390   2.313   2.026   0.079 -0.2520 -0.1548  0.1956
  223MPD1    H2 3391   1.944   1.867  17.640 -0.3047 -2.1960 -2.2494
  223MPD1    H3 3392   2.114   1.896   0.113 -0.6362 -1.2552 -0.4744
  223MPD1     N 3393   2.352   2.179  17.564  0.5601 -0.1356 -0.4552
  223MPD1    H5 3394   2.345   2.257  17.500 -0.6186  0.2695  0.1771
  223MPD1    N1 3395   1.948   1.970  17.405 -0.0475  0.5277 -0.0638
  223MPD1    H6 3396   1.898   1.881  17.403  1.1330 -0.2287  2.9926
  223MPD1    H7 3397   1.982   1.993  17.312 -1.3332 -0.1593 -0.7110
  224MPD1     C 3398   2.310   2.906   8.968  0.0088 -0.2724 -0.2673
  224MPD1    C1 3399   2.238   3.003   9.013  0.4731 -0.0464 -0.0647
  224MPD1    C2 3400   2.298   3.116   9.067  0.0641  0.1996 -0.3760
  224MPD1    C3 3401   2.437   3.127   9.072 -0.3819  0.1729 -0.4526
  224MPD1    C4 3402   2.511   3.019   9.027  0.1300 -0.5005  0.5319
  224MPD1    C5 3403   2.445   2.910   8.979 -0.4610  0.4226  0.3198
  224MPD1     H 3404   2.241   3.201   9.103 -0.0353  1.1307 -2.6944
  224MPD1    H1 3405   2.617   3.006   9.043  0.6751  1.3367 -1.6367
  224MPD1    H2 3406   2.263   2.823   8.917  2.2936 -0.8971 -1.3572
  224MPD1    H3 3407   2.494   2.816   8.956  0.8165  0.4121  3.1216
  224MPD1     N 3408   2.505   3.240   9.128  0.1012  0.1565 -0.2882
  224MPD1    H5 3409   2.599   3.235   9.167  0.1889  0.9818 -0.4011
  224MPD1    N1 3410   2.104   3.018   8.982  0.2320 -0.2230  0.3766
  224MPD1    H6 3411   2.056   3.080   9.048  0.5451 -0.3843  0.7559
  224MPD1    H7 3412   2.062   2.926   8.981  0.6768 -0.4503  1.9823
  225MPD1     C 3413   4.716   0.404  12.204  0.1745  0.2617  0.8884
  225MPD1    C1 3414   4.646   0.307  12.133  0.3376 -0.2275 -0.0724
  225MPD1    C2 3415   4.514   0.318  12.121 -0.1346 -0.4534  0.6088
  225MPD1    C3 3416   4.439   0.424  12.174 -0.3353  0.2782 -0.4585
  225MPD1    C4 3417   4.508   0.520  12.248  0.1410 -0.3578 -0.2875
  225MPD1    C5 3418   4.649   0.506  12.265 -0.5909 -0.5060  0.0989
  225MPD1     H 3419   4.455   0.248  12.062  0.7831 -1.7994  1.2807
  225MPD1    H1 3420   4.455   0.603  12.293  0.0133 -2.7327  3.9013
  225MPD1    H2 3421   0.100   0.399  12.207  0.1616  0.5356  1.7326
  225MPD1    H3 3422   4.700   0.584  12.320 -3.6859  0.8824  0.9785
  225MPD1     N 3423   4.302   0.439  12.169 -0.1061  0.2658  0.5446
  225MPD1    H5 3424   4.263   0.506  12.235  1.0998  1.1570  0.3674
  225MPD1    N1 3425   4.721   0.218  12.046 -0.4990  0.5171  0.2635
  225MPD1    H6 3426   0.081   0.182  12.088 -2.3861 -1.8719  2.0309
  225MPD1    H7 3427   4.675   0.134  12.013  1.1804 -0.5282  0.6144
  226MPD1     C 3428   3.578   3.683   9.254  0.4495 -0.2766  0.3074
  226MPD1    C1 3429   3.452   3.726   9.293  0.8936  0.3406  0.7832
  226MPD1    C2 3430   3.346   3.653   9.238 -0.0010  0.1363 -0.0929
  226MPD1    C3 3431   3.352   3.537   9.166 -0.6713 -0.3533 -0.4176
  226MPD1    C4 3432   3.480   3.487   9.150  0.2419 -0.3171  0.4774
  226MPD1    C5 3433   3.588   3.571   9.182  0.8115  0.0559  0.5401
  226MPD1     H 3434   3.247   3.691   9.261  0.0624  0.3758 -0.2086
  226MPD1    H1 3435   3.503   3.394   9.099 -1.6940 -0.5089 -0.0512
  226MPD1    H2 3436   3.672   3.731   9.280 -0.3692  0.7961  1.2915
  226MPD1    H3 3437   3.687   3.532   9.162  0.2787 -1.5634  1.0273
  226MPD1     N 3438   3.231   3.482   9.116  0.1047  0.3751 -0.0098
  226MPD1    H5 3439   3.146   3.513   9.163  0.1003 -0.1916  0.3493
  226MPD1    N1 3440   3.438   3.851   9.362 -0.3810  0.4815 -0.2528
  226MPD1    H6 3441   3.355   3.846   9.421  0.0587 -0.3063  0.2921
  226MPD1    H7 3442   3.518   3.884   9.415 -1.0285  2.3635 -0.4293
  227MPD1     C 3443   2.598   2.654   8.763 -0.3633  0.0833 -0.4856
  227MPD1    C1 3444   2.574   2.767   8.698  0.0485 -0.3678 -0.7108
  227MPD1    C2 3445   2.665   2.866   8.705  0.6099 -1.0955  0.1794
  227MPD1    C3 3446   2.769   2.860   8.786  0.8439  0.2382 -0.0211
  227MPD1    C4 3447   2.798   2.743   8.860  0.6389  0.0028 -0.1041
  227MPD1    C5 3448   2.710   2.639   8.840 -0.5662 -0.6758 -0.2205
  227MPD1     H 3449   2.659   2.954   8.642 -0.2582 -1.7440 -0.6394
  227MPD1    H1 3450   2.875   2.748   8.937  0.0584  0.7089  0.4305
  227MPD1    H2 3451   2.532   2.571   8.742 -1.0073 -0.2100  2.7547
  227MPD1    H3 3452   2.731   2.550   8.897  1.3683 -1.5079 -2.2240
  227MPD1     N 3453   2.831   2.982   8.803 -0.4415  0.0019 -0.5656
  227MPD1    H5 3454   2.784   3.055   8.752 -2.4208  0.9938  2.6946
  227MPD1    N1 3455   2.477   2.770   8.591 -0.1672  0.4218 -0.5356
  227MPD1    H6 3456   2.460   2.867   8.566 -0.4400  0.1646 -1.3315
  227MPD1    H7 3457   2.390   2.720   8.606  0.0373  1.2919  3.6489
  228MPD1     C 3458   0.848   3.430  11.977 -0.0427  0.6926 -0.4687
  228MPD1    C1 3459   0.717   3.390  11.953 -0.0907 -0.3265 -0.0828
  228MPD1    C2 3460   0.628   3.363  12.061 -0.1166 -0.7444  0.1150
  228MPD1    C3 3461   0.683   3.355  12.189 -0.3339  0.1463 -0.0798
  228MPD1    C4 3462   0.813   3.389  12.216 -0.4819 -0.3074 -0.3244
  228MPD1    C5 3463   0.896   3.436  12.111 -0.2067 -1.0545 -0.4097
  228MPD1     H 3464   0.522   3.351  12.042 -0.0770 -1.1210  0.1305
  228MPD1    H1 3465   0.848   3.388  12.319 -2.0038 -0.5147  0.1899
  228MPD1    H2 3466   0.911   3.453  11.893 -0.2171  0.1652 -0.7476
  228MPD1    H3 3467   1.000   3.458  12.132 -0.4781 -1.9419  1.9075
  228MPD1     N 3468   0.587   3.322  12.287  0.4296 -0.6403  0.4003
  228MPD1    H5 3469   0.491   3.318  12.254  1.0347  2.9411 -1.7856
  228MPD1    N1 3470   0.665   3.391  11.824 -0.2729  0.0208 -0.8387
  228MPD1    H6 3471   0.583   3.334  11.805 -0.3520 -0.1294 -0.0689
  228MPD1    H7 3472   0.724   3.374  11.744 -0.8010  0.4779 -1.3283
  229MPD1     C 3473   0.366   1.950  14.686 -0.3038  0.4399  0.1063
  229MPD1    C1 3474   0.407   1.940  14.812  0.6609  1.1128  0.0287
  229MPD1    C2 3475   0.474   1.821  14.850 -1.2492 -0.5707 -0.3928
  229MPD1    C3 3476   0.496   1.715  14.767  0.0014 -0.3692  0.2322
  229MPD1    C4 3477   0.444   1.726  14.638 -0.3275  0.8640 -0.0838
  229MPD1    C5 3478   0.393   1.847  14.598 -0.1145 -0.1024  0.2089
  229MPD1     H 3479   0.509   1.817  14.952 -2.0011  0.1830 -0.1102
  229MPD1    H1 3480   0.449   1.649  14.562 -3.0341  1.5398 -0.9312
  229MPD1    H2 3481   0.315   2.036  14.643  1.4833  1.6137  0.3410
  229MPD1    H3 3482   0.359   1.855  14.496 -0.5622  2.5593  0.5677
  229MPD1     N 3483   0.549   1.589  14.807 -0.2971 -0.1197  0.2494
  229MPD1    H5 3484   0.540   1.514  14.739  1.6017 -1.8475  1.9102
  229MPD1    N1 3485   0.401   2.045  14.910 -0.3770  0.0802 -0.7310
  229MPD1    H6 3486   0.315   2.098  14.911 -0.6800 -0.5180  2.6101
  229MPD1    H7 3487   0.414   2.013  15.005 -0.2769  0.7741 -0.5102
  230MPD1     C 3488   0.488   1.292  15.673 -0.1916 -0.1602  0.1745
  230MPD1    C1 3489   0.386   1.287  15.579  0.0274 -0.3885 -0.3797
  230MPD1    C2 3490   0.413   1.263  15.445 -0.4210  0.5781  0.4802
  230MPD1    C3 3491   0.546   1.229  15.409  0.2941 -0.1044 -0.1939
  230MPD1    C4 3492   0.646   1.217  15.506  0.4074 -0.3363 -0.7490
  230MPD1    C5 3493   0.613   1.247  15.634 -0.4499  0.0739 -0.2122
  230MPD1     H 3494   0.333   1.264  15.372  0.5120 -0.2389 -0.5758
  230MPD1    H1 3495   0.751   1.202  15.483  0.3119  0.2535 -1.6000
  230MPD1    H2 3496   0.469   1.322  15.775 -1.3563 -2.3015  0.5931
  230MPD1    H3 3497   0.688   1.231  15.711 -2.2848  0.2511  1.6281
  230MPD1     N 3498   0.573   1.212  15.275 -0.4254 -0.3421  0.3523
  230MPD1    H5 3499   0.508   1.254  15.209 -1.0710 -1.1691  0.4649
  230MPD1    N1 3500   0.269   1.344  15.626  0.2805  0.3306 -0.2730
  230MPD1    H6 3501   0.188   1.329  15.566  0.3118 -1.8175  0.2131
  230MPD1    H7 3502   0.241   1.320  15.721 -1.5140 -0.9528 -1.1218
  231MPD1     C 3503   3.156   3.211  15.581  0.2931 -0.5182  0.5311
  231MPD1    C1 3504   3.164   3.185  15.443  0.3209  0.8046 -1.4708
  231MPD1    C2 3505   3.291   3.152  15.397  0.2875 -0.4757 -0.5228
  231MPD1    C3 3506   3.405   3.192  15.460  0.3082  0.3871  0.1542
  231MPD1    C4 3507   3.395   3.223  15.597 -0.1244 -0.2409 -0.4571
  231MPD1    C5 3508   3.273   3.226  15.654  0.2444 -0.0804  0.4016
  231MPD1     H 3509   3.306   3.108  15.299 -2.2267 -2.6683  0.0715
  231MPD1    H1 3510   3.483   3.257  15.651 -1.6826  0.7287  1.4575
  231MPD1    H2 3511   3.064   3.221  15.639 -0.1308  3.2087 -0.7858
  231MPD1    H3 3512   3.269   3.244  15.761 -2.3683 -0.1956  0.3364
  231MPD1     N 3513   3.528   3.194  15.384  0.7990 -1.2165 -0.0677
  231MPD1    H5 3514   3.515   3.183  15.284  3.2315 -0.0903 -0.5127
  231MPD1    N1 3515   3.051   3.158  15.370  0.1209 -0.2192  0.0159
  231MPD1    H6 3516   2.975   3.219  15.400  0.4737 -2.1812  4.9740
  231MPD1    H7 3517   3.060   3.175  15.270  0.3913  1.8265  0.3897
  232MPD1     C 3518   1.414   0.925  17.664 -0.4565 -0.0651 -0.0256
  232MPD1    C1 3519   1.363   0.987   0.074  0.3503 -0.3915 -0.5334
  232MPD1    C2 3520   1.228   0.967   0.093 -0.3703 -0.2330 -0.2159
  232MPD1    C3 3521   1.151   0.893   0.009 -0.3711 -0.3135 -0.1502
  232MPD1    C4 3522   1.201   0.861  17.587  0.3817  0.1776  0.1586
  232MPD1    C5 3523   1.337   0.870  17.569 -0.0561 -0.4765  1.0054
  232MPD1     H 3524   1.177   0.992   0.185 -0.9933 -1.9203 -0.1039
  232MPD1    H1 3525   1.145   0.809  17.510  1.4410 -1.8183  0.7311
  232MPD1    H2 3526   1.520   0.928  17.643 -0.6632 -0.4243 -1.1383
  232MPD1    H3 3527   1.390   0.826  17.485 -1.6024 -0.2814 -0.0687
  232MPD1     N 3528   1.034   0.851   0.071 -0.2654  0.4003  0.2347
  232MPD1    H5 3529   1.011   0.879   0.166 -2.2070 -0.9185  0.1348
  232MPD1    N1 3530   1.451   1.025   0.177  0.3168  0.0437  0.2100
  232MPD1    H6 3531   1.535   1.073   0.145 -0.0305  2.1497  2.4740
  232MPD1    H7 3532   1.408   1.080   0.251 -0.6345  1.4599 -1.3992
  233MPD1     C 3533   2.030   0.027   1.539 -0.4368 -0.6120 -0.0432
  233MPD1    C1 3534   2.070   4.676   1.649  0.1687 -0.4529  0.1571
  233MPD1    C2 3535   2.137   4.559   1.616  0.1058 -1.0255 -0.3515
  233MPD1    C3 3536   2.176   4.528   1.484  0.6691 -0.2118 -0.3283
  233MPD1    C4 3537   2.124   4.598   1.378  0.3874 -0.4634  0.2863
  233MPD1    C5 3538   2.038   4.703   1.410 -0.6092 -0.0792 -0.8052
  233MPD1     H 3539   2.183   4.506   1.699 -0.9667 -0.4295  0.6216
  233MPD1    H1 3540   2.144   4.567   1.276  2.4321  1.0653  0.2352
  233MPD1    H2 3541   1.979   0.122   1.549  1.3084  0.4646 -1.3217
  233MPD1    H3 3542   2.003   0.050   1.337 -0.6262  1.5982  0.8298
  233MPD1     N 3543   2.266   4.422   1.449 -0.4031 -0.2958  0.0304
  233MPD1    H5 3544   2.283   4.415   1.349  1.9871  0.0329  0.4158
  233MPD1    N1 3545   2.061   4.717   1.783 -0.1120  0.3452  0.0489
  233MPD1    H6 3546   2.035   4.647   1.853 -1.3436 -0.0667 -0.8175
  233MPD1    H7 3547   1.981   0.055   1.789  1.2502  2.1498 -0.5806
  234MPD1     C 3548   4.063   3.009   9.622 -0.0645  0.1059  0.4257
  234MPD1    C1 3549   4.003   3.026   9.742 -0.2745 -0.3681 -0.1660
  234MPD1    C2 3550   3.867   2.997   9.754 -0.5704  0.2536 -0.1745
  234MPD1    C3 3551   3.782   2.962   9.644 -0.2851 -0.3457  0.2338
  234MPD1    C4 3552   3.845   2.955   9.520 -0.2151 -0.0435 -0.1736
  234MPD1    C5 3553   3.983   2.967   9.514  0.0228 -0.4236 -0.0783
  234MPD1     H 3554   3.816   3.007   9.849  2.0247  0.0809  1.2621
  234MPD1    H1 3555   3.800   2.918   9.429  0.7884  0.4859 -0.8809
  234MPD1    H2 3556   4.171   3.008   9.608  0.1536 -1.8094  2.1435
  234MPD1    H3 3557   4.034   2.931   9.426  2.0757 -2.0470  1.7863
  234MPD1     N 3558   3.642   2.966   9.662 -0.2888  0.2524 -0.0604
  234MPD1    H5 3559   3.607   2.979   9.756  1.4594 -1.0909  0.7842
  234MPD1    N1 3560   4.078   3.034   9.854 -1.1660  0.5488  0.0164
  234MPD1    H6 3561   4.024   3.080   9.927 -0.0286  0.5251  0.8833
  234MPD1    H7 3562   4.172   3.071   9.842  0.5164 -3.3682  0.8996
  235MPD1     C 3563   0.345   0.055   9.802  0.0797 -0.1515  0.4337
  235MPD1    C1 3564   0.231   0.122   9.759 -0.0078  0.1299  0.0795
  235MPD1    C2 3565   0.233   0.254   9.711 -0.1871  0.5245 -0.0809
  235MPD1    C3 3566   0.347   0.328   9.715  0.8144 -0.2312  0.0188
  235MPD1    C4 3567   0.457   0.267   9.773 -0.0384 -0.8845  0.0348
  235MPD1    C5 3568   0.457   0.137   9.808 -0.3585 -0.0539  0.7752
  235MPD1     H 3569   0.147   0.304   9.671  0.7525 -0.5907 -3.4667
  235MPD1    H1 3570   0.552   0.318   9.781 -0.5446  0.2812 -1.2866
  235MPD1    H2 3571   0.355   4.677   9.835 -1.3052 -0.5379 -0.3581
  235MPD1    H3 3572   0.548   0.092   9.847 -1.7436 -0.5563  3.4253
  235MPD1     N 3573   0.342   0.456   9.660  0.5147  0.0305 -0.5456
  235MPD1    H5 3574   0.257   0.483   9.611  0.0222 -0.3186  0.1278
  235MPD1    N1 3575   0.113   0.048   9.752 -0.0395  0.2541 -0.1286
  235MPD1    H6 3576   0.098   4.692   9.813 -1.6119 -1.0753 -2.2943
  235MPD1    H7 3577   0.027   0.102   9.749 -1.7042 -2.3845 -0.0094
  236MPD1     C 3578   3.475   1.457   9.887  0.1253 -0.3076  0.1822
  236MPD1    C1 3579   3.554   1.543   9.816  0.8350 -0.1424 -0.1191
  236MPD1    C2 3580   3.690   1.553   9.864 -0.0583 -0.0733  0.0202
  236MPD1    C3 3581   3.742   1.470   9.967  0.5378  0.3842 -0.0244
  236MPD1    C4 3582   3.662   1.369  10.007 -0.0080  0.2004 -0.3321
  236MPD1    C5 3583   3.528   1.370   9.971  0.2306 -0.0586 -0.2273
  236MPD1     H 3584   3.753   1.629   9.819 -1.2367  1.0946  0.3176
  236MPD1    H1 3585   3.692   1.288  10.073 -0.5164  0.0213 -0.3199
  236MPD1    H2 3586   3.368   1.454   9.873  0.2374 -2.2355 -0.2995
  236MPD1    H3 3587   3.466   1.291  10.011 -1.2851  1.7349  0.9898
  236MPD1     N 3588   3.872   1.484  10.020  0.0542 -0.5023 -0.7987
  236MPD1    H5 3589   3.899   1.417  10.092  0.2494  0.1011 -0.3063
  236MPD1    N1 3590   3.503   1.652   9.749 -0.3116  0.1077  0.0264
  236MPD1    H6 3591   3.416   1.632   9.700 -0.1355  0.5629 -0.4640
  236MPD1    H7 3592   3.563   1.694   9.679 -0.0084 -2.3779 -1.2029
  237MPD1     C 3593   4.492   0.093  15.466 -0.5243  0.4096 -0.5384
  237MPD1    C1 3594   4.387   0.164  15.524 -0.0511 -0.0721  0.4955
  237MPD1    C2 3595   4.259   0.130  15.502 -0.1198 -0.8620  0.0426
  237MPD1    C3 3596   4.234   0.037  15.403  0.4897  0.2153  0.4639
  237MPD1    C4 3597   4.338   4.706  15.330 -0.5832 -0.3190 -0.2909
  237MPD1    C5 3598   4.466   0.008  15.364  0.0675  0.3819  1.2078
  237MPD1     H 3599   4.179   0.176  15.559 -0.1773 -0.7459 -0.1332
  237MPD1    H1 3600   4.319   4.628  15.258  1.0750  0.1317 -1.2407
  237MPD1    H2 3601   4.596   0.120  15.477 -0.8145  1.2952  0.0603
  237MPD1    H3 3602   4.539   4.664  15.322  0.6837  0.5954  1.9361
  237MPD1     N 3603   4.103   4.720  15.372  0.0753 -0.6289 -0.4563
  237MPD1    H5 3604   4.104   4.665  15.286 -1.8121 -1.6822  0.1801
  237MPD1    N1 3605   4.408   0.241  15.636  0.0912  0.1274 -0.2296
  237MPD1    H6 3606   4.499   0.287  15.640  0.2107  0.0302 -1.8936
  237MPD1    H7 3607   4.331   0.305  15.656  1.1887  1.2118  0.5820
  238MPD1     C 3608   1.725   3.673  14.557  0.3391  0.0352 -0.1574
  238MPD1    C1 3609   1.665   3.617  14.671  0.4064  0.1439  0.1545
  238MPD1    C2 3610   1.528   3.599  14.670  0.5271  0.7414  0.4096
  238MPD1    C3 3611   1.443   3.655  14.578  0.7342 -0.4011 -0.2380
  238MPD1    C4 3612   1.510   3.720  14.469  0.3812 -0.6336 -0.5421
  238MPD1    C5 3613   1.642   3.725  14.460 -0.1695 -0.7105 -0.6577
  238MPD1     H 3614   1.479   3.566  14.760  0.1449  0.7332  0.1964
  238MPD1    H1 3615   1.457   3.756  14.382 -1.5140 -1.7015  0.1688
  238MPD1    H2 3616   1.833   3.674  14.543  0.4545  1.3506  0.8557
  238MPD1    H3 3617   1.686   3.755  14.365 -0.1890 -0.9069 -0.7297
  238MPD1     N 3618   1.307   3.642  14.585  0.3865  0.1419 -0.1885
  238MPD1    H5 3619   1.267   3.684  14.501 -0.4971  0.6844  0.5073
  238MPD1    N1 3620   1.746   3.560  14.769 -0.8015 -0.0172  0.4156
  238MPD1    H6 3621   1.824   3.623  14.784 -0.1900 -1.3931  3.0483
  238MPD1    H7 3622   1.703   3.557  14.861  1.8832 -0.1276  1.6912
  239MPD1     C 3623   0.876   0.474  15.054  0.2824  0.3753  0.2568
  239MPD1    C1 3624   0.907   0.529  14.935  0.1495  0.1048 -0.1559
  239MPD1    C2 3625   0.915   0.440  14.823  0.0155 -0.3466  0.4497
  239MPD1    C3 3626   0.905   0.297  14.843  0.9113 -0.3884  0.1598
  239MPD1    C4 3627   0.893   0.252  14.974 -0.2062  0.1007  0.2113
  239MPD1    C5 3628   0.878   0.342  15.080  0.2565 -0.6085 -0.6248
  239MPD1     H 3629   0.919   0.483  14.724  0.0461 -0.3013  0.4709
  239MPD1    H1 3630   0.892   0.147  14.999 -0.3723 -0.0315 -0.3461
  239MPD1    H2 3631   0.860   0.543  15.136 -0.7601  1.3955 -0.8054
  239MPD1    H3 3632   0.867   0.312  15.184 -2.1849  2.4625  0.0173
  239MPD1     N 3633   0.915   0.205  14.738  0.1647 -0.2117 -0.0715
  239MPD1    H5 3634   0.894   0.109  14.766 -1.8631  0.6444  1.3623
  239MPD1    N1 3635   0.897   0.669  14.923 -0.0191  0.5644 -0.2598
  239MPD1    H6 3636   0.935   0.718  15.004 -1.0950 -0.7584  1.0297
  239MPD1    H7 3637   0.932   0.703  14.834  0.7249  2.3066  0.6834
  240MPD1     C 3638   0.702   4.487  13.583  0.0960  0.0804 -0.4295
  240MPD1    C1 3639   0.618   4.550  13.669  0.0488  0.4155 -0.9079
  240MPD1    C2 3640   0.542   4.464  13.750  0.5948 -0.8013  0.4083
  240MPD1    C3 3641   0.548   4.325  13.755  0.0828  0.0072  0.3706
  240MPD1    C4 3642   0.636   4.270  13.666  0.5811  0.2165  0.3014
  240MPD1    C5 3643   0.718   4.352  13.588 -0.1697  0.7038 -0.0471
  240MPD1     H 3644   0.470   4.510  13.817 -0.2199 -0.5644 -0.6459
  240MPD1    H1 3645   0.644   4.164  13.643 -0.5716 -0.0935  1.3546
  240MPD1    H2 3646   0.758   4.538  13.506 -0.1114  0.6887 -0.1717
  240MPD1    H3 3647   0.781   4.313  13.508  1.3048  0.7514  1.0892
  240MPD1     N 3648   0.466   4.249  13.842  0.5073  0.1490  0.0825
  240MPD1    H5 3649   0.417   4.300  13.915 -0.0005 -0.4421  0.1566
  240MPD1    N1 3650   0.583   4.682  13.644  0.4189 -0.2509  0.1968
  240MPD1    H6 3651   0.661   0.013  13.609  0.3828 -0.4613 -0.2118
  240MPD1    H7 3652   0.543   0.009  13.722 -1.0824  1.7849 -1.9486
  241MPD1     C 3653   0.330   4.521  14.611 -0.0326  0.2877  0.2694
  241MPD1    C1 3654   0.301   4.388  14.634  0.3348  0.6677  0.4292
  241MPD1    C2 3655   0.304   4.300  14.527  0.2058  0.4742  0.0574
  241MPD1    C3 3656   0.353   4.341  14.407  0.1469 -0.2889  0.2064
  241MPD1    C4 3657   0.380   4.471  14.380  0.1988 -0.2853  0.1861
  241MPD1    C5 3658   0.365   4.563  14.485 -0.1074  0.4896  0.2175
  241MPD1     H 3659   0.272   4.197  14.538  2.6514 -0.4454 -1.2653
  241MPD1    H1 3660   0.424   4.503  14.286 -0.1634 -1.2311 -0.3033
  241MPD1    H2 3661   0.316   4.589  14.694  1.8797  1.1764 -0.1298
  241MPD1    H3 3662   0.386   4.668  14.467  0.9555  0.3329  0.5444
  241MPD1     N 3663   0.373   4.251  14.304  0.2511 -0.8876  0.1898
  241MPD1    H5 3664   0.397   4.288  14.213 -0.4070 -1.9050 -0.3909
  241MPD1    N1 3665   0.245   4.353  14.758  0.1460  0.0649 -0.1514
  241MPD1    H6 3666   0.252   4.254  14.780  0.1191 -0.2749 -1.6261
  241MPD1    H7 3667   0.290   4.404  14.834 -0.7378  1.6171 -0.6575
  242MPD1     C 3668   0.523   2.632  15.889  0.9206 -0.0003 -0.1047
  242MPD1    C1 3669   0.385   2.623  15.892 -0.1624  0.2261  0.4019
  242MPD1    C2 3670   0.315   2.538  15.810  0.6300 -0.1972  1.2609
  242MPD1    C3 3671   0.381   2.464  15.717  0.9305  0.9384 -0.3392
  242MPD1    C4 3672   0.512   2.487  15.704  0.7699 -0.0574  0.0841
  242MPD1    C5 3673   0.582   2.566  15.789 -0.2501 -0.3753 -0.1907
  242MPD1     H 3674   0.209   2.519  15.825  0.6515 -0.8897  0.5478
  242MPD1    H1 3675   0.573   2.434  15.632  0.2948 -1.1863  0.5257
  242MPD1    H2 3676   0.589   2.689  15.954  1.4915 -0.9046  0.1134
  242MPD1    H3 3677   0.690   2.564  15.775 -0.0835 -1.0512  1.1730
  242MPD1     N 3678   0.321   2.374  15.628  0.6224 -0.5259  0.0990
  242MPD1    H5 3679   0.392   2.326  15.573  1.5258  0.4443  0.4293
  242MPD1    N1 3680   0.316   2.681  16.003 -0.0587  0.0710  0.4408
  242MPD1    H6 3681   0.345   2.776  16.025 -0.9686  0.2660  0.8037
  242MPD1    H7 3682   0.214   2.683  15.998 -0.0357 -0.3284 -0.1547
  243MPD1     C 3683   2.644   1.435  17.648  0.4716  1.1174 -0.0792
  243MPD1    C1 3684   2.531   1.377  17.699  0.1905  0.4137  0.5519
  243MPD1    C2 3685   2.429   1.359  17.605  0.2235  0.3434 -0.5110
  243MPD1    C3 3686   2.439   1.385  17.467 -0.1182 -0.7128 -1.0909
  243MPD1    C4 3687   2.558   1.444  17.423  0.2899  0.8338  0.2995
  243MPD1    C5 3688   2.659   1.465  17.513 -0.0673 -0.0609 -0.6855
  243MPD1     H 3689   2.333   1.329  17.645  1.3910 -2.9021 -0.1849
  243MPD1    H1 3690   2.580   1.470  17.320  0.4524 -0.1354  0.0932
  243MPD1    H2 3691   2.719   1.474   0.015  1.7081 -1.2212 -0.1305
  243MPD1    H3 3692   2.751   1.515  17.485 -0.7912  1.5494 -0.2063
  243MPD1     N 3693   2.332   1.353  17.380 -0.1578  0.2631  0.4500
  243MPD1    H5 3694   2.249   1.309  17.420 -0.1500 -0.5207 -0.4025
  243MPD1    N1 3695   2.510   1.364   0.138 -0.5508  0.0555 -1.0384
  243MPD1    H6 3696   2.429   1.304   0.157  0.1461 -0.5684 -0.0326
  243MPD1    H7 3697   2.593   1.343   0.193 -2.9620 -0.0761  2.5441
  244MPD1     C 3698   1.534   1.268  17.660 -0.2916 -0.9190  0.2346
  244MPD1    C1 3699   1.656   1.290   0.014 -0.0533  0.1064 -0.0816
  244MPD1    C2 3700   1.758   1.286  17.619 -0.5838 -0.1816  0.2989
  244MPD1    C3 3701   1.746   1.275  17.480  0.0962 -0.0982 -0.4315
  244MPD1    C4 3702   1.618   1.261  17.435  0.3522  0.3294 -0.6742
  244MPD1    C5 3703   1.520   1.250  17.526  0.5996 -0.5891  0.0241
  244MPD1     H 3704   1.862   1.292  17.648 -0.1694  1.5610 -1.5433
  244MPD1    H1 3705   1.592   1.256  17.330  2.5780  2.9305 -1.3543
  244MPD1    H2 3706   1.444   1.265   0.019 -1.4971  0.8251 -1.5009
  244MPD1    H3 3707   1.425   1.209  17.493 -0.0495  2.0641 -1.4174
  244MPD1     N 3708   1.860   1.280  17.402 -0.7817 -0.2111  0.0045
  244MPD1    H5 3709   1.946   1.289  17.455 -1.6394  1.0063  1.1855
  244MPD1    N1 3710   1.680   1.283   0.151  0.4481 -0.1638  0.8203
  244MPD1    H6 3711   1.596   1.315   0.198  0.2429  1.0902 -0.3895
  244MPD1    H7 3712   1.766   1.335   0.169  0.9937 -0.7141 -0.1646
  245MPD1     C 3713   3.530   1.767  13.301  0.1700 -0.5793  0.1690
  245MPD1    C1 3714   3.484   1.859  13.383  0.5532  0.4008  0.0475
  245MPD1    C2 3715   3.576   1.946  13.429  0.0627 -0.5647 -0.0718
  245MPD1    C3 3716   3.711   1.937  13.409 -0.7190  0.0258  0.6171
  245MPD1    C4 3717   3.750   1.837  13.325 -0.0224  0.4268  0.5249
  245MPD1    C5 3718   3.661   1.755  13.267  0.2011 -0.2020  0.1189
  245MPD1     H 3719   3.540   2.028  13.490 -1.6437 -0.4679 -1.2065
  245MPD1    H1 3720   3.854   1.834  13.294  0.3875  0.0959  1.8968
  245MPD1    H2 3721   3.465   1.694  13.253 -1.2959 -0.0769  1.3734
  245MPD1    H3 3722   3.693   1.678  13.198  0.4150  0.2167 -0.2531
  245MPD1     N 3723   3.802   2.036  13.459 -0.1423 -0.3761 -0.1790
  245MPD1    H5 3724   3.769   2.101  13.530  1.8748  0.5764 -0.0919
  245MPD1    N1 3725   3.340   1.872  13.404  0.1484 -0.7267  0.0984
  245MPD1    H6 3726   3.318   1.900  13.499  1.3626 -2.7095  0.9846
  245MPD1    H7 3727   3.290   1.786  13.383  1.8943 -1.3782 -1.4241
  246MPD1     C 3728   0.037   3.600   9.736 -0.5868  0.3948  0.2741
  246MPD1    C1 3729   4.651   3.515   9.716 -0.7239  0.1221  0.4899
  246MPD1    C2 3730   4.662   3.418   9.620  0.1474  0.3336 -0.5643
  246MPD1    C3 3731   0.063   3.392   9.560 -0.3164  0.3709 -0.0614
  246MPD1    C4 3732   0.162   3.485   9.568 -0.3226  0.2036  0.2110
  246MPD1    C5 3733   0.152   3.588   9.660 -0.3569 -0.4979  0.7155
  246MPD1     H 3734   4.581   3.348   9.601 -0.3908  1.5104 -2.6502
  246MPD1    H1 3735   0.262   3.464   9.530 -0.4154 -1.9129  1.1332
  246MPD1    H2 3736   0.042   3.685   9.804 -0.3574  1.5924 -1.2378
  246MPD1    H3 3737   0.235   3.656   9.678 -0.2625 -0.2249 -0.7660
  246MPD1     N 3738   0.067   3.286   9.464  0.2260 -0.0980  0.2485
  246MPD1    H5 3739   4.711   3.225   9.469  0.0918  0.1361  0.9413
  246MPD1    N1 3740   4.537   3.530   9.800 -0.2680  0.5894  0.5309
  246MPD1    H6 3741   4.558   3.501   9.895  0.2427 -3.1618 -0.7448
  246MPD1    H7 3742   4.470   3.461   9.767 -1.0657  0.9141  1.4895
  247MPD1     C 3743   3.444   1.545  16.656 -0.4793 -0.0528 -0.0946
  247MPD1    C1 3744   3.428   1.409  16.665  0.5096  0.5554  0.3802
  247MPD1    C2 3745   3.459   1.327  16.556  0.1257 -0.5726 -0.4482
  247MPD1    C3 3746   3.509   1.387  16.441  0.6033  0.2366 -0.7917
  247MPD1    C4 3747   3.526   1.523  16.435  0.3959  0.0324 -0.3563
  247MPD1    C5 3748   3.493   1.592  16.539 -0.2372  0.2436  0.3089
  247MPD1     H 3749   3.452   1.219  16.553  1.3208 -0.6939  1.3819
  247MPD1    H1 3750   3.569   1.587  16.359  1.8871 -1.1693 -0.5320
  247MPD1    H2 3751   3.424   1.615  16.736 -1.4288 -0.0122 -0.3678
  247MPD1    H3 3752   3.510   1.699  16.526 -1.1580  0.2513 -0.8506
  247MPD1     N 3753   3.551   1.317  16.330 -0.2152  0.0388 -0.4180
  247MPD1    H5 3754   3.604   1.376  16.267  0.0577  0.9412  0.6568
  247MPD1    N1 3755   3.383   1.349  16.785  0.2019 -0.6168  0.1303
  247MPD1    H6 3756   3.326   1.268  16.761 -1.0868  0.1950  0.4259
  247MPD1    H7 3757   3.323   1.406  16.844  1.9302  0.0901  1.2081
  248MPD1     C 3758   4.340   1.313   0.211  0.0620 -0.4022 -0.1202
  248MPD1    C1 3759   4.262   1.410   0.263 -0.9312  0.2076 -0.5241
  248MPD1    C2 3760   4.155   1.369   0.342  0.4901 -0.0541 -0.0312
  248MPD1    C3 3761   4.122   1.237   0.351 -0.1731 -0.2280  0.7076
  248MPD1    C4 3762   4.203   1.139   0.287  0.4235 -0.0893  0.3827
  248MPD1    C5 3763   4.311   1.178   0.216 -0.0273 -0.4964 -0.2159
  248MPD1     H 3764   4.104   1.445   0.400 -1.1280 -1.3055  0.1838
  248MPD1    H1 3765   4.164   1.037   0.285  0.2149  0.0100 -1.0347
  248MPD1    H2 3766   4.419   1.335   0.139 -0.9478  0.3417 -0.9908
  248MPD1    H3 3767   4.364   1.107   0.153 -1.3473 -1.1698 -0.5807
  248MPD1     N 3768   4.013   1.206   0.434 -0.1170  0.1029 -0.4782
  248MPD1    H5 3769   3.961   1.283   0.474 -1.4073 -1.0697  0.1072
  248MPD1    N1 3770   4.296   1.545   0.254  0.1508  0.3788 -0.1818
  248MPD1    H6 3771   4.303   1.569   0.155  1.6129 -1.7977 -0.6153
  248MPD1    H7 3772   4.227   1.607   0.296 -0.4209  0.0218 -0.5920
  249MPD1     C 3773   0.373   4.386   9.883  0.5375 -0.3903  0.5439
  249MPD1    C1 3774   0.456   4.444   9.795  0.5589 -0.8211 -0.0162
  249MPD1    C2 3775   0.575   4.499   9.846  1.4625 -0.8743 -0.3653
  249MPD1    C3 3776   0.592   4.515   9.980  0.0536  0.7545 -0.3459
  249MPD1    C4 3777   0.492   4.469  10.069  0.2048  0.6510  0.2298
  249MPD1    C5 3778   0.394   4.392  10.017 -0.0626  0.1826 -0.1386
  249MPD1     H 3779   0.645   4.541   9.775  0.5384  1.8123  0.3050
  249MPD1    H1 3780   0.503   4.474  10.176  0.6177 -1.1490  0.2557
  249MPD1    H2 3781   0.284   4.332   9.854  0.5358  0.8248 -1.7209
  249MPD1    H3 3782   0.330   4.340  10.087 -0.1661  0.5145  0.0135
  249MPD1     N 3783   0.705   4.591  10.020 -0.4917  0.3725  0.3807
  249MPD1    H5 3784   0.765   4.610   9.940 -2.8868  0.2344 -1.4715
  249MPD1    N1 3785   0.438   4.434   9.655  0.1248  0.2552  0.1004
  249MPD1    H6 3786   0.348   4.402   9.621 -0.2045  0.1108  1.1043
  249MPD1    H7 3787   0.468   4.525   9.620 -4.3035  1.6427 -0.1262
  250MPD2     C 3788   1.917   4.664  13.154 -0.5387 -0.7487  0.3528
  250MPD2    C1 3789   1.989   4.722  13.049  0.4553 -0.0886 -0.3751
  250MPD2    C2 3790   1.990   4.660  12.928  0.1533  0.2384  0.3865
  250MPD2    C3 3791   1.913   4.550  12.900  0.0924 -0.0311 -0.8288
  250MPD2    C4 3792   1.844   4.502  13.003  0.0770 -0.5488 -0.7904
  250MPD2    C5 3793   1.850   4.553  13.124  0.3919  0.0651  0.4019
  250MPD2     H 3794   2.046   4.700  12.844 -1.7407 -0.2729 -1.1256
  250MPD2    H1 3795   1.777   4.417  12.991  0.1932 -0.7119 -0.2855
  250MPD2    H2 3796   1.913   4.705  13.254 -2.5972 -0.5170  0.1557
  250MPD2    H3 3797   1.780   4.503  13.191  1.6099  1.4650  2.7367
  250MPD2     N 3798   1.890   4.495  12.775  0.6163  0.3187  0.0780
  250MPD2    H5 3799   1.829   4.414  12.765  2.6955 -1.4106  1.4156
  250MPD2    N1 3800   2.059   0.122  13.063 -0.0675  0.7730  0.0753
  250MPD2    H7 3801   2.114   0.161  12.987 -0.0910  1.5524  0.4637
  251TMC3    C1 3802   2.147   0.313  13.151  0.5809 -0.4759 -0.1459
  251TMC3    C2 3803   2.131   0.426  13.222 -0.4099  0.2072  0.4061
  251TMC3    C3 3804   2.234   0.514  13.219  0.1472  0.2675 -0.5324
  251TMC3    C4 3805   2.253   0.291  13.064  0.1285 -0.1366 -0.2365
  251TMC3    C5 3806   2.333   0.398  13.042  0.1752 -0.4455  0.2398
  251TMC3    C6 3807   2.325   0.507  13.115 -0.6936 -0.3461 -0.3429
  251TMC3     C 3808   2.058   0.197  13.177 -0.1046  0.0822  0.1345
  251TMC3     O 3809   1.991   0.198  13.279 -0.5014  0.3525 -0.1119
  251TMC3     H 3810   2.057   0.444  13.299 -1.4504  0.0793 -0.5624
  251TMC3    H1 3811   2.269   0.200  13.007  0.1514  0.2769 -0.8808
  251TMC3    H2 3812   2.408   0.577  13.114 -0.0516 -1.1101 -0.1240
  251TMC3    C7 3813   2.447   0.368  12.950  0.1900 -0.8753 -0.1312
  251TMC3    C8 3814   2.185   0.642  13.268  0.0584  0.4845 -0.1787
  251TMC3    O1 3815   2.501   0.259  12.965  0.2718  0.3184  0.7605
  251TMC3    O2 3816   2.125   0.643  13.372  0.1684 -0.6283 -0.0426
  252TMC3    C1 3817   2.680   1.292   9.272 -0.4544  0.0118 -0.8542
  252TMC3    C2 3818   2.749   1.395   9.324  0.8070 -0.8509 -0.5691
  252TMC3    C3 3819   2.802   1.371   9.444 -0.4743  0.0529 -0.0790
  252TMC3    C4 3820   2.678   1.164   9.318 -0.0314  0.3166  0.1131
  252TMC3    C5 3821   2.738   1.144   9.433  0.1398  0.2070 -0.1101
  252TMC3    C6 3822   2.808   1.239   9.494  0.5550 -0.1623 -0.3526
  252TMC3     C 3823   2.620   1.308   9.146 -0.4288  0.3312  0.3251
  252TMC3     O 3824   2.633   1.218   9.067  0.0083  0.2235 -0.1219
  252TMC3     H 3825   2.739   1.497   9.290 -1.0650 -1.5474 -2.0846
  252TMC3    H1 3826   2.621   1.094   9.259 -0.4766  1.3059 -0.6316
  252TMC3    H2 3827   2.872   1.225   9.580 -0.6394  3.8297  1.1657
  252TMC3    C7 3828   2.735   1.016   9.490 -0.0292 -0.3095  0.0636
  252TMC3    C8 3829   2.881   1.478   9.500 -0.3638 -0.2629 -0.2570
  252TMC3    O1 3830   2.790   1.006   9.597 -0.3286  0.4785 -0.1094
  252TMC3    O2 3831   2.895   1.584   9.444  0.0588  0.0401 -0.0172
  253MPD2     C 3832   3.632   0.324  15.266  0.3038 -0.2904 -0.2374
  253MPD2    C1 3833   3.502   0.287  15.252  1.0652  0.4082 -0.2689
  253MPD2    C2 3834   3.433   0.252  15.368 -0.2864  0.6408 -0.0009
  253MPD2    C3 3835   3.495   0.248  15.496 -0.1701  0.3093 -0.0386
  253MPD2    C4 3836   3.626   0.279  15.504 -0.6381  0.3303 -0.2743
  253MPD2    C5 3837   3.693   0.310  15.388  0.3865 -0.4779  0.0110
  253MPD2     H 3838   3.329   0.223  15.361 -0.0266 -0.3450  0.1579
  253MPD2    H1 3839   3.681   0.263  15.596  0.5507 -0.1653 -1.0593
  253MPD2    H2 3840   3.691   0.359  15.182 -0.2562  0.2837 -0.3913
  253MPD2    H3 3841   3.801   0.321  15.384 -0.0017  2.4127 -2.9531
  253MPD2     N 3842   3.425   0.219  15.616  0.0503 -0.1085 -0.3334
  253MPD2    H5 3843   3.477   0.225  15.704 -2.2556 -0.1646  1.0304
  253MPD2    N1 3844   3.430   0.286  15.129  0.0193 -0.2776  0.3902
  253MPD2    H7 3845   3.339   0.241  15.128  0.4133 -1.0720 -0.1429
  254TMC3    C1 3846   3.240   0.187  15.754 -0.9387  0.1895 -0.1451
  254TMC3    C2 3847   3.107   0.203  15.770  0.3299 -0.2686  0.1794
  254TMC3    C3 3848   3.050   0.138  15.876  0.3177 -0.4276  0.1100
  254TMC3    C4 3849   3.320   0.122  15.840  0.1278  0.4401  0.2889
  254TMC3    C5 3850   3.254   0.066  15.946  0.3961 -0.0744  0.3891
  254TMC3    C6 3851   3.124   0.062  15.963 -0.0756 -0.1632 -0.4509
  254TMC3     C 3852   3.291   0.219  15.624 -0.1447 -0.1170  0.4332
  254TMC3     O 3853   3.215   0.266  15.538  0.1008 -0.5692 -0.5159
  254TMC3     H 3854   3.045   0.273  15.715  1.0502  0.6067  0.4913
  254TMC3    H1 3855   3.425   0.106  15.820 -0.0710 -0.2783 -0.1667
  254TMC3    H2 3856   3.081   0.014  16.050 -2.9941  3.3727  0.0796
  254TMC3    C7 3857   3.328   4.722  16.052 -0.4865 -0.5163  0.5630
  254TMC3    C8 3858   2.921   0.186  15.929  0.0041  0.2060  0.4072
  254TMC3    O1 3859   3.272   4.646  16.136 -0.2483 -1.0195 -0.3574
  254TMC3    O2 3860   2.900   0.308  15.921 -0.0154  0.1280 -1.1416
  255MPD2     C 3861   1.527   2.862  11.245  0.0771  0.4717  0.2284
  255MPD2    C1 3862   1.523   2.869  11.106 -0.5058 -1.0160  0.5412
  255MPD2    C2 3863   1.608   2.791  11.034 -0.2085  0.5155 -0.3157
  255MPD2    C3 3864   1.704   2.717  11.096 -0.1020  0.3449 -0.3808
  255MPD2    C4 3865   1.711   2.714  11.231  0.9111  0.5868 -1.1061
  255MPD2    C5 3866   1.620   2.785  11.308  0.1583 -0.7245 -0.7484
  255MPD2     H 3867   1.604   2.773  10.927  0.8000 -2.2106  0.0910
  255MPD2    H1 3868   1.791   2.666  11.286  2.1670  2.9381 -0.9056
  255MPD2    H2 3869   1.455   2.926  11.293  0.6415  0.9131  0.4771
  255MPD2    H3 3870   1.633   2.793  11.415 -2.4204 -1.7354 -0.3560
  255MPD2     N 3871   1.800   2.659  11.007 -0.0362 -0.5012 -0.7364
  255MPD2    H5 3872   1.791   2.679  10.908  0.0975  0.7783 -0.4866
  255MPD2    N1 3873   1.419   2.944  11.052  0.1327  0.1980 -0.1007
  255MPD2    H7 3874   1.360   3.001  11.112 -0.4648 -2.9837  2.2881
  256TMC3    C1 3875   1.267   3.027  10.895 -0.4271  0.2215  0.6344
  256TMC3    C2 3876   1.296   3.161  10.926  0.2139  0.5539 -0.5763
  256TMC3    C3 3877   1.259   3.252  10.827 -0.0123  0.0066  0.4529
  256TMC3    C4 3878   1.193   2.989  10.789  0.5514 -0.5661 -0.2958
  256TMC3    C5 3879   1.145   3.091  10.706  0.4031  0.0732 -0.6562
  256TMC3    C6 3880   1.187   3.221  10.713  0.1595 -0.4647 -0.2980
  256TMC3     C 3881   1.380   2.937  10.924 -0.3251  0.2593  0.4796
  256TMC3     O 3882   1.409   2.867  10.831 -0.1633  0.6374 -0.4682
  256TMC3     H 3883   1.361   3.188  11.008 -0.1028  0.3689 -0.2684
  256TMC3    H1 3884   1.153   2.889  10.774  0.6651 -1.0633  2.6875
  256TMC3    H2 3885   1.172   3.293  10.634  0.8499 -2.1906 -2.0100
  256TMC3    C7 3886   1.125   3.036  10.571  0.0106 -0.0127 -0.4948
  256TMC3    C8 3887   1.350   3.370  10.833  0.2796  0.0436 -0.5896
  256TMC3    O1 3888   1.176   2.928  10.547  0.9297 -0.1012 -0.4164
  256TMC3    O2 3889   1.422   3.372  10.933  0.3384 -0.2193  0.0414
  257MPD2     C 3890   0.812   4.601  12.979  0.2512  0.1612 -0.2490
  257MPD2    C1 3891   0.903   4.692  13.030  0.6468 -0.1010  0.6406
  257MPD2    C2 3892   0.973   4.646  13.141 -0.2933 -0.7701  0.5600
  257MPD2    C3 3893   0.972   4.522  13.189 -0.3970 -0.3453  1.1674
  257MPD2    C4 3894   0.892   4.429  13.115 -0.0819 -0.2718  0.9055
  257MPD2    C5 3895   0.816   4.470  13.014 -1.0445  0.3608 -0.0815
  257MPD2     H 3896   1.035   4.720  13.190 -0.7861  0.2033 -0.2929
  257MPD2    H1 3897   0.883   4.323  13.135 -1.1539 -0.3164  0.1664
  257MPD2    H2 3898   0.751   4.633  12.895  1.1847  1.0938 -0.5692
  257MPD2    H3 3899   0.759   4.397  12.958 -1.7678  2.1188 -1.6689
  257MPD2     N 3900   1.059   4.489  13.298  0.2700  0.2265  0.5682
  257MPD2    H5 3901   1.113   4.566  13.337 -0.1581  1.3107 -0.9484
  257MPD2    N1 3902   0.904   0.094  12.964  0.7637 -0.5110 -0.6878
  257MPD2    H7 3903   0.855   0.096  12.875 -1.4019 -1.3251  0.4988
  258TMC3    C1 3904   1.155   4.358  13.470 -0.2610 -0.3237 -0.4145
  258TMC3    C2 3905   1.279   4.400  13.428  0.1332 -0.7379  0.0789
  258TMC3    C3 3906   1.378   4.419  13.517  0.0630 -0.1755 -0.1068
  258TMC3    C4 3907   1.122   4.334  13.594  0.1225 -0.2472  0.1731
  258TMC3    C5 3908   1.223   4.356  13.687  0.0725  0.4861  0.2179
  258TMC3    C6 3909   1.350   4.404  13.653  0.7032  0.0500 -0.2955
  258TMC3     C 3910   1.044   4.372  13.376  0.2920  0.2425 -0.5753
  258TMC3     O 3911   0.965   4.282  13.366 -0.3500  0.1096  0.1066
  258TMC3     H 3912   1.301   4.408  13.322  2.2177 -0.1292  0.5765
  258TMC3    H1 3913   1.021   4.300  13.616 -1.2244  1.0006 -4.1282
  258TMC3    H2 3914   1.427   4.422  13.728  1.3580 -0.0644 -0.9405
  258TMC3    C7 3915   1.186   4.333  13.825  0.5079  0.0413  0.1400
  258TMC3    C8 3916   1.519   4.420  13.479  0.4561  0.1171  0.4742
  258TMC3    O1 3917   1.067   4.309  13.844 -0.1923  0.5334 -0.1891
  258TMC3    O2 3918   1.545   4.396  13.359 -0.1891 -0.2466  0.0128
  259MPD2     C 3919   4.337   2.099   0.944 -0.1849  0.2793 -0.2738
  259MPD2    C1 3920   4.270   1.978   0.943 -0.0876 -0.0204 -0.4376
  259MPD2    C2 3921   4.330   1.867   0.886  0.3759 -0.1722  0.4094
  259MPD2    C3 3922   4.453   1.883   0.817  0.5303 -0.3444  0.5070
  259MPD2    C4 3923   4.519   2.006   0.821  0.4889 -0.1747 -0.5129
  259MPD2    C5 3924   4.459   2.111   0.880  0.2068  0.3794 -0.6288
  259MPD2     H 3925   4.288   1.767   0.887  0.2015 -0.0518  3.7601
  259MPD2    H1 3926   4.613   2.026   0.771  0.3697  0.9315 -0.3074
  259MPD2    H2 3927   4.279   2.182   0.982  0.2921  0.9120 -0.9199
  259MPD2    H3 3928   4.503   2.210   0.881 -1.9036  1.3229 -0.3096
  259MPD2     N 3929   4.510   1.768   0.766  0.0505 -0.1376 -0.1372
  259MPD2    H5 3930   4.460   1.680   0.776 -1.5470  0.6124 -1.4565
  259MPD2    N1 3931   4.154   1.977   1.009  0.1313 -0.8443 -0.2761
  259MPD2    H7 3932   4.128   2.069   1.044 -2.3679 -0.9746 -1.7814
  260TMC3    C1 3933   4.672   1.634   0.653  0.7181  0.1946 -0.0983
  260TMC3    C2 3934   0.058   1.632   0.575  0.4285 -0.6873 -0.5276
  260TMC3    C3 3935   0.134   1.516   0.569 -0.4386 -1.3155  0.0856
  260TMC3    C4 3936   4.637   1.522   0.730  0.3995 -0.5700 -0.5429
  260TMC3    C5 3937   4.714   1.414   0.714  0.6398  0.6566  0.3680
  260TMC3    C6 3938   0.098   1.400   0.633 -0.6343 -0.6453  0.0720
  260TMC3     C 3939   4.619   1.770   0.679  0.0541  0.1859  0.3356
  260TMC3     O 3940   4.688   1.863   0.638 -0.6477  0.1217 -0.3226
  260TMC3     H 3941   0.080   1.719   0.514  1.6375 -0.8061 -0.2615
  260TMC3    H1 3942   4.548   1.511   0.790  0.0089 -0.2911 -1.0649
  260TMC3    H2 3943   0.151   1.309   0.607 -1.6859 -1.1107 -0.4351
  260TMC3    C7 3944   4.694   1.288   0.786  1.2447  0.7742  0.1721
  260TMC3    C8 3945   0.260   1.517   0.487  0.5929  0.5184  0.5602
  260TMC3    O1 3946   0.055   1.202   0.767 -0.2907 -0.4432 -0.5056
  260TMC3    O2 3947   0.296   1.620   0.438  0.3511  0.4574 -0.2106
  261MPD2     C 3948   1.585   4.499  11.930 -0.3323  0.5876 -0.5936
  261MPD2    C1 3949   1.625   4.587  12.024  0.3929  0.1575 -0.7025
  261MPD2    C2 3950   1.678   4.710  11.990  0.0313  0.2892 -0.4520
  261MPD2    C3 3951   1.678   0.025  11.855  0.1023  0.6098  0.4092
  261MPD2    C4 3952   1.638   4.656  11.765  0.2524 -0.2648  0.0290
  261MPD2    C5 3953   1.589   4.527  11.793  0.1198 -0.1565  0.1655
  261MPD2     H 3954   1.705   0.052  12.072  2.4836 -0.2795 -0.7817
  261MPD2    H1 3955   1.641   4.686  11.661  0.4863 -1.4107 -0.2923
  261MPD2    H2 3956   1.550   4.400  11.957  0.1908  0.1334 -1.5840
  261MPD2    H3 3957   1.561   4.457  11.715 -2.9980  0.7916  0.4602
  261MPD2     N 3958   1.729   0.159  11.819 -0.0627 -0.6737  0.1741
  261MPD2    H5 3959   1.731   0.224  11.897  2.0620  0.9597 -1.2513
  261MPD2    N1 3960   1.621   4.543  12.156 -0.2832 -0.7400 -0.0209
  261MPD2    H7 3961   1.574   4.453  12.165  0.2111 -0.7986  1.7966
  262TMC3    C1 3962   1.789   0.350  11.693 -0.4256  0.2559 -0.0711
  262TMC3    C2 3963   1.716   0.440  11.764 -0.0467 -0.5113 -0.0214
  262TMC3    C3 3964   1.746   0.568  11.739 -0.0647 -0.0251  0.4746
  262TMC3    C4 3965   1.877   0.383  11.591  0.2775 -0.0086 -0.0936
  262TMC3    C5 3966   1.900   0.521  11.568  0.1506  0.3976 -0.2200
  262TMC3    C6 3967   1.832   0.614  11.643 -0.4625 -0.2166  0.6134
  262TMC3     C 3968   1.749   0.208  11.694 -0.6531  0.2492 -0.3151
  262TMC3     O 3969   1.767   0.151  11.591 -0.5032 -0.1001 -0.0291
  262TMC3     H 3970   1.626   0.399  11.808 -0.7636  1.1919  0.0901
  262TMC3    H1 3971   1.935   0.304  11.546  1.6393  0.1925  1.3139
  262TMC3    H2 3972   1.866   0.716  11.651 -2.5704  0.5943 -0.8829
  262TMC3    C7 3973   2.037   0.556  11.525 -0.0173  0.3341 -0.1931
  262TMC3    C8 3974   1.651   0.677  11.786  0.6082 -0.1413  0.3207
  262TMC3    O1 3975   2.110   0.460  11.501 -0.4887  0.4941 -0.8357
  262TMC3    O2 3976   1.669   0.779  11.724  0.1538  0.1722  0.0976
  263MPD2     C 3977   2.423   3.381  11.451  0.1921 -0.2869 -0.5971
  263MPD2    C1 3978   2.480   3.499  11.501  0.2042  0.6533  0.2223
  263MPD2    C2 3979   2.508   3.612  11.424  0.2778 -0.2714  0.1898
  263MPD2    C3 3980   2.479   3.612  11.294 -0.4430 -0.5404  0.1196
  263MPD2    C4 3981   2.421   3.496  11.243 -0.4744  0.2176  0.6935
  263MPD2    C5 3982   2.389   3.387  11.316  0.3604  0.2107  0.1641
  263MPD2     H 3983   2.552   3.705  11.459  1.1431  0.2282 -2.1717
  263MPD2    H1 3984   2.406   3.482  11.136 -1.2295  3.4381  0.3689
  263MPD2    H2 3985   2.415   3.289  11.507  3.2969  0.7938  1.6185
  263MPD2    H3 3986   2.361   3.299  11.259  0.8168  0.9532 -1.2184
  263MPD2     N 3987   2.515   3.725  11.216 -0.3731 -0.4393  0.2021
  263MPD2    H5 3988   2.533   3.812  11.265 -0.6819 -0.2558 -0.0068
  263MPD2    N1 3989   2.526   3.485  11.638  0.3488 -0.1276  0.0296
  263MPD2    H7 3990   2.532   3.391  11.675 -1.7540 -0.7428 -1.1829
  264TMC3    C1 3991   2.569   3.853  11.026  0.1697  0.6242 -0.9439
  264TMC3    C2 3992   2.531   3.966  11.097 -0.2708  0.9435 -0.1759
  264TMC3    C3 3993   2.547   4.086  11.030 -0.0978  0.3914  0.3182
  264TMC3    C4 3994   2.627   3.850  10.905  0.3631 -0.6513  0.5559
  264TMC3    C5 3995   2.648   3.972  10.850  0.2425  0.1106 -0.1130
  264TMC3    C6 3996   2.598   4.097  10.904 -0.0751  0.6796 -0.1126
  264TMC3     C 3997   2.514   3.727  11.077 -0.2999  0.2562 -0.5290
  264TMC3     O 3998   2.486   3.633  11.004 -0.2473  0.0388 -0.6796
  264TMC3     H 3999   2.521   3.974  11.205  0.6620 -0.1621 -0.0095
  264TMC3    H1 4000   2.677   3.762  10.865  1.3408 -0.4460  1.3397
  264TMC3    H2 4001   2.586   4.191  10.852  2.0254  1.9451  1.6907
  264TMC3    C7 4002   2.777   3.993  10.788  0.3377  0.1118  0.2935
  264TMC3    C8 4003   2.630   4.172  11.115  0.2177 -0.0266  0.2222
  264TMC3    O1 4004   2.820   3.903  10.715  0.5797  0.0294  0.4511
  264TMC3    O2 4005   2.749   4.175  11.094 -0.0932 -0.1357 -0.2782
  265MPD2     C 4006   4.470   4.407  15.439 -0.4116 -0.6339  0.2351
  265MPD2    C1 4007   4.571   4.445  15.524  1.1634  0.3236  1.1313
  265MPD2    C2 4008   4.707   4.417  15.487  0.4640  0.4103 -0.2552
  265MPD2    C3 4009   0.007   4.335  15.379  0.0435 -0.1909 -0.4829
  265MPD2    C4 4010   4.618   4.291  15.308  0.3965 -0.3975  0.1183
  265MPD2    C5 4011   4.489   4.327  15.330 -0.0224  0.2398  0.0759
  265MPD2     H 4012   0.056   4.469  15.547 -0.1837  0.2012  0.7423
  265MPD2    H1 4013   4.629   4.225  15.222  1.7953  1.6707 -1.2926
  265MPD2    H2 4014   4.373   4.448  15.464 -0.7371 -0.5172 -1.2401
  265MPD2    H3 4015   4.413   4.304  15.256 -0.2500  2.8137 -0.4865
  265MPD2     N 4016   0.133   4.301  15.326 -0.6587 -0.1481 -0.6729
  265MPD2    H5 4017   0.129   4.235  15.250  1.1555 -0.2761 -0.6416
  265MPD2    N1 4018   4.535   4.535  15.625  0.6664 -0.3818  0.0928
  265MPD2    H7 4019   4.434   4.540  15.638  0.7785  0.9216  0.4717
  266TMC3    C1 4020   4.543   4.627  15.840  0.3833  0.8214 -0.4767
  266TMC3    C2 4021   4.606   4.631  15.965  0.6109  0.4164 -0.9352
  266TMC3    C3 4022   4.549   4.697  16.068  0.2744  0.9543 -0.1232
  266TMC3    C4 4023   4.413   4.683  15.828  0.5933 -0.0422  0.1297
  266TMC3    C5 4024   4.352   0.009  15.942  0.3235  0.2554  0.1217
  266TMC3    C6 4025   4.419   0.015  16.064  0.0302 -0.6415  0.4756
  266TMC3     C 4026   4.615   4.576  15.726 -0.6656  1.1087 -0.5071
  266TMC3     O 4027   0.009   4.555  15.751 -0.2750  0.9368  0.1421
  266TMC3     H 4028   4.703   4.586  15.981 -0.0551 -0.7100  0.0040
  266TMC3    H1 4029   4.364   4.687  15.731  3.9206 -0.4205 -1.5949
  266TMC3    H2 4030   4.372   0.050  16.155 -1.0820 -0.5208 -0.1492
  266TMC3    C7 4031   4.224   0.074  15.924 -0.9248 -0.0556 -0.0935
  266TMC3    C8 4032   4.604   4.689  16.207 -0.3850 -0.3876  0.2121
  266TMC3    O1 4033   4.159   0.029  15.831 -0.2757  0.2565  0.7393
  266TMC3    O2 4034   4.692   4.605  16.223  0.2156  0.0417  0.2309
  267MPD2     C 4035   2.009   1.582  17.582 -0.1295  0.0466 -0.7673
  267MPD2    C1 4036   2.104   1.617  17.497 -0.8265 -0.3800  0.0399
  267MPD2    C2 4037   2.066   1.624  17.363 -0.2479 -0.5533 -0.3125
  267MPD2    C3 4038   1.931   1.611  17.323 -0.2886 -0.9277 -0.1848
  267MPD2    C4 4039   1.838   1.599  17.422 -0.0949  0.2735 -0.0334
  267MPD2    C5 4040   1.879   1.572  17.547 -0.4947  0.0430 -0.2018
  267MPD2     H 4041   2.144   1.635  17.288  2.3645 -1.6052  2.2628
  267MPD2    H1 4042   1.731   1.605  17.402  0.0890 -1.0030 -1.3745
  267MPD2    H2 4043   2.031   1.576  17.687 -2.0195  0.9134 -0.3151
  267MPD2    H3 4044   1.799   1.544  17.615 -2.0832 -0.3881 -2.2575
  267MPD2     N 4045   1.898   1.623  17.181 -0.6297  0.6413  0.4322
  267MPD2    H5 4046   1.802   1.603  17.153 -0.5920  0.5161  0.3899
  267MPD2    N1 4047   2.228   1.653  17.545  0.3082 -0.2340 -0.3895
  267MPD2    H7 4048   2.230   1.647  17.647  0.9966  0.1698 -0.3782
  268TMC3    C1 4049   2.443   1.754  17.555 -0.6811 -0.0010 -0.5896
  268TMC3    C2 4050   2.536   1.829  17.484  0.6395  0.0099  0.0348
  268TMC3    C3 4051   2.649   1.859  17.551  0.4784  1.2573 -0.1583
  268TMC3    C4 4052   2.452   1.711  17.685  0.3683  0.0151 -0.3348
  268TMC3    C5 4053   2.570   1.739   0.040 -0.0857 -0.3134  0.0333
  268TMC3    C6 4054   2.666   1.811  17.681 -0.0451 -0.2396  0.3781
  268TMC3     C 4055   2.334   1.709  17.468 -0.1306  0.0784 -0.2550
  268TMC3     O 4056   2.342   1.733  17.347  0.1787 -0.2592 -0.2396
  268TMC3     H 4057   2.515   1.872  17.386  1.6543  0.8566  0.1996
  268TMC3    H1 4058   2.374   1.666   0.047 -0.1801  0.1759 -0.9124
  268TMC3    H2 4059   2.756   1.828   0.040 -1.1863  0.2283  1.9686
  268TMC3    C7 4060   2.557   1.761   0.176 -1.1989  0.1285  0.4400
  268TMC3    C8 4061   2.723   1.979  17.530 -0.6649  0.3966 -0.2439
  268TMC3    O1 4062   2.490   1.675   0.234 -0.5265  0.2315  0.6070
  268TMC3    O2 4063   2.791   2.014  17.624  0.2597  0.1887  0.5927
  269MPD2     C 4064   2.408   0.270  15.873 -0.1230  0.3913  0.2688
  269MPD2    C1 4065   2.281   0.315  15.857  0.0238 -0.0485 -0.7516
  269MPD2    C2 4066   2.257   0.444  15.863  0.8488  0.1226  0.1752
  269MPD2    C3 4067   2.355   0.533  15.896 -0.4296 -0.4687  0.9553
  269MPD2    C4 4068   2.485   0.489  15.924 -0.4786 -0.7320 -0.3882
  269MPD2    C5 4069   2.511   0.357  15.906  0.2121  0.4290 -0.5727
  269MPD2     H 4070   2.158   0.487  15.851  0.7118  0.0055  0.9130
  269MPD2    H1 4071   2.559   0.557  15.964  0.2209 -0.9995 -1.2127
  269MPD2    H2 4072   2.434   0.165  15.873 -2.5819 -0.2222  0.0567
  269MPD2    H3 4073   2.613   0.325  15.923 -0.1240 -0.2799  0.0935
  269MPD2     N 4074   2.321   0.673  15.910 -0.4137  0.0179  0.0003
  269MPD2    H5 4075   2.222   0.691  15.916 -0.4262  0.6300 -2.1368
  269MPD2    N1 4076   2.182   0.213  15.830 -0.2734 -0.0402  0.1917
  269MPD2    H7 4077   2.212   0.116  15.831 -1.6281 -0.4652 -1.3496
  270TMC3    C1 4078   1.976   0.115  15.773 -0.1347 -0.2200 -0.3957
  270TMC3    C2 4079   1.879   0.125  15.675 -0.1171  0.1375 -0.0130
  270TMC3    C3 4080   1.848   0.006  15.618  0.5132 -0.0783  0.2833
  270TMC3    C4 4081   2.016   4.720  15.822 -0.2111  0.7093 -0.3274
  270TMC3    C5 4082   1.964   4.608  15.774 -0.6571  0.6108 -0.3292
  270TMC3    C6 4083   1.872   4.610  15.675 -0.9450  0.1525  0.2618
  270TMC3     C 4084   2.048   0.237  15.816  0.6333  1.0626 -0.3254
  270TMC3     O 4085   1.984   0.337  15.803  0.4658  0.6954 -0.1532
  270TMC3     H 4086   1.864   0.220  15.626  1.7574  1.7820  2.5876
  270TMC3    H1 4087   2.093   4.715  15.898  0.5001  1.1478 -1.0179
  270TMC3    H2 4088   1.848   4.514  15.630 -0.3790  0.7309 -1.2672
  270TMC3    C7 4089   2.068   4.509  15.765  0.0494 -0.0557  0.9701
  270TMC3    C8 4090   1.817   0.013  15.472  0.4718  0.3005 -0.1866
  270TMC3    O1 4091   2.182   4.549  15.755  0.2277  0.7636  0.2631
  270TMC3    O2 4092   1.883   0.094  15.406 -0.2253 -0.6806  0.0037
  271MPD2     C 4093   1.568   0.263  13.892  0.0447  0.0116  0.4652
  271MPD2    C1 4094   1.504   0.203  14.002 -0.1325  0.8929  0.8191
  271MPD2    C2 4095   1.364   0.221  14.012  0.0606 -0.3920 -0.1257
  271MPD2    C3 4096   1.293   0.297  13.918 -0.2267  0.0464 -0.5145
  271MPD2    C4 4097   1.355   0.337  13.802 -0.4061 -0.7963 -0.0875
  271MPD2    C5 4098   1.494   0.331  13.799  0.8420  0.2444 -0.2511
  271MPD2     H 4099   1.309   0.168  14.090 -0.2378 -2.2451 -1.5915
  271MPD2    H1 4100   1.303   0.382  13.718  2.4566  0.4680 -1.1755
  271MPD2    H2 4101   1.669   0.235  13.861 -0.5162 -2.6184  1.0376
  271MPD2    H3 4102   1.544   0.379  13.715 -1.4281  1.6915 -0.7837
  271MPD2     N 4103   1.157   0.312  13.922  0.2293 -0.1411  0.2201
  271MPD2    H5 4104   1.113   0.361  13.845  0.1055 -0.5901  0.0069
  271MPD2    N1 4105   1.560   0.115  14.101  0.3998  0.1370  0.4086
  271MPD2    H7 4106   1.509   0.083  14.182  0.2633 -3.0643 -0.9286
  272TMC3    C1 4107   1.741   4.716  14.213  0.4714  0.4205 -0.0534
  272TMC3    C2 4108   1.857   4.650  14.202 -0.1178 -0.6675  0.1017
  272TMC3    C3 4109   1.907   4.579  14.302 -0.2002 -0.3385 -0.2691
  272TMC3    C4 4110   1.675   0.004  14.331  0.1523  0.1075  0.4545
  272TMC3    C5 4111   1.731   4.667  14.436 -0.2080  0.1463 -0.2706
  272TMC3    C6 4112   1.849   4.594  14.423 -0.0229  0.0192 -1.1603
  272TMC3     C 4113   1.693   0.075  14.099  0.6550  0.0037 -0.0608
  272TMC3     O 4114   1.775   0.084  14.006  0.2648 -0.0274  0.3100
  272TMC3     H 4115   1.904   4.645  14.104  1.1478  1.2952  0.5995
  272TMC3    H1 4116   1.585   0.062  14.348 -0.9248 -1.1319 -1.0636
  272TMC3    H2 4117   1.907   4.555  14.506 -0.4078  1.9692  0.0070
  272TMC3    C7 4118   1.673   4.687  14.568 -0.6202 -0.1436  0.3955
  272TMC3    C8 4119   2.039   4.521  14.286 -0.0966 -0.2473  0.2222
  272TMC3    O1 4120   1.552   4.716  14.568  0.1311 -0.3634  0.5490
  272TMC3    O2 4121   2.092   4.534  14.175  0.0438  0.1245 -0.3172
  273MPD2     C 4122   2.866   2.617  11.880  0.7601 -0.3132  0.2538
  273MPD2    C1 4123   2.930   2.730  11.846  0.6440 -0.5513 -0.6234
  273MPD2    C2 4124   2.948   2.757  11.715 -0.1578 -0.3540  0.2376
  273MPD2    C3 4125   2.915   2.673  11.619 -0.8271  0.0206  0.3614
  273MPD2    C4 4126   2.851   2.557  11.648 -0.2909 -0.2829  0.0007
  273MPD2    C5 4127   2.829   2.526  11.782  0.3861 -0.2870 -0.2957
  273MPD2     H 4128   2.989   2.856  11.699 -1.0068  0.2108  1.5788
  273MPD2    H1 4129   2.812   2.494  11.568  3.1684 -0.4766 -1.5496
  273MPD2    H2 4130   2.835   2.600  11.982  0.8212 -0.0149  0.3213
  273MPD2    H3 4131   2.788   2.430  11.810 -1.3336  0.4769 -0.2584
  273MPD2     N 4132   2.961   2.708  11.484 -0.0783 -0.4905 -0.3784
  273MPD2    H5 4133   2.920   2.648  11.414  0.3008 -0.1183 -0.9131
  273MPD2    N1 4134   2.959   2.824  11.947 -0.9632 -0.6197 -0.2975
  273MPD2    H7 4135   2.921   2.808  12.040 -0.8719  0.2728 -0.1103
  274TMC3    C1 4136   3.080   2.818  11.316  1.0319 -0.0192  0.3065
  274TMC3    C2 4137   2.976   2.836  11.233 -0.4299 -0.4251 -0.6684
  274TMC3    C3 4138   2.996   2.916  11.129  0.3839  0.7007  0.0879
  274TMC3    C4 4139   3.192   2.883  11.301  0.0277 -0.3426 -0.6593
  274TMC3    C5 4140   3.189   2.992  11.223  0.1629 -0.5776 -0.2767
  274TMC3    C6 4141   3.110   2.994  11.117  0.6310  0.3564 -0.4175
  274TMC3     C 4142   3.053   2.803  11.454 -0.1682 -1.2450  0.2365
  274TMC3     O 4143   3.114   2.884  11.518 -0.5407  0.1559 -0.2739
  274TMC3     H 4144   2.883   2.786  11.257 -0.4780  0.7541  1.5840
  274TMC3    H1 4145   3.272   2.867  11.373  2.6213  3.7625 -2.6308
  274TMC3    H2 4146   3.104   3.088  11.064  2.1388  1.7548  1.9110
  274TMC3    C7 4147   3.259   3.117  11.267  0.4118  1.0118 -0.6900
  274TMC3    C8 4148   2.903   2.920  11.025  0.2477  0.0046 -0.0988
  274TMC3    O1 4149   3.333   3.180  11.187 -1.4284  0.0016 -0.2049
  274TMC3    O2 4150   2.794   2.865  11.043  0.3907  0.1676 -0.4401
  275MPD2     C 4151   2.694   1.412  14.591  0.5987 -0.5516  0.0292
  275MPD2    C1 4152   2.687   1.384  14.721  0.2714 -0.5354 -0.0046
  275MPD2    C2 4153   2.572   1.317  14.765 -0.5791 -0.0949  0.0082
  275MPD2    C3 4154   2.478   1.260  14.678 -1.1125 -0.3763  0.3106
  275MPD2    C4 4155   2.502   1.277  14.542 -0.4749 -0.3568  0.0851
  275MPD2    C5 4156   2.601   1.364  14.506 -0.1949  0.9156  0.5228
  275MPD2     H 4157   2.570   1.281  14.867 -2.6030 -1.3822 -0.4719
  275MPD2    H1 4158   2.437   1.228  14.472  2.3466 -0.5166 -2.4242
  275MPD2    H2 4159   2.780   1.466  14.552  1.0540 -1.7325 -0.5985
  275MPD2    H3 4160   2.613   1.386  14.401  0.7503 -3.4460 -0.2777
  275MPD2     N 4161   2.385   1.167  14.719  0.6115 -0.3633  0.0431
  275MPD2    H5 4162   2.361   1.109  14.639  0.2357  0.7316 -0.6413
  275MPD2    N1 4163   2.790   1.405  14.814 -0.3945 -0.2321 -0.3791
  275MPD2    H7 4164   2.776   1.373  14.909 -2.0116  1.8984  0.0862
  276TMC3    C1 4165   2.988   1.472  14.915  0.2215 -0.0639 -0.2163
  276TMC3    C2 4166   2.995   1.360  14.990  0.0366  0.4597 -0.2002
  276TMC3    C3 4167   3.047   1.367  15.116 -0.2024 -0.5159  0.4932
  276TMC3    C4 4168   3.051   1.593  14.954 -0.1919  0.0358 -0.1314
  276TMC3    C5 4169   3.109   1.593  15.080 -0.6377 -0.2125 -0.4061
  276TMC3    C6 4170   3.093   1.485  15.169 -0.2182  0.4156 -0.5561
  276TMC3     C 4171   2.910   1.476  14.791 -0.2528 -0.4885  0.4464
  276TMC3     O 4172   2.940   1.541  14.692  0.4463 -0.1580 -0.4317
  276TMC3     H 4173   2.945   1.265  14.973 -0.1194  0.2205  1.6505
  276TMC3    H1 4174   3.049   1.682  14.891  1.9534 -0.5399 -1.0039
  276TMC3    H2 4175   3.138   1.493  15.267  1.2771  0.9513 -1.2843
  276TMC3    C7 4176   3.207   1.688  15.121 -0.1522 -0.6180  0.1952
  276TMC3    C8 4177   3.026   1.262  15.210  0.2720 -0.1848  0.1175
  276TMC3    O1 4178   3.280   1.662  15.215 -0.0224  0.2176 -0.2410
  276TMC3    O2 4179   2.976   1.289  15.315 -0.1226 -0.0399 -0.4929
  277MPD2     C 4180   4.573   0.238  13.305  0.0417 -0.5462  0.2059
  277MPD2    C1 4181   4.451   0.235  13.366  0.0397 -0.3794 -0.4842
  277MPD2    C2 4182   4.425   0.146  13.471  0.6259  0.1671  0.0317
  277MPD2    C3 4183   4.527   0.061  13.514 -0.2464  0.0997  0.1946
  277MPD2    C4 4184   4.654   0.070  13.457  0.5229 -0.8445  0.1959
  277MPD2    C5 4185   4.676   0.158  13.351 -0.0820 -0.0095  0.0231
  277MPD2     H 4186   4.330   0.148  13.523  0.9545 -0.8667  0.6713
  277MPD2    H1 4187   0.018   0.013  13.483  0.6831  0.2085  1.9973
  277MPD2    H2 4188   4.599   0.323  13.243 -0.2458 -1.2865 -0.9187
  277MPD2    H3 4189   0.046   0.175  13.302  0.0886  0.5581  0.5484
  277MPD2     N 4190   4.510   4.716  13.636 -0.2533 -0.1182  0.6195
  277MPD2    H5 4191   4.425   0.001  13.690 -0.6176 -0.8891  0.1787
  277MPD2    N1 4192   4.359   0.331  13.316  0.3912  0.0611  0.2324
  277MPD2    H7 4193   4.381   0.377  13.228  2.2826 -0.5314  0.4019
  278TMC3    C1 4194   4.550   4.531  13.782 -0.0881  0.2801 -0.0158
  278TMC3    C2 4195   4.647   4.454  13.836  0.3936  0.4936  0.6459
  278TMC3    C3 4196   4.611   4.327  13.887  0.4414 -0.5842 -0.1605
  278TMC3    C4 4197   4.413   4.500  13.787 -0.1066  0.2050  0.2263
  278TMC3    C5 4198   4.382   4.374  13.837  0.4047 -0.1726 -0.0252
  278TMC3    C6 4199   4.479   4.285  13.879  0.6612 -0.8557  0.7312
  278TMC3     C 4200   4.606   4.621  13.681 -1.0395  0.5294  0.3416
  278TMC3     O 4201   4.722   4.607  13.645 -0.1905  0.4575 -0.2438
  278TMC3     H 4202   0.028   4.481  13.830 -0.1656  2.7750  1.1117
  278TMC3    H1 4203   4.333   4.558  13.742  2.0868  0.7543 -2.9798
  278TMC3    H2 4204   4.449   4.189  13.919 -3.4696 -0.0430 -0.4194
  278TMC3    C7 4205   4.262   4.307  13.792 -0.7603 -0.3134 -0.6150
  278TMC3    C8 4206   4.695   4.223  13.837 -0.8822  0.3136 -0.0960
  278TMC3    O1 4207   4.282   4.206  13.728 -0.2089 -0.2245 -0.8176
  278TMC3    O2 4208   0.094   4.238  13.843  0.3671  0.4824 -0.8244
  279MPD2     C 4209   3.888   4.628   0.547  0.3477 -0.0414  0.1236
  279MPD2    C1 4210   3.800   4.664   0.448  0.2317 -0.2117  0.2137
  279MPD2    C2 4211   3.850   4.696   0.329 -0.0730  0.4341 -0.0307
  279MPD2    C3 4212   3.986   4.694   0.300  0.5520  0.0466 -0.5348
  279MPD2    C4 4213   4.076   4.640   0.391  0.0997  0.5004  0.4489
  279MPD2    C5 4214   4.025   4.614   0.519 -0.0861  0.1006  0.3341
  279MPD2     H 4215   3.783   0.020   0.259  0.8441 -3.7081 -3.7570
  279MPD2    H1 4216   4.175   4.607   0.363 -0.9996 -2.0342 -0.4480
  279MPD2    H2 4217   3.851   4.615   0.648  0.6357 -2.9999 -0.1339
  279MPD2    H3 4218   4.092   4.588   0.600  0.7994 -0.6404 -0.6560
  279MPD2     N 4219   4.041   0.003   0.176 -0.2133 -0.1017  0.3649
  279MPD2    H5 4220   4.142   0.010   0.168 -0.3789  0.6113 -1.0091
  279MPD2    N1 4221   3.662   4.675   0.482  0.0948  0.4597  0.6161
  279MPD2    H7 4222   3.644   4.673   0.581  1.6332 -0.3708  0.8702
  280TMC3    C1 4223   3.444   0.033   0.449  0.1726  0.8050  1.0771
  280TMC3    C2 4224   3.327   4.714   0.393 -0.3859  0.8151 -0.4221
  280TMC3    C3 4225   3.219   0.071   0.416  0.4087  1.1520  0.2502
  280TMC3    C4 4226   3.465   0.168   0.472 -0.1296  0.0642 -0.2065
  280TMC3    C5 4227   3.359   0.249   0.480  0.5120 -0.3172  0.2763
  280TMC3    C6 4228   3.232   0.196   0.460  0.2831  0.2298 -0.2636
  280TMC3     C 4229   3.563   4.686   0.392 -0.2363  0.2646  0.2166
  280TMC3     O 4230   3.569   4.672   0.271 -0.1277  0.3320  0.1294
  280TMC3     H 4231   3.324   4.621   0.337 -0.5508  0.9054 -0.5618
  280TMC3    H1 4232   3.565   0.202   0.497 -0.4683  1.3480 -0.5973
  280TMC3    H2 4233   3.143   0.256   0.474 -1.0598 -2.4752  2.5646
  280TMC3    C7 4234   3.369   0.385   0.496  0.6679  0.0138  0.0772
  280TMC3    C8 4235   3.078   0.018   0.403 -0.4214  0.3161  0.1937
  280TMC3    O1 4236   3.452   0.429   0.577  0.4733  0.0973 -0.3007
  280TMC3    O2 4237   2.994   0.074   0.476  0.8079 -0.4269 -0.3354
  281TMC3    C1 4238   2.807   0.162  13.095  0.0438 -0.1416 -0.0005
  281TMC3    C2 4239   2.850   0.210  12.977  0.3090 -0.3661 -0.7945
  281TMC3    C3 4240   2.840   0.128  12.866  0.3603  0.3881 -0.2886
  281TMC3    C4 4241   2.776   0.028  13.113 -0.5390  0.4226 -0.3678
  281TMC3    C5 4242   2.788   4.670  13.005 -0.6008 -0.0887  0.0738
  281TMC3    C6 4243   2.815   4.719  12.880 -0.4529  0.5222  0.2863
  281TMC3     C 4244   2.778   0.249  13.210 -0.2332  0.0149 -0.1307
  281TMC3     O 4245   2.755   0.193  13.319 -0.2967  0.0455 -0.0232
  281TMC3     H 4246   2.880   0.314  12.976  3.1035 -1.1491  2.5680
  281TMC3    H1 4247   2.731   4.723  13.206 -2.1663 -1.5498 -1.7958
  281TMC3    H2 4248   2.816   4.663  12.788 -0.2001  1.2404 -0.1454
  281TMC3    C7 4249   2.747   4.530  13.013 -0.1028  0.0004 -0.3532
  281TMC3    C8 4250   2.889   0.167  12.731  0.2626  0.5581 -0.5122
  281TMC3    O1 4251   2.806   4.455  12.932  0.4085 -0.3718 -0.0201
  281TMC3    O2 4252   2.937   0.081  12.667  0.1776 -0.4208  0.8014
  282MPD2     C 4253   4.681   1.949  15.413 -0.2163  0.2117  0.4113
  282MPD2    C1 4254   4.555   1.972  15.466  0.1532 -0.1889 -0.2600
  282MPD2    C2 4255   4.441   1.956  15.388 -0.1015  0.2353  0.0117
  282MPD2    C3 4256   4.447   1.913  15.252  0.0186  0.1629  0.7417
  282MPD2    C4 4257   4.574   1.894  15.197  0.2460  0.1819 -0.4094
  282MPD2    C5 4258   4.682   1.907  15.282 -0.3598  0.2226  0.5184
  282MPD2     H 4259   4.347   1.979  15.437 -0.5753  0.6346 -1.0680
  282MPD2    H1 4260   4.602   1.870  15.095  0.1299 -0.5909 -0.2630
  282MPD2    H2 4261   0.050   1.965  15.466  0.7928 -1.3414 -0.9185
  282MPD2    H3 4262   0.056   1.894  15.239 -0.5502 -0.3657  0.2734
  282MPD2     N 4263   4.330   1.924  15.173 -0.3642 -0.9780 -0.5826
  282MPD2    H5 4264   4.241   1.956  15.211  0.4167 -0.0166  0.4508
  282MPD2    N1 4265   4.531   2.018  15.596 -0.5958 -0.3984  0.3839
  282MPD2    H7 4266   4.435   2.016  15.629  0.0591  2.0408  2.4121
  283TMC3    C1 4267   4.564   2.114  15.806  0.3627 -0.3168  0.1785
  283TMC3    C2 4268   4.603   2.238  15.850 -0.3561 -0.5217  0.2843
  283TMC3    C3 4269   4.546   2.291  15.960 -0.7439  0.1583  0.0655
  283TMC3    C4 4270   4.472   2.044  15.877  0.0308 -0.0807  0.8052
  283TMC3    C5 4271   4.412   2.109  15.984 -0.0078  0.4319 -0.0475
  283TMC3    C6 4272   4.444   2.235  16.024  0.0645 -0.2672 -0.0059
  283TMC3     C 4273   4.624   2.069  15.687 -0.5273 -0.0800 -0.0908
  283TMC3     O 4274   0.018   2.087  15.666 -0.1031  0.3217  0.1796
  283TMC3     H 4275   4.679   2.289  15.792 -2.8086  0.4451 -2.1007
  283TMC3    H1 4276   4.447   1.944  15.846 -0.0419  0.7378 -1.7603
  283TMC3    H2 4277   4.403   2.272  16.117  1.5451  2.2836 -0.3914
  283TMC3    C7 4278   4.314   2.037  16.057  1.0057 -0.0389  0.5958
  283TMC3    C8 4279   4.595   2.419  16.002 -0.0725 -0.9774  0.7823
  283TMC3    O1 4280   4.311   2.045  16.180  0.3978  0.3069 -0.0633
  283TMC3    O2 4281   4.573   2.459  16.116 -0.4120  0.1170  0.3009
  284MPD2     C 4282   2.572   1.100  11.851  0.4841 -0.4798  0.6204
  284MPD2    C1 4283   2.669   0.999  11.823 -0.0116 -0.2084  0.2658
  284MPD2    C2 4284   2.683   0.899  11.917 -0.0958 -0.1509  0.8749
  284MPD2    C3 4285   2.614   0.901  12.038 -0.1734 -0.2466 -0.0656
  284MPD2    C4 4286   2.533   1.002  12.072  0.1031 -0.1005  0.3379
  284MPD2    C5 4287   2.503   1.097  11.972 -0.1866 -0.2895  0.0553
  284MPD2     H 4288   2.749   0.815  11.896  1.1762  1.1649 -0.4224
  284MPD2    H1 4289   2.490   1.021  12.169  1.0654 -1.0147  0.9378
  284MPD2    H2 4290   2.552   1.179  11.779  0.6465  0.3787  1.5272
  284MPD2    H3 4291   2.430   1.176  11.984 -0.3836 -0.3648 -0.6298
  284MPD2     N 4292   2.634   0.802  12.134 -0.1851 -0.0036 -0.4115
  284MPD2    H5 4293   2.598   0.815  12.228  0.5658 -0.8312 -0.0042
  284MPD2    N1 4294   2.754   0.991  11.709  0.0829  0.5236 -0.0595
  284MPD2    H7 4295   2.829   0.923  11.711 -1.4905 -1.2975 -4.7226
  285TMC3    C1 4296   2.866   1.051  11.521  0.4713  0.6671 -0.0396
  285TMC3    C2 4297   2.924   0.924  11.519 -0.4452  0.1185 -0.8298
  285TMC3    C3 4298   3.051   0.904  11.475 -0.1714  0.2235 -0.3032
  285TMC3    C4 4299   2.946   1.155  11.486 -0.1233 -0.0563  0.4392
  285TMC3    C5 4300   3.073   1.138  11.442  0.3477  0.2353 -0.1168
  285TMC3    C6 4301   3.129   1.012  11.444 -0.4457 -0.6046  0.0233
  285TMC3     C 4302   2.756   1.080  11.610  0.8125 -0.0105 -0.1435
  285TMC3     O 4303   2.674   1.170  11.585 -0.1534 -0.3702 -0.0874
  285TMC3     H 4304   2.872   0.832  11.542 -0.6491  0.0120 -1.7324
  285TMC3    H1 4305   2.905   1.255  11.491 -1.8088 -0.8931  4.0955
  285TMC3    H2 4306   3.222   0.996  11.391 -0.7254 -0.4657 -0.5072
  285TMC3    C7 4307   3.152   1.260  11.432  0.0318  0.0465 -0.8758
  285TMC3    C8 4308   3.094   0.764  11.465  0.0336 -0.6638  0.0704
  285TMC3    O1 4309   3.090   1.362  11.393  0.1505 -0.1395  0.0619
  285TMC3    O2 4310   3.020   0.667  11.479 -0.0372  0.2857  0.7638
  286MPD2     C 4311   2.589   4.534   1.573 -0.1502  0.1013  0.1429
  286MPD2    C1 4312   2.601   4.577   1.442  0.5727  0.1036  0.2038
  286MPD2    C2 4313   2.685   4.509   1.359  0.4341 -0.0276  0.3232
  286MPD2    C3 4314   2.762   4.407   1.410  0.2160  0.5539  0.5243
  286MPD2    C4 4315   2.764   4.374   1.542 -0.2536 -0.6816  0.2504
  286MPD2    C5 4316   2.678   4.437   1.625 -0.3247  0.4400  0.3166
  286MPD2     H 4317   2.680   4.533   1.254 -0.6948 -0.7992  0.1976
  286MPD2    H1 4318   2.830   4.299   1.584 -1.3299 -1.4060  0.6645
  286MPD2    H2 4319   2.517   4.573   1.644  0.2547  1.6602 -0.2929
  286MPD2    H3 4320   2.679   4.420   1.733 -1.7614 -1.9086 -0.0480
  286MPD2     N 4321   2.842   4.320   1.327 -0.0983  0.1523 -0.2205
  286MPD2    H5 4322   2.893   4.250   1.381 -0.9931 -0.7476 -0.5355
  286MPD2    N1 4323   2.515   4.685   1.409 -0.1075 -0.1961  0.0341
  286MPD2    H7 4324   2.471   0.007   1.487 -0.3932  1.7428 -1.2847
  287TMC3    C1 4325   2.953   4.243   1.138  0.3447  0.6504 -0.5261
  287TMC3    C2 4326   2.958   4.212   1.005  0.3151 -0.2120 -0.2919
  287TMC3    C3 4327   3.059   4.149   0.942  0.7577  0.3435 -0.2718
  287TMC3    C4 4328   3.063   4.206   1.206  0.1814  0.5474 -0.4138
  287TMC3    C5 4329   3.167   4.141   1.139 -0.0211 -0.1423  0.2972
  287TMC3    C6 4330   3.167   4.103   1.009  0.4844 -0.0456  0.3238
  287TMC3     C 4331   2.855   4.334   1.188 -0.1012  0.1908  0.0430
  287TMC3     O 4332   2.813   4.420   1.107  0.1316  0.3427  0.6263
  287TMC3     H 4333   2.866   4.228   0.951  1.5938  0.7392 -2.2019
  287TMC3    H1 4334   3.074   4.224   1.313 -1.1711 -2.5555  0.2321
  287TMC3    H2 4335   3.236   4.038   0.956  0.2854  0.6008 -0.7152
  287TMC3    C7 4336   3.270   4.086   1.226  1.0262  0.2149 -0.8011
  287TMC3    C8 4337   3.014   4.056   0.835 -0.2004 -0.4161  0.3382
  287TMC3    O1 4338   3.228   4.057   1.338  0.0394 -0.0372  0.2892
  287TMC3    O2 4339   3.073   3.948   0.830  0.1140 -0.0553  0.4372
  288TMC3    C1 4340   0.129   3.650  14.785  0.0109 -0.2853 -1.1460
  288TMC3    C2 4341   4.721   3.671  14.827  0.4890  0.3153 -0.0059
  288TMC3    C3 4342   4.682   3.801  14.855  0.7702 -0.0107  0.3779
  288TMC3    C4 4343   0.216   3.754  14.767  0.3700  0.2405  0.7628
  288TMC3    C5 4344   0.177   3.881  14.806  0.6232  0.5083  0.0127
  288TMC3    C6 4345   0.053   3.902  14.859 -0.0700 -0.6031 -0.0758
  288TMC3     C 4346   0.148   3.517  14.732 -0.4253  0.0814  0.0355
  288TMC3     O 4347   0.090   3.425  14.786  0.3544 -0.1207 -0.5769
  288TMC3     H 4348   4.653   3.587  14.831 -0.8523  1.4436  0.6011
  288TMC3    H1 4349   0.312   3.734  14.720  1.5440 -0.2336  3.3218
  288TMC3    H2 4350   0.032   4.006  14.880  2.3540 -0.1029 -0.0891
  288TMC3    C7 4351   0.269   3.989  14.817 -0.2988 -0.3810  0.1279
  288TMC3    C8 4352   4.592   3.837  14.961  0.1279  0.1708 -0.0127
  288TMC3    O1 4353   0.240   4.089  14.882  0.5090 -0.1262  0.1989
  288TMC3    O2 4354   4.636   3.923  15.038 -0.8338  0.2016 -0.4037
  289MPD2     C 4355   0.181   3.488  14.240  0.0655  0.5969  0.2082
  289MPD2    C1 4356   0.132   3.565  14.137 -0.2053  0.5420 -0.1316
  289MPD2    C2 4357   0.018   3.524  14.070 -0.0209 -0.7684 -0.2762
  289MPD2    C3 4358   4.663   3.422  14.122  0.7409 -0.1075 -0.3141
  289MPD2    C4 4359   4.712   3.348  14.229  0.0002  0.1792 -0.4476
  289MPD2    C5 4360   0.112   3.377  14.278  0.5404  0.3061  0.0182
  289MPD2     H 4361   4.705   3.581  13.986 -0.3341  0.4415  0.6718
  289MPD2    H1 4362   4.662   3.268  14.282 -1.0071  0.4366 -1.0131
  289MPD2    H2 4363   0.278   3.505  14.284  0.0882 -1.2255  0.8378
  289MPD2    H3 4364   0.150   3.310  14.354  1.8551  0.4462 -0.5104
  289MPD2     N 4365   4.539   3.387  14.081  0.4457  0.0503 -0.6908
  289MPD2    H5 4366   4.483   3.327  14.141 -2.9344  1.3858 -2.5700
  289MPD2    N1 4367   0.202   3.685  14.113  0.2323 -0.5256 -0.0606
  289MPD2    H7 4368   0.274   3.714  14.178  1.1510 -0.9543 -0.8951
  290TMC3    C1 4369   4.337   3.390  13.950  0.2310 -0.1125  0.1252
  290TMC3    C2 4370   4.267   3.431  13.849  0.5261  0.2773  0.1499
  290TMC3    C3 4371   4.144   3.387  13.819 -0.3128 -0.4018  1.5568
  290TMC3    C4 4372   4.288   3.291  14.030 -0.4025 -0.2253 -0.4391
  290TMC3    C5 4373   4.165   3.239  14.001  0.2296 -0.2195  0.0104
  290TMC3    C6 4374   4.087   3.287  13.897 -0.5973 -0.2472 -0.0880
  290TMC3     C 4375   4.473   3.433  13.966  0.5716 -0.3293  0.7928
  290TMC3     O 4376   4.519   3.508  13.881  0.4005 -0.4789  0.2595
  290TMC3     H 4377   4.309   3.502  13.779 -3.6221  2.8145  0.1919
  290TMC3    H1 4378   4.332   3.274  14.127 -0.4894  0.3253 -0.3031
  290TMC3    H2 4379   3.994   3.239  13.870  0.5413 -2.8334  0.5199
  290TMC3    C7 4380   4.098   3.181  14.116  0.2301 -0.5719 -0.3127
  290TMC3    C8 4381   4.057   3.482  13.763  0.0597 -0.3111  0.1570
  290TMC3    O1 4382   3.977   3.200  14.124 -0.2672  0.2899 -0.3894
  290TMC3    O2 4383   3.960   3.453  13.688  0.5408  0.0615  0.1261
  291MPD2     C 4384   4.424   3.576   0.636  0.6035  0.0866  0.1640
  291MPD2    C1 4385   4.452   3.441   0.658 -1.3249  0.5869 -1.0911
  291MPD2    C2 4386   4.583   3.399   0.661  0.0256  0.0667 -0.8374
  291MPD2    C3 4387   4.690   3.488   0.645 -0.0973  0.0540  0.1005
  291MPD2    C4 4388   4.656   3.621   0.619 -0.3124  0.0044 -0.4710
  291MPD2    C5 4389   4.524   3.661   0.617  0.3889  0.2750 -0.3274
  291MPD2     H 4390   4.602   3.292   0.666  0.6897  0.2227 -0.0743
  291MPD2    H1 4391   4.723   3.700   0.587  0.8264 -0.6169  0.4187
  291MPD2    H2 4392   4.327   3.624   0.643  0.0804 -0.5944 -2.1487
  291MPD2    H3 4393   4.501   3.764   0.594  1.8933  0.8969  0.9618
  291MPD2     N 4394   0.107   3.460   0.655 -0.1849 -0.6014 -0.4361
  291MPD2    H5 4395   0.165   3.541   0.635  0.0423 -0.2748  1.4915
  291MPD2    N1 4396   4.352   3.344   0.675  0.8180 -0.1455  0.2155
  291MPD2    H7 4397   4.398   3.255   0.692 -3.4449 -2.9691 -2.9129
  292TMC3    C1 4398   4.148   3.242   0.757  0.9543 -0.0178  0.4802
  292TMC3    C2 4399   4.031   3.269   0.827 -0.3528 -0.4346  0.2652
  292TMC3    C3 4400   3.940   3.168   0.840  0.4505  1.1482  0.5297
  292TMC3    C4 4401   4.166   3.120   0.689 -0.9964  1.0310  0.1617
  292TMC3    C5 4402   4.061   3.028   0.698  0.0701 -0.4292 -0.1986
  292TMC3    C6 4403   3.948   3.054   0.771 -0.2321 -0.1428 -0.6732
  292TMC3     C 4404   4.212   3.363   0.702 -0.3128 -0.3034  0.5792
  292TMC3     O 4405   4.144   3.469   0.717 -1.2544  1.0163  0.1798
  292TMC3     H 4406   4.019   3.364   0.876  1.7704 -0.2799  0.4848
  292TMC3    H1 4407   4.242   3.097   0.615 -0.6818 -0.6897  1.0329
  292TMC3    H2 4408   3.876   2.975   0.785  0.6218 -0.2563  3.1140
  292TMC3    C7 4409   4.061   2.909   0.613 -0.1009 -0.4671 -0.2138
  292TMC3    C8 4410   3.827   3.200   0.928  0.0393  0.9488 -0.2733
  292TMC3    O1 4411   4.168   2.852   0.593  0.0773  0.2466 -0.2963
  292TMC3    O2 4412   3.816   3.318   0.954 -0.1001  0.0169 -0.2384
  293MPD2     C 4413   1.282   0.226  12.712 -0.0928 -0.0125 -0.0889
  293MPD2    C1 4414   1.231   0.111  12.764  0.0593 -0.2963  0.1280
  293MPD2    C2 4415   1.278   0.057  12.882 -0.3918 -0.0788  0.0122
  293MPD2    C3 4416   1.377   0.124  12.957 -0.1269 -0.5208 -0.3891
  293MPD2    C4 4417   1.422   0.239  12.908 -0.3458  0.2337 -0.1922
  293MPD2    C5 4418   1.371   0.291  12.793 -0.1221 -0.0439 -0.1175
  293MPD2     H 4419   1.228   4.696  12.926 -3.5808  2.1152  0.6150
  293MPD2    H1 4420   1.498   0.300  12.954  3.0041 -1.7635 -3.0284
  293MPD2    H2 4421   1.247   0.281  12.625  0.1305 -1.1775 -0.9227
  293MPD2    H3 4422   1.412   0.386  12.763 -1.4932  0.5328 -0.1565
  293MPD2     N 4423   1.429   0.060  13.076  0.6374 -0.2429 -0.1952
  293MPD2    H5 4424   1.401   4.692  13.105 -0.7186  0.3634  0.4379
  293MPD2    N1 4425   1.140   0.040  12.677 -0.1424  0.0623 -0.1962
  293MPD2    H7 4426   1.109   0.080  12.589 -1.3589 -0.3802  0.0390
  294TMC3    C1 4427   0.990   4.605  12.606 -0.1031 -0.0678 -0.3449
  294TMC3    C2 4428   0.906   4.505  12.640  0.3804  0.6863  0.0049
  294TMC3    C3 4429   0.799   4.476  12.561  0.4636  0.5625 -0.1486
  294TMC3    C4 4430   0.972   4.672  12.488 -0.5583 -0.3509  0.0231
  294TMC3    C5 4431   0.877   4.624  12.398 -0.1466  0.1115 -0.6216
  294TMC3    C6 4432   0.787   4.524  12.437  0.2922  0.6353 -0.5148
  294TMC3     C 4433   1.090   4.648  12.707 -0.2632 -0.0188  0.1344
  294TMC3     O 4434   1.104   4.577  12.804 -0.0615  0.2181 -0.5312
  294TMC3     H 4435   0.912   4.471  12.742 -0.2844 -0.0348 -0.1927
  294TMC3    H1 4436   1.015   0.046  12.474 -0.2251 -0.2177  1.9847
  294TMC3    H2 4437   0.696   4.515  12.379  0.6965 -0.2873 -1.0011
  294TMC3    C7 4438   0.858   4.706  12.279 -0.3727  0.7400  0.0959
  294TMC3    C8 4439   0.736   4.355  12.592 -0.0315  0.3507 -0.6427
  294TMC3    O1 4440   0.882   0.103  12.291 -0.2347  0.4908  0.5147
  294TMC3    O2 4441   0.741   4.323  12.711  0.7172  0.2119 -0.9276
  295MPD2     C 4442   1.466   3.265   0.693  0.5972  0.3106 -0.3439
  295MPD2    C1 4443   1.565   3.359   0.736  0.0372 -0.1901 -0.4657
  295MPD2    C2 4444   1.524   3.457   0.831 -0.2642 -0.1091 -0.2616
  295MPD2    C3 4445   1.403   3.441   0.897  0.7126 -0.5092  0.2471
  295MPD2    C4 4446   1.317   3.342   0.859 -0.3940  0.3058 -0.3313
  295MPD2    C5 4447   1.346   3.259   0.757  0.5168 -0.4895 -0.5180
  295MPD2     H 4448   1.598   3.529   0.864 -0.8113 -1.2482  3.4262
  295MPD2    H1 4449   1.222   3.326   0.908 -1.1426  2.4868 -1.0476
  295MPD2    H2 4450   1.479   3.190   0.616  0.5554  1.6547 -1.6641
  295MPD2    H3 4451   1.279   3.178   0.729 -0.4666  0.3186 -0.5089
  295MPD2     N 4452   1.359   3.525   1.004  0.1771  0.4366  0.3138
  295MPD2    H5 4453   1.283   3.474   1.049  1.1984 -0.0448  1.5146
  295MPD2    N1 4454   1.698   3.364   0.676 -0.9000 -0.3981 -0.2338
  295MPD2    H7 4455   1.744   3.454   0.689  1.2059 -1.3063 -1.2400
  296TMC3    C1 4456   1.322   3.713   1.133 -0.2162  1.0681  0.4182
  296TMC3    C2 4457   1.384   3.814   1.196  0.3530  0.8551 -0.1409
  296TMC3    C3 4458   1.322   3.866   1.312  0.0398  0.3211  0.2405
  296TMC3    C4 4459   1.200   3.668   1.175 -0.0811  0.2667 -0.7836
  296TMC3    C5 4460   1.142   3.719   1.284 -0.1478  0.3524 -0.4770
  296TMC3    C6 4461   1.200   3.820   1.351 -0.5658 -0.3610  0.1446
  296TMC3     C 4462   1.402   3.648   1.032 -0.3025  0.4553  0.1581
  296TMC3     O 4463   1.488   3.717   0.979  0.5656  0.2199  0.3495
  296TMC3     H 4464   1.476   3.855   1.156 -0.4468  1.7651 -1.0128
  296TMC3    H1 4465   1.150   3.593   1.115 -1.1812  0.3530  0.0040
  296TMC3    H2 4466   1.144   3.857   1.436  1.6274  0.3258  1.2774
  296TMC3    C7 4467   1.003   3.684   1.318  0.1521  0.1910  0.2882
  296TMC3    C8 4468   1.377   3.995   1.353 -0.3826  0.4984 -0.1103
  296TMC3    O1 4469   0.937   3.758   1.392  0.2989  0.5278  0.4759
  296TMC3    O2 4470   1.495   4.007   1.322 -0.0057 -0.1559 -0.1157
  297MPD2     C 4471   3.682   0.318  16.459  0.2387  0.5372  0.1270
  297MPD2    C1 4472   3.652   0.423  16.369  0.3288  0.1853 -0.1027
  297MPD2    C2 4473   3.733   0.538  16.374 -0.1172  0.5400  0.1278
  297MPD2    C3 4474   3.832   0.553  16.473  0.0858 -0.2012 -0.5730
  297MPD2    C4 4475   3.859   0.448  16.563 -0.4938 -0.5865  0.0793
  297MPD2    C5 4476   3.780   0.332  16.555  0.4799 -0.2819  0.6277
  297MPD2     H 4477   3.715   0.618  16.303 -1.7767 -0.2726 -0.3799
  297MPD2    H1 4478   3.925   0.448  16.648 -0.5064 -0.1864  0.0905
  297MPD2    H2 4479   3.638   0.219  16.449 -2.0054  1.4036  1.5077
  297MPD2    H3 4480   3.811   0.245  16.612  2.1323  0.3797  0.7334
  297MPD2     N 4481   3.910   0.671  16.466  0.3643 -0.1881  0.3920
  297MPD2    H5 4482   3.882   0.727  16.386  0.9572  2.7544  2.2091
  297MPD2    N1 4483   3.542   0.415  16.287  0.5084 -0.4592  0.0931
  297MPD2    H7 4484   3.526   0.492  16.222 -0.4624  0.0987  0.9897
  298TMC3    C1 4485   3.347   0.338  16.200  0.1557  0.1412 -0.2306
  298TMC3    C2 4486   3.411   0.386  16.087  0.2658 -0.4003  0.1727
  298TMC3    C3 4487   3.330   0.454  15.998 -0.4046  0.1471 -0.1893
  298TMC3    C4 4488   3.222   0.372  16.233  0.5042  0.3783  0.0721
  298TMC3    C5 4489   3.154   0.454  16.151 -0.1974 -0.3484 -0.1118
  298TMC3    C6 4490   3.200   0.494  16.028 -0.0047  0.3293  0.2403
  298TMC3     C 4491   3.438   0.326  16.305 -0.1021  0.5029 -0.2090
  298TMC3     O 4492   3.412   0.249  16.397  0.1573  0.5210 -0.1808
  298TMC3     H 4493   3.507   0.350  16.053 -1.2148 -1.8805 -2.4286
  298TMC3    H1 4494   3.178   0.352  16.330  0.9089 -3.2603 -0.5163
  298TMC3    H2 4495   3.137   0.550  15.960 -1.5370 -0.2819  1.1819
  298TMC3    C7 4496   3.027   0.503  16.191 -0.0715 -0.3874 -0.2624
  298TMC3    C8 4497   3.385   0.480  15.868 -0.2070  0.7322 -0.0400
  298TMC3    O1 4498   2.956   0.446  16.270  0.8898 -0.0918  0.2884
  298TMC3    O2 4499   3.477   0.412  15.825  0.8622  0.5130  0.2639
  299MPD2     C 4500   4.231   0.305  10.128  0.5516  0.5518 -0.4845
  299MPD2    C1 4501   4.230   0.216  10.235  0.3448 -0.0540  0.0825
  299MPD2    C2 4502   4.143   0.105  10.236  0.2056 -0.2693 -0.3771
  299MPD2    C3 4503   4.054   0.089  10.137  0.5408  0.9861  0.6761
  299MPD2    C4 4504   4.039   0.184  10.041 -0.7774 -0.4981 -0.1207
  299MPD2    C5 4505   4.134   0.284  10.030 -0.2672 -0.1903 -0.6935
  299MPD2     H 4506   4.169   0.034  10.314 -2.0411  0.3011  0.8789
  299MPD2    H1 4507   3.951   0.189   9.978 -0.4586  0.4194 -0.5045
  299MPD2    H2 4508   4.308   0.380  10.117 -1.0274  1.8978 -2.1649
  299MPD2    H3 4509   4.121   0.362   9.956  0.5344 -1.8988 -2.6196
  299MPD2     N 4510   3.950   4.712  10.144 -0.6483 -0.2045 -0.4617
  299MPD2    H5 4511   3.879   4.715  10.072 -1.5938 -3.4134  0.3282
  299MPD2    N1 4512   4.321   0.237  10.344  0.3536  0.4056 -0.2668
  299MPD2    H7 4513   4.398   0.302  10.331  2.4921 -1.8479  1.1199
  300TMC3    C1 4514   3.811   4.544  10.242  0.0810 -0.6409 -0.4561
  300TMC3    C2 4515   3.694   4.610  10.216  0.7168 -0.6799  0.0508
  300TMC3    C3 4516   3.589   4.606  10.308  0.3042 -0.0456  0.3056
  300TMC3    C4 4517   3.809   4.452  10.344 -0.4515 -0.8122  0.0282
  300TMC3    C5 4518   3.704   4.453  10.428 -0.6898 -0.1513 -0.2538
  300TMC3    C6 4519   3.589   4.529  10.413  0.0579 -0.6260 -0.0497
  300TMC3     C 4520   3.938   4.613  10.243  0.7027  0.4733  0.0904
  300TMC3     O 4521   4.016   4.573  10.330 -0.2241  0.1732  0.5253
  300TMC3     H 4522   3.686   4.688  10.140 -1.4708  0.6659  1.6637
  300TMC3    H1 4523   3.892   4.386  10.370  1.0774  1.2128  0.2961
  300TMC3    H2 4524   3.511   4.529  10.489 -0.6902  0.1832 -0.8085
  300TMC3    C7 4525   3.722   4.370  10.541 -0.2315  0.0219  0.2691
  300TMC3    C8 4526   3.491   4.713  10.288 -0.0184  0.9557  0.5954
  300TMC3    O1 4527   3.770   4.258  10.526 -0.2017  0.3330 -0.3395
  300TMC3    O2 4528   3.467   0.022  10.172  0.1426 -0.0957  0.3958
  301MPD2     C 4529   1.035   1.557   2.121 -0.4181 -0.5789  0.3944
  301MPD2    C1 4530   0.960   1.572   2.006 -0.7187  0.1369 -0.0541
  301MPD2    C2 4531   0.993   1.498   1.900 -0.8127  0.0826 -1.0449
  301MPD2    C3 4532   1.091   1.401   1.904 -0.6800 -0.9505 -0.5756
  301MPD2    C4 4533   1.168   1.392   2.023  0.4055 -0.6131 -0.2015
  301MPD2    C5 4534   1.138   1.467   2.133 -0.4442 -0.6638  0.1385
  301MPD2     H 4535   0.927   1.504   1.814 -1.4774 -1.3421 -0.6360
  301MPD2    H1 4536   1.246   1.318   2.038  1.9035  1.1670  0.8423
  301MPD2    H2 4537   1.014   1.599   2.219  1.4669  0.2607  0.4167
  301MPD2    H3 4538   1.197   1.460   2.224  2.0369  0.5009 -1.3697
  301MPD2     N 4539   1.120   1.309   1.802 -0.2409 -0.1787 -0.0909
  301MPD2    H5 4540   1.189   1.237   1.822 -0.7209 -0.8838 -0.9659
  301MPD2    N1 4541   0.841   1.647   2.012 -0.3514 -0.5085  0.0690
  301MPD2    H7 4542   0.822   1.672   2.109 -0.1553  1.9390 -0.5131
  302TMC3    C1 4543   1.094   1.190   1.590 -0.2872  0.0433  0.2514
  302TMC3    C2 4544   1.226   1.168   1.595 -0.0088 -0.1817  0.3950
  302TMC3    C3 4545   1.278   1.085   1.500 -0.3647 -0.7777 -0.2019
  302TMC3    C4 4546   1.005   1.123   1.496 -0.2878 -0.2727  0.1433
  302TMC3    C5 4547   1.061   1.050   1.401 -0.6046  1.2282  0.2657
  302TMC3    C6 4548   1.205   1.030   1.398  0.6385  0.4269  0.1076
  302TMC3     C 4549   1.049   1.297   1.680  0.1182 -0.5253 -0.9674
  302TMC3     O 4550   0.939   1.333   1.645 -0.8428 -0.2214  0.1532
  302TMC3     H 4551   1.295   1.216   1.663  1.5957 -1.2445 -0.4642
  302TMC3    H1 4552   0.899   1.136   1.513  0.1568 -0.2187  2.8391
  302TMC3    H2 4553   1.251   0.971   1.318  0.9216 -0.2779  0.7892
  302TMC3    C7 4554   0.974   1.011   1.298 -0.7537  0.3530 -0.1629
  302TMC3    C8 4555   1.407   1.031   1.517  0.4009  0.0825 -0.3913
  302TMC3    O1 4556   1.026   0.939   1.213 -0.1361 -0.2032  0.3841
  302TMC3    O2 4557   1.486   1.033   1.426 -0.2221 -0.3399 -0.3773
  303MPD2     C 4558   1.727   4.417  10.841 -0.1783 -0.1103  0.6025
  303MPD2    C1 4559   1.650   4.328  10.768  0.8366 -0.6418 -0.0590
  303MPD2    C2 4560   1.642   4.338  10.628  0.3904 -0.7671  0.4606
  303MPD2    C3 4561   1.724   4.426  10.565  0.0075 -0.2196 -0.0073
  303MPD2    C4 4562   1.803   4.508  10.639  0.4369 -0.3873  0.1946
  303MPD2    C5 4563   1.799   4.506  10.775 -0.2836  0.0825  0.2934
  303MPD2     H 4564   1.580   4.267  10.575 -0.1850  0.6189 -0.7002
  303MPD2    H1 4565   1.868   4.573  10.583 -0.9606  1.1860  0.4108
  303MPD2    H2 4566   1.742   4.404  10.947  1.1729 -0.4214  0.3755
  303MPD2    H3 4567   1.844   4.582  10.838 -2.3651 -0.8315  2.8511
  303MPD2     N 4568   1.708   4.459  10.431  0.1422  0.0899  0.1899
  303MPD2    H5 4569   1.764   4.536  10.396 -0.7029  0.6318  0.0449
  303MPD2    N1 4570   1.559   4.239  10.845  0.6271 -0.5214  0.0612
  303MPD2    H7 4571   1.523   4.278  10.931  0.0672 -0.7207 -0.0847
  304TMC3    C1 4572   1.380   4.076  10.840 -0.1853 -0.0215 -0.9119
  304TMC3    C2 4573   1.312   4.164  10.922  0.2973  0.4444 -0.4181
  304TMC3    C3 4574   1.187   4.127  10.947 -0.0380  0.6172 -0.5711
  304TMC3    C4 4575   1.330   3.958  10.781  0.6961 -0.1113  0.6634
  304TMC3    C5 4576   1.196   3.929  10.810 -0.4604  0.5430 -0.5322
  304TMC3    C6 4577   1.128   4.012  10.898 -0.0334 -0.1852 -0.8090
  304TMC3     C 4578   1.512   4.124  10.788  1.4892 -0.0190  0.2523
  304TMC3     O 4579   1.575   4.053  10.712 -0.1792  0.5369  0.0900
  304TMC3     H 4580   1.342   4.267  10.941 -2.1794  1.1882 -0.6420
  304TMC3    H1 4581   1.387   3.897  10.712 -0.8448 -0.2342 -0.4926
  304TMC3    H2 4582   1.041   3.979  10.955  0.0057  1.3341  0.1312
  304TMC3    C7 4583   1.108   3.859  10.717 -0.0892  0.6888 -0.1729
  304TMC3    C8 4584   1.103   4.245  10.923 -1.0067  0.1519  0.1801
  304TMC3    O1 4585   0.986   3.862  10.740 -0.6241  0.2013 -0.3731
  304TMC3    O2 4586   1.134   4.352  10.971 -0.4275  0.2083 -0.4645
  305MPD2     C 4587   0.078   1.801  14.046 -0.1345 -0.4258  0.0039
  305MPD2    C1 4588   4.668   1.831  14.073  0.3530 -0.0985  0.8051
  305MPD2    C2 4589   4.590   1.844  13.964 -0.7855  0.3707  0.0506
  305MPD2    C3 4590   4.636   1.809  13.836  0.1702 -0.3434  0.1786
  305MPD2    C4 4591   0.040   1.783  13.808  0.4123 -0.2968 -0.3593
  305MPD2    C5 4592   0.130   1.788  13.918 -0.1212  0.9769  0.0217
  305MPD2     H 4593   4.485   1.864  13.983 -0.6095 -1.8192  3.2722
  305MPD2    H1 4594   0.072   1.758  13.708  0.6387 -0.4550 -0.2481
  305MPD2    H2 4595   0.146   1.796  14.130  0.6978 -3.1033 -0.8270
  305MPD2    H3 4596   0.235   1.761  13.912  0.1995  2.1800  0.1968
  305MPD2     N 4597   4.552   1.810  13.725  0.2640 -0.1369  0.1931
  305MPD2    H5 4598   4.606   1.788  13.642  1.0270 -0.8953  0.8911
  305MPD2    N1 4599   4.636   1.838  14.207  0.2003  0.3380 -0.1312
  305MPD2    H7 4600   4.709   1.825  14.276 -0.7280 -1.6932  0.4575
  306TMC3    C1 4601   4.531   1.896  14.412  0.0600  0.9481 -0.4219
  306TMC3    C2 4602   4.634   1.832  14.483  0.6806  0.6766 -0.0057
  306TMC3    C3 4603   4.643   1.851  14.620  0.2103 -0.2577 -0.2569
  306TMC3    C4 4604   4.426   1.962  14.482 -0.5917 -0.3486  0.4205
  306TMC3    C5 4605   4.438   1.974  14.619 -0.5373  0.1885 -0.2688
  306TMC3    C6 4606   4.548   1.924  14.692  0.5090 -0.0530 -0.0707
  306TMC3     C 4607   4.524   1.883  14.265 -0.5935  0.4429 -0.1003
  306TMC3     O 4608   4.419   1.903  14.204 -0.4242  0.6915 -0.1322
  306TMC3     H 4609   4.706   1.762  14.441 -0.0211  0.2568 -0.5098
  306TMC3    H1 4610   4.343   2.003  14.427  0.0943  0.9361  0.3248
  306TMC3    H2 4611   4.572   1.924  14.798 -0.7393 -0.3625  0.2131
  306TMC3    C7 4612   4.370   2.088  14.683  0.0515 -0.7374 -0.0904
  306TMC3    C8 4613   4.716   1.752  14.696  0.4619 -0.0395  0.5797
  306TMC3    O1 4614   4.270   2.146  14.636  0.0956  0.3000  0.5074
  306TMC3    O2 4615   0.000   1.640  14.651  0.1124  0.0436 -0.4398
  307MPD2     C 4616   2.300   4.555   0.685  0.1265 -0.3214  0.2050
  307MPD2    C1 4617   2.235   4.647   0.606 -0.0615 -1.3479  0.1454
  307MPD2    C2 4618   2.168   0.018   0.669  0.0640 -0.3515  0.2715
  307MPD2    C3 4619   2.170   0.040   0.804  0.6078 -0.1766  0.0515
  307MPD2    C4 4620   2.247   4.680   0.887  0.2931  0.2979  0.4978
  307MPD2    C5 4621   2.309   4.580   0.824 -0.1698 -0.1194 -0.3644
  307MPD2     H 4622   2.120   0.087   0.600 -1.8799 -1.0842  0.8813
  307MPD2    H1 4623   2.251   4.689   0.995  0.5663 -1.1414  0.5997
  307MPD2    H2 4624   2.351   4.468   0.644 -2.1026 -0.7306 -1.6643
  307MPD2    H3 4625   2.367   4.513   0.886 -1.6636 -2.2112 -1.2079
  307MPD2     N 4626   2.080   0.145   0.845  0.1742 -0.1474 -0.1736
  307MPD2    H5 4627   2.033   0.206   0.779 -0.3603 -2.5551 -2.0446
  307MPD2    N1 4628   2.224   4.646   0.471  0.0001 -0.6209 -0.5900
  307MPD2    H7 4629   2.179   4.724   0.425  1.7593 -0.0212 -1.2701
  308TMC3    C1 4630   1.764   0.369   1.054  0.0965 -0.0672  0.0145
  308TMC3    C2 4631   1.772   0.468   0.959 -0.3687  0.2869  0.2817
  308TMC3    C3 4632   1.893   0.477   0.905  0.2715  0.0499  0.0543
  308TMC3    C4 4633   1.856   0.266   1.071 -0.0952 -0.2867  0.4339
  308TMC3    C5 4634   1.971   0.279   1.000 -0.2300 -0.6265 -0.2347
  308TMC3    C6 4635   1.992   0.380   0.909  0.8068 -0.2470  0.4957
  308TMC3     C 4636   1.631   0.343   1.103  0.0701  0.3974 -1.2613
  308TMC3     O 4637   1.630   0.257   1.195 -0.2547 -0.1078 -0.1968
  308TMC3     H 4638   1.716   0.561   0.964 -1.7343 -0.6909  3.1505
  308TMC3    H1 4639   1.854   0.202   1.159  0.7247  1.0231  1.3965
  308TMC3    H2 4640   2.092   0.401   0.872  0.7353 -0.6575  0.0676
  308TMC3    C7 4641   2.055   0.168   0.985  0.5744  0.3376  0.3103
  308TMC3    C8 4642   1.926   0.595   0.837  0.1398  0.3470  0.6280
  308TMC3    O1 4643   2.103   0.116   1.084  0.0877  0.1337 -0.3747
  308TMC3    O2 4644   2.043   0.617   0.822  0.0536  0.1230 -0.2583
  309MPD2     C 4645   1.590   4.598  17.005  0.5714 -0.3100 -0.6417
  309MPD2    C1 4646   1.525   4.698  16.938  0.2254 -0.0504 -0.2433
  309MPD2    C2 4647   1.448   0.053  17.014 -0.2647  0.4821  0.1792
  309MPD2    C3 4648   1.430   0.044  17.152  0.6242 -0.5268  0.3810
  309MPD2    C4 4649   1.487   4.664  17.222  1.1064  0.0062  0.2801
  309MPD2    C5 4650   1.568   4.582  17.145 -0.9372 -0.1244 -0.2533
  309MPD2     H 4651   1.403   0.128  16.950 -2.6885 -0.4002  0.8405
  309MPD2    H1 4652   1.479   4.651  17.330 -0.4526  0.3891  0.2041
  309MPD2    H2 4653   1.651   4.529  16.948  1.8243 -2.2623  3.0231
  309MPD2    H3 4654   1.617   4.497  17.192 -2.2001  0.4366  2.0946
  309MPD2     N 4655   1.352   0.136  17.231 -0.3356 -0.6700 -0.6700
  309MPD2    H5 4656   1.329   0.116  17.328 -1.4399 -2.8686 -1.3962
  309MPD2    N1 4657   1.536   4.722  16.799  0.2596  0.2663  0.3654
  309MPD2    H7 4658   1.498   0.088  16.774  3.5793  1.1343 -1.4923
  310TMC3    C1 4659   1.626   4.701  16.572  0.1451 -0.0735  0.2050
  310TMC3    C2 4660   1.582   0.107  16.549 -0.6667 -0.4122 -0.1848
  310TMC3    C3 4661   1.645   0.169  16.445  0.0007 -0.0045  0.2691
  310TMC3    C4 4662   1.713   4.632  16.482  0.7435  0.3347  0.7592
  310TMC3    C5 4663   1.760   4.710  16.380 -0.1265  0.2008 -0.6610
  310TMC3    C6 4664   1.743   0.119  16.368 -1.0172  0.5177 -0.1831
  310TMC3     C 4665   1.615   4.652  16.709  0.0907 -0.9470 -0.1943
  310TMC3     O 4666   1.664   4.541  16.723 -0.1047  0.1008 -0.2066
  310TMC3     H 4667   1.519   0.166  16.614  0.1344 -2.0878  2.0759
  310TMC3    H1 4668   1.729   4.525  16.487 -1.8857 -0.0798  0.2623
  310TMC3    H2 4669   1.764   0.179  16.280 -1.1359 -0.1158 -0.6502
  310TMC3    C7 4670   1.848   4.638  16.294  0.2720  0.6863 -0.0044
  310TMC3    C8 4671   1.630   0.311  16.441  0.6290 -0.1324 -0.4306
  310TMC3    O1 4672   1.843   4.516  16.293  0.2705  0.4800  0.2002
  310TMC3    O2 4673   1.515   0.351  16.434  0.1891  0.0669  0.4288
  311MPD2     C 4674   3.543   1.562  12.968 -0.5778 -0.1684 -0.2457
  311MPD2    C1 4675   3.511   1.678  12.902 -0.9742  0.6273 -0.6957
  311MPD2    C2 4676   3.384   1.719  12.918 -0.3955  0.3317 -0.2411
  311MPD2    C3 4677   3.300   1.657  13.004  0.5364  0.0286 -0.4679
  311MPD2    C4 4678   3.328   1.534  13.061 -0.0820  0.0311  0.0756
  311MPD2    C5 4679   3.454   1.497  13.049  0.2725  0.2847  0.5522
  311MPD2     H 4680   3.352   1.811  12.870  0.3411  0.2381 -0.9091
  311MPD2    H1 4681   3.260   1.489  13.133  0.4233  0.0661  0.5674
  311MPD2    H2 4682   3.636   1.510  12.950  0.4929  1.4676  0.5776
  311MPD2    H3 4683   3.489   1.405  13.094 -0.1781 -0.1631 -0.0027
  311MPD2     N 4684   3.172   1.727  13.025 -0.0888  0.2706 -0.2712
  311MPD2    H5 4685   3.133   1.779  12.947 -2.1844 -0.4160  0.3231
  311MPD2    N1 4686   3.597   1.747  12.809 -0.0052  0.3363  0.0226
  311MPD2    H7 4687   3.555   1.825  12.759 -1.6511 -0.1661  0.6060
  312TMC3    C1 4688   3.003   1.811  13.163 -0.0309  0.2032  0.0187
  312TMC3    C2 4689   2.908   1.818  13.063 -0.9772 -0.4730  1.2988
  312TMC3    C3 4690   2.799   1.905  13.080  0.0524  0.4710 -0.4622
  312TMC3    C4 4691   2.984   1.875  13.282  0.6588  0.1265 -0.0041
  312TMC3    C5 4692   2.885   1.973  13.285 -0.1903 -0.3128 -0.3637
  312TMC3    C6 4693   2.793   1.984  13.184 -0.2180 -0.4475 -0.1973
  312TMC3     C 4694   3.119   1.729  13.147  0.1193  0.1422 -0.0861
  312TMC3     O 4695   3.169   1.687  13.250  0.1578 -0.0217 -0.2226
  312TMC3     H 4696   2.904   1.748  12.981  0.1626  0.5996  0.3273
  312TMC3    H1 4697   3.060   1.880  13.359 -1.8371  1.5858  2.3555
  312TMC3    H2 4698   2.717   2.061  13.190  0.4943  0.0399  2.4667
  312TMC3    C7 4699   2.858   2.047  13.408 -0.6422 -0.4855  0.2091
  312TMC3    C8 4700   2.720   1.922  12.967  0.5161 -0.1485  0.6454
  312TMC3    O1 4701   2.771   2.136  13.405  0.6517 -0.3981 -0.1758
  312TMC3    O2 4702   2.748   2.027  12.904  0.0796 -0.2323  0.1765
  313MPD2     C 4703   3.324   0.184  10.780  0.1262  0.0337 -0.0047
  313MPD2    C1 4704   3.214   0.261  10.742 -0.7549  0.2285 -0.1178
  313MPD2    C2 4705   3.128   0.210  10.648 -0.1109 -0.0057  0.6239
  313MPD2    C3 4706   3.141   0.077  10.611 -0.1529 -0.2075 -0.6979
  313MPD2    C4 4707   3.255   0.008  10.641  0.3436 -0.1334  0.2840
  313MPD2    C5 4708   3.346   0.063  10.726 -0.0087  0.6376  0.7752
  313MPD2     H 4709   3.052   0.275  10.606  0.4419 -0.0582 -0.4720
  313MPD2    H1 4710   3.269   4.639  10.588 -2.1731 -1.8817  2.6730
  313MPD2    H2 4711   3.399   0.223  10.848 -0.6884 -0.4714  1.1822
  313MPD2    H3 4712   3.442   0.015  10.742  0.4311  1.8507  1.7995
  313MPD2     N 4713   3.050   0.009  10.531 -0.2693  0.3672 -1.0167
  313MPD2    H5 4714   3.076   4.640  10.501 -1.2836 -0.3342  0.2761
  313MPD2    N1 4715   3.190   0.392  10.795  0.2000  0.1642 -0.1531
  313MPD2    H7 4716   3.117   0.448  10.752 -1.4128 -1.5923  0.2762
  314TMC3    C1 4717   3.196   0.577  10.953 -0.0884  0.1466  0.3606
  314TMC3    C2 4718   3.274   0.664  11.029 -0.0822  0.3279 -0.4694
  314TMC3    C3 4719   3.205   0.769  11.086  0.3522 -0.1107  0.0368
  314TMC3    C4 4720   3.064   0.590  10.935  0.0499  0.0082 -0.7491
  314TMC3    C5 4721   3.001   0.703  10.986 -0.0432  0.1957 -0.2348
  314TMC3    C6 4722   3.069   0.788  11.064 -0.5536 -0.3213  0.1704
  314TMC3     C 4723   3.263   0.456  10.890 -0.5364 -0.8033 -0.0129
  314TMC3     O 4724   3.364   0.416  10.944 -0.1605 -0.5149  0.3538
  314TMC3     H 4725   3.380   0.641  11.041 -0.3402 -0.7617 -0.2762
  314TMC3    H1 4726   3.007   0.513  10.884 -2.2257  0.4674  1.0551
  314TMC3    H2 4727   3.028   0.874  11.116  1.1841  2.2601 -2.7021
  314TMC3    C7 4728   2.899   0.765  10.915 -0.1740 -0.3738  1.0332
  314TMC3    C8 4729   3.285   0.893  11.110  0.5495 -0.0246 -0.4400
  314TMC3    O1 4730   2.799   0.703  10.879  0.5227  0.1141 -0.1529
  314TMC3    O2 4731   3.227   1.002  11.111 -0.4303 -0.7107 -0.2764
  315MPD2     C 4732   2.461   0.421  17.496 -0.5563 -0.1888  0.0523
  315MPD2    C1 4733   2.551   0.417  17.606  0.9520 -0.0065 -0.5952
  315MPD2    C2 4734   2.666   0.499  17.606  0.2597  0.2317 -0.0660
  315MPD2    C3 4735   2.690   0.588  17.503  0.2863 -0.3277  0.1154
  315MPD2    C4 4736   2.584   0.602  17.410  0.6798 -0.2308 -0.3995
  315MPD2    C5 4737   2.467   0.530  17.412 -0.0106 -0.1142  0.0281
  315MPD2     H 4738   2.727   0.497  17.696  0.1718  0.6171  0.0025
  315MPD2    H1 4739   2.580   0.683  17.338  0.2910 -0.1450 -0.2833
  315MPD2    H2 4740   2.376   0.355  17.479 -0.8349  0.2127 -0.1278
  315MPD2    H3 4741   2.402   0.548  17.327  0.5413 -1.8319 -0.7544
  315MPD2     N 4742   2.807   0.670  17.504  0.4477 -0.5193 -0.0672
  315MPD2    H5 4743   2.875   0.650  17.577  0.1953 -0.8272  0.0811
  315MPD2    N1 4744   2.527   0.333   0.013 -0.1900  0.0181  0.0059
  315MPD2    H7 4745   2.588   0.338   0.094 -0.7795  1.5002  0.3708
  316TMC3    C1 4746   2.960   0.844  17.428 -1.0916 -0.3353  0.2672
  316TMC3    C2 4747   3.027   0.847  17.556 -0.3923  0.0468 -0.2484
  316TMC3    C3 4748   3.156   0.895  17.567  0.3144  0.6067 -0.4021
  316TMC3    C4 4749   3.031   0.887  17.317 -0.4194 -0.2050  0.0530
  316TMC3    C5 4750   3.156   0.929  17.339  0.2387  0.1655  0.5504
  316TMC3    C6 4751   3.222   0.935  17.458 -0.3128  0.4008  0.2553
  316TMC3     C 4752   2.834   0.771  17.407  0.1757 -0.1614  1.1060
  316TMC3     O 4753   2.773   0.795  17.303 -0.0955  0.1163  0.6485
  316TMC3     H 4754   2.972   0.806  17.641  0.8279 -0.2884  0.3850
  316TMC3    H1 4755   2.990   0.888  17.217 -0.2255  0.4956 -0.0211
  316TMC3    H2 4756   3.327   0.960  17.465  0.2178 -1.3045 -1.4966
  316TMC3    C7 4757   3.237   0.971  17.230 -0.0946 -0.0424  0.3320
  316TMC3    C8 4758   3.227   0.890  17.695 -0.3362  1.2967  0.2036
  316TMC3    O1 4759   3.360   0.946  17.230 -0.0012  1.0377 -0.1044
  316TMC3    O2 4760   3.324   0.966   0.000  0.0722 -0.8033 -0.4301
  317MPD2     C 4761   4.171   3.255  12.909 -0.4005  0.4413 -0.0370
  317MPD2    C1 4762   4.257   3.201  12.812  0.6259 -0.5967 -0.0109
  317MPD2    C2 4763   4.393   3.206  12.840 -0.7806 -0.1526 -0.5467
  317MPD2    C3 4764   4.439   3.259  12.956 -0.3936 -0.3513 -0.0353
  317MPD2    C4 4765   4.356   3.317  13.044 -0.1472 -0.2068 -0.1663
  317MPD2    C5 4766   4.224   3.313  13.022  0.0734 -0.2582  0.3458
  317MPD2     H 4767   4.462   3.168  12.766  1.0927  0.6932  0.7597
  317MPD2    H1 4768   4.400   3.360  13.133  1.1435 -1.8706 -0.0055
  317MPD2    H2 4769   4.064   3.245  12.913 -0.1693 -1.5165  1.2691
  317MPD2    H3 4770   4.153   3.350  13.095 -1.9145 -0.2909 -1.5554
  317MPD2     N 4771   4.571   3.227  12.977 -0.0988  0.2565  0.2036
  317MPD2    H5 4772   4.616   3.162  12.913  0.8900 -0.7150  1.8767
  317MPD2    N1 4773   4.206   3.135  12.696  0.1548  0.0370 -0.7017
  317MPD2    H7 4774   4.276   3.092  12.637 -0.1836  1.8306 -2.3921
  318TMC3    C1 4775   0.056   3.206  13.089 -0.2088  0.3155 -0.3192
  318TMC3    C2 4776   0.045   3.067  13.092  0.3465 -0.1685  0.1673
  318TMC3    C3 4777   0.158   3.002  13.122 -0.4744  0.0826 -0.5460
  318TMC3    C4 4778   0.166   3.267  13.148 -0.0858 -0.3066  0.1622
  318TMC3    C5 4779   0.269   3.191  13.195 -0.0443 -0.0416  0.5220
  318TMC3    C6 4780   0.269   3.060  13.184  0.0918  1.1596 -0.2862
  318TMC3     C 4781   4.652   3.280  13.073 -0.0763  0.0970 -0.4118
  318TMC3     O 4782   4.630   3.378  13.143 -0.4469 -0.2435 -0.0233
  318TMC3     H 4783   4.696   3.026  13.024  0.7537  1.0401 -0.9976
  318TMC3    H1 4784   0.162   3.372  13.176  0.4945  0.1768 -1.5428
  318TMC3    H2 4785   0.340   2.993  13.229  0.1641  2.2162  1.1691
  318TMC3    C7 4786   0.382   3.269  13.254 -0.1621  0.4084  0.0470
  318TMC3    C8 4787   0.145   2.859  13.137  0.0483  0.1900  0.4564
  318TMC3    O1 4788   0.375   3.391  13.279 -0.1527 -0.4112 -0.3818
  318TMC3    O2 4789   0.246   2.793  13.155 -0.0352  0.6447  0.2206
  319MPD2     C 4790   1.062   4.700  16.401 -0.6661 -0.1771 -0.7358
  319MPD2    C1 4791   0.990   4.678  16.516  0.1918  0.2070 -0.5411
  319MPD2    C2 4792   0.859   4.714  16.520 -0.4737 -0.3294 -0.3379
  319MPD2    C3 4793   0.789   0.031  16.410  0.7275 -0.2480 -0.0647
  319MPD2    C4 4794   0.863   0.045  16.295  0.3450  0.8126  0.6618
  319MPD2    C5 4795   0.996   0.023  16.295 -0.5298  0.0068  0.0358
  319MPD2     H 4796   0.806   4.688  16.611 -1.8750  0.7292 -0.8450
  319MPD2    H1 4797   0.822   0.080  16.201  0.7408 -1.9076 -0.5219
  319MPD2    H2 4798   1.170   4.693  16.396 -0.4545  1.7530  1.1398
  319MPD2    H3 4799   1.055   0.033  16.204  0.7600  0.9892  0.9868
  319MPD2     N 4800   0.647   0.053  16.417 -0.2361 -0.2103 -0.2928
  319MPD2    H5 4801   0.597   0.081  16.333  0.1085  1.7353  0.1330
  319MPD2    N1 4802   1.052   4.641  16.640 -0.4874  0.0963  0.1809
  319MPD2    H7 4803   0.993   4.636  16.722  0.0833 -2.9307  0.4207
  320TMC3    C1 4804   0.427   0.044  16.487  0.1391  0.3491  0.1123
  320TMC3    C2 4805   0.399   0.119  16.374  0.4835 -0.8191  0.4035
  320TMC3    C3 4806   0.316   0.067  16.282  0.0364  0.1738  0.5402
  320TMC3    C4 4807   0.350   4.660  16.508  0.9864 -0.2364  0.2053
  320TMC3    C5 4808   0.266   4.613  16.412 -0.8648 -0.5085 -0.0075
  320TMC3    C6 4809   0.248   4.673  16.291  0.5570 -0.4137 -0.3549
  320TMC3     C 4810   0.565   0.031  16.524  0.6134 -0.4475  0.1108
  320TMC3     O 4811   0.596   4.710  16.636 -0.1345 -0.2732  0.0348
  320TMC3     H 4812   0.454   0.212  16.364 -1.6520  0.5118  0.9469
  320TMC3    H1 4813   0.359   4.608  16.602  1.4462  0.8220  0.7547
  320TMC3    H2 4814   0.191   4.634  16.208 -0.4886 -2.8904  1.5016
  320TMC3    C7 4815   0.234   4.473  16.424  0.5573  0.4019 -0.7698
  320TMC3    C8 4816   0.258   0.167  16.199  0.0768 -0.2324  0.2664
  320TMC3    O1 4817   0.296   4.417  16.511  0.1886  0.8839  0.7961
  320TMC3    O2 4818   0.243   0.282  16.248 -0.4867 -0.3397  0.1959
  321TMC3    C1 4819   1.210   4.568  16.798 -0.2924 -0.1283  0.2096
  321TMC3    C2 4820   1.302   4.463  16.806 -0.3299 -0.3824 -0.6582
  321TMC3    C3 4821   1.262   4.350  16.878  0.1165  0.0208  0.6491
  321TMC3    C4 4822   1.100   4.570  16.876  0.4098  0.3560  0.4900
  321TMC3    C5 4823   1.075   4.458  16.957  0.0987 -0.4551  0.2139
  321TMC3    C6 4824   1.144   4.342  16.945  0.9219  0.3668  0.1037
  321TMC3     C 4825   1.184   4.602  16.654 -0.1479 -0.2328  0.2737
  321TMC3     O 4826   1.263   4.565  16.565 -0.0510  0.0211 -0.4947
  321TMC3     H 4827   1.391   4.477  16.746  0.5911  0.4158  0.8646
  321TMC3    H1 4828   1.034   4.653  16.897 -0.0530 -0.0001  0.4445
  321TMC3    H2 4829   1.105   4.255  16.995  3.8520 -0.7006  0.5517
  321TMC3    C7 4830   1.054   4.495  17.095 -0.3212  0.8043  0.1397
  321TMC3    C8 4831   1.357   4.271  16.949  0.4705 -0.4469  0.3482
  321TMC3    O1 4832   0.999   4.603  17.122  0.3231 -0.0091 -0.2918
  321TMC3    O2 4833   1.321   4.251  17.064 -0.1975 -0.1399 -0.1480
  322MPD2     C 4834   4.258   1.124  13.699  0.6800 -0.2681 -0.1133
  322MPD2    C1 4835   4.342   1.069  13.795  0.0556  1.0344  0.0113
  322MPD2    C2 4836   4.385   0.940  13.773 -0.7098  0.1626  0.6934
  322MPD2    C3 4837   4.374   0.881  13.650  0.7296  1.8351  0.2271
  322MPD2    C4 4838   4.299   0.938  13.553  0.2838  0.1034  0.6173
  322MPD2    C5 4839   4.243   1.058  13.580  0.4267  0.2781 -0.4710
  322MPD2     H 4840   4.451   0.893  13.846  0.9223 -3.4840 -3.1647
  322MPD2    H1 4841   4.291   0.900  13.452  0.7903 -2.6708  1.6168
  322MPD2    H2 4842   4.205   1.218  13.710  0.2832 -0.6523  1.2302
  322MPD2    H3 4843   4.181   1.108  13.505 -1.0437  0.6258  0.9744
  322MPD2     N 4844   4.448   0.761  13.636  0.5487  0.0626  0.4904
  322MPD2    H5 4845   4.505   0.736  13.716  0.8819 -1.0774 -0.1123
  322MPD2    N1 4846   4.357   1.126  13.925 -0.2614  0.1634 -0.4233
  322MPD2    H7 4847   4.426   1.082  13.985  1.5205  2.5932 -0.6626
  323TMC3    C1 4848   4.393   1.318  14.078 -1.0991 -0.5578  0.3217
  323TMC3    C2 4849   4.480   1.425  14.075  0.2905  0.8279  0.0992
  323TMC3    C3 4850   4.553   1.447  14.193  0.2272 -0.9256  0.1698
  323TMC3    C4 4851   4.367   1.243  14.186 -0.1397 -0.1433  0.8983
  323TMC3    C5 4852   4.433   1.275  14.304 -0.1477  0.7861 -0.2169
  323TMC3    C6 4853   4.529   1.371  14.306 -0.2185 -0.4550 -0.8376
  323TMC3     C 4854   4.339   1.261  13.955  0.4211  0.2587  0.2737
  323TMC3     O 4855   4.304   1.348  13.880  0.1410  0.5066  0.4184
  323TMC3     H 4856   4.484   1.497  13.994  2.3051  2.1509  1.3542
  323TMC3    H1 4857   4.291   1.166  14.185 -1.0847  0.8109 -2.3300
  323TMC3    H2 4858   4.601   1.376  14.387 -0.0275 -2.3031 -0.8828
  323TMC3    C7 4859   4.437   1.174  14.404  0.2282 -0.3228 -0.2299
  323TMC3    C8 4860   4.694   1.473  14.169  0.1954  0.0646  0.3112
  323TMC3    O1 4861   4.365   1.078  14.382  0.1099  0.0041 -0.1465
  323TMC3    O2 4862   0.041   1.475  14.268  0.0210 -0.0171  0.1479
  324MPD2     C 4863   2.041   2.739  15.004 -0.0323  0.4685  0.0102
  324MPD2    C1 4864   2.021   2.620  14.940  0.1084 -0.8043  0.0302
  324MPD2    C2 4865   1.898   2.558  14.953 -0.0590 -0.2029 -0.4119
  324MPD2    C3 4866   1.792   2.616  15.022  0.0040 -0.3689  0.0184
  324MPD2    C4 4867   1.814   2.734  15.080  0.1335  0.1163 -0.0881
  324MPD2    C5 4868   1.941   2.791  15.078  1.2681  0.6073 -0.6077
  324MPD2     H 4869   1.888   2.457  14.913  0.1979 -0.5853  0.5018
  324MPD2    H1 4870   1.740   2.803  15.119  0.0760  0.6048 -1.0761
  324MPD2    H2 4871   2.135   2.793  14.997 -0.1274  0.6883  0.4507
  324MPD2    H3 4872   1.948   2.889  15.124  2.1125 -1.0021  2.6464
  324MPD2     N 4873   1.655   2.568  15.014  0.0892 -0.3123 -0.0553
  324MPD2    H5 4874   1.586   2.615  15.072  0.0106  0.1743 -0.5530
  324MPD2    N1 4875   2.123   2.562  14.853 -0.1958  0.0119  0.7566
  324MPD2    H7 4876   2.106   2.466  14.825 -0.9521  0.2508  0.3807
  325TMC3    C1 4877   1.473   2.425  14.961 -0.3968 -0.3672  0.5305
  325TMC3    C2 4878   1.436   2.290  14.967 -0.1696  0.4211  0.1962
  325TMC3    C3 4879   1.306   2.271  14.928 -0.0298 -0.3236  0.1774
  325TMC3    C4 4880   1.388   2.529  14.924 -0.5390  0.5000 -0.5010
  325TMC3    C5 4881   1.262   2.500  14.893  0.2663 -0.2669  0.8060
  325TMC3    C6 4882   1.217   2.373  14.900  0.0071  0.2327 -0.0168
  325TMC3     C 4883   1.615   2.453  14.948  1.0376 -0.2597  0.0713
  325TMC3     O 4884   1.679   2.370  14.883 -0.0860 -0.7105 -0.0986
  325TMC3     H 4885   1.510   2.210  14.970  0.2997  0.8282 -0.4155
  325TMC3    H1 4886   1.431   2.628  14.919 -1.9248  1.2917  2.8772
  325TMC3    H2 4887   1.120   2.339  14.864  0.0184  0.9738 -0.7574
  325TMC3    C7 4888   1.195   2.610  14.812 -0.0612 -0.6158 -0.9265
  325TMC3    C8 4889   1.259   2.141  14.886 -0.2814  0.8445 -0.8192
  325TMC3    O1 4890   1.245   2.718  14.793 -0.0073 -0.3501 -0.3132
  325TMC3    O2 4891   1.335   2.068  14.822  0.3487  0.3056  0.3133
  326MPD2     C 4892   2.432   2.974  11.113 -0.0952 -0.4994 -0.4795
  326MPD2    C1 4893   2.371   3.024  11.001  0.4451 -0.0397 -0.3142
  326MPD2    C2 4894   2.441   3.112  10.926 -0.1710  0.2780  0.0995
  326MPD2    C3 4895   2.568   3.160  10.962  0.2856 -0.2926  0.1039
  326MPD2    C4 4896   2.627   3.104  11.076 -0.5767 -0.1802 -0.5081
  326MPD2    C5 4897   2.562   3.007  11.141  0.2926 -0.0985  0.3696
  326MPD2     H 4898   2.396   3.165  10.843  0.2963  1.0193  0.3183
  326MPD2    H1 4899   2.725   3.141  11.105 -0.9412 -0.4019  0.9990
  326MPD2    H2 4900   2.373   2.907  11.174 -1.6335  1.6649  0.4188
  326MPD2    H3 4901   2.613   2.946  11.215 -0.2956 -1.4957 -0.3597
  326MPD2     N 4902   2.645   3.252  10.892  0.3604 -0.2822  0.2124
  326MPD2    H5 4903   2.741   3.258  10.924  0.6266 -1.4571 -0.3437
  326MPD2    N1 4904   2.243   2.962  10.979  0.0119  0.1903 -0.8381
  326MPD2    H7 4905   2.221   2.901  11.057  0.2242  0.8975 -0.2339
  327TMC3    C1 4906   2.190   3.032  10.747  0.0169 -0.2567 -0.1470
  327TMC3    C2 4907   2.114   3.125  10.685 -0.1686 -0.6737  0.1194
  327TMC3    C3 4908   2.155   3.182  10.568 -0.4496  0.4044 -0.1358
  327TMC3    C4 4909   2.307   2.983  10.697  0.6686 -0.3113 -0.5493
  327TMC3    C5 4910   2.349   3.044  10.582 -0.3143  1.1020  0.3769
  327TMC3    C6 4911   2.275   3.139  10.519 -0.1294 -0.4246  0.4146
  327TMC3     C 4912   2.146   2.991  10.877  0.1683  0.4038 -0.4601
  327TMC3     O 4913   2.028   2.967  10.884  0.2497 -0.5676  0.3093
  327TMC3     H 4914   2.021   3.138  10.739 -1.2249 -1.7410 -1.4155
  327TMC3    H1 4915   2.360   2.908  10.755 -0.9978  0.3229  1.7944
  327TMC3    H2 4916   2.321   3.197  10.439 -0.2500 -1.3660 -0.3437
  327TMC3    C7 4917   2.488   3.025  10.532  0.4007  0.3811  0.2076
  327TMC3    C8 4918   2.119   3.310  10.535 -0.3440  0.5700 -0.8847
  327TMC3    O1 4919   2.524   3.061  10.421  0.1941  0.0492  0.0946
  327TMC3    O2 4920   2.163   3.359  10.428  0.4034 -0.4173  0.1985
  328MPD2     C 4921   0.631   3.257  17.354 -0.4639 -0.2962  0.4844
  328MPD2    C1 4922   0.515   3.194  17.319  0.8602 -0.1707 -0.0481
  328MPD2    C2 4923   0.423   3.261  17.244 -0.2006  0.4560 -0.5399
  328MPD2    C3 4924   0.448   3.387  17.193  0.1656 -0.2031  0.0075
  328MPD2    C4 4925   0.570   3.441  17.223  0.3270  0.4633 -0.9534
  328MPD2    C5 4926   0.662   3.377  17.297  0.3314 -0.0460  0.2113
  328MPD2     H 4927   0.328   3.210  17.230  0.1580 -0.5227  0.5876
  328MPD2    H1 4928   0.591   3.535  17.174 -0.9148  2.9018  3.2551
  328MPD2    H2 4929   0.702   3.208  17.419 -1.3324 -1.1730  0.7764
  328MPD2    H3 4930   0.757   3.424  17.320  0.7881 -0.0519 -1.6480
  328MPD2     N 4931   0.357   3.465  17.117 -0.5536  0.0942 -0.5568
  328MPD2    H5 4932   0.398   3.555  17.095  0.2976 -0.8315 -2.6935
  328MPD2    N1 4933   0.506   3.064  17.360 -0.4521  0.6807 -0.0704
  328MPD2    H7 4934   0.565   3.044  17.440  0.7152 -0.0062 -1.0895
  329TMC3    C1 4935   0.426   2.833  17.356 -0.2506  0.9018 -0.0679
  329TMC3    C2 4936   0.471   2.818  17.485 -0.5533  0.8256  0.2423
  329TMC3    C3 4937   0.462   2.691  17.548 -0.7250  0.5381  0.6076
  329TMC3    C4 4938   0.394   2.729  17.275  0.2593  0.0615 -0.0484
  329TMC3    C5 4939   0.404   2.606  17.331  0.0495 -0.3831  0.2803
  329TMC3    C6 4940   0.437   2.584  17.462 -0.1826 -0.6281  0.1271
  329TMC3     C 4941   0.423   2.965  17.301  0.0821 -0.2895  0.5689
  329TMC3     O 4942   0.355   2.977  17.202  0.2393 -0.3302  0.1108
  329TMC3     H 4943   0.480   2.908  17.544  0.9052  0.6587  0.2739
  329TMC3    H1 4944   0.360   2.740  17.172  1.8393 -1.1764 -0.7003
  329TMC3    H2 4945   0.428   2.490  17.516 -0.0950 -1.6256 -1.6193
  329TMC3    C7 4946   0.388   2.495  17.241 -0.5128  0.5721 -0.4940
  329TMC3    C8 4947   0.532   2.672  17.678  0.3572  0.0081 -0.2597
  329TMC3    O1 4948   0.412   2.516  17.121  0.1763  0.0626 -0.0980
  329TMC3    O2 4949   0.604   2.570  17.688  0.2824  0.2978 -0.0981
  330TMC3    C1 4950   2.664   2.723   9.719  0.1469  0.4575 -0.6253
  330TMC3    C2 4951   2.643   2.653   9.607 -0.0844  0.5174  1.3237
  330TMC3    C3 4952   2.748   2.567   9.577 -0.0615  0.0337  0.7850
  330TMC3    C4 4953   2.776   2.716   9.796  1.1418 -0.3399  0.3962
  330TMC3    C5 4954   2.874   2.636   9.756  0.2230  0.1269  0.3056
  330TMC3    C6 4955   2.868   2.563   9.641 -0.3087 -0.1427  0.1455
  330TMC3     C 4956   2.562   2.823   9.757 -0.6886 -0.4442  0.1696
  330TMC3     O 4957   2.602   2.926   9.809  0.0743 -0.4711  0.0977
  330TMC3     H 4958   2.556   2.656   9.543 -0.9536  0.8306  2.5067
  330TMC3    H1 4959   2.766   2.766   9.892  1.3901 -0.1016  0.2977
  330TMC3    H2 4960   2.942   2.495   9.601  0.1147 -1.0613  2.5153
  330TMC3    C7 4961   3.001   2.645   9.830 -0.0993  0.4687  0.1936
  330TMC3    C8 4962   2.724   2.456   9.481 -0.3886 -0.5584 -0.4612
  330TMC3    O1 4963   3.004   2.704   9.937  0.1424 -0.2754  0.1586
  330TMC3    O2 4964   2.636   2.467   9.398  0.2924  0.1220 -0.1563
  331MPD2     C 4965   0.665   1.838  12.904 -0.6922 -0.2339 -0.0803
  331MPD2    C1 4966   0.787   1.864  12.841  0.2187 -0.4860 -0.2153
  331MPD2    C2 4967   0.871   1.757  12.801 -0.2072  0.2923  0.2227
  331MPD2    C3 4968   0.820   1.630  12.803  0.2926  0.8146  0.5053
  331MPD2    C4 4969   0.694   1.605  12.853 -0.1034  0.1904 -0.1767
  331MPD2    C5 4970   0.629   1.709  12.911 -0.0212  0.3016 -0.1922
  331MPD2     H 4971   0.965   1.784  12.753  1.3600 -2.9033  1.5098
  331MPD2    H1 4972   0.647   1.509  12.838 -0.1850  0.2094 -0.0456
  331MPD2    H2 4973   0.609   1.919  12.949 -1.2014 -0.2393 -0.7120
  331MPD2    H3 4974   0.531   1.684  12.951  0.7365  2.1354  2.7973
  331MPD2     N 4975   0.895   1.527  12.738 -0.2444 -0.6586 -0.2128
  331MPD2    H5 4976   0.973   1.564  12.685 -0.6270  1.3496  0.6357
  331MPD2    N1 4977   0.819   2.003  12.822 -0.2979 -0.2598  0.4648
  331MPD2    H7 4978   0.747   2.073  12.840 -0.5195 -0.3374 -0.1206
  332TMC3    C1 4979   0.954   1.321  12.661 -0.1304 -0.4515  0.6597
  332TMC3    C2 4980   1.006   1.379  12.554  0.4420 -0.2678  0.2911
  332TMC3    C3 4981   1.115   1.321  12.501  0.1378 -0.4719 -0.5689
  332TMC3    C4 4982   1.010   1.202  12.719 -0.1223 -0.5570 -0.0571
  332TMC3    C5 4983   1.123   1.156  12.659  0.0575 -1.0176  0.0757
  332TMC3    C6 4984   1.183   1.217  12.546  0.7454 -0.2348 -0.4820
  332TMC3     C 4985   0.867   1.391  12.744 -0.2066 -0.2263  0.0470
  332TMC3     O 4986   0.815   1.332  12.843  0.1548 -0.0621  0.2605
  332TMC3     H 4987   0.955   1.461  12.504 -0.7516 -1.9984 -1.3525
  332TMC3    H1 4988   0.984   1.170  12.819  0.9347  0.7910  0.6506
  332TMC3    H2 4989   1.272   1.180  12.497  1.0809 -1.1194  0.8258
  332TMC3    C7 4990   1.220   1.075  12.734  0.4590  0.1600  0.1708
  332TMC3    C8 4991   1.176   1.393  12.393  0.1257  0.0354 -0.0415
  332TMC3    O1 4992   1.169   1.009  12.824 -0.3425  0.0509 -0.5042
  332TMC3    O2 4993   1.301   1.390  12.395 -0.0277  1.2417  0.3361
  333MPD2     C 4994   1.239   1.530  11.455  0.3226 -0.1055  0.3631
  333MPD2    C1 4995   1.267   1.434  11.352 -0.0354 -0.4045  0.3995
  333MPD2    C2 4996   1.253   1.297  11.383  0.6637  1.3549  0.5252
  333MPD2    C3 4997   1.203   1.259  11.507 -0.4257 -0.1343  0.3500
  333MPD2    C4 4998   1.163   1.356  11.593  0.3076  0.0136 -0.5908
  333MPD2    C5 4999   1.176   1.489  11.566 -0.1540 -0.4544  0.1080
  333MPD2     H 5000   1.280   1.216  11.317  0.0230  1.5135  0.0602
  333MPD2    H1 5001   1.121   1.334  11.690  0.1324  0.3611 -0.5892
  333MPD2    H2 5002   1.245   1.638  11.447 -1.3451  0.0565  1.3711
  333MPD2    H3 5003   1.148   1.566  11.637 -1.9617 -2.7302  1.8598
  333MPD2     N 5004   1.202   1.119  11.538  0.2732  0.9284  0.6660
  333MPD2    H5 5005   1.234   1.059  11.462  0.3827  0.0929  1.3739
  333MPD2    N1 5006   1.320   1.481  11.226 -0.3046 -0.3856 -0.8714
  333MPD2    H7 5007   1.353   1.577  11.228 -0.0243 -0.5125  0.8420
  334TMC3    C1 5008   1.432   1.469  11.018 -0.1684 -0.2584  0.1318
  334TMC3    C2 5009   1.508   1.390  10.936  0.8302  0.2732  0.0772
  334TMC3    C3 5010   1.616   1.452  10.874 -0.6528 -0.4830 -0.2625
  334TMC3    C4 5011   1.448   1.609  11.019 -0.9389  0.0381 -0.0983
  334TMC3    C5 5012   1.554   1.660  10.956  0.5600  0.1214  0.5657
  334TMC3    C6 5013   1.636   1.586  10.873 -0.0290  0.1082  0.5820
  334TMC3     C 5014   1.342   1.409  11.116 -0.3893  0.3207 -0.1031
  334TMC3     O 5015   1.312   1.292  11.093 -0.0616  0.4802 -0.4290
  334TMC3     H 5016   1.504   1.281  10.939  1.4782  0.1733 -2.0842
  334TMC3    H1 5017   1.387   1.676  11.077 -2.2311 -1.3160  0.0987
  334TMC3    H2 5018   1.714   1.626  10.810  1.6052 -1.5892  1.5138
  334TMC3    C7 5019   1.551   1.806  10.948 -0.4179  0.5175 -0.1726
  334TMC3    C8 5020   1.721   1.372  10.822 -0.2603  0.4981 -0.0769
  334TMC3    O1 5021   1.464   1.875  11.001 -0.1285 -0.4859 -0.3591
  334TMC3    O2 5022   1.696   1.258  10.783 -0.1873  0.4397 -0.4709
  335TMC3    C1 5023   1.210   2.702   0.314  0.2954 -0.2148  0.3248
  335TMC3    C2 5024   1.105   2.788   0.293 -0.2567  0.2322 -1.1640
  335TMC3    C3 5025   1.133   2.903   0.232 -0.4588 -0.0421 -0.5846
  335TMC3    C4 5026   1.339   2.717   0.286  0.2440 -0.8204  0.0623
  335TMC3    C5 5027   1.364   2.833   0.217 -0.0036 -0.6529  0.0716
  335TMC3    C6 5028   1.262   2.917   0.181 -0.4945  0.2873  0.1626
  335TMC3     C 5029   1.181   2.580   0.388  0.5622 -0.3516  0.3600
  335TMC3     O 5030   1.070   2.565   0.435  0.1513 -0.1437  0.1182
  335TMC3     H 5031   1.010   2.769   0.341  0.8521  2.8535  2.0933
  335TMC3    H1 5032   1.423   2.657   0.319  0.6154  0.8922  2.2548
  335TMC3    H2 5033   1.289   3.001   0.117  1.7724 -1.1108 -0.7409
  335TMC3    C7 5034   1.497   2.888   0.207  0.6210  0.6762 -0.0919
  335TMC3    C8 5035   1.030   2.941   0.133 -0.0830 -0.2395 -0.3668
  335TMC3    O1 5036   1.584   2.805   0.194 -0.1093 -0.2059 -0.0529
  335TMC3    O2 5037   1.038   3.055   0.092  0.1196  0.0114 -0.4412
  336MPD2     C 5038   0.861   1.595  16.318  0.3864 -0.2839 -0.7529
  336MPD2    C1 5039   0.736   1.546  16.341 -0.1908  0.5530 -0.0274
  336MPD2    C2 5040   0.709   1.405  16.337 -0.8193 -0.2330 -0.8863
  336MPD2    C3 5041   0.812   1.315  16.317 -0.9373 -0.1016 -0.2090
  336MPD2    C4 5042   0.933   1.364  16.287 -0.0405 -0.3070 -0.1175
  336MPD2    C5 5043   0.952   1.503  16.280 -0.1002  0.5920  0.1318
  336MPD2     H 5044   0.607   1.377  16.361  0.4310 -2.6140  1.6492
  336MPD2    H1 5045   1.017   1.297  16.276  0.8092  1.0203 -1.7427
  336MPD2    H2 5046   0.890   1.699  16.306  1.0719 -0.5504 -1.4581
  336MPD2    H3 5047   1.048   1.542  16.247 -0.6840 -0.7462 -3.1582
  336MPD2     N 5048   0.792   1.172  16.322 -0.2599  0.1309  0.3735
  336MPD2    H5 5049   0.868   1.108  16.303 -1.7970 -0.9111 -2.1655
  336MPD2    N1 5050   0.626   1.642  16.345 -0.8039  0.4319 -0.6980
  336MPD2    H7 5051   0.643   1.742  16.337 -2.8407  1.1016  3.7474
  337TMC3    C1 5052   0.403   1.733  16.340 -0.3622  0.4273  0.0040
  337TMC3    C2 5053   0.272   1.715  16.304 -0.3365 -0.1402 -0.0160
  337TMC3    C3 5054   0.183   1.818  16.323  0.1982  0.9999 -0.0611
  337TMC3    C4 5055   0.444   1.839  16.414 -0.0552  0.2519  0.3445
  337TMC3    C5 5056   0.345   1.933  16.440 -0.0786 -0.2780  0.3894
  337TMC3    C6 5057   0.216   1.927  16.392 -0.0742 -0.3424  0.6925
  337TMC3     C 5058   0.492   1.618  16.338  0.5212  0.0529 -0.4441
  337TMC3     O 5059   0.436   1.512  16.319 -0.2359  0.4824  0.3280
  337TMC3     H 5060   0.239   1.620  16.263  0.2449 -0.2710 -0.1846
  337TMC3    H1 5061   0.548   1.849  16.443  0.4272  0.5131 -1.4981
  337TMC3    H2 5062   0.147   2.008  16.412  0.5642  1.2541 -3.5903
  337TMC3    C7 5063   0.391   2.063  16.477  0.0985 -0.0052  0.4129
  337TMC3    C8 5064   0.044   1.801  16.273 -0.3004 -0.4209  0.2161
  337TMC3    O1 5065   0.490   2.116  16.428  0.4790 -0.2680  0.3360
  337TMC3    O2 5066   4.682   1.845  16.347 -0.2293 -0.0744 -0.1666
  338MPD2     C 5067   0.342   0.709   1.094 -0.2093  0.8245 -1.0249
  338MPD2    C1 5068   0.365   0.654   0.971  0.4883 -0.4346  0.6794
  338MPD2    C2 5069   0.260   0.594   0.896  0.5989  1.0419 -0.2299
  338MPD2    C3 5070   0.143   0.574   0.956 -0.0743  0.0857  0.1707
  338MPD2    C4 5071   0.117   0.623   1.084 -0.1490  0.0495  0.1612
  338MPD2    C5 5072   0.215   0.698   1.144  0.6067 -0.1431  0.2671
  338MPD2     H 5073   0.295   0.543   0.807  3.9298  1.2624  0.9344
  338MPD2    H1 5074   0.023   0.604   1.135 -0.6349  0.3398 -0.6283
  338MPD2    H2 5075   0.426   0.767   1.131 -0.5097  0.1540  0.6824
  338MPD2    H3 5076   0.193   0.741   1.242 -1.0464  1.6648 -0.8928
  338MPD2     N 5077   0.064   0.477   0.892  0.3436 -0.4632 -0.2556
  338MPD2    H5 5078   0.094   0.443   0.802 -0.6246 -0.0860 -0.7138
  338MPD2    N1 5079   0.493   0.660   0.911 -0.0611  0.4069 -0.1680
  338MPD2    H7 5080   0.562   0.670   0.985 -0.2494  0.9868 -0.0760
  339TMC3    C1 5081   4.648   0.311   0.851  0.4254 -0.1289 -0.0854
  339TMC3    C2 5082   4.652   0.186   0.901  0.0161 -1.1871 -0.3917
  339TMC3    C3 5083   4.707   0.085   0.832  0.8830  0.4930 -0.1130
  339TMC3    C4 5084   4.696   0.328   0.728  0.3625 -0.1065  0.5349
  339TMC3    C5 5085   0.032   0.224   0.660  0.5745 -1.0000  0.4030
  339TMC3    C6 5086   0.043   0.097   0.715 -0.2654 -0.8394  0.0529
  339TMC3     C 5087   4.681   0.409   0.946 -0.6803 -0.0965 -0.5393
  339TMC3     O 5088   4.630   0.405   1.059 -0.0006  0.0536  0.3716
  339TMC3     H 5089   4.596   0.169   0.992 -1.1902  1.3786 -0.6630
  339TMC3    H1 5090   4.700   0.426   0.683 -1.1643 -1.6341 -2.9365
  339TMC3    H2 5091   0.128   0.038   0.683 -0.3452 -0.0956 -1.4915
  339TMC3    C7 5092   0.122   0.269   0.555 -0.0166  0.1792  0.0905
  339TMC3    C8 5093   0.039   4.704   0.909 -0.5155  0.2985 -0.7262
  339TMC3    O1 5094   0.158   0.387   0.579  0.5399  0.3541  0.1167
  339TMC3    O2 5095   0.141   4.651   0.875 -0.1200  0.3886  0.1021
  340MPD2     C 5096   1.038   3.120  10.074 -0.2774 -0.2675 -0.0512
  340MPD2    C1 5097   1.075   3.010  10.145 -0.6334 -0.3927  0.7185
  340MPD2    C2 5098   1.085   3.007  10.281  0.1563  0.6188 -0.1696
  340MPD2    C3 5099   1.047   3.118  10.350 -0.2257  0.1529 -0.1221
  340MPD2    C4 5100   1.018   3.233  10.287 -1.1533  0.6574  0.3208
  340MPD2    C5 5101   1.014   3.238  10.147 -0.0399  0.1711 -0.2622
  340MPD2     H 5102   1.098   2.912  10.333  0.3488  0.5677 -0.3098
  340MPD2    H1 5103   0.986   3.322  10.339 -2.1789 -0.2658  1.2946
  340MPD2    H2 5104   1.031   3.123   9.965 -2.5684  1.0039  0.1321
  340MPD2    H3 5105   0.986   3.325  10.089  2.2575 -0.4898 -2.3553
  340MPD2     N 5106   1.060   3.125  10.488 -0.1653  0.3671 -0.4705
  340MPD2    H5 5107   1.024   3.209  10.532  2.0706  0.5491  0.9905
  340MPD2    N1 5108   1.099   2.890  10.069  0.2254 -0.6830 -0.1077
  340MPD2    H7 5109   1.096   2.895   9.968 -1.4140 -3.0593 -0.1747
  341TMC3    C1 5110   1.152   2.670  10.016 -0.4529 -0.2130  0.3224
  341TMC3    C2 5111   1.100   2.540  10.035  0.3426  0.6574 -0.1450
  341TMC3    C3 5112   1.162   2.431   9.968 -0.0074 -0.1928 -0.3549
  341TMC3    C4 5113   1.270   2.684   9.948 -0.2594  0.5289  0.2911
  341TMC3    C5 5114   1.333   2.573   9.890 -0.0664 -0.1620  0.2339
  341TMC3    C6 5115   1.284   2.442   9.908  0.5272  0.6163  0.2183
  341TMC3     C 5116   1.118   2.764  10.122  0.1886 -0.7887  0.2265
  341TMC3     O 5117   1.103   2.718  10.231  0.3075 -0.0509  0.1664
  341TMC3     H 5118   1.008   2.528  10.091 -0.6328  0.2301 -1.8606
  341TMC3    H1 5119   1.310   2.785   9.944 -1.8226  1.0798 -1.3128
  341TMC3    H2 5120   1.348   2.358   9.884 -2.6936 -1.9537  0.5139
  341TMC3    C7 5121   1.478   2.575   9.891 -0.4507  0.3643  1.5789
  341TMC3    C8 5122   1.088   2.310   9.963 -0.1707  0.7351 -0.0431
  341TMC3    O1 5123   1.531   2.468   9.865  0.0167  0.1604  0.2449
  341TMC3    O2 5124   0.974   2.306  10.011  0.3392 -0.2406 -0.1573
  342MPD2     C 5125   3.731   1.417   0.274  0.4480 -0.0228 -0.0834
  342MPD2    C1 5126   3.849   1.436   0.204  0.1353  0.5426  0.4362
  342MPD2    C2 5127   3.913   1.560   0.217  0.3390  0.5227  0.1652
  342MPD2    C3 5128   3.859   1.662   0.290 -0.4276 -0.4660  0.3723
  342MPD2    C4 5129   3.744   1.637   0.360 -0.0053  0.4731  0.2710
  342MPD2    C5 5130   3.684   1.516   0.352  0.3057  1.3059  0.4591
  342MPD2     H 5131   4.002   1.578   0.158  0.4816 -1.4271 -0.2367
  342MPD2    H1 5132   3.712   1.711   0.433 -0.9988  0.1427  0.1754
  342MPD2    H2 5133   3.667   1.331   0.258  1.4891 -1.2421  2.5438
  342MPD2    H3 5134   3.592   1.488   0.403 -0.8727  0.9471 -1.8899
  342MPD2     N 5135   3.930   1.779   0.318 -0.5164 -0.1727 -0.3083
  342MPD2    H5 5136   3.883   1.845   0.378  3.5816  1.0817  1.4891
  342MPD2    N1 5137   3.907   1.335   0.119  0.3540  0.7764  0.2380
  342MPD2    H7 5138   3.989   1.369   0.069 -0.5170 -0.7909 -2.2938
  343TMC3    C1 5139   3.927   1.139  17.697  0.1127  0.4389 -1.0332
  343TMC3    C2 5140   4.022   1.197  17.607  0.3705 -0.4804 -0.2009
  343TMC3    C3 5141   4.096   1.120  17.519 -0.1408  0.4674 -0.2658
  343TMC3    C4 5142   3.904   1.006  17.693  0.4774 -0.1502 -0.1936
  343TMC3    C5 5143   3.975   0.926  17.601 -0.0987 -0.6287 -0.5063
  343TMC3    C6 5144   4.077   0.980  17.521 -0.3446 -0.2563 -0.3558
  343TMC3     C 5145   3.867   1.205   0.114 -0.6775  0.1850  0.3430
  343TMC3     O 5146   3.767   1.149   0.153 -0.3837 -0.0789  0.1055
  343TMC3     H 5147   4.037   1.304  17.598  2.2156 -0.9398 -2.5320
  343TMC3    H1 5148   3.829   0.958   0.053 -0.3852  1.5607  0.1124
  343TMC3    H2 5149   4.119   0.924  17.439  0.1603 -0.1449 -0.1763
  343TMC3    C7 5150   3.934   0.787  17.583  0.2362  0.8971 -0.0304
  343TMC3    C8 5151   4.229   1.180  17.492 -0.0648  0.6734  0.1283
  343TMC3    O1 5152   3.956   0.734  17.482 -0.2508  0.2326  0.5129
  343TMC3    O2 5153   4.248   1.292  17.543  0.1143 -0.1100 -0.0717
  344MPD2     C 5154   0.234   0.478  10.399 -0.1325  0.2096 -0.2434
  344MPD2    C1 5155   0.108   0.527  10.412 -0.3400  0.0239 -0.5156
  344MPD2    C2 5156   0.078   0.651  10.355 -0.4803 -0.8192 -0.1057
  344MPD2    C3 5157   0.179   0.727  10.294 -0.0265  0.0721  0.2553
  344MPD2    C4 5158   0.307   0.691  10.306  0.6271  0.7084  0.0264
  344MPD2    C5 5159   0.329   0.563  10.347  0.4289  0.4962 -1.1512
  344MPD2     H 5160   4.703   0.692  10.370  0.2435  2.3388 -3.9002
  344MPD2    H1 5161   0.384   0.766  10.292  2.2355 -0.9242  0.2402
  344MPD2    H2 5162   0.277   0.389  10.443 -3.7632 -0.9402  0.9558
  344MPD2    H3 5163   0.428   0.518  10.347  1.6658  3.2286  0.0462
  344MPD2     N 5164   0.159   0.860  10.255  0.9479 -0.4121  0.1039
  344MPD2    H5 5165   0.242   0.911  10.227 -1.9037  3.5403 -0.9374
  344MPD2    N1 5166   0.004   0.458  10.473  0.6138  0.0905  0.0599
  344MPD2    H7 5167   4.638   0.502  10.487 -0.7353 -2.2932 -1.2561
  345TMC3    C1 5168   0.041   1.056  10.193 -0.6330 -0.0386 -0.8616
  345TMC3    C2 5169   0.164   1.122  10.203 -0.0703 -0.0146 -0.3949
  345TMC3    C3 5170   0.183   1.240  10.142  0.1967  0.5513  0.9369
  345TMC3    C4 5171   4.665   1.111  10.115  0.6533 -0.0282 -0.4369
  345TMC3    C5 5172   4.695   1.232  10.043 -1.0342 -0.0787  0.0828
  345TMC3    C6 5173   0.095   1.292  10.058  0.5143 -0.6877  0.2289
  345TMC3     C 5174   0.027   0.918  10.240 -0.0446 -0.3890  0.0545
  345TMC3     O 5175   4.646   0.860  10.222  0.4641  0.1088  0.1368
  345TMC3     H 5176   0.232   1.081  10.277 -0.2860  0.5928  0.1410
  345TMC3    H1 5177   4.563   1.078  10.097  0.2407  1.1604 -0.3028
  345TMC3    H2 5178   0.118   1.383  10.005 -0.1540  0.7506  2.4279
  345TMC3    C7 5179   4.597   1.339  10.025 -0.2001  0.8856 -0.0634
  345TMC3    C8 5180   0.304   1.313  10.168 -0.1206 -0.1630  0.2522
  345TMC3    O1 5181   4.635   1.447  10.063  0.1721 -0.2022 -0.3489
  345TMC3    O2 5182   0.404   1.245  10.180  0.0691  0.2092 -0.2755
  346MPD2     C 5183   0.309   2.144  13.850  0.7478 -0.0300  0.6048
  346MPD2    C1 5184   0.279   2.280  13.859  0.6119  0.8383 -0.1873
  346MPD2    C2 5185   0.273   2.333  13.987 -0.6729 -0.4117 -0.6387
  346MPD2    C3 5186   0.293   2.260  14.100 -0.5480  0.3179 -0.1181
  346MPD2    C4 5187   0.311   2.126  14.086 -0.0330 -1.0075 -0.0216
  346MPD2    C5 5188   0.312   2.068  13.965 -0.3207 -0.3842 -0.0387
  346MPD2     H 5189   0.258   2.440  13.990 -2.3934 -0.5523 -3.8665
  346MPD2    H1 5190   0.321   2.053  14.166 -2.3173 -0.7830  0.4784
  346MPD2    H2 5191   0.311   2.101  13.751 -0.2946 -0.9648  0.9916
  346MPD2    H3 5192   0.329   1.962  13.958  0.1292 -0.2518 -0.9900
  346MPD2     N 5193   0.289   2.319  14.232  0.1455 -0.3065  0.0760
  346MPD2    H5 5194   0.267   2.416  14.250  0.7402 -0.1479 -0.0261
  346MPD2    N1 5195   0.267   2.361  13.747 -0.1851 -0.2239 -0.2338
  346MPD2    H7 5196   0.245   2.459  13.764 -0.8102 -0.6951  1.7185
  347TMC3    C1 5197   0.306   2.347  14.453 -0.3206  0.2320  0.9980
  347TMC3    C2 5198   0.419   2.359  14.522  0.1131  0.1266 -0.4200
  347TMC3    C3 5199   0.446   2.477  14.597 -0.2965  0.2680  0.5692
  347TMC3    C4 5200   0.214   2.453  14.451  0.6187 -0.3675  0.0819
  347TMC3    C5 5201   0.233   2.568  14.522 -0.2188 -0.8150  0.0173
  347TMC3    C6 5202   0.345   2.579  14.594  0.6820 -0.4008 -0.2691
  347TMC3     C 5203   0.313   2.252  14.348  0.6008 -0.9348 -0.4873
  347TMC3     O 5204   0.377   2.149  14.373  0.0726 -0.4388  0.2025
  347TMC3     H 5205   0.490   2.278  14.530  1.8637  1.5680 -1.4574
  347TMC3    H1 5206   0.113   2.440  14.416  0.1360  3.0411  0.1902
  347TMC3    H2 5207   0.368   2.674  14.641 -1.2403 -0.3945  0.6735
  347TMC3    C7 5208   0.121   2.657  14.537  0.8437 -0.0065  0.4059
  347TMC3    C8 5209   0.574   2.499  14.654  0.3318  0.0223  0.2053
  347TMC3    O1 5210   0.021   2.629  14.470 -0.1009  0.1767 -0.0475
  347TMC3    O2 5211   0.634   2.405  14.696 -0.2733  0.4299 -0.0823
  348MPD2     C 5212   3.153   2.171  12.163  0.6949  0.0211 -0.3392
  348MPD2    C1 5213   3.273   2.204  12.110 -0.6387  0.2193  0.2543
  348MPD2    C2 5214   3.279   2.298  12.011 -0.2568 -0.0510  0.1273
  348MPD2    C3 5215   3.161   2.349  11.961  0.4942 -0.2362 -0.5008
  348MPD2    C4 5216   3.040   2.307  12.011 -0.1423 -0.3530 -0.1031
  348MPD2    C5 5217   3.040   2.220  12.110 -1.1981 -0.0733 -0.3778
  348MPD2     H 5218   3.374   2.332  11.973 -1.0126  1.8837 -0.0135
  348MPD2    H1 5219   2.939   2.342  11.991  0.2453  1.2301  0.6905
  348MPD2    H2 5220   3.138   2.110  12.252  1.5204  1.2532  0.6409
  348MPD2    H3 5221   2.942   2.197  12.151 -0.7789  1.1211  1.2940
  348MPD2     N 5222   3.158   2.441  11.851 -0.0896 -0.4091  0.1616
  348MPD2    H5 5223   3.078   2.460  11.791  0.8885 -0.6373 -1.2119
  348MPD2    N1 5224   3.397   2.170  12.170  0.0602  0.6160 -0.1335
  348MPD2    H7 5225   3.479   2.172  12.110 -0.6368  0.7158 -1.0838
  349TMC3    C1 5226   3.545   2.024  12.275 -0.1053 -0.2373  0.2096
  349TMC3    C2 5227   3.545   1.882  12.282  0.4767 -0.1255 -0.0896
  349TMC3    C3 5228   3.658   1.813  12.249 -0.2862  0.0840 -0.4583
  349TMC3    C4 5229   3.652   2.087  12.230 -0.0585  0.2203  0.1994
  349TMC3    C5 5230   3.763   2.018  12.183  0.3696  0.5379 -0.4692
  349TMC3    C6 5231   3.769   1.884  12.205 -0.1751 -0.4231  0.2145
  349TMC3     C 5232   3.412   2.087  12.281  0.4972 -0.1613 -0.2189
  349TMC3     O 5233   3.324   2.019  12.336 -0.0800  0.2916 -0.7208
  349TMC3     H 5234   3.450   1.833  12.299  1.2340 -1.6346 -0.2286
  349TMC3    H1 5235   3.646   2.195  12.238  0.6326  0.2645  0.1292
  349TMC3    H2 5236   3.860   1.831  12.179  0.1061 -0.8243  2.0760
  349TMC3    C7 5237   3.813   2.058  12.055  0.2097  0.6290 -0.0015
  349TMC3    C8 5238   3.669   1.688  12.321  0.2371  0.5091 -0.1990
  349TMC3    O1 5239   3.839   1.970  11.976 -0.1078  0.1933  0.5902
  349TMC3    O2 5240   3.574   1.632  12.371  0.7960 -0.0832  0.3125
  350MPD2     C 5241   2.076   4.397  10.373 -0.2271 -0.3002  0.2512
  350MPD2    C1 5242   2.122   4.371  10.246  0.5213 -0.1929  0.3796
  350MPD2    C2 5243   2.245   4.431  10.205  0.2139 -0.1019  0.5826
  350MPD2    C3 5244   2.319   4.508  10.291  0.7257 -0.6699 -0.1964
  350MPD2    C4 5245   2.269   4.532  10.415  0.2286  0.1909  0.0470
  350MPD2    C5 5246   2.154   4.476  10.454 -0.6080 -0.3672  0.4980
  350MPD2     H 5247   2.268   4.409  10.101 -0.5486  1.3128  0.1246
  350MPD2    H1 5248   2.337   4.581  10.483  0.8083 -1.3671  0.5951
  350MPD2    H2 5249   1.995   4.340  10.417 -0.1820 -0.2900  0.3466
  350MPD2    H3 5250   2.124   4.485  10.558 -2.3878 -0.1900 -0.0309
  350MPD2     N 5251   2.445   4.550  10.256  0.1691  0.6392 -1.1461
  350MPD2    H5 5252   2.497   4.504  10.182  2.1903  0.3395  0.4506
  350MPD2    N1 5253   2.067   4.274  10.164  0.5409 -0.5306  0.3038
  350MPD2    H7 5254   2.105   4.268  10.070 -0.3146 -0.3726 -0.0587
  351TMC3    C1 5255   1.885   4.143  10.075  1.1713  0.5165 -0.9889
  351TMC3    C2 5256   1.960   4.117   9.965  0.0026  1.2420 -0.2248
  351TMC3    C3 5257   1.897   4.069   9.856  0.2033 -0.1787 -0.3219
  351TMC3    C4 5258   1.748   4.121  10.074 -0.0533 -0.2020  0.3226
  351TMC3    C5 5259   1.696   4.079   9.957 -0.4887 -0.3690  0.6570
  351TMC3    C6 5260   1.763   4.051   9.839 -0.4956  0.0786 -0.7691
  351TMC3     C 5261   1.958   4.190  10.199  0.2986 -0.6991 -0.5649
  351TMC3     O 5262   1.895   4.186  10.300  0.1528 -0.0725  0.6465
  351TMC3     H 5263   2.068   4.120   9.963  0.0130  2.1525  1.9941
  351TMC3    H1 5264   1.681   4.146  10.155 -2.4362 -0.2068 -1.6445
  351TMC3    H2 5265   1.709   4.005   9.757 -0.7192 -1.3810  0.2006
  351TMC3    C7 5266   1.550   4.058   9.956 -0.6484  0.0101  0.0746
  351TMC3    C8 5267   1.985   4.016   9.750 -1.0869 -0.0762 -0.1885
  351TMC3    O1 5268   1.496   4.042  10.063 -0.0845 -0.0593 -0.7008
  351TMC3    O2 5269   2.099   3.985   9.778  0.1866 -0.2459 -0.3478
  352MPD2     C 5270   0.080   2.312   1.584  0.1715  0.0918 -0.3144
  352MPD2    C1 5271   0.211   2.295   1.547 -0.2982  0.1537  0.5810
  352MPD2    C2 5272   0.290   2.214   1.626 -0.6461 -0.5538  0.1505
  352MPD2    C3 5273   0.231   2.139   1.730 -0.2639  1.5075  0.7589
  352MPD2    C4 5274   0.105   2.171   1.766 -0.1872  0.6011  0.2287
  352MPD2    C5 5275   0.026   2.256   1.695 -0.0394  0.0571 -0.0400
  352MPD2     H 5276   0.393   2.202   1.595 -1.0507 -1.0731 -0.9906
  352MPD2    H1 5277   0.066   2.117   1.851 -0.7914 -1.8567 -1.6272
  352MPD2    H2 5278   0.021   2.381   1.523 -1.8370 -1.6856 -0.3967
  352MPD2    H3 5279   4.652   2.288   1.725  0.4182  2.0533 -0.6774
  352MPD2     N 5280   0.289   2.038   1.809 -0.4226 -0.4526 -0.2839
  352MPD2    H5 5281   0.234   1.972   1.864 -0.3052  0.5738  1.0450
  352MPD2    N1 5282   0.260   2.373   1.444  0.0400 -0.0312  0.7395
  352MPD2    H7 5283   0.190   2.429   1.397 -0.7395 -1.7109 -0.1161
  353TMC3    C1 5284   0.458   1.887   1.889  0.3829  0.2886  0.3697
  353TMC3    C2 5285   0.590   1.850   1.909 -0.5199 -0.3562  0.6781
  353TMC3    C3 5286   0.624   1.730   1.959 -0.1990  0.2972 -0.6050
  353TMC3    C4 5287   0.361   1.809   1.943 -0.3203  0.0930 -0.2569
  353TMC3    C5 5288   0.393   1.685   1.984  0.4088  0.0633 -0.1802
  353TMC3    C6 5289   0.524   1.643   2.003 -0.6418  0.3687  0.5968
  353TMC3     C 5290   0.422   2.002   1.805 -0.2295  0.3848 -0.7801
  353TMC3     O 5291   0.511   2.055   1.745  0.1083  0.4365  0.3574
  353TMC3     H 5292   0.666   1.913   1.864 -0.4426 -0.8962  0.0583
  353TMC3    H1 5293   0.255   1.830   1.932 -0.7674 -2.3634 -0.5761
  353TMC3    H2 5294   0.548   1.538   1.997 -0.5524  0.3842  0.6679
  353TMC3    C7 5295   0.311   1.585   1.921  0.2235  0.0902 -0.1175
  353TMC3    C8 5296   0.752   1.673   1.913  0.2107  0.1335  1.2607
  353TMC3    O1 5297   0.256   1.616   1.816 -0.2992  0.5059  0.8024
  353TMC3    O2 5298   0.762   1.659   1.793  0.0618 -0.2338 -0.0350
  354TMC3    C1 5299   2.055   3.614  13.349  0.3368  0.2522 -0.9737
  354TMC3    C2 5300   2.112   3.725  13.297 -0.2071 -1.1988 -0.1213
  354TMC3    C3 5301   2.162   3.719  13.172  0.0725  0.5159 -0.0084
  354TMC3    C4 5302   2.043   3.496  13.280  0.3341 -0.2071 -0.4537
  354TMC3    C5 5303   2.111   3.490  13.163 -0.2486 -0.0671 -0.1219
  354TMC3    C6 5304   2.170   3.600  13.106 -0.4308  0.1926  0.2906
  354TMC3     C 5305   2.061   3.594  13.491 -0.8268 -0.8811 -0.0217
  354TMC3     O 5306   1.982   3.515  13.540 -0.8602  0.0501  0.0273
  354TMC3     H 5307   2.100   3.814  13.357  2.5723  0.0616 -1.3780
  354TMC3    H1 5308   2.028   3.407  13.339 -0.8048  0.1932 -0.1489
  354TMC3    H2 5309   2.221   3.593  13.010  0.5298 -0.0433  0.8190
  354TMC3    C7 5310   2.180   3.370  13.131  0.6921  0.3309  0.5880
  354TMC3    C8 5311   2.216   3.832  13.107 -0.0105 -0.6195 -1.1238
  354TMC3    O1 5312   2.121   3.265  13.152 -0.1607  0.8488 -0.3406
  354TMC3    O2 5313   2.282   3.818  13.006 -0.4786  0.5405 -0.3134
  355MPD2     C 5314   2.752   3.971  11.835  0.2134 -0.0692 -0.0699
  355MPD2    C1 5315   2.807   3.982  11.708 -0.6404 -0.7225  0.2170
  355MPD2    C2 5316   2.939   4.026  11.692 -0.2696  0.1278  0.4192
  355MPD2    C3 5317   3.018   4.052  11.798 -0.2765  0.5420  0.8052
  355MPD2    C4 5318   2.965   4.045  11.926 -0.3675  0.5920  0.1597
  355MPD2    C5 5319   2.832   4.003  11.942 -0.2924  0.2856  0.5721
  355MPD2     H 5320   2.981   4.010  11.593 -1.8816 -1.7383  0.0381
  355MPD2    H1 5321   3.027   4.062  12.013 -1.2270  0.7225  0.7416
  355MPD2    H2 5322   2.653   3.934  11.861  1.1052 -3.7070 -1.7815
  355MPD2    H3 5323   2.787   3.996  12.040  1.1149 -0.4610  1.1670
  355MPD2     N 5324   3.148   4.105  11.791  0.0251  0.2287 -0.0915
  355MPD2    H5 5325   3.184   4.122  11.884 -0.4676 -3.7821  0.8443
  355MPD2    N1 5326   2.726   3.935  11.602  0.1966 -0.4813  0.5697
  355MPD2    H7 5327   2.651   3.873  11.629 -0.7786  0.7194  0.6273
  356TMC3    C1 5328   3.294   4.265  11.693  0.3219 -0.8195 -0.4501
  356TMC3    C2 5329   3.382   4.300  11.590  0.0885 -0.5484 -0.0926
  356TMC3    C3 5330   3.466   4.403  11.607  0.2898 -0.1311 -0.5629
  356TMC3    C4 5331   3.287   4.344  11.807  0.6133  0.0835  0.2464
  356TMC3    C5 5332   3.381   4.449  11.819  0.5483  0.0071  1.0174
  356TMC3    C6 5333   3.476   4.476  11.724  0.2893  0.5791 -0.1894
  356TMC3     C 5334   3.211   4.145  11.675 -0.5571 -0.0890 -0.5411
  356TMC3     O 5335   3.188   4.110  11.562 -0.1348 -0.4257 -0.0412
  356TMC3     H 5336   3.378   4.239  11.501  2.3267  0.1922 -0.6985
  356TMC3    H1 5337   3.202   4.323  11.871  0.9094  0.8180  0.8680
  356TMC3    H2 5338   3.540   4.564  11.728 -3.5630  3.2275  3.1099
  356TMC3    C7 5339   3.342   4.559  11.912  0.4322 -0.8803 -0.5182
  356TMC3    C8 5340   3.541   4.432  11.486  1.3216 -0.1223  0.9495
  356TMC3    O1 5341   3.256   4.531  11.993  0.1060 -0.2388  0.3774
  356TMC3    O2 5342   3.499   4.393  11.378 -0.4018 -0.2857  0.1656
  357MPD2     C 5343   2.564   4.235   0.698  0.5662  0.2675 -0.1699
  357MPD2    C1 5344   2.545   4.110   0.747  1.1408  0.1510  0.5467
  357MPD2    C2 5345   2.534   4.093   0.882  0.1331  0.2182  0.0776
  357MPD2    C3 5346   2.537   4.190   0.971  0.6419  0.3957  0.6159
  357MPD2    C4 5347   2.556   4.321   0.916  0.0890 -0.1399 -0.3517
  357MPD2    C5 5348   2.583   4.339   0.784 -0.3586  0.4508  0.0049
  357MPD2     H 5349   2.523   3.991   0.918  0.4408 -0.1718 -0.9362
  357MPD2    H1 5350   2.557   4.405   0.984  0.8804 -0.1851 -0.3098
  357MPD2    H2 5351   2.562   4.259   0.592 -0.0700 -1.7644 -0.6200
  357MPD2    H3 5352   2.583   4.441   0.747  1.9012 -0.1633 -1.6738
  357MPD2     N 5353   2.528   4.181   1.115 -0.6271 -0.0795  0.4837
  357MPD2    H5 5354   2.501   4.273   1.147  0.9093  0.3836  0.4711
  357MPD2    N1 5355   2.528   4.010   0.650  0.1928  0.4347  0.3817
  357MPD2    H7 5356   2.541   4.034   0.552  0.8418  2.0980  0.8687
  358TMC3    C1 5357   2.471   3.806   0.548 -0.3946 -0.1837 -0.1873
  358TMC3    C2 5358   2.442   3.880   0.439  0.2515 -0.1708  0.5618
  358TMC3    C3 5359   2.396   3.814   0.329 -0.0619 -0.0396  0.8834
  358TMC3    C4 5360   2.451   3.675   0.561 -0.4259  0.9134  0.2134
  358TMC3    C5 5361   2.398   3.616   0.450 -0.4038 -0.1142 -0.0844
  358TMC3    C6 5362   2.384   3.682   0.330 -0.4456 -0.0410  0.1248
  358TMC3     C 5363   2.495   3.879   0.676  0.3887  0.6142  0.0665
  358TMC3     O 5364   2.467   3.816   0.777 -0.3573  0.2745  0.0159
  358TMC3     H 5365   2.459   3.986   0.422  0.9119 -0.2986  0.4083
  358TMC3    H1 5366   2.470   3.617   0.651  0.0622  2.0982  0.8711
  358TMC3    H2 5367   2.318   3.633   0.259 -1.0572  0.4210  0.3698
  358TMC3    C7 5368   2.400   3.470   0.436 -0.2615  0.1812 -0.3781
  358TMC3    C8 5369   2.346   3.887   0.214  0.0651  0.5146  0.1224
  358TMC3    O1 5370   2.420   3.417   0.325 -0.4230 -0.4998  0.4150
  358TMC3    O2 5371   2.334   4.006   0.230  0.1348 -0.1867  0.4485
  359MPD2     C 5372   2.577   3.109  12.318  0.6176  0.5883 -0.6470
  359MPD2    C1 5373   2.703   3.059  12.362  0.2841 -0.0752 -0.1047
  359MPD2    C2 5374   2.708   2.955  12.449  0.2771  0.4571 -0.2205
  359MPD2    C3 5375   2.595   2.891  12.494  0.1472  0.2152  0.4892
  359MPD2    C4 5376   2.476   2.951  12.459 -0.4564  0.1441 -0.3689
  359MPD2    C5 5377   2.466   3.063  12.382  1.2843 -0.3853  0.1134
  359MPD2     H 5378   2.802   2.901  12.455 -2.2140 -3.8701 -0.1952
  359MPD2    H1 5379   2.381   2.922  12.502 -0.1451 -1.1235 -0.5296
  359MPD2    H2 5380   2.570   3.195  12.251 -0.6653  0.3115 -0.8724
  359MPD2    H3 5381   2.378   3.126  12.375  1.0348 -0.5849  1.4000
  359MPD2     N 5382   2.600   2.767  12.566 -0.7605  0.7081 -0.4838
  359MPD2    H5 5383   2.515   2.712  12.571 -1.0671  1.3836  1.7441
  359MPD2    N1 5384   2.826   3.097  12.303  0.0331 -0.1623 -0.3382
  359MPD2    H7 5385   2.904   3.036  12.323 -0.1302 -0.5199 -0.8032
  360TMC3    C1 5386   2.957   3.174  12.152 -0.3883  0.2722  0.6651
  360TMC3    C2 5387   3.072   3.245  12.181  0.1628  0.3464  0.0301
  360TMC3    C3 5388   3.186   3.208  12.114  0.4183  0.3815 -0.3334
  360TMC3    C4 5389   2.955   3.049  12.089 -0.1006  0.1155 -0.3002
  360TMC3    C5 5390   3.074   3.011  12.037  0.3094 -0.6855  0.1450
  360TMC3    C6 5391   3.185   3.093  12.040 -0.0441  0.6338  0.2971
  360TMC3     C 5392   2.842   3.203  12.219  0.1487 -0.1738  0.2385
  360TMC3     O 5393   2.808   3.319  12.225 -0.3602 -0.1731 -0.0802
  360TMC3     H 5394   3.063   3.345  12.224 -0.9759 -0.6585  2.1347
  360TMC3    H1 5395   2.864   2.991  12.081  2.3421 -3.6233 -0.9205
  360TMC3    H2 5396   3.267   3.071  11.972 -0.3996 -0.8642  0.3616
  360TMC3    C7 5397   3.064   2.913  11.926 -0.3771  0.1407  0.1791
  360TMC3    C8 5398   3.291   3.303  12.087 -0.3280  0.5417 -0.3053
  360TMC3    O1 5399   3.163   2.909  11.853  0.0280 -0.1550  0.1150
  360TMC3    O2 5400   3.283   3.419  12.117 -0.4326  0.6516 -0.4361
  361MPD2     C 5401   4.641   1.623  16.972  0.4641  0.6456  0.2241
  361MPD2    C1 5402   4.675   1.688  17.089  0.5282 -0.0879  0.1550
  361MPD2    C2 5403   0.086   1.674  17.133  0.1639  0.1602 -0.0976
  361MPD2    C3 5404   0.179   1.587  17.068 -0.6160  0.8296 -1.3596
  361MPD2    C4 5405   0.137   1.514  16.962 -0.7454 -1.1972 -0.1651
  361MPD2    C5 5406   0.017   1.543  16.907  0.3494  0.0539 -0.3671
  361MPD2     H 5407   0.127   1.720  17.222  0.9828  0.4549 -0.6304
  361MPD2    H1 5408   0.209   1.449  16.914 -0.0573 -0.2877 -0.3571
  361MPD2    H2 5409   4.537   1.628  16.940  1.0745 -0.4080 -1.9188
  361MPD2    H3 5410   4.712   1.506  16.809  2.0804 -0.2455 -0.7779
  361MPD2     N 5411   0.305   1.552  17.121  0.2816  0.4892  0.1875
  361MPD2    H5 5412   0.357   1.488  17.063  0.3094  1.3480 -0.7361
  361MPD2    N1 5413   4.571   1.763  17.146  0.4220  0.2235  0.0496
  361MPD2    H7 5414   4.478   1.759  17.106  0.1208  2.2565  0.5550
  362TMC3    C1 5415   4.467   1.924  17.268 -0.3800  0.0517 -0.6054
  362TMC3    C2 5416   4.435   1.961  17.398  0.4343  0.2631 -0.9394
  362TMC3    C3 5417   4.347   2.061  17.417  0.2266  0.3530  0.3311
  362TMC3    C4 5418   4.437   2.002  17.159 -0.0497  0.6878 -0.4053
  362TMC3    C5 5419   4.362   2.109  17.190 -0.3465  0.0820 -0.6490
  362TMC3    C6 5420   4.306   2.141  17.312  0.5081 -0.2334 -0.1548
  362TMC3     C 5421   4.581   1.840  17.255  0.5702 -0.1238 -0.3316
  362TMC3     O 5422   4.689   1.873  17.305  0.3377  0.3182 -0.8420
  362TMC3     H 5423   4.474   1.907  17.484 -0.6549  2.9711  1.2461
  362TMC3    H1 5424   4.484   1.981  17.063  0.9480  1.3885 -0.0700
  362TMC3    H2 5425   4.242   2.228  17.315  1.5011  0.4982 -0.2416
  362TMC3    C7 5426   4.309   2.185  17.087  0.1846 -0.5332 -0.1547
  362TMC3    C8 5427   4.253   2.035  17.530  0.2758 -0.7623 -0.1231
  362TMC3    O1 5428   4.273   2.302  17.107  0.0364 -0.1341  0.1212
  362TMC3    O2 5429   4.241   1.917  17.567  0.5626  0.4010 -0.2781
  363TMC3    C1 5430   2.495   4.195   9.564  0.9938  0.1358  0.0531
  363TMC3    C2 5431   2.587   4.211   9.666 -0.4199  0.2715  0.9641
  363TMC3    C3 5432   2.707   4.158   9.644 -0.5729 -0.2952  0.0712
  363TMC3    C4 5433   2.515   4.113   9.462  0.1632 -0.2620  0.9080
  363TMC3    C5 5434   2.643   4.067   9.441  0.0771 -0.1468 -0.0600
  363TMC3    C6 5435   2.742   4.091   9.530 -0.1507  0.1194  0.2248
  363TMC3     C 5436   2.350   4.226   9.578  0.4129 -0.1920  0.5546
  363TMC3     O 5437   2.325   4.233   9.698 -0.0098 -0.2253  0.4561
  363TMC3     H 5438   2.557   4.272   9.751 -0.2425  1.3859  0.2356
  363TMC3    H1 5439   2.431   4.071   9.407  0.4148  1.9133 -1.1460
  363TMC3    H2 5440   2.834   4.038   9.504  0.7528  1.6829  0.2243
  363TMC3    C7 5441   2.671   3.971   9.336  0.6003  0.2903  0.0415
  363TMC3    C8 5442   2.791   4.145   9.768  0.3716 -0.0006  0.2962
  363TMC3    O1 5443   2.760   3.893   9.361 -0.1193  0.0767  0.1015
  363TMC3    O2 5444   2.760   4.228   9.856  0.0661 -0.6744  0.1992
  364MPD2     C 5445   1.950   3.782  10.671 -0.0438  0.2055  0.0107
  364MPD2    C1 5446   2.012   3.740  10.560 -0.0735 -0.1690 -0.9617
  364MPD2    C2 5447   2.041   3.599  10.541  0.0760 -0.2660  0.2657
  364MPD2    C3 5448   2.008   3.509  10.639 -0.7020  0.1980  0.0950
  364MPD2    C4 5449   1.930   3.552  10.747  0.1901  0.6738  0.3905
  364MPD2    C5 5450   1.911   3.684  10.762 -0.0669 -0.0837 -0.1519
  364MPD2     H 5451   2.091   3.563  10.452  0.0307  1.0895 -0.3032
  364MPD2    H1 5452   1.905   3.498  10.837  0.2341  1.0208  0.6096
  364MPD2    H2 5453   1.936   3.888  10.691 -0.3769  0.4441 -1.4994
  364MPD2    H3 5454   1.858   3.717  10.851  1.7572 -0.5357  1.0810
  364MPD2     N 5455   2.051   3.373  10.637 -0.3922 -0.1404 -0.0417
  364MPD2    H5 5456   2.025   3.324  10.723 -0.6070 -0.0961 -0.0806
  364MPD2    N1 5457   2.061   3.842  10.473  0.3161 -0.6401  0.4729
  364MPD2    H7 5458   2.026   3.934  10.496 -0.2387 -0.8177  0.3540
  365TMC3    C1 5459   2.217   3.970  10.360  0.4777  0.3045  0.1974
  365TMC3    C2 5460   2.303   3.978  10.252 -0.1789  0.0756  0.2184
  365TMC3    C3 5461   2.401   4.068  10.254 -0.1935 -0.1203 -0.1436
  365TMC3    C4 5462   2.230   4.056  10.463 -0.2056 -0.8034 -0.1069
  365TMC3    C5 5463   2.333   4.150  10.461  0.4934 -0.2468  0.2637
  365TMC3    C6 5464   2.423   4.155  10.358  0.6374 -0.6020 -0.0408
  365TMC3     C 5465   2.163   3.837  10.385  0.0192 -0.2159  0.1172
  365TMC3     O 5466   2.224   3.740  10.336  0.1653 -0.4674 -0.2667
  365TMC3     H 5467   2.271   3.917  10.168 -0.0065  1.6846 -1.0176
  365TMC3    H1 5468   2.177   4.039  10.556  0.6626  3.8437  1.2485
  365TMC3    H2 5469   2.517   4.208  10.368 -1.0216  2.1807  0.5715
  365TMC3    C7 5470   2.351   4.242  10.570  0.0107 -0.3482 -0.0426
  365TMC3    C8 5471   2.523   4.026  10.192  0.0344  0.7151  0.8905
  365TMC3    O1 5472   2.444   4.320  10.561 -0.2248  0.0625 -0.2255
  365TMC3    O2 5473   2.624   4.093  10.200 -0.4756  0.2657 -0.4527
  366MPD2     C 5474   0.094   0.241  15.380 -0.1313 -0.0506 -0.1681
  366MPD2    C1 5475   0.205   0.283  15.455  0.2038  0.4481 -0.3971
  366MPD2    C2 5476   0.295   0.188  15.493  0.2775 -0.0881  0.0125
  366MPD2    C3 5477   0.285   0.054  15.451 -0.8708  0.3055  0.3818
  366MPD2    C4 5478   0.178   0.010  15.377 -0.3809 -0.4705  0.0097
  366MPD2    C5 5479   0.088   0.111  15.338 -0.0951 -0.3152  0.1385
  366MPD2     H 5480   0.377   0.215  15.559  0.8942 -2.6522  0.2849
  366MPD2    H1 5481   0.174   4.634  15.337 -1.0264 -0.2561 -0.4583
  366MPD2    H2 5482   0.010   0.303  15.350  0.6264  1.3429  0.6168
  366MPD2    H3 5483   0.001   0.082  15.280  0.8257 -1.9066 -0.4640
  366MPD2     N 5484   0.387   4.686  15.475  0.2757 -0.0421 -0.3197
  366MPD2    H5 5485   0.366   4.589  15.454  1.5020 -0.4303  0.2229
  366MPD2    N1 5486   0.216   0.417  15.496  0.4705  0.4797  0.0108
  366MPD2    H7 5487   0.155   0.488  15.457 -1.6226 -0.9923  0.6167
  367TMC3    C1 5488   0.327   0.607  15.591 -0.1329  0.3214  0.6535
  367TMC3    C2 5489   0.384   0.666  15.696 -0.1208  0.1489 -0.0041
  367TMC3    C3 5490   0.399   0.800  15.712 -0.4018  0.8039 -0.4963
  367TMC3    C4 5491   0.264   0.692  15.499 -0.1155 -0.1709 -0.0285
  367TMC3    C5 5492   0.266   0.826  15.523 -0.5703  0.0146 -0.2232
  367TMC3    C6 5493   0.336   0.884  15.629  0.1888  0.0038  0.0030
  367TMC3     C 5494   0.311   0.462  15.587  0.1836 -0.0913 -0.5747
  367TMC3     O 5495   0.371   0.399  15.672 -0.3661 -0.1972  0.4436
  367TMC3     H 5496   0.424   0.592  15.765 -2.1871 -1.1310 -0.1711
  367TMC3    H1 5497   0.234   0.652  15.403 -1.1523 -2.1783  1.1308
  367TMC3    H2 5498   0.357   0.990  15.641  0.7778 -0.1946  0.7556
  367TMC3    C7 5499   0.205   0.919  15.424 -0.3969 -0.0405  0.9286
  367TMC3    C8 5500   0.501   0.852  15.807 -0.1473 -0.0477 -0.1240
  367TMC3    O1 5501   0.269   1.023  15.412 -0.2631 -0.0151 -0.1499
  367TMC3    O2 5502   0.570   0.768  15.858  0.0249 -0.3955 -0.6262
  368MPD2     C 5503   1.396   1.569  13.353  1.1655 -0.9200 -0.7682
  368MPD2    C1 5504   1.377   1.657  13.254  0.2169  0.4011  0.7865
  368MPD2    C2 5505   1.478   1.702  13.177 -0.0321 -0.0170  0.3197
  368MPD2    C3 5506   1.599   1.662  13.202 -0.1238  0.7300 -0.3832
  368MPD2    C4 5507   1.621   1.557  13.291 -0.3420 -0.4606 -0.0814
  368MPD2    C5 5508   1.521   1.535  13.378 -0.4128  0.1854 -0.3611
  368MPD2     H 5509   1.468   1.788  13.111  0.6186 -0.7163 -0.7125
  368MPD2    H1 5510   1.724   1.527  13.298 -0.0216  0.9792  1.3948
  368MPD2    H2 5511   1.332   1.534  13.433  1.7598  1.3293  0.6778
  368MPD2    H3 5512   1.542   1.461  13.454 -2.0826  1.4335  1.3575
  368MPD2     N 5513   1.711   1.727  13.142  0.5550  0.3609  0.1359
  368MPD2    H5 5514   1.801   1.691  13.172  1.1287  0.5264 -1.4157
  368MPD2    N1 5515   1.244   1.701  13.241  0.0835  0.2086  0.4307
  368MPD2    H7 5516   1.183   1.652  13.306  2.6568 -1.0303  1.9445
  369TMC3    C1 5517   1.056   1.826  13.165  0.1601  0.4775 -0.3175
  369TMC3    C2 5518   1.014   1.953  13.123  0.4363 -0.1837  0.3311
  369TMC3    C3 5519   0.905   2.012  13.178 -0.3024  0.3109 -0.8388
  369TMC3    C4 5520   0.976   1.751  13.248 -0.2011 -0.3876  0.4024
  369TMC3    C5 5521   0.868   1.819  13.305 -0.3662 -0.3295 -0.2504
  369TMC3    C6 5522   0.823   1.947  13.269  0.1359 -0.0989  0.2038
  369TMC3     C 5523   1.197   1.800  13.152 -0.3359 -0.0776 -0.4304
  369TMC3     O 5524   1.261   1.868  13.075 -0.4594 -0.1839 -0.5234
  369TMC3     H 5525   1.077   2.010  13.054  0.3547  0.9274  1.1794
  369TMC3    H1 5526   1.005   1.651  13.279 -0.4573 -0.1957  1.2604
  369TMC3    H2 5527   0.734   1.997  13.308 -1.9888 -2.1756 -1.9458
  369TMC3    C7 5528   0.839   1.773  13.433  0.1826 -0.2889  0.2682
  369TMC3    C8 5529   0.879   2.144  13.130 -0.7491  0.4151  0.1935
  369TMC3    O1 5530   0.932   1.755  13.503 -0.0792 -0.1141 -0.3333
  369TMC3    O2 5531   0.767   2.194  13.150 -0.2464  0.5717 -0.0167
  370TMC3    C1 5532   1.038   3.034  16.261  0.5499  0.4654 -0.2106
  370TMC3    C2 5533   0.988   2.956  16.363  0.2426 -0.0861  0.3618
  370TMC3    C3 5534   1.038   2.827  16.370 -0.0846  0.5223 -0.0010
  370TMC3    C4 5535   1.114   2.984  16.157 -0.7658 -0.2273 -0.3665
  370TMC3    C5 5536   1.155   2.851  16.168  0.7271  0.4999 -1.1868
  370TMC3    C6 5537   1.121   2.769  16.275  0.3635 -0.1181 -0.0478
  370TMC3     C 5538   0.958   3.149  16.239 -0.3533  0.3535  0.7003
  370TMC3     O 5539   0.855   3.165  16.302 -0.3235  0.0751 -0.1844
  370TMC3     H 5540   0.919   3.002  16.432  0.3533  1.4791 -0.5800
  370TMC3    H1 5541   1.145   3.052  16.079 -0.6738  0.9334  0.6778
  370TMC3    H2 5542   1.152   2.667  16.292 -1.0764  0.0228  3.5894
  370TMC3    C7 5543   1.213   2.795  16.045 -0.1324 -0.6170  0.1558
  370TMC3    C8 5544   0.983   2.736  16.464  0.1374 -0.5385 -1.0893
  370TMC3    O1 5545   1.218   2.866  15.947 -0.0576 -0.0828  0.1761
  370TMC3    O2 5546   0.977   2.616  16.429  0.3424  0.0495 -0.6273
  371TMC3    C1 5547   2.360   0.907  15.888 -0.0779 -0.8401  0.7849
  371TMC3    C2 5548   2.220   0.936  15.906  0.5808  0.1402  0.8780
  371TMC3    C3 5549   2.180   1.068  15.887 -0.3010  0.3431  0.0009
  371TMC3    C4 5550   2.445   1.018  15.866 -0.2190 -0.4946 -0.3106
  371TMC3    C5 5551   2.394   1.138  15.831  0.1034  0.5731 -0.0881
  371TMC3    C6 5552   2.262   1.166  15.847 -0.1889  0.0878  0.3004
  371TMC3     C 5553   2.411   0.773  15.892 -0.1929  0.1663  0.4149
  371TMC3     O 5554   2.530   0.781  15.863 -0.2180 -0.9083 -0.1317
  371TMC3     H 5555   2.162   0.864  15.962  1.8185 -0.1436  1.7861
  371TMC3    H1 5556   2.550   0.998  15.850 -0.7082 -1.7837 -1.9038
  371TMC3    H2 5557   2.216   1.255  15.806 -1.7032 -0.3034  1.1156
  371TMC3    C7 5558   2.487   1.245  15.787  0.6772 -0.1036  0.1143
  371TMC3    C8 5559   2.043   1.089  15.875  1.1943 -0.1784  0.3892
  371TMC3    O1 5560   2.428   1.340  15.732 -0.8645  0.9114  0.1749
  371TMC3    O2 5561   1.973   0.991  15.863 -0.2510  0.0796  0.3317
  372MPD2     C 5562   1.841   2.226  12.979  0.1161 -0.2225 -0.3136
  372MPD2    C1 5563   1.913   2.249  13.093 -0.2503  0.1660  0.6342
  372MPD2    C2 5564   1.874   2.194  13.213  0.9795  0.0824  0.0612
  372MPD2    C3 5565   1.757   2.124  13.221  0.0856  0.3520 -0.3177
  372MPD2    C4 5566   1.672   2.120  13.116  0.0165 -0.0302  0.8109
  372MPD2    C5 5567   1.717   2.168  12.996  0.3261  0.0123 -0.9399
  372MPD2     H 5568   1.936   2.207  13.300 -0.1768  1.5819  0.6682
  372MPD2    H1 5569   1.576   2.070  13.111 -0.4289  0.8947  0.1269
  372MPD2    H2 5570   1.876   2.254  12.880 -1.5709  0.5234 -0.7016
  372MPD2    H3 5571   1.660   2.145  12.907  0.3269 -1.5035 -0.5417
  372MPD2     N 5572   1.731   2.057  13.343 -0.3120  0.0396 -0.3686
  372MPD2    H5 5573   1.808   2.038  13.406 -0.3859  0.1652 -0.2415
  372MPD2    N1 5574   2.039   2.314  13.087  0.1860 -0.4100 -0.2873
  372MPD2    H7 5575   2.068   2.360  13.172  2.7097 -4.4190  1.0286
  373TMC3    C1 5576   1.628   1.919  13.508  0.7732  0.1023 -0.4279
  373TMC3    C2 5577   1.533   1.904  13.604 -0.5850  0.6629  0.1576
  373TMC3    C3 5578   1.541   1.788  13.679  0.4883 -0.0007  0.4785
  373TMC3    C4 5579   1.728   1.833  13.480  0.4778 -0.9933  0.7539
  373TMC3    C5 5580   1.732   1.722  13.565  0.1270 -0.0573 -0.1382
  373TMC3    C6 5581   1.642   1.694  13.663  0.1219 -0.0505  0.3491
  373TMC3     C 5582   1.607   2.018  13.398 -0.1689  0.9407 -0.4393
  373TMC3     O 5583   1.495   2.044  13.354 -0.2857  0.0919 -0.3981
  373TMC3     H 5584   1.452   1.975  13.619 -0.6068  0.5401  0.6135
  373TMC3    H1 5585   1.798   1.843  13.398 -0.5720 -0.3412 -0.0649
  373TMC3    H2 5586   1.656   1.606  13.724  1.7896  0.4582  0.7253
  373TMC3    C7 5587   1.849   1.635  13.559  0.2608  0.1681  0.4532
  373TMC3    C8 5588   1.506   1.803  13.820  0.0308  0.5698  0.2068
  373TMC3    O1 5589   1.906   1.649  13.451 -0.2085  0.5521 -0.2973
  373TMC3    O2 5590   1.478   1.698  13.883 -1.0347  0.3398  0.4019
  374TMC3    C1 5591   2.387   1.907   9.760  0.0816  0.0119  0.6658
  374TMC3    C2 5592   2.448   2.007   9.824 -0.3947  0.4870 -0.4945
  374TMC3    C3 5593   2.489   2.114   9.757  0.5702  0.2250  0.5023
  374TMC3    C4 5594   2.365   1.906   9.630  0.1646  0.2288 -0.2075
  374TMC3    C5 5595   2.410   2.016   9.565  0.5442  0.2092  0.0673
  374TMC3    C6 5596   2.471   2.119   9.625  0.2220 -0.4617  0.7112
  374TMC3     C 5597   2.339   1.798   9.841 -0.5748 -0.4155 -0.7860
  374TMC3     O 5598   2.352   1.809   9.964  0.3169  0.4675 -0.2030
  374TMC3     H 5599   2.447   2.011   9.932 -0.0997  1.2762 -0.5198
  374TMC3    H1 5600   2.325   1.823   9.573  0.4701  1.2656 -1.9158
  374TMC3    H2 5601   2.507   2.205   9.571 -0.9846 -0.7365 -0.5224
  374TMC3    C7 5602   2.414   1.998   9.417  0.3685  0.3800  0.1937
  374TMC3    C8 5603   2.527   2.237   9.818 -0.3102 -0.7154  0.2129
  374TMC3    O1 5604   2.406   1.886   9.366 -0.2575 -0.1666  0.1051
  374TMC3    O2 5605   2.541   2.339   9.750 -0.3851  0.2486 -0.7967
  375MPD2     C 5606   2.494   2.743  17.371 -0.1528 -0.2876  0.0034
  375MPD2    C1 5607   2.451   2.837  17.279 -0.6075 -0.3965  0.0155
  375MPD2    C2 5608   2.509   2.846  17.157  0.2507  0.0143 -0.0370
  375MPD2    C3 5609   2.613   2.764  17.125  0.4017 -0.3443  0.1745
  375MPD2    C4 5610   2.664   2.686  17.227  0.7118  0.0694 -0.3610
  375MPD2    C5 5611   2.603   2.667  17.343 -0.0547  0.2310 -0.0023
  375MPD2     H 5612   2.471   2.922  17.090  0.2779  1.0201  1.0980
  375MPD2    H1 5613   2.748   2.622  17.203  0.3232 -0.6252  0.1509
  375MPD2    H2 5614   2.452   2.742  17.471 -1.1622  1.3123 -0.3932
  375MPD2    H3 5615   2.645   2.597  17.414  3.3085  1.3414 -0.8648
  375MPD2     N 5616   2.674   2.754  16.997  0.8586 -0.0801 -0.0598
  375MPD2    H5 5617   2.752   2.690  16.991 -0.9403 -2.2303 -0.3469
  375MPD2    N1 5618   2.345   2.924  17.308  0.0367 -0.2732 -0.1315
  375MPD2    H7 5619   2.306   2.984  17.237  0.0654 -0.7233 -0.5280
  376TMC3    C1 5620   2.699   2.787  16.761  0.1975 -0.0706  0.3565
  376TMC3    C2 5621   2.836   2.817  16.771 -0.3174 -0.0110  0.1925
  376TMC3    C3 5622   2.902   2.870  16.667 -0.4196 -0.9203 -0.2578
  376TMC3    C4 5623   2.633   2.813  16.648 -0.1008  0.0609  0.2679
  376TMC3    C5 5624   2.699   2.864  16.544 -0.9570 -0.2901  0.3197
  376TMC3    C6 5625   2.832   2.897  16.550 -0.3736 -0.1415 -0.1411
  376TMC3     C 5626   2.622   2.805  16.880  0.0198 -0.2600 -0.5142
  376TMC3     O 5627   2.507   2.842  16.862 -0.3527 -0.6161 -0.5500
  376TMC3     H 5628   2.883   2.808  16.868 -0.5961  0.8300  0.4096
  376TMC3    H1 5629   2.529   2.783  16.648  0.2612 -1.2246  1.4041
  376TMC3    H2 5630   2.893   2.928  16.466 -0.3644 -0.0480 -0.1002
  376TMC3    C7 5631   2.632   2.938  16.434 -0.2383 -0.1043 -0.5455
  376TMC3    C8 5632   3.025   2.944  16.678  0.2293  0.2978  0.0473
  376TMC3    O1 5633   2.700   2.977  16.340 -0.1680  0.6649 -0.4519
  376TMC3    O2 5634   3.026   3.039  16.601  0.1711 -0.3281  0.1031
  377MPD2     C 5635   0.260   2.732  12.019  0.5213  0.0931 -0.0517
  377MPD2    C1 5636   0.312   2.676  12.132 -0.1614  0.0385 -0.4988
  377MPD2    C2 5637   0.224   2.656  12.235 -0.3164 -0.0920 -0.1156
  377MPD2    C3 5638   0.086   2.682  12.224  0.0573 -0.3183  0.6581
  377MPD2    C4 5639   0.047   2.753  12.115 -0.2588 -0.3215 -0.6423
  377MPD2    C5 5640   0.139   2.785  12.016  0.6593 -0.0098 -0.6131
  377MPD2     H 5641   0.263   2.628  12.332 -2.3546  0.7261  0.9544
  377MPD2    H1 5642   4.672   2.795  12.103 -0.8114 -1.2418  0.6854
  377MPD2    H2 5643   0.327   2.761  11.939  0.2533 -0.4161 -0.4576
  377MPD2    H3 5644   0.111   2.847  11.931 -0.9888  1.4579  1.0140
  377MPD2     N 5645   4.714   2.663  12.332 -0.6326  0.0206  0.0776
  377MPD2    H5 5646   4.617   2.686  12.311 -1.1860 -0.8772  1.6464
  377MPD2    N1 5647   0.452   2.655  12.135 -0.6800  0.6721  0.1087
  377MPD2    H7 5648   0.504   2.701  12.061 -0.5102  2.0486  1.0895
  378TMC3    C1 5649   0.851   2.619  12.084  0.2199 -0.3910 -0.6743
  378TMC3    C2 5650   0.721   2.600  12.100  0.3489  0.2234 -0.0931
  378TMC3    C3 5651   0.668   2.612  12.221 -0.7352 -0.1826  0.1038
  378TMC3    C4 5652   0.942   2.658  12.182 -0.1650 -0.1663 -0.9643
  378TMC3    C5 5653   0.882   2.671  12.312  0.4654  0.8698  0.1020
  378TMC3    C6 5654   0.750   2.641  12.333 -0.7792 -0.4200  0.5233
  378TMC3     C 5655   0.886   2.598  11.945 -0.1957  0.1748  0.0166
  378TMC3     O 5656   0.806   2.653  11.867 -0.0611 -0.2951 -0.3143
  378TMC3     H 5657   0.658   2.561  12.021  0.3136  1.1729 -0.5422
  378TMC3    H1 5658   1.048   2.666  12.162  0.0073 -0.1108 -0.0167
  378TMC3    H2 5659   0.705   2.655  12.431 -0.5563  0.2148  0.5353
  378TMC3    C7 5660   0.963   2.686  12.435  0.5401  0.1458  0.1822
  378TMC3    C8 5661   0.526   2.610  12.242  0.2884  0.0347 -0.0165
  378TMC3    O1 5662   0.903   2.672  12.541 -0.2606  0.3072 -0.0838
  378TMC3    O2 5663   0.493   2.583  12.358  0.3913 -0.4477 -0.4130
  379MPD2     C 5664   1.806   0.762  16.236 -0.9741 -0.5306  0.4927
  379MPD2    C1 5665   1.674   0.711  16.238 -0.4221 -0.1967  0.1886
  379MPD2    C2 5666   1.646   0.598  16.313 -0.6102 -0.2322 -0.4568
  379MPD2    C3 5667   1.754   0.528  16.371  0.3257  0.4482  0.2596
  379MPD2    C4 5668   1.881   0.584  16.370  0.0598  0.4750 -0.0843
  379MPD2    C5 5669   1.908   0.700  16.305  0.5767  0.1386  0.1994
  379MPD2     H 5670   1.546   0.556  16.311 -1.6417  2.1966  0.4020
  379MPD2    H1 5671   1.965   0.529  16.411 -2.3335 -0.9753  2.8566
  379MPD2    H2 5672   1.821   0.850  16.175 -1.9739 -1.0413 -0.4866
  379MPD2    H3 5673   2.008   0.741  16.306 -0.1477  1.9055 -0.4078
  379MPD2     N 5674   1.742   0.388  16.412 -0.3922  0.5395 -0.4960
  379MPD2    H5 5675   1.830   0.343  16.433 -1.1398  0.1199  1.7315
  379MPD2    N1 5676   1.578   0.774  16.155 -0.5223  0.1636  0.4768
  379MPD2    H7 5677   1.620   0.819  16.075 -1.1272 -2.6285 -1.4129
  380TMC3    C1 5678   1.386   0.812  16.045  0.0951 -0.1778 -0.3496
  380TMC3    C2 5679   1.423   0.764  15.920  0.7164 -0.3359 -0.5715
  380TMC3    C3 5680   1.340   0.796  15.821  0.3384  0.8109 -0.0110
  380TMC3    C4 5681   1.279   0.898  16.070  1.0498  0.1881 -0.4667
  380TMC3    C5 5682   1.205   0.935  15.962  0.2369 -0.3903 -0.0701
  380TMC3    C6 5683   1.232   0.886  15.837 -0.4141 -0.0637  0.1022
  380TMC3     C 5684   1.446   0.752  16.162 -0.1785 -0.0889  1.0290
  380TMC3     O 5685   1.382   0.737  16.264  0.5443 -0.2518  0.5253
  380TMC3     H 5686   1.506   0.696  15.907 -0.7549 -2.4700  1.3982
  380TMC3    H1 5687   1.262   0.924  16.173 -1.5180 -0.6117 -0.6888
  380TMC3    H2 5688   1.188   0.933  15.750 -0.0575  0.0874  0.0037
  380TMC3    C7 5689   1.097   1.034  15.986  0.4194  0.1996  0.0297
  380TMC3    C8 5690   1.344   0.713  15.697  0.3726 -0.3451 -0.3911
  380TMC3    O1 5691   1.110   1.116  16.078  0.4082 -0.2504 -0.2000
  380TMC3    O2 5692   1.447   0.653  15.679 -0.0691 -0.8783  0.4300
  381TMC3    C1 5693   0.964   2.043  16.092 -0.1065 -0.0550 -0.5758
  381TMC3    C2 5694   1.065   2.127  16.118 -0.3083 -0.2856 -0.4834
  381TMC3    C3 5695   1.066   2.208  16.232  0.3337 -0.5503  0.1913
  381TMC3    C4 5696   0.853   2.038  16.169 -0.0690  0.0649 -0.1505
  381TMC3    C5 5697   0.855   2.117  16.282  0.1750  1.0330  0.7801
  381TMC3    C6 5698   0.959   2.197  16.316  0.4708 -0.6420  0.0225
  381TMC3     C 5699   0.997   1.924  16.018 -0.6046 -0.4891 -0.4608
  381TMC3     O 5700   1.111   1.929  15.971 -0.2051 -0.7608 -0.1725
  381TMC3     H 5701   1.150   2.135  16.051 -0.3860  1.0672 -0.4209
  381TMC3    H1 5702   0.765   1.981  16.142  0.1629  0.5886 -2.0271
  381TMC3    H2 5703   0.968   2.256  16.407  1.8331 -1.5346  0.4728
  381TMC3    C7 5704   0.797   2.039  16.388  0.1994  0.6326  0.0493
  381TMC3    C8 5705   1.187   2.267  16.275 -0.1864 -0.1196  0.4433
  381TMC3    O1 5706   0.753   1.929  16.353 -0.7053 -0.3056  0.6200
  381TMC3    O2 5707   1.279   2.226  16.210 -0.7059  0.0956 -0.4262
  382MPD2     C 5708   0.723   4.477  17.346  0.3529 -0.1782  0.4625
  382MPD2    C1 5709   0.588   4.472  17.366  0.2875  0.5414  0.2260
  382MPD2    C2 5710   0.531   4.354  17.405  0.1307 -0.5326  0.3785
  382MPD2    C3 5711   0.609   4.241  17.424  0.3172 -0.5348  0.0425
  382MPD2    C4 5712   0.744   4.252  17.406  0.1734 -0.3652  0.2139
  382MPD2    C5 5713   0.799   4.371  17.366  0.2433 -0.7241  0.8030
  382MPD2     H 5714   0.427   4.349  17.433  0.2542 -0.7470  0.8147
  382MPD2    H1 5715   0.809   4.166  17.410  0.2917 -0.2080  1.8094
  382MPD2    H2 5716   0.782   4.562  17.316 -0.5915  1.0419  2.0496
  382MPD2    H3 5717   0.905   4.379  17.346  0.0071  2.1794  0.6275
  382MPD2     N 5718   0.562   4.111  17.443 -0.2455 -0.0855  0.8207
  382MPD2    H5 5719   0.630   4.035  17.439  0.1116  0.2594  0.3996
  382MPD2    N1 5720   0.497   4.585  17.336 -0.2724  0.7738  0.8155
  382MPD2    H7 5721   0.396   4.570  17.342  0.1928 -2.4920  0.6240
  383TMC3    C1 5722   0.405   3.940  17.437 -0.2064  0.0079  0.6004
  383TMC3    C2 5723   0.281   3.922  17.391 -0.5233 -0.3183 -0.2213
  383TMC3    C3 5724   0.246   3.790  17.388  0.5634 -0.4137 -0.1983
  383TMC3    C4 5725   0.493   3.848  17.478 -0.4623  0.0453 -0.2272
  383TMC3    C5 5726   0.443   3.720  17.481  0.0517 -0.1389  0.6036
  383TMC3    C6 5727   0.320   3.691  17.440  0.6019  0.1921  0.2141
  383TMC3     C 5728   0.430   4.082  17.458 -0.0512 -0.1404 -0.4306
  383TMC3     O 5729   0.332   4.154  17.467 -0.1758 -0.5244  0.0719
  383TMC3     H 5730   0.235   4.006  17.340 -0.3569  1.2278  2.1922
  383TMC3    H1 5731   0.590   3.866  17.523  0.3293  1.5248 -2.5331
  383TMC3    H2 5732   0.285   3.589  17.429  1.0914  0.2341 -1.7868
  383TMC3    C7 5733   0.523   3.618  17.547 -0.4735 -0.0349  0.2239
  383TMC3    C8 5734   0.108   3.756  17.360 -0.3579 -0.3563 -0.1146
  383TMC3    O1 5735   0.640   3.651  17.556  0.7403 -0.1888 -0.1797
  383TMC3    O2 5736   0.080   3.636  17.343  0.0322 -0.5598  0.1348
  384MPD2     C 5737   1.941   0.762  11.943  0.1226 -0.0895  0.4871
  384MPD2    C1 5738   1.883   0.675  12.034  0.6100  1.0004  0.2882
  384MPD2    C2 5739   1.929   0.549  12.035  0.0101  0.2871 -0.3662
  384MPD2    C3 5740   2.037   0.507  11.963  0.6517 -0.2161 -0.5063
  384MPD2    C4 5741   2.105   0.601  11.892 -0.2642  0.0871 -1.1336
  384MPD2    C5 5742   2.055   0.725  11.877 -0.4679 -0.2618 -0.5595
  384MPD2     H 5743   1.887   0.484  12.111 -2.8362  0.2455 -1.9593
  384MPD2    H1 5744   2.201   0.576  11.847  1.4747  3.9155  0.4486
  384MPD2    H2 5745   1.909   0.866  11.949  1.6750  0.3260  1.5087
  384MPD2    H3 5746   2.109   0.803  11.825 -1.6179  1.1523  0.3702
  384MPD2     N 5747   2.094   0.378  11.975 -0.9334  0.1273  0.6891
  384MPD2    H5 5748   2.187   0.353  11.943 -0.3987  0.6038  1.8478
  384MPD2    N1 5749   1.796   0.717  12.137 -0.3761  0.4931  0.3998
  384MPD2    H7 5750   1.782   0.644  12.205 -0.6816  0.2963  0.1267
  385TMC3    C1 5751   2.118   0.170  12.064  0.2543 -0.0029 -0.0992
  385TMC3    C2 5752   2.049   0.049  12.063 -0.1134 -0.0784 -0.2111
  385TMC3    C3 5753   2.054   4.688  12.165  0.3253 -0.0023 -0.0430
  385TMC3    C4 5754   2.188   0.193  12.180 -0.0495 -0.0214  0.1077
  385TMC3    C5 5755   2.158   0.133  12.293 -0.5303 -0.0505 -0.2362
  385TMC3    C6 5756   2.099   0.009  12.285 -0.1477  0.0357  0.8904
  385TMC3     C 5757   2.025   0.278  12.033  0.0906 -0.2881 -0.0848
  385TMC3     O 5758   1.906   0.269  12.068 -0.5188  0.6355 -0.3270
  385TMC3     H 5759   1.979   0.024  11.983 -0.8084  1.1238  0.0252
  385TMC3    H1 5760   2.236   0.290  12.171  1.3563 -0.9845 -2.9756
  385TMC3    H2 5761   2.082   4.667  12.369 -2.5239  0.4725  0.7632
  385TMC3    C7 5762   2.108   0.227  12.381  0.1246 -0.0528 -0.7058
  385TMC3    C8 5763   2.003   4.560  12.160 -0.5770 -0.1170  0.3953
  385TMC3    O1 5764   2.132   0.347  12.375  0.2145  0.3282  0.0201
  385TMC3    O2 5765   1.997   4.495  12.262  0.3963  0.1662  0.2736
  386TMC3    C1 5766   1.185   2.971  12.060  0.3553  0.3780  0.0580
  386TMC3    C2 5767   1.248   2.946  11.936 -0.0333  0.4703 -0.1950
  386TMC3    C3 5768   1.166   2.913  11.826  0.7062  0.2861  0.1929
  386TMC3    C4 5769   1.052   2.978  12.071 -0.2506  1.2579  0.2873
  386TMC3    C5 5770   0.972   2.949  11.961  0.0073 -0.2133  0.5194
  386TMC3    C6 5771   1.029   2.918  11.841 -0.5844  0.1273 -0.0584
  386TMC3     C 5772   1.271   2.984  12.178 -0.6435 -0.3394  0.6593
  386TMC3     O 5773   1.210   3.032  12.277 -0.2182 -0.2713  0.5009
  386TMC3     H 5774   1.355   2.950  11.921 -0.0370 -1.5436 -0.7288
  386TMC3    H1 5775   1.011   3.023  12.160 -2.4805  1.5283 -0.8771
  386TMC3    H2 5776   0.976   2.908  11.747  2.6894 -0.7087 -1.8148
  386TMC3    C7 5777   0.829   2.964  11.967 -0.1441 -0.6479 -0.6093
  386TMC3    C8 5778   1.215   2.843  11.703  0.3778  0.1754  0.0130
  386TMC3    O1 5779   0.761   2.955  11.865 -0.8524 -0.1795 -0.5179
  386TMC3    O2 5780   1.148   2.866  11.604 -0.1229  0.3036 -0.2696
  387MPD2     C 5781   4.321   2.821  10.084  0.1443  0.2720  0.0733
  387MPD2    C1 5782   4.452   2.771  10.070  0.1833  0.4481  0.0411
  387MPD2    C2 5783   4.469   2.635  10.060 -0.5761  0.6538 -0.0707
  387MPD2    C3 5784   4.363   2.548  10.031 -0.0148 -0.2191  0.0707
  387MPD2    C4 5785   4.237   2.602  10.033  0.9006 -0.6579 -0.2889
  387MPD2    C5 5786   4.217   2.735  10.056  0.7136 -0.1924  0.5996
  387MPD2     H 5787   4.568   2.591  10.055 -0.9915 -0.1900 -0.9525
  387MPD2    H1 5788   4.149   2.545  10.003 -0.1486  0.6595  0.2698
  387MPD2    H2 5789   4.295   2.926  10.092 -0.5890  0.3369 -3.1937
  387MPD2    H3 5790   4.113   2.766  10.055  0.4406 -1.1547 -2.3636
  387MPD2     N 5791   4.395   2.411  10.009 -0.3278 -0.1651 -0.5972
  387MPD2    H5 5792   4.484   2.377  10.044  0.0704  1.4979  0.0408
  387MPD2    N1 5793   4.565   2.850  10.045 -0.2770  0.2517 -0.1418
  387MPD2    H7 5794   4.649   2.797  10.029 -0.3655 -0.1783  0.8172
  388TMC3    C1 5795   4.689   3.026   9.945  0.4209  0.3860  0.6704
  388TMC3    C2 5796   0.012   3.151   9.955 -0.6259 -0.5625 -0.1051
  388TMC3    C3 5797   0.116   3.190   9.864  0.3043  0.2107 -0.6402
  388TMC3    C4 5798   0.002   2.938   9.847  0.1686 -0.0893  0.9445
  388TMC3    C5 5799   0.098   2.982   9.758  0.2389  0.6198 -0.1418
  388TMC3    C6 5800   0.153   3.106   9.759 -0.8852  0.6853  0.0690
  388TMC3     C 5801   4.562   2.983  10.013  0.4402  0.6964 -0.0007
  388TMC3     O 5802   4.479   3.069  10.047  0.2995  0.3530 -0.6044
  388TMC3     H 5803   4.723   3.202  10.049 -1.2936 -0.3477 -0.3198
  388TMC3    H1 5804   4.677   2.843   9.829 -0.4804  0.4544 -0.1475
  388TMC3    H2 5805   0.219   3.128   9.677  1.1089 -1.3786  1.1116
  388TMC3    C7 5806   0.169   2.881   9.680 -0.6263 -0.1194  0.2644
  388TMC3    C8 5807   0.206   3.301   9.887 -0.9123 -0.5609  0.3606
  388TMC3    O1 5808   0.225   2.906   9.575  0.5296  0.2091  0.0091
  388TMC3    O2 5809   0.312   3.303   9.825 -0.1248 -0.6610 -0.3866
  389MPD2     C 5810   4.055   0.726  11.179 -0.2794 -0.5704 -0.1766
  389MPD2    C1 5811   3.950   0.642  11.139  0.3384 -0.1331  0.2861
  389MPD2    C2 5812   3.898   0.551  11.234 -0.6361  0.4850  0.4838
  389MPD2    C3 5813   3.950   0.531  11.357  0.9902  0.6995  1.1764
  389MPD2    C4 5814   4.038   0.628  11.397  0.1675  0.7034 -0.1247
  389MPD2    C5 5815   4.092   0.720  11.307  0.0725 -0.5599  0.4523
  389MPD2     H 5816   3.815   0.488  11.205  1.7607 -2.3997 -0.1535
  389MPD2    H1 5817   4.081   0.627  11.497 -2.1415 -0.8927  0.8317
  389MPD2    H2 5818   4.090   0.808  11.117  0.0562  1.1568  2.2776
  389MPD2    H3 5819   4.160   0.799  11.336 -0.7386  0.3542 -0.1201
  389MPD2     N 5820   3.903   0.436  11.448 -0.4548 -0.1609 -0.7991
  389MPD2    H5 5821   3.918   0.450  11.547 -1.8496 -1.0030 -0.4567
  389MPD2    N1 5822   3.889   0.687  11.022  0.2788 -0.7868  0.3579
  389MPD2    H7 5823   3.939   0.763  10.976 -1.3896  1.0933  1.6164
  390TMC3    C1 5824   3.740   0.307  11.552 -0.3037  0.4540 -0.4152
  390TMC3    C2 5825   3.644   0.208  11.529 -0.2508  0.0587  0.4441
  390TMC3    C3 5826   3.523   0.222  11.589  0.4271 -0.9954  0.5120
  390TMC3    C4 5827   3.706   0.419  11.619 -0.3149 -0.2298  0.5476
  390TMC3    C5 5828   3.590   0.419  11.693 -0.4384 -0.0532 -0.3796
  390TMC3    C6 5829   3.492   0.323  11.680  0.4253  0.2449  0.7563
  390TMC3     C 5830   3.809   0.339  11.428  0.6715  0.1851 -0.1901
  390TMC3     O 5831   3.774   0.288  11.323  0.5141  0.2458 -0.1298
  390TMC3     H 5832   3.664   0.129  11.458 -0.6700  0.0208  0.3657
  390TMC3    H1 5833   3.779   0.497  11.639  1.2814 -1.6177  0.1722
  390TMC3    H2 5834   3.407   0.329  11.747 -0.4225  1.7158 -0.4682
  390TMC3    C7 5835   3.580   0.536  11.781 -0.3411 -0.7433  0.4868
  390TMC3    C8 5836   3.414   0.126  11.560  0.0123 -0.0363  0.3061
  390TMC3    O1 5837   3.671   0.616  11.774 -0.7929 -0.1949  0.0370
  390TMC3    O2 5838   3.435   0.030  11.486 -0.3334 -0.5104 -0.1708
  391MPD2     C 5839   2.915   2.143  11.339 -0.1348 -0.4260  0.7194
  391MPD2    C1 5840   3.018   2.221  11.297 -0.7889 -0.2174 -0.4287
  391MPD2    C2 5841   3.049   2.226  11.167  1.1078 -0.4234  0.2154
  391MPD2    C3 5842   2.988   2.149  11.076 -0.5150  0.2271 -0.5068
  391MPD2    C4 5843   2.887   2.072  11.112 -0.0075  0.0771 -0.7014
  391MPD2    C5 5844   2.849   2.074  11.245 -0.7858  0.1165 -0.0401
  391MPD2     H 5845   3.132   2.289  11.137  0.2641  1.4566  1.7465
  391MPD2    H1 5846   2.831   2.006  11.047 -1.6991 -0.2709  1.1167
  391MPD2    H2 5847   2.893   2.133  11.445  0.3224  0.1098  0.8600
  391MPD2    H3 5848   2.770   2.006  11.276 -0.3959  0.3794  1.5099
  391MPD2     N 5849   3.027   2.156  10.947 -0.1675 -0.3111 -0.8557
  391MPD2    H5 5850   3.118   2.202  10.940  0.0591 -1.1074 -3.0548
  391MPD2    N1 5851   3.080   2.304  11.395 -0.1352  0.2061 -0.6344
  391MPD2    H7 5852   3.059   2.283  11.492 -0.5031  0.7516 -0.5963
  392TMC3    C1 5853   3.028   2.172  10.714 -0.3526  0.3242 -0.4265
  392TMC3    C2 5854   2.946   2.165  10.607 -0.1850 -1.2353 -1.0781
  392TMC3    C3 5855   2.966   2.239  10.491  0.1448 -0.4568 -0.6709
  392TMC3    C4 5856   3.139   2.252  10.716  0.3610  0.3387  1.0913
  392TMC3    C5 5857   3.161   2.317  10.600 -0.3351  0.3315 -0.6021
  392TMC3    C6 5858   3.076   2.324  10.493  0.3343  0.2502  0.3185
  392TMC3     C 5859   2.968   2.112  10.832  0.1395 -0.1639  0.0862
  392TMC3     O 5860   2.870   2.039  10.819 -0.5174 -0.1384  0.1482
  392TMC3     H 5861   2.864   2.093  10.607 -0.8285 -0.5015 -1.1769
  392TMC3    H1 5862   3.202   2.264  10.803  0.5417  1.6677  0.7858
  392TMC3    H2 5863   3.089   2.382  10.403  3.3459  0.6493  1.0082
  392TMC3    C7 5864   3.276   2.408  10.600 -0.2372  0.2674  0.6356
  392TMC3    C8 5865   2.876   2.237  10.380  0.2230  0.1449 -0.3437
  392TMC3    O1 5866   3.331   2.436  10.707  0.0498  0.2376 -0.3560
  392TMC3    O2 5867   2.830   2.129  10.344  0.3364 -0.0259  0.5058
  393TMC3    C1 5868   2.136   0.224  10.477 -0.1008 -0.9898 -0.4101
  393TMC3    C2 5869   2.028   0.252  10.555  0.1370  0.2550  0.5488
  393TMC3    C3 5870   2.034   0.238  10.697 -0.2816 -0.1278 -0.6677
  393TMC3    C4 5871   2.244   0.167  10.541 -0.0389  0.1390 -0.3624
  393TMC3    C5 5872   2.243   0.152  10.677 -0.1773  0.4561 -0.6387
  393TMC3    C6 5873   2.138   0.180  10.760 -0.8289  0.4608  0.3340
  393TMC3     C 5874   2.133   0.245  10.328 -0.2980  0.0170  1.0860
  393TMC3     O 5875   2.245   0.260  10.274  0.3050 -0.0001 -0.2541
  393TMC3     H 5876   1.937   0.292  10.512  1.1971  1.6908 -0.3639
  393TMC3    H1 5877   2.341   0.157  10.493  0.2171 -2.0440  0.6102
  393TMC3    H2 5878   2.153   0.188  10.867 -0.0682 -1.0249  0.3388
  393TMC3    C7 5879   2.362   0.122  10.741 -0.3198 -0.6869  0.1263
  393TMC3    C8 5880   1.918   0.258  10.765 -0.6390  0.0555  0.0649
  393TMC3    O1 5881   2.407   0.183  10.837 -0.0725 -0.1933  0.0210
  393TMC3    O2 5882   1.823   0.306  10.703 -0.1568 -0.1643 -0.1218
  394TMC3    C1 5883   3.766   0.675  10.820  0.1568 -0.0481 -0.1776
  394TMC3    C2 5884   3.643   0.638  10.781  0.0805  0.0913  0.4341
  394TMC3    C3 5885   3.602   0.694  10.665  0.0234 -0.0670 -0.5285
  394TMC3    C4 5886   3.848   0.764  10.748 -0.1192 -0.6285 -0.0463
  394TMC3    C5 5887   3.795   0.814  10.630  0.6640  0.4869  0.3312
  394TMC3    C6 5888   3.667   0.786  10.589 -1.0604  0.2428  1.0586
  394TMC3     C 5889   3.796   0.617  10.946  0.3329 -0.3828 -0.2288
  394TMC3     O 5890   3.734   0.517  10.983  0.2374  0.8212  0.1187
  394TMC3     H 5891   3.585   0.565  10.837 -2.0751  1.3373 -0.1601
  394TMC3    H1 5892   3.947   0.795  10.778 -0.4650 -2.0700  2.5244
  394TMC3    H2 5893   3.631   0.816  10.491  1.7584 -1.4187 -0.4864
  394TMC3    C7 5894   3.876   0.899  10.544  0.1592 -0.1448 -0.5729
  394TMC3    C8 5895   3.490   0.632  10.598 -0.3498  0.2934 -0.3342
  394TMC3    O1 5896   3.817   0.948  10.450 -0.0650 -0.0264  0.0352
  394TMC3    O2 5897   3.411   0.703  10.542 -0.0693 -0.1547 -0.1102
  395TMC3    C1 5898   3.004   3.267  14.385  0.2359 -0.2174 -0.7648
  395TMC3    C2 5899   2.891   3.271  14.463 -0.8965  0.2285  0.3831
  395TMC3    C3 5900   2.892   3.310  14.589 -0.3193 -0.2503 -0.6281
  395TMC3    C4 5901   3.119   3.325  14.431  0.1864 -0.1520 -0.3945
  395TMC3    C5 5902   3.113   3.384  14.553 -0.3010 -0.2573  0.6337
  395TMC3    C6 5903   3.000   3.377  14.634 -0.4997  0.2588 -0.4672
  395TMC3     C 5904   3.025   3.129  14.344 -0.1466  0.0007 -0.5760
  395TMC3     O 5905   2.949   3.050  14.395 -0.2332 -0.3461  0.0057
  395TMC3     H 5906   2.801   3.225  14.423 -0.0465 -0.6766 -0.4767
  395TMC3    H1 5907   3.203   3.324  14.363  1.8877 -0.7033  1.7407
  395TMC3    H2 5908   2.999   3.392  14.742  2.0823  2.1394 -0.7217
  395TMC3    C7 5909   3.234   3.366  14.633 -0.2018  0.6991 -0.9438
  395TMC3    C8 5910   2.828   3.227  14.692  0.3262 -0.7495 -0.2070
  395TMC3    O1 5911   3.234   3.404  14.746  0.0351  0.7631 -0.3178
  395TMC3    O2 5912   2.770   3.284  14.784 -0.6328  0.1839  0.3455
  396MPD2     C 5913   3.297   3.771  17.137  0.4688 -0.6207 -0.6178
  396MPD2    C1 5914   3.384   3.857  17.201  0.4246 -0.6237 -0.2777
  396MPD2    C2 5915   3.407   3.986  17.140 -0.1876  0.1235 -1.0192
  396MPD2    C3 5916   3.357   4.022  17.020  0.9628  0.2448 -0.4019
  396MPD2    C4 5917   3.288   3.929  16.949  0.9867  0.0073 -0.2072
  396MPD2    C5 5918   3.254   3.815  17.013 -0.5354  0.0489 -0.3657
  396MPD2     H 5919   3.474   4.053  17.193  0.6367  0.5598 -2.5993
  396MPD2    H1 5920   3.259   3.943  16.846 -0.2636  1.4374  0.3348
  396MPD2    H2 5921   3.275   3.670  17.170  0.3077 -0.4490 -0.1992
  396MPD2    H3 5922   3.182   3.749  16.965 -1.4306  0.1916  0.8022
  396MPD2     N 5923   3.394   4.148  16.969  0.6963  0.7293  0.1714
  396MPD2    H5 5924   3.460   4.195  17.030  1.0034 -0.5892  0.8574
  396MPD2    N1 5925   3.442   3.812  17.323 -0.4901  0.4714  0.4959
  396MPD2    H7 5926   3.421   3.715  17.344 -0.5439  0.3611 -0.0809
  397TMC3    C1 5927   3.594   3.787  17.508 -0.3305  0.1869 -0.6910
  397TMC3    C2 5928   3.727   3.792  17.498  0.4172 -0.4777 -0.0612
  397TMC3    C3 5929   3.787   3.669  17.473 -1.0197  0.2855 -0.4446
  397TMC3    C4 5930   3.526   3.670  17.522  0.1948 -0.5196  0.2425
  397TMC3    C5 5931   3.595   3.553  17.519  0.7379 -0.0940  0.4787
  397TMC3    C6 5932   3.727   3.549  17.488  1.1059  0.4025 -0.7153
  397TMC3     C 5933   3.520   3.881  17.416 -0.4134  0.0037  0.1104
  397TMC3     O 5934   3.521   4.000  17.439  0.1465  0.6372  0.1021
  397TMC3     H 5935   3.772   3.887  17.472  0.0250 -0.4128 -0.5262
  397TMC3    H1 5936   3.418   3.670  17.537  0.0335  0.9753 -0.8955
  397TMC3    H2 5937   3.785   3.459  17.496  1.4050  0.6347 -0.2998
  397TMC3    C7 5938   3.539   3.430  17.559 -0.0033 -0.5711  0.0924
  397TMC3    C8 5939   3.930   3.670  17.492 -1.5149  0.1923 -0.7717
  397TMC3    O1 5940   3.605   3.331  17.526 -0.2166 -0.0580 -0.3936
  397TMC3    O2 5941   3.969   3.585  17.574 -0.0028 -0.5175  0.1110
  398MPD2     C 5942   1.024   0.077   0.577  0.5047  0.0815 -0.4720
  398MPD2    C1 5943   1.099   0.168   0.650  0.0742 -0.2003  0.2850
  398MPD2    C2 5944   1.160   0.277   0.587 -0.0442  0.5252  0.0220
  398MPD2    C3 5945   1.154   0.282   0.453 -0.3299  0.4400  0.2698
  398MPD2    C4 5946   1.090   0.194   0.381 -0.2342 -0.0311  0.5765
  398MPD2    C5 5947   1.016   0.096   0.441  0.3051 -0.4021 -0.8509
  398MPD2     H 5948   1.202   0.355   0.650 -0.4993 -0.7665  1.9425
  398MPD2    H1 5949   1.090   0.188   0.273  1.6523  0.4130  0.5539
  398MPD2    H2 5950   0.957   0.002   0.619  0.4703  0.2855 -0.1653
  398MPD2    H3 5951   0.954   0.033   0.378 -1.6762  0.5336  0.1758
  398MPD2     N 5952   1.221   0.384   0.390  0.4497 -0.1426  0.3601
  398MPD2    H5 5953   1.247   0.463   0.447  0.7758 -1.1008  1.5350
  398MPD2    N1 5954   1.109   0.158   0.792 -0.6573  0.4503  0.0906
  398MPD2    H7 5955   1.180   0.216   0.837  1.8041 -2.2014 -0.3877
  399TMC3    C1 5956   1.087   0.056   1.008 -0.2033 -0.4055  0.2007
  399TMC3    C2 5957   1.223   0.069   1.026 -0.2573  0.7019  0.0498
  399TMC3    C3 5958   1.280   4.712   1.121 -0.0701  0.0826  0.2584
  399TMC3    C4 5959   1.009   4.699   1.085 -0.6314  0.8427  0.2808
  399TMC3    C5 5960   1.078   4.615   1.172 -0.6325  0.1071  0.0445
  399TMC3    C6 5961   1.209   4.625   1.199 -0.9526  0.9016  0.2966
  399TMC3     C 5962   1.036   0.079   0.872  0.1559  0.0996  1.5244
  399TMC3     O 5963   0.941   0.002   0.851  0.1819  0.3771 -0.4234
  399TMC3     H 5964   1.283   0.141   0.971 -1.0025  2.0967  1.0615
  399TMC3    H1 5965   0.903   4.685   1.065 -0.3480 -1.2112  0.1379
  399TMC3    H2 5966   1.249   4.552   1.268 -2.0685  0.5966  0.6170
  399TMC3    C7 5967   1.023   4.486   1.190 -1.1012 -0.2056  0.3856
  399TMC3    C8 5968   1.418   4.706   1.153 -0.5980  0.0458 -0.4118
  399TMC3    O1 5969   1.105   4.391   1.187 -0.2799  0.3748 -0.2667
  399TMC3    O2 5970   1.446   4.657   1.263  0.6056 -0.4606 -0.1348
  400TMC3    C1 5971   0.165   3.511  16.990  0.0969 -0.0516  0.2755
  400TMC3    C2 5972   0.047   3.454  16.945  0.2182 -0.0837  0.5993
  400TMC3    C3 5973   4.676   3.539  16.904  0.2846 -0.4729  0.1156
  400TMC3    C4 5974   0.182   3.650  17.006 -0.4091 -0.0081 -0.3515
  400TMC3    C5 5975   0.076   3.724  16.963  0.6517  0.6797 -0.3636
  400TMC3    C6 5976   4.685   3.672  16.912 -0.4701  0.4802  0.7438
  400TMC3     C 5977   0.234   3.422  17.073  0.5144 -0.1007 -0.0543
  400TMC3     O 5978   0.184   3.314  17.080  0.2867  0.4491  0.0763
  400TMC3     H 5979   0.032   3.347  16.936  0.2858 -0.0307 -0.1288
  400TMC3    H1 5980   0.274   3.695  17.043  0.5644 -0.9465 -1.6402
  400TMC3    H2 5981   4.600   3.735  16.891  0.5772  2.8258  3.5168
  400TMC3    C7 5982   0.072   3.870  16.971 -0.2469  0.3319 -0.3682
  400TMC3    C8 5983   4.543   3.474  16.898 -0.4240 -0.0694  0.5424
  400TMC3    O1 5984   4.689   3.930  16.961 -0.1543  0.3763 -0.4284
  400TMC3    O2 5985   4.479   3.500  16.797 -0.2320 -0.2662  0.3765
  401MPD2     C 5986   3.124   2.513   0.615 -0.0811 -0.3254  0.4387
  401MPD2    C1 5987   3.069   2.435   0.715  0.3949 -0.9354  0.3330
  401MPD2    C2 5988   3.009   2.315   0.690  0.6799 -0.2322  0.1955
  401MPD2    C3 5989   3.003   2.273   0.560 -0.3348 -0.2113  0.2975
  401MPD2    C4 5990   3.064   2.337   0.455 -0.5209 -0.1739 -0.4254
  401MPD2    C5 5991   3.119   2.460   0.480  0.0214 -0.2598 -0.0046
  401MPD2     H 5992   2.966   2.259   0.772  1.6457 -1.2179  0.0258
  401MPD2    H1 5993   3.068   2.300   0.353 -1.0957  0.6710 -0.7668
  401MPD2    H2 5994   3.154   2.617   0.621 -0.8150 -0.2029  2.0115
  401MPD2    H3 5995   3.139   2.521   0.392 -1.5597  0.4792  0.1513
  401MPD2     N 5996   2.941   2.144   0.547 -0.4918 -0.3034  0.3268
  401MPD2    H5 5997   2.925   2.093   0.633  0.2308 -1.7889 -0.4171
  401MPD2    N1 5998   3.060   2.471   0.853  0.1024 -0.0637  0.0645
  401MPD2    H7 5999   3.013   2.406   0.916  0.7098  1.4947  2.1195
  402TMC3    C1 6000   2.895   1.923   0.459  0.2651  0.1728 -0.2796
  402TMC3    C2 6001   2.857   1.893   0.586  0.0898 -0.5312 -0.1547
  402TMC3    C3 6002   2.898   1.767   0.628 -0.1207 -0.4056  0.1045
  402TMC3    C4 6003   2.961   1.841   0.370 -0.2120  0.3623 -0.5929
  402TMC3    C5 6004   2.987   1.715   0.418  1.0051 -0.4930 -0.3892
  402TMC3    C6 6005   2.952   1.680   0.540  0.7150 -0.1350 -0.1013
  402TMC3     C 6006   2.924   2.070   0.429  0.7145 -0.2398  0.5342
  402TMC3     O 6007   2.951   2.100   0.313 -0.1043  0.3087 -0.5669
  402TMC3     H 6008   2.787   1.954   0.642 -0.4803  0.4327 -1.9062
  402TMC3    H1 6009   2.996   1.873   0.273  0.1155  0.0485 -0.5786
  402TMC3    H2 6010   2.955   1.576   0.567  0.8643  0.4968  2.3070
  402TMC3    C7 6011   3.053   1.617   0.330  0.1141  0.6158  1.0333
  402TMC3    C8 6012   2.873   1.713   0.763  0.0922  0.6731 -0.1482
  402TMC3    O1 6013   3.039   1.629   0.208 -0.1980 -0.2499  0.3518
  402TMC3    O2 6014   2.890   1.594   0.783  0.0561  0.5455  0.7888
  403MPD2     C 6015   1.624   0.554  13.439 -0.3168 -0.2095  0.7441
  403MPD2    C1 6016   1.696   0.458  13.506  0.5354  0.0831 -0.6717
  403MPD2    C2 6017   1.805   0.498  13.583  0.1616 -0.0267  0.0556
  403MPD2    C3 6018   1.835   0.631  13.587  0.4260 -0.1258  0.6313
  403MPD2    C4 6019   1.765   0.732  13.520 -0.5935  0.1006  0.0332
  403MPD2    C5 6020   1.660   0.688  13.442  0.3348 -0.2428 -0.5455
  403MPD2     H 6021   1.874   0.430  13.631 -0.7828 -0.2728  1.0857
  403MPD2    H1 6022   1.785   0.838  13.535 -0.6277 -0.1705  2.0406
  403MPD2    H2 6023   1.538   0.524  13.381 -1.8303  0.3937  2.6959
  403MPD2    H3 6024   1.606   0.763  13.385  2.8802  0.8294 -1.5260
  403MPD2     N 6025   1.940   0.661  13.672  0.4909 -0.0405 -0.0533
  403MPD2    H5 6026   1.991   0.584  13.715 -2.0622 -2.3372 -1.1289
  403MPD2    N1 6027   1.652   0.326  13.486  0.0244 -0.2948  0.3209
  403MPD2    H7 6028   1.566   0.318  13.432  0.5193  1.5537 -0.7414
  404TMC3    C1 6029   1.627   0.104  13.505  0.6988  0.3406  0.5575
  404TMC3    C2 6030   1.507   0.078  13.565  0.3634 -0.4419  0.4916
  404TMC3    C3 6031   1.405   0.034  13.489  0.3514 -0.7423 -0.1493
  404TMC3    C4 6032   1.630   0.101  13.367 -0.6235 -0.2408  0.0453
  404TMC3    C5 6033   1.528   0.055  13.290 -0.5021 -0.7382 -1.0135
  404TMC3    C6 6034   1.409   0.027  13.350  0.1192 -0.0659 -0.3980
  404TMC3     C 6035   1.701   0.217  13.552  0.1856 -0.4192  0.6351
  404TMC3     O 6036   1.793   0.203  13.634  0.0995 -0.3702 -0.6666
  404TMC3     H 6037   1.502   0.066  13.673 -0.1963 -1.1245  0.3882
  404TMC3    H1 6038   1.726   0.127  13.322 -0.4981  0.8500  0.9217
  404TMC3    H2 6039   1.327   4.717  13.288 -0.5007  0.6061  0.0476
  404TMC3    C7 6040   1.523   0.114  13.162 -0.2157  0.1933  0.3990
  404TMC3    C8 6041   1.271   0.003  13.539  0.0651  0.0299 -0.9092
  404TMC3    O1 6042   1.589   0.219  13.149  0.0266 -0.0448  0.1758
  404TMC3    O2 6043   1.182   4.691  13.466 -0.4688 -0.4475  0.2330
  405MPD2     C 6044   1.395   1.125  14.125  0.6474 -0.3947  0.7038
  405MPD2    C1 6045   1.387   0.997  14.073 -0.4292 -0.3686  0.1483
  405MPD2    C2 6046   1.272   0.922  14.096 -0.1433  0.1468  0.4297
  405MPD2    C3 6047   1.175   0.969  14.177  0.2164 -0.3262  0.3350
  405MPD2    C4 6048   1.185   1.092  14.241  0.3331  0.9456 -0.2932
  405MPD2    C5 6049   1.292   1.175  14.205  0.0872 -0.2999 -0.2314
  405MPD2     H 6050   1.274   0.820  14.059 -2.5446 -0.4303  1.9130
  405MPD2    H1 6051   1.116   1.121  14.320 -0.9308 -0.9119 -0.6904
  405MPD2    H2 6052   1.487   1.181  14.109  0.1913  0.3438  0.6873
  405MPD2    H3 6053   1.311   1.268  14.258 -3.1040  0.8422 -1.1225
  405MPD2     N 6054   1.067   0.883  14.205 -0.1799 -0.3834  0.6946
  405MPD2    H5 6055   1.072   0.793  14.159 -0.9370 -0.2149  0.2782
  405MPD2    N1 6056   1.487   0.937  13.995  0.7261 -0.8205  0.4234
  405MPD2    H7 6057   1.467   0.849  13.948  0.8545 -1.0356  0.7721
  406TMC3    C1 6058   0.614   0.858  14.116 -0.6674 -0.0942 -0.0320
  406TMC3    C2 6059   0.650   0.789  14.004  0.0408 -0.9784  0.1327
  406TMC3    C3 6060   0.777   0.735  13.992 -0.1987 -0.1001 -0.3463
  406TMC3    C4 6061   0.716   0.905  14.205 -0.3101  0.0515 -0.9523
  406TMC3    C5 6062   0.838   0.849  14.190  1.0989 -0.4552 -0.2749
  406TMC3    C6 6063   0.875   0.763  14.091  0.5726  0.4473 -1.1399
  406TMC3     C 6064   0.486   0.926  14.128  0.5908  0.4767  0.0790
  406TMC3     O 6065   0.413   0.917  14.030 -0.6319 -0.4988  0.5456
  406TMC3     H 6066   0.575   0.780  13.926 -0.0373 -0.0153  0.0939
  406TMC3    H1 6067   0.694   0.982  14.277  0.9221 -1.0065  0.5518
  406TMC3    H2 6068   0.961   0.697  14.100 -1.9268 -2.3138  2.5244
  406TMC3    C7 6069   0.942   0.928  14.249 -0.2203 -0.0401  0.1547
  406TMC3    C8 6070   0.826   0.702  13.857 -0.6931  0.0165  0.5727
  406TMC3    O1 6071   0.909   1.035  14.300 -0.1418 -0.1783  0.0268
  406TMC3    O2 6072   0.738   0.711  13.771  0.2019  0.3998 -0.1995
  407MPD2     C 6073   3.893   2.029   9.837  0.4705 -0.4193 -0.4225
  407MPD2    C1 6074   3.963   2.142   9.815 -0.6689 -0.5345 -0.1474
  407MPD2    C2 6075   3.950   2.249   9.904 -0.2823 -0.7032 -0.5616
  407MPD2    C3 6076   3.866   2.250  10.016  0.3862  0.2101  0.2867
  407MPD2    C4 6077   3.805   2.132  10.040  0.3624 -0.6890 -0.0356
  407MPD2    C5 6078   3.810   2.027   9.950 -0.3545 -0.1832  0.4848
  407MPD2     H 6079   4.000   2.342   9.877 -0.4104 -0.5853 -0.3976
  407MPD2    H1 6080   3.741   2.124  10.128 -1.8759  4.9644 -1.2026
  407MPD2    H2 6081   3.886   1.943   9.771  2.5519  0.7350 -2.1448
  407MPD2    H3 6082   3.744   1.942   9.960  0.3576 -0.8838 -0.9000
  407MPD2     N 6083   3.845   2.355  10.107  0.4750 -0.0925  0.1900
  407MPD2    H5 6084   3.805   2.330  10.197 -0.0974 -0.8571 -0.2763
  407MPD2    N1 6085   4.044   2.171   9.699 -0.3376  0.2518  0.3729
  407MPD2    H7 6086   4.093   2.259   9.707  0.4512 -0.2312  0.8767
  408TMC3    C1 6087   4.182   2.120   9.514 -0.3322  0.1669 -0.4318
  408TMC3    C2 6088   4.250   2.018   9.451 -0.1462  0.3103  0.4095
  408TMC3    C3 6089   4.386   2.028   9.430  0.0776  0.6896  0.8092
  408TMC3    C4 6090   4.248   2.233   9.555 -0.9227  0.3664 -0.3953
  408TMC3    C5 6091   4.387   2.241   9.523 -0.1460 -0.3515 -0.4084
  408TMC3    C6 6092   4.457   2.144   9.463 -0.7935  0.8268  0.3770
  408TMC3     C 6093   4.071   2.078   9.594 -0.0986  0.2147 -0.0924
  408TMC3     O 6094   4.008   1.977   9.556 -0.5075 -0.2015 -0.1276
  408TMC3     H 6095   4.200   1.927   9.420  0.7201 -0.3050  0.7979
  408TMC3    H1 6096   4.194   2.322   9.585 -1.4718 -0.5461  1.3452
  408TMC3    H2 6097   4.560   2.169   9.443 -0.2590 -0.7585  1.1713
  408TMC3    C7 6098   4.441   2.371   9.521  0.2413 -0.2046 -0.7553
  408TMC3    C8 6099   4.468   1.911   9.409 -0.2932 -0.3437 -0.2377
  408TMC3    O1 6100   4.521   2.389   9.433 -0.2452 -0.2466  0.1144
  408TMC3    O2 6101   4.414   1.807   9.370 -0.5566 -0.0489  0.4782
  409MPD2     C 6102   3.580   2.951  17.403  0.1241  0.6356  0.0385
  409MPD2    C1 6103   3.678   2.999  17.478 -0.0346  0.3522  0.2886
  409MPD2    C2 6104   3.774   3.090  17.436 -0.0691 -0.7635 -0.4964
  409MPD2    C3 6105   3.764   3.132  17.302  1.0342  0.3805 -0.8677
  409MPD2    C4 6106   3.668   3.079  17.218 -0.7326  0.2484  0.3028
  409MPD2    C5 6107   3.579   2.995  17.271 -0.1952  0.2222 -0.4474
  409MPD2     H 6108   3.855   3.110  17.504  0.4226 -2.5497 -0.5536
  409MPD2    H1 6109   3.662   3.117  17.117 -2.6892  0.1829  0.3842
  409MPD2    H2 6110   3.493   2.893  17.428  0.7061 -0.2343  0.0219
  409MPD2    H3 6111   3.500   2.978  17.199 -0.0445  0.8727 -0.7638
  409MPD2     N 6112   3.858   3.214  17.245 -0.5830  0.1135 -0.0681
  409MPD2    H5 6113   3.857   3.215  17.143  1.1064  0.1449 -0.0836
  409MPD2    N1 6114   3.705   2.940  17.605  0.2527 -0.1187  0.4150
  409MPD2    H7 6115   3.798   2.960  17.641  0.7164 -0.2757 -0.6761
  410TMC3    C1 6116   4.034   3.356  17.208  0.7742  0.3992  0.4827
  410TMC3    C2 6117   4.142   3.429  17.250 -0.0916 -0.7359  0.6197
  410TMC3    C3 6118   4.198   3.521  17.163 -0.1610 -0.4237  0.8804
  410TMC3    C4 6119   3.971   3.396  17.093  0.8604 -0.3681  1.0552
  410TMC3    C5 6120   4.030   3.490  17.007 -0.3919 -0.0232  0.8179
  410TMC3    C6 6121   4.150   3.551  17.042  0.4284  0.5787  0.7492
  410TMC3     C 6122   3.953   3.289  17.310  0.0661  0.4648  0.5459
  410TMC3     O 6123   3.990   3.310  17.424 -0.0402 -0.2373 -0.1523
  410TMC3     H 6124   4.184   3.414  17.349 -2.1147 -0.3862  1.5228
  410TMC3    H1 6125   3.866   3.374  17.080  0.6362  1.5841 -0.3812
  410TMC3    H2 6126   4.201   3.620  16.976  0.8188  2.1949  2.7290
  410TMC3    C7 6127   3.953   3.524  16.888 -1.1649  0.3097 -0.2268
  410TMC3    C8 6128   4.307   3.593  17.214 -0.2709  0.1330  0.6604
  410TMC3    O1 6129   3.859   3.445  16.863  0.5415  0.4000  0.9935
  410TMC3    O2 6130   4.376   3.540  17.303  0.1407 -0.1974  0.4236
  411MPD2     C 6131   4.318   3.857  14.577  0.2822 -0.4280 -0.1991
  411MPD2    C1 6132   4.211   3.908  14.650  0.5977 -0.2950 -0.2933
  411MPD2    C2 6133   4.127   3.817  14.705  0.8409  0.4384  0.0389
  411MPD2    C3 6134   4.135   3.680  14.678  0.1236  0.2680 -0.3094
  411MPD2    C4 6135   4.262   3.630  14.626  0.4878  0.2349 -0.2349
  411MPD2    C5 6136   4.342   3.724  14.570 -0.1341 -0.4952 -0.1869
  411MPD2     H 6137   4.041   3.848  14.764 -0.9890 -1.7887 -1.4301
  411MPD2    H1 6138   4.260   3.524  14.603  1.5056  0.2214 -0.2447
  411MPD2    H2 6139   4.392   3.929  14.546  1.3528 -2.0668 -1.4437
  411MPD2    H3 6140   4.441   3.694  14.537 -0.5241 -1.3448 -0.5946
  411MPD2     N 6141   4.025   3.588  14.678 -0.6431 -0.1569 -0.0860
  411MPD2    H5 6142   4.032   3.498  14.632 -3.4084  0.8188 -2.3683
  411MPD2    N1 6143   4.189   4.050  14.667  0.4928  0.0643  0.3871
  411MPD2    H7 6144   4.245   4.120  14.621  1.7076 -0.9409  0.3613
  412TMC3    C1 6145   3.788   3.540  14.697  0.4359 -0.2307 -0.5867
  412TMC3    C2 6146   3.676   3.600  14.737  0.3895  0.3934 -0.0591
  412TMC3    C3 6147   3.582   3.609  14.638  0.3321 -0.3616  0.1193
  412TMC3    C4 6148   3.803   3.484  14.574 -0.0325 -0.2542 -0.3130
  412TMC3    C5 6149   3.701   3.489  14.487 -0.4952 -0.5553  0.2024
  412TMC3    C6 6150   3.583   3.546  14.518  0.9215  0.0272 -0.6420
  412TMC3     C 6151   3.908   3.605  14.753 -0.1866 -0.2566 -1.0765
  412TMC3     O 6152   3.900   3.673  14.854 -0.1666 -0.1624 -0.2545
  412TMC3     H 6153   3.660   3.647  14.833  1.7837 -1.9408  1.3100
  412TMC3    H1 6154   3.890   3.432  14.535  3.2160  4.3809  0.8188
  412TMC3    H2 6155   3.492   3.515  14.469  0.6769 -2.4172  1.3532
  412TMC3    C7 6156   3.723   3.443  14.349  0.3498 -0.2720  0.7089
  412TMC3    C8 6157   3.476   3.701  14.647  0.4749 -0.3024  0.2614
  412TMC3    O1 6158   3.817   3.372  14.316  0.1417  0.2576 -0.6240
  412TMC3    O2 6159   3.413   3.695  14.750 -0.0778  0.7393 -0.1843
  413MPD2     C 6160   0.521   1.756  15.602 -0.1614 -0.1855 -0.0697
  413MPD2    C1 6161   0.512   1.815  15.477 -0.4222 -0.2687 -0.3420
  413MPD2    C2 6162   0.585   1.762  15.372 -0.2169  0.0787 -0.4723
  413MPD2    C3 6163   0.688   1.670  15.398 -0.5133  0.0606 -0.6644
  413MPD2    C4 6164   0.688   1.609  15.523  0.2240  0.6109 -0.2646
  413MPD2    C5 6165   0.605   1.656  15.621  0.0646  0.2667  0.0393
  413MPD2     H 6166   0.584   1.813  15.277 -0.8553 -1.5468 -1.3397
  413MPD2    H1 6167   0.754   1.525  15.542 -2.2359 -1.2639 -0.0902
  413MPD2    H2 6168   0.470   1.798  15.688  2.0902 -1.5248  1.8820
  413MPD2    H3 6169   0.622   1.606  15.716  0.6411 -0.0025 -0.2066
  413MPD2     N 6170   0.776   1.632  15.291 -0.7140  0.4741 -0.5678
  413MPD2    H5 6171   0.749   1.673  15.202 -0.5312 -0.7493 -1.1922
  413MPD2    N1 6172   0.417   1.916  15.461  0.2405 -0.2703  0.2241
  413MPD2    H7 6173   0.357   1.939  15.539 -0.0358 -0.2328  0.0049
  414TMC3    C1 6174   0.946   1.518  15.190 -0.0552  0.7832  0.1536
  414TMC3    C2 6175   1.005   1.395  15.200 -0.1466  0.1252 -0.3470
  414TMC3    C3 6176   1.096   1.366  15.104 -0.0152  1.0705  0.4250
  414TMC3    C4 6177   0.980   1.605  15.093  0.1614  0.4470 -0.5376
  414TMC3    C5 6178   1.058   1.564  14.988 -0.2281 -0.1211 -0.6683
  414TMC3    C6 6179   1.112   1.439  14.992 -0.4033 -0.9894  0.2104
  414TMC3     C 6180   0.886   1.557  15.309  0.5251  0.1757  0.3587
  414TMC3     O 6181   0.931   1.507  15.412 -0.0590 -0.4239  0.2864
  414TMC3     H 6182   0.982   1.312  15.266  1.1874  0.1285  0.1322
  414TMC3    H1 6183   0.945   1.707  15.100 -1.1131 -0.0823  0.8429
  414TMC3    H2 6184   1.168   1.398  14.909  1.4830  1.6723  0.1408
  414TMC3    C7 6185   1.155   1.661  14.947 -0.2424 -0.1379 -0.3494
  414TMC3    C8 6186   1.165   1.240  15.109  0.0955 -0.1091  0.6885
  414TMC3    O1 6187   1.199   1.750  15.018 -0.1980  0.4238 -0.0446
  414TMC3    O2 6188   1.184   1.183  15.002 -0.3221 -0.0628 -0.0053
  415TMC3    C1 6189   1.615   4.468  10.219 -0.1144  0.4087 -0.8084
  415TMC3    C2 6190   1.733   4.497  10.170  0.9245 -0.3493  0.4743
  415TMC3    C3 6191   1.739   4.536  10.040 -0.4105 -0.1893 -0.3544
  415TMC3    C4 6192   1.500   4.449  10.148 -0.0280  0.3513  0.0278
  415TMC3    C5 6193   1.513   4.474  10.014  0.3100 -0.5836  0.4363
  415TMC3    C6 6194   1.629   4.528   9.958  0.2799  0.8401  0.5845
  415TMC3     C 6195   1.602   4.424  10.354 -0.4847 -0.1747 -0.5774
  415TMC3     O 6196   1.502   4.355  10.389  0.4588  0.0135 -0.3001
  415TMC3     H 6197   1.818   4.511  10.235 -0.3208  2.6327  1.4779
  415TMC3    H1 6198   1.403   4.447  10.195  0.3188  1.8796  0.7991
  415TMC3    H2 6199   1.637   4.554   9.853 -1.0957 -1.4712 -0.0868
  415TMC3    C7 6200   1.394   4.485   9.934  0.1391  0.2447 -0.2514
  415TMC3    C8 6201   1.867   4.510   9.967 -0.4381 -0.0507 -0.1128
  415TMC3    O1 6202   1.408   4.519   9.817 -0.0849  0.5354  0.2064
  415TMC3    O2 6203   1.851   4.450   9.862 -0.5208  0.7680 -0.4817
  416MPD2     C 6204   3.317   3.416  11.668 -0.0893  0.0194 -0.0794
  416MPD2    C1 6205   3.193   3.354  11.678 -0.0967  0.4442 -0.8173
  416MPD2    C2 6206   3.169   3.254  11.590 -0.2534 -0.7463 -1.0745
  416MPD2    C3 6207   3.249   3.238  11.481 -0.7280 -0.2665 -0.9297
  416MPD2    C4 6208   3.365   3.309  11.468  0.6763 -0.6028  0.1903
  416MPD2    C5 6209   3.410   3.389  11.568 -0.1603  0.3967  0.2938
  416MPD2     H 6210   3.080   3.193  11.599  0.2920 -1.0775  2.0770
  416MPD2    H1 6211   3.440   3.295  11.392 -0.2311  2.5966 -1.3004
  416MPD2    H2 6212   3.342   3.493  11.740  1.0745  1.5434 -2.1125
  416MPD2    H3 6213   3.503   3.444  11.559  0.7487 -1.1752 -0.0161
  416MPD2     N 6214   3.215   3.130  11.397  0.0081 -0.0140  0.0544
  416MPD2    H5 6215   3.141   3.066  11.424  0.4302  0.2650  1.8263
  416MPD2    N1 6216   3.104   3.391  11.781  0.4551 -0.1888  0.0373
  416MPD2    H7 6217   3.138   3.467  11.838 -1.3878  0.9262 -0.3628
  417TMC3    C1 6218   2.881   3.431  11.852 -0.2195  0.5114  0.4129
  417TMC3    C2 6219   2.922   3.524  11.943 -0.1299  0.0833 -0.7929
  417TMC3    C3 6220   2.841   3.630  11.960  0.3607  0.5384 -0.2051
  417TMC3    C4 6221   2.764   3.440  11.780  0.1809 -0.4627 -0.2426
  417TMC3    C5 6222   2.683   3.546  11.803  0.4309 -0.3990 -1.0392
  417TMC3    C6 6223   2.712   3.629  11.905  0.6159  0.0456  0.0645
  417TMC3     C 6224   2.977   3.335  11.798 -0.3090 -0.1160 -0.6459
  417TMC3     O 6225   2.936   3.229  11.754  0.2833 -0.1957 -0.0657
  417TMC3     H 6226   3.012   3.508  12.002  0.0198  0.4389 -0.9291
  417TMC3    H1 6227   2.752   3.379  11.691 -0.3285  0.6611 -0.9401
  417TMC3    H2 6228   2.639   3.709  11.916 -0.1439 -0.9673  2.3892
  417TMC3    C7 6229   2.577   3.591  11.711 -1.0224 -0.4369  0.5785
  417TMC3    C8 6230   2.846   3.717  12.072  0.3831  0.0598  0.5558
  417TMC3    O1 6231   2.557   3.710  11.704  1.3509 -0.6404  0.1732
  417TMC3    O2 6232   2.740   3.753  12.118  0.3264  0.3645 -0.3567
  418TMC3    C1 6233   1.538   0.579   0.122  0.7778 -0.4505 -0.5746
  418TMC3    C2 6234   1.456   0.478   0.145 -0.3656  0.0071  0.0334
  418TMC3    C3 6235   1.353   0.497   0.234 -1.1445 -0.3468  0.6413
  418TMC3    C4 6236   1.515   0.706   0.174  0.9449  0.0189 -0.0530
  418TMC3    C5 6237   1.419   0.721   0.265  0.7398  0.0208  0.1057
  418TMC3    C6 6238   1.337   0.618   0.302  0.6346 -0.3550  0.6057
  418TMC3     C 6239   1.661   0.561   0.036 -0.1281 -0.6892 -0.0396
  418TMC3     O 6240   1.709   0.669  17.689 -0.0030 -0.0057  0.1590
  418TMC3     H 6241   1.457   0.383   0.093  1.4922  0.6970 -1.1677
  418TMC3    H1 6242   1.573   0.792   0.144 -1.0801  1.7371  0.8963
  418TMC3    H2 6243   1.248   0.642   0.359 -0.0709 -1.3710 -0.0605
  418TMC3    C7 6244   1.483   0.766   0.386 -0.1746 -0.1760 -0.5711
  418TMC3    C8 6245   1.270   0.381   0.259  0.2545 -0.9051 -0.1397
  418TMC3    O1 6246   1.433   0.713   0.488  0.8355  0.0621  0.6983
  418TMC3    O2 6247   1.283   0.285   0.180 -0.2172 -0.2935  0.7566
  419MPD2     C 6248   4.699   3.549  11.992 -0.5178  0.6305  0.0197
  419MPD2    C1 6249   0.034   3.633  12.077  0.1464  0.2152 -1.0233
  419MPD2    C2 6250   0.004   3.628  12.216  0.1235 -0.1081 -0.1926
  419MPD2    C3 6251   4.645   3.534  12.268  0.3689 -0.3408 -0.5687
  419MPD2    C4 6252   4.586   3.443  12.185 -0.4007 -0.5154  0.2462
  419MPD2    C5 6253   4.607   3.456  12.051 -0.2125  0.0941 -0.6145
  419MPD2     H 6254   0.051   3.694  12.287  1.5689 -1.8596  0.4960
  419MPD2    H1 6255   4.521   3.365  12.223  1.2940 -2.2071 -0.2943
  419MPD2    H2 6256   4.712   3.552  11.884  1.7739  0.4203  0.3064
  419MPD2    H3 6257   4.543   3.389  11.994 -0.0427 -1.5692  1.1426
  419MPD2     N 6258   4.627   3.542  12.405 -0.8373 -0.1924 -0.1332
  419MPD2    H5 6259   4.678   3.616  12.454  0.8458  1.6384 -4.6651
  419MPD2    N1 6260   0.121   3.730  12.042 -0.4268  0.5990  0.1083
  419MPD2    H7 6261   0.156   3.775  12.126  1.4260 -0.7819  0.0825
  420TMC3    C1 6262   4.542   3.476  12.614  0.4523  0.5811  0.4356
  420TMC3    C2 6263   4.420   3.504  12.673 -0.1394 -0.8753  0.6168
  420TMC3    C3 6264   4.418   3.586  12.788 -0.0731  0.6845 -0.5834
  420TMC3    C4 6265   4.659   3.530  12.669  0.1036 -0.1456  0.4951
  420TMC3    C5 6266   4.645   3.612  12.781 -0.1601 -0.4228 -0.0653
  420TMC3    C6 6267   4.526   3.642  12.841 -0.4102 -0.0388 -0.0432
  420TMC3     C 6268   4.543   3.456  12.473 -0.4114  0.2530  0.2413
  420TMC3     O 6269   4.445   3.389  12.435 -0.1462  0.1338 -0.5550
  420TMC3     H 6270   4.333   3.472  12.618  0.3452  0.6926 -1.0515
  420TMC3    H1 6271   0.034   3.502  12.634  0.9222  2.5246  0.6740
  420TMC3    H2 6272   4.524   3.700  12.933  1.7914  0.0995 -0.0665
  420TMC3    C7 6273   0.039   3.681  12.817 -0.0790 -0.0523 -0.4430
  420TMC3    C8 6274   4.294   3.636  12.841  0.8879 -0.2180 -0.0218
  420TMC3    O1 6275   0.099   3.748  12.734  0.3288 -0.1821  0.9581
  420TMC3    O2 6276   4.302   3.734  12.914  0.6596  0.0219  0.1970
  421TMC3    C1 6277   2.093   0.788  13.799 -0.0342  0.5213  0.3238
  421TMC3    C2 6278   2.172   0.904  13.800 -0.0247  0.4166 -0.5650
  421TMC3    C3 6279   2.250   0.927  13.916  0.0106 -0.3571 -0.4948
  421TMC3    C4 6280   2.100   0.692  13.889 -0.5704 -0.4567 -0.3699
  421TMC3    C5 6281   2.172   0.719  14.000  1.0963 -0.0411  0.3738
  421TMC3    C6 6282   2.245   0.836  14.020  0.0076  0.2861  0.4156
  421TMC3     C 6283   1.989   0.786  13.702  0.4453 -0.3906 -0.2024
  421TMC3     O 6284   1.967   0.892  13.648 -0.1674 -0.2481 -0.3834
  421TMC3     H 6285   2.175   0.967  13.712  1.6816 -0.3018 -1.0332
  421TMC3    H1 6286   2.029   0.610  13.882  0.3744 -1.4628  2.0362
  421TMC3    H2 6287   2.323   0.849  14.095 -0.2617  0.7159  0.6188
  421TMC3    C7 6288   2.203   0.603  14.087 -0.7505  0.2446 -0.1778
  421TMC3    C8 6289   2.324   1.054  13.926 -0.8546 -0.3945  1.0554
  421TMC3    O1 6290   2.260   0.638  14.188 -0.0275 -0.4143  0.5176
  421TMC3    O2 6291   2.380   1.100  13.833  0.0795  0.3374  0.3631
  422TMC3    C1 6292   3.954   1.871  12.535 -0.6083 -0.4939 -0.3076
  422TMC3    C2 6293   3.897   1.991  12.512  0.2534 -0.0845 -0.3630
  422TMC3    C3 6294   3.789   2.019  12.584 -0.1345  0.3890 -0.3579
  422TMC3    C4 6295   3.891   1.777  12.617  0.4350 -0.0528  0.1844
  422TMC3    C5 6296   3.781   1.810  12.684 -0.7270 -0.3683 -0.1237
  422TMC3    C6 6297   3.731   1.938  12.674 -0.3370 -0.9586  0.5054
  422TMC3     C 6298   4.079   1.849  12.463  0.7865 -0.1182 -0.5418
  422TMC3     O 6299   4.113   1.930  12.379 -0.3273  0.2763 -1.2078
  422TMC3     H 6300   3.937   2.066  12.445  1.0081  0.5058  0.7300
  422TMC3    H1 6301   3.936   1.679  12.624 -2.2000 -1.2398  0.3239
  422TMC3    H2 6302   3.650   1.983  12.730  1.6115  2.4733  0.5715
  422TMC3    C7 6303   3.722   1.714  12.774  0.0102  0.2726  0.0002
  422TMC3    C8 6304   3.771   2.158  12.602 -0.1857  0.0537  0.5472
  422TMC3    O1 6305   3.788   1.618  12.805  0.2375 -0.7669 -0.2406
  422TMC3    O2 6306   3.754   2.229  12.502  0.0456 -0.2861 -0.2532
  423MPD2     C 6307   0.879   2.701   0.942  0.1117  0.5266  0.1443
  423MPD2    C1 6308   0.795   2.594   0.940 -0.6245 -0.5131  0.0146
  423MPD2    C2 6309   0.793   2.507   0.833  0.5413  0.3625  0.4176
  423MPD2    C3 6310   0.855   2.541   0.716 -1.0427  0.1197  0.1453
  423MPD2    C4 6311   0.938   2.651   0.718  0.0499  0.3613  0.4021
  423MPD2    C5 6312   0.955   2.732   0.832  0.3609 -0.2166 -0.4232
  423MPD2     H 6313   0.728   2.420   0.842  1.2215 -0.1901  0.0136
  423MPD2    H1 6314   0.998   2.667   0.629 -1.0157  1.0401 -0.1985
  423MPD2    H2 6315   0.884   2.766   1.029 -2.8140  0.0413  0.6794
  423MPD2    H3 6316   1.021   2.818   0.825 -0.4255  0.7054  3.5753
  423MPD2     N 6317   0.857   2.462   0.599  0.3021 -0.1825  0.1754
  423MPD2    H5 6318   0.915   2.491   0.520 -0.9413  2.4777  0.2379
  423MPD2    N1 6319   0.706   2.575   1.047  0.4250  0.0052  0.2978
  423MPD2    H7 6320   0.649   2.490   1.048 -0.6753  0.7344 -1.0341
  424TMC3    C1 6321   0.548   2.639   1.198 -0.0509 -0.0465 -0.3799
  424TMC3    C2 6322   0.523   2.521   1.262 -0.3285  0.1675 -0.0237
  424TMC3    C3 6323   0.412   2.510   1.334 -0.1185 -0.2423 -0.2031
  424TMC3    C4 6324   0.457   2.738   1.209 -0.5943  0.1315 -0.1525
  424TMC3    C5 6325   0.337   2.721   1.269  0.0069 -0.7108 -0.1952
  424TMC3    C6 6326   0.313   2.604   1.336  0.1183  0.7482  0.2327
  424TMC3     C 6327   0.677   2.665   1.144  0.3805 -0.2067  0.3790
  424TMC3     O 6328   0.717   2.779   1.165  0.6059  0.0114 -0.1148
  424TMC3     H 6329   0.604   2.450   1.273 -0.6403 -0.2593 -0.4247
  424TMC3    H1 6330   0.474   2.839   1.173  1.5278 -1.0083 -2.3389
  424TMC3    H2 6331   0.216   2.588   1.381 -0.7860 -0.8283 -2.2342
  424TMC3    C7 6332   0.250   2.829   1.251  0.0588 -0.2778  0.1838
  424TMC3    C8 6333   0.391   2.387   1.413 -0.4024 -0.5807  0.1073
  424TMC3    O1 6334   0.273   2.920   1.168  0.1180  0.5832 -1.0185
  424TMC3    O2 6335   0.488   2.319   1.433 -0.1670  0.2007  0.2728
  425MPD2     C 6336   0.077   2.038  17.684 -0.2580  0.3679  0.6545
  425MPD2    C1 6337   4.717   1.934  17.675  0.2347  0.2846  0.0326
  425MPD2    C2 6338   4.582   1.957   0.017 -0.0988 -0.3862  0.2514
  425MPD2    C3 6339   4.539   2.080   0.067 -0.0845  0.0195 -0.7963
  425MPD2    C4 6340   4.627   2.185   0.073  0.0251  0.3345 -0.0047
  425MPD2    C5 6341   0.031   2.161   0.033  0.3727 -0.2799  0.2937
  425MPD2     H 6342   4.519   1.869   0.015 -0.3855 -0.1814  0.2602
  425MPD2    H1 6343   4.599   2.285   0.105 -1.6450  0.1823 -0.9969
  425MPD2    H2 6344   0.178   2.032  17.646  0.9158  1.8044  3.4789
  425MPD2    H3 6345   0.091   2.251   0.043 -2.0526  1.2911  0.9519
  425MPD2     N 6346   4.413   2.081   0.120 -0.4829  0.4108  0.2171
  425MPD2    H5 6347   4.366   1.993   0.102  0.9574 -0.1504 -0.7887
  425MPD2    N1 6348   0.042   1.812  17.618  0.3254 -0.8580 -0.1942
  425MPD2    H7 6349   0.143   1.803  17.605  0.8925  0.1908  3.2289
  426TMC3    C1 6350   0.039   1.591  17.534 -0.7782 -0.0056  0.2513
  426TMC3    C2 6351   0.004   1.516  17.418  0.1355 -0.3546  0.3613
  426TMC3    C3 6352   0.079   1.408  17.381 -0.6385  0.0323 -0.2057
  426TMC3    C4 6353   0.160   1.554  17.607 -0.4846 -0.4250  0.2859
  426TMC3    C5 6354   0.231   1.444  17.562  0.1327 -0.4428  0.3448
  426TMC3    C6 6355   0.196   1.376  17.448 -0.1119 -0.4788  0.2559
  426TMC3     C 6356   4.685   1.708  17.573  0.0105 -0.6950  0.3126
  426TMC3     O 6357   4.564   1.697  17.565  0.1971  0.3488 -0.7025
  426TMC3     H 6358   4.644   1.555  17.363 -0.9963 -1.4524  1.3275
  426TMC3    H1 6359   0.185   1.612  17.696 -0.0462 -0.1769 -0.0009
  426TMC3    H2 6360   0.250   1.285  17.424 -0.4698 -0.9569  1.2396
  426TMC3    C7 6361   0.281   1.354  17.664 -0.1244 -0.1788  0.2501
  426TMC3    C8 6362   0.054   1.325  17.257  0.3672  0.1854  0.1102
  426TMC3    O1 6363   0.363   1.269  17.636 -0.0085  0.4801 -0.2812
  426TMC3    O2 6364   0.140   1.260  17.198  0.2589 -0.2348  0.9826
  427MPD2     C 6365   3.297   4.107  14.788  0.2213 -0.0193 -0.2816
  427MPD2    C1 6366   3.251   4.026  14.887  0.4036 -0.0098 -0.2082
  427MPD2    C2 6367   3.112   4.026  14.902  0.0325  0.5218  1.1602
  427MPD2    C3 6368   3.022   4.107  14.833 -0.2384 -0.5346 -0.7535
  427MPD2    C4 6369   3.075   4.195  14.742  0.1784  0.2339  0.7639
  427MPD2    C5 6370   3.213   4.181  14.712  0.0942  0.8457  0.3339
  427MPD2     H 6371   3.072   3.963  14.980  0.2486 -0.7965  0.1933
  427MPD2    H1 6372   3.005   4.259  14.690 -0.3125 -1.4113 -0.5820
  427MPD2    H2 6373   3.404   4.119  14.775 -0.1101  1.0625 -2.0163
  427MPD2    H3 6374   3.255   4.261  14.652 -1.3282 -1.2168 -3.4100
  427MPD2     N 6375   2.883   4.097  14.847  0.2484  0.4480 -0.1072
  427MPD2    H5 6376   2.825   4.148  14.782 -1.2282 -0.3917  0.5647
  427MPD2    N1 6377   3.327   3.947  14.972  0.1855  0.0012 -0.0647
  427MPD2    H7 6378   3.284   3.874  15.028  0.7847  0.4473  0.9845
  428TMC3    C1 6379   3.523   3.863  15.056  0.3735  0.3897 -0.1849
  428TMC3    C2 6380   3.466   3.738  15.065  0.1841 -0.7319 -0.3856
  428TMC3    C3 6381   3.493   3.665  15.171 -0.2139  0.2705  0.1182
  428TMC3    C4 6382   3.616   3.911  15.139  0.6480 -0.1199 -0.7292
  428TMC3    C5 6383   3.652   3.828  15.239 -0.3045  0.7802 -0.1837
  428TMC3    C6 6384   3.593   3.701  15.257 -0.1724 -0.5520  0.0508
  428TMC3     C 6385   3.463   3.951  14.970 -0.2260  0.0078  0.1059
  428TMC3     O 6386   3.539   4.019  14.902  0.1805 -0.0475 -0.2346
  428TMC3     H 6387   3.406   3.695  14.985 -1.9171  0.2987  0.6343
  428TMC3    H1 6388   3.643   4.015  15.130  0.9516 -0.3536 -2.5250
  428TMC3    H2 6389   3.636   3.643  15.338  1.1559  0.6564  0.2237
  428TMC3    C7 6390   3.735   3.882  15.342  0.2221  0.6022 -0.4745
  428TMC3    C8 6391   3.465   3.526  15.159 -0.4472  0.2730  0.0232
  428TMC3    O1 6392   3.699   3.875  15.458  0.1216 -0.2116 -0.3011
  428TMC3    O2 6393   3.557   3.444  15.151  0.5081 -0.5873 -0.0228
  429MPD2     C 6394   4.462   4.150   0.294  0.2235 -0.1193  0.2718
  429MPD2    C1 6395   4.496   4.080   0.183 -0.5938 -0.1942  0.9527
  429MPD2    C2 6396   4.518   4.156   0.066 -0.5478  0.4563 -0.3785
  429MPD2    C3 6397   4.495   4.287   0.056 -0.2666 -0.0037  0.9661
  429MPD2    C4 6398   4.437   4.348   0.164  0.0262  0.2567  0.3845
  429MPD2    C5 6399   4.426   4.278   0.285  0.1190 -0.3577  0.7918
  429MPD2     H 6400   4.545   4.099  17.677 -0.6601  0.0759 -0.1691
  429MPD2    H1 6401   4.405   4.452   0.156 -1.2550 -0.3356 -2.1133
  429MPD2    H2 6402   4.463   4.107   0.394  1.0448  1.1433  0.8172
  429MPD2    H3 6403   4.392   4.323   0.377 -0.4096  0.7200  0.0638
  429MPD2     N 6404   4.518   4.354  17.632 -0.5663 -0.0751  0.4878
  429MPD2    H5 6405   4.579   4.302  17.569 -0.6348  1.3743 -0.7646
  429MPD2    N1 6406   4.528   3.939   0.178  0.0044 -0.3224  0.1250
  429MPD2    H7 6407   4.560   3.905   0.088  0.3276 -3.6930  1.5428
  430TMC3    C1 6408   4.496   4.496  17.448 -0.4207 -0.2906 -0.3184
  430TMC3    C2 6409   4.395   4.569  17.384  0.1016  0.6611 -0.6662
  430TMC3    C3 6410   4.392   4.555  17.244 -0.1065 -0.4947  0.1736
  430TMC3    C4 6411   4.593   4.420  17.386 -0.1648 -0.2967 -0.0988
  430TMC3    C5 6412   4.581   4.418  17.247 -0.2578 -0.5986 -0.3456
  430TMC3    C6 6413   4.473   4.471  17.179 -0.7399  0.5099  0.6006
  430TMC3     C 6414   4.483   4.480  17.587 -1.6155  0.0944  0.0203
  430TMC3     O 6415   4.416   4.567  17.649 -0.4856 -0.0861  0.4106
  430TMC3     H 6416   4.312   4.616  17.437  0.3838  0.9104 -0.4490
  430TMC3    H1 6417   4.676   4.369  17.433  0.9614  1.0219 -0.6588
  430TMC3    H2 6418   4.477   4.486  17.072  0.5627 -1.6852  0.3481
  430TMC3    C7 6419   4.666   4.337  17.167 -0.1330  0.2352  1.4399
  430TMC3    C8 6420   4.267   4.607  17.179 -0.3746 -0.4175 -0.1944
  430TMC3    O1 6421   4.624   4.296  17.059  0.2205 -0.0333 -0.0117
  430TMC3    O2 6422   4.202   4.698  17.234 -0.0377 -0.3172  0.0844
  431MPD2     C 6423   0.512   4.163  12.610 -0.9588  0.2331 -0.1172
  431MPD2    C1 6424   0.554   4.217  12.492  0.2481  0.4118 -0.4252
  431MPD2    C2 6425   0.486   4.198  12.374  0.3028  0.0369 -0.1572
  431MPD2    C3 6426   0.364   4.128  12.381  0.5657 -0.1518  0.4751
  431MPD2    C4 6427   0.323   4.071  12.499  0.2314  0.1429 -0.1643
  431MPD2    C5 6428   0.397   4.088  12.610 -0.0720  1.1806  0.0819
  431MPD2     H 6429   0.526   4.234  12.280  0.3187 -1.0072 -0.5582
  431MPD2    H1 6430   0.227   4.021  12.505 -1.4017  3.0076 -2.0010
  431MPD2    H2 6431   0.568   4.163  12.703 -0.4092  0.8640 -0.4551
  431MPD2    H3 6432   0.366   4.041  12.702 -1.7128  0.9107 -0.6002
  431MPD2     N 6433   0.285   4.101  12.263 -0.5980  0.5756 -0.2339
  431MPD2    H5 6434   0.209   4.035  12.274 -0.7881  1.5664  4.3329
  431MPD2    N1 6435   0.664   4.304  12.486 -0.4307  0.0707 -0.1348
  431MPD2    H7 6436   0.678   4.343  12.394  1.5384  1.4171  0.7285
  432TMC3    C1 6437   0.238   4.107  12.033  0.3928 -0.2623  0.1285
  432TMC3    C2 6438   0.259   4.166  11.908 -0.1299  0.0540 -0.4471
  432TMC3    C3 6439   0.269   4.085  11.794  0.3781  0.7805  0.5195
  432TMC3    C4 6440   0.214   3.969  12.043  0.3585 -0.1054 -0.3547
  432TMC3    C5 6441   0.223   3.897  11.926 -0.4249 -0.4007 -0.0212
  432TMC3    C6 6442   0.249   3.948  11.803  0.8724  1.0521  0.1215
  432TMC3     C 6443   0.291   4.179  12.155  0.2803  0.0209  0.3386
  432TMC3     O 6444   0.351   4.287  12.134  0.4805  0.7239  0.3102
  432TMC3     H 6445   0.278   4.273  11.903 -1.2970  0.1821 -1.9916
  432TMC3    H1 6446   0.183   3.930  12.139  0.1621  1.9367  0.4187
  432TMC3    H2 6447   0.238   3.892  11.711 -0.2743  2.2473 -0.4676
  432TMC3    C7 6448   0.158   3.772  11.918 -0.0703  0.1917  0.3820
  432TMC3    C8 6449   0.390   4.119  11.726  0.0889 -0.0888  0.3742
  432TMC3    O1 6450   0.118   3.733  11.810  0.0442 -0.2247  0.1740
  432TMC3    O2 6451   0.479   4.189  11.773 -0.7853 -0.2375  0.4394
  433MPD2     C 6452   4.021   2.912  10.865 -0.2978 -0.2411  0.4402
  433MPD2    C1 6453   3.954   2.815  10.937 -0.9852  0.3858 -0.5276
  433MPD2    C2 6454   3.943   2.835  11.074 -0.1751  0.2114  0.3182
  433MPD2    C3 6455   4.012   2.937  11.142  0.1019 -0.2612 -0.4389
  433MPD2    C4 6456   4.082   3.027  11.067  0.4777 -0.2807  0.2753
  433MPD2    C5 6457   4.084   3.010  10.930 -0.0395  0.1044  0.1553
  433MPD2     H 6458   3.889   2.762  11.134 -1.1690 -0.3904 -1.3143
  433MPD2    H1 6459   4.128   3.112  11.114  0.7064 -0.3641  0.2013
  433MPD2    H2 6460   4.044   2.897  10.760  3.3000 -0.3863  1.2516
  433MPD2    H3 6461   4.147   3.076  10.873 -1.4164  0.0281 -1.4349
  433MPD2     N 6462   4.009   2.936  11.284 -0.3266 -0.2523  0.0131
  433MPD2    H5 6463   3.957   2.859  11.326 -0.0615 -0.3117  0.2340
  433MPD2    N1 6464   3.912   2.695  10.889 -0.1964 -0.3304 -0.6880
  433MPD2    H7 6465   3.885   2.631  10.963  1.1218  0.4849  0.4973
  434TMC3    C1 6466   3.923   2.507  10.744 -0.9817 -0.9934  0.1882
  434TMC3    C2 6467   3.957   2.430  10.853  0.4501 -0.5524  0.5129
  434TMC3    C3 6468   4.007   2.307  10.832 -0.0006  0.5000 -0.1405
  434TMC3    C4 6469   3.922   2.449  10.616 -1.2908 -0.4581  0.0501
  434TMC3    C5 6470   3.971   2.322  10.603 -0.1970  0.0059  0.6680
  434TMC3    C6 6471   4.024   2.254  10.707 -0.3751  0.4910 -0.4882
  434TMC3     C 6472   3.933   2.652  10.760 -0.1357 -0.2788  1.0356
  434TMC3     O 6473   3.912   2.727  10.666 -0.3269  0.0159 -0.0290
  434TMC3     H 6474   3.981   2.466  10.952 -0.5463  0.2731  0.4513
  434TMC3    H1 6475   3.888   2.499  10.527 -1.1840  1.1583  0.9196
  434TMC3    H2 6476   4.060   2.152  10.699 -1.5550 -0.0909  1.6814
  434TMC3    C7 6477   3.951   2.260  10.477  0.0005  0.1018  0.0402
  434TMC3    C8 6478   4.090   2.250  10.942 -0.3873 -0.2556 -0.1734
  434TMC3    O1 6479   3.858   2.305  10.405  0.1856  0.0244 -0.4445
  434TMC3    O2 6480   4.074   2.286  11.056 -0.3483  0.0241 -0.1451
  435MPD2     C 6481   1.456   3.010  15.541  0.2574 -1.1243 -0.2701
  435MPD2    C1 6482   1.396   2.967  15.654 -0.4477  0.6896  0.5321
  435MPD2    C2 6483   1.481   2.929  15.755  0.4925  0.3519 -0.2537
  435MPD2    C3 6484   1.614   2.905  15.749 -0.0662  0.1052  0.1720
  435MPD2    C4 6485   1.668   2.940  15.623  0.7106  0.1207  0.1970
  435MPD2    C5 6486   1.595   3.008  15.536 -0.5855 -0.3544  0.3660
  435MPD2     H 6487   1.432   2.896  15.846  1.6881  1.0356  0.6409
  435MPD2    H1 6488   1.773   2.923  15.604  0.8766 -2.3247  3.2686
  435MPD2    H2 6489   1.397   3.049  15.459  0.5276  1.0137  0.5414
  435MPD2    H3 6490   1.650   3.037  15.447  2.7984  1.3140  3.0030
  435MPD2     N 6491   1.682   2.822  15.841 -0.4514  0.2709 -0.2309
  435MPD2    H5 6492   1.628   2.792  15.921  1.0199 -0.5301  0.4567
  435MPD2    N1 6493   1.260   2.947  15.677  0.2423 -0.2633 -0.0920
  435MPD2    H7 6494   1.227   2.918  15.769  1.2299  1.5836  0.8353
  436TMC3    C1 6495   0.855   2.956  15.808  0.2733 -0.4556  0.1670
  436TMC3    C2 6496   0.986   2.987  15.770 -0.2565  0.3761 -0.2607
  436TMC3    C3 6497   1.019   2.969  15.640 -0.5577 -0.3060  0.3002
  436TMC3    C4 6498   0.767   2.905  15.719 -0.4817  0.3406  0.1248
  436TMC3    C5 6499   0.799   2.901  15.585 -0.4351  0.2398 -0.1069
  436TMC3    C6 6500   0.929   2.934  15.539  0.3263  0.7553 -0.3804
  436TMC3     C 6501   0.835   2.900  15.941  0.0469 -0.5941 -0.5097
  436TMC3     O 6502   0.917   2.809  15.974  0.5351  0.4769  0.2003
  436TMC3     H 6503   1.053   3.013  15.850 -1.2473  0.4877  0.5413
  436TMC3    H1 6504   0.683   2.855  15.764  1.9152 -1.4705  2.6196
  436TMC3    H2 6505   0.956   2.940  15.435  0.6080  0.8569 -0.3009
  436TMC3    C7 6506   0.713   2.831  15.503  0.2794  0.2664 -0.3935
  436TMC3    C8 6507   1.160   2.978  15.580 -0.0290  0.0700  0.4130
  436TMC3    O1 6508   0.774   2.796  15.398 -0.1264  0.0168  0.4113
  436TMC3    O2 6509   1.169   3.017  15.467  0.2524 -0.1300 -0.2698
  437TMC3    C1 6510   4.548   0.070  13.011 -0.8070  0.4255  0.6300
  437TMC3    C2 6511   4.421   0.118  13.036 -0.5623  0.1715  0.0935
  437TMC3    C3 6512   4.372   0.211  12.948  0.0916  0.2877 -0.1216
  437TMC3    C4 6513   4.634   0.129  12.922 -0.3840 -0.0694  0.6956
  437TMC3    C5 6514   4.577   0.215  12.833 -0.3679  0.1731  0.9241
  437TMC3    C6 6515   4.447   0.256  12.845 -0.3603  0.0497 -0.4051
  437TMC3     C 6516   4.584   4.670  13.082 -0.6169 -0.7792 -0.0488
  437TMC3     O 6517   4.702   4.644  13.090 -0.1293 -0.0338  0.3760
  437TMC3     H 6518   4.367   0.091  13.126  1.7355  0.9130  1.6845
  437TMC3    H1 6519   0.009   0.089  12.909 -0.4223 -0.0478  0.3344
  437TMC3    H2 6520   4.407   0.329  12.775  0.9979  3.3531  2.2699
  437TMC3    C7 6521   4.650   0.277  12.734  0.5808 -0.2959  0.2609
  437TMC3    C8 6522   4.241   0.265  12.959 -0.4264  0.1862 -0.7432
  437TMC3    O1 6523   4.586   0.315  12.635 -0.3885 -0.3244  0.1260
  437TMC3    O2 6524   4.220   0.368  12.893 -0.3954  0.2992  0.6356
  438MPD2     C 6525   2.565   1.147  16.670 -0.5361 -0.0863  0.5970
  438MPD2    C1 6526   2.649   1.059  16.730 -0.2141 -0.1075  0.1676
  438MPD2    C2 6527   2.707   1.091  16.853  0.2994 -0.6442 -0.1848
  438MPD2    C3 6528   2.651   1.188  16.928  0.2344 -0.1192  0.0977
  438MPD2    C4 6529   2.560   1.270  16.870  0.3699  0.2554 -0.5876
  438MPD2    C5 6530   2.519   1.254  16.738  0.4048  0.0437  0.2285
  438MPD2     H 6531   2.784   1.028  16.897  1.2733  0.3969 -0.3826
  438MPD2    H1 6532   2.506   1.347  16.925 -1.4647  0.5418 -2.7438
  438MPD2    H2 6533   2.520   1.120  16.575 -0.0373 -2.8224  1.1540
  438MPD2    H3 6534   2.439   1.318  16.702  0.1790 -0.8798 -0.8937
  438MPD2     N 6535   2.675   1.210  17.065  0.2962 -0.3806 -0.7016
  438MPD2    H5 6536   2.605   1.268  17.110  1.8029  2.5155 -2.0858
  438MPD2    N1 6537   2.674   0.934  16.679  0.0569 -0.2669  0.6694
  438MPD2    H7 6538   2.758   0.895  16.721 -0.0838 -1.7512 -0.4538
  439TMC3    C1 6539   2.681   0.763  16.530 -0.4912  0.4795 -0.3736
  439TMC3    C2 6540   2.618   0.639  16.532  0.7937 -0.5693 -0.7923
  439TMC3    C3 6541   2.691   0.522  16.527  0.1920  0.5029  0.1608
  439TMC3    C4 6542   2.816   0.766  16.532 -0.1351 -0.8488 -0.0163
  439TMC3    C5 6543   2.881   0.645  16.534  0.3675 -0.1510 -0.1677
  439TMC3    C6 6544   2.822   0.520  16.530 -0.3043  0.0040 -0.0444
  439TMC3     C 6545   2.619   0.885  16.561 -0.2270 -0.0259  0.1882
  439TMC3     O 6546   2.506   0.906  16.524 -0.2915  0.1737 -0.2119
  439TMC3     H 6547   2.510   0.632  16.540  0.6708  2.5541  0.4461
  439TMC3    H1 6548   2.873   0.859  16.538  2.7868 -2.5798 -0.9437
  439TMC3    H2 6549   2.880   0.430  16.514 -0.2681  0.4661 -2.5206
  439TMC3    C7 6550   3.025   0.653  16.552 -1.2317  0.0301  0.5880
  439TMC3    C8 6551   2.639   0.406  16.476  0.1587 -0.0046  0.2335
  439TMC3    O1 6552   3.089   0.748  16.514 -0.5209  0.2241  0.1133
  439TMC3    O2 6553   2.523   0.374  16.500 -0.6634  0.6265 -0.7226
  440MPD2     C 6554   0.933   0.924  14.617  0.6705 -0.6078 -0.3777
  440MPD2    C1 6555   0.993   0.973  14.731 -0.5006  0.5376 -0.0259
  440MPD2    C2 6556   1.097   0.904  14.793 -0.6500  0.5657 -0.0295
  440MPD2    C3 6557   1.139   0.778  14.735  0.5838  0.9191  0.3802
  440MPD2    C4 6558   1.075   0.732  14.627  0.6384  0.7012  0.6394
  440MPD2    C5 6559   0.968   0.799  14.570 -0.1445  0.0424 -0.0253
  440MPD2     H 6560   1.139   0.941  14.886  0.8431 -1.6640  0.1831
  440MPD2    H1 6561   1.116   0.645  14.578 -0.5116 -0.1155  1.1478
  440MPD2    H2 6562   0.858   0.984  14.567  1.0817 -1.4755 -2.0639
  440MPD2    H3 6563   0.927   0.776  14.472  1.9371  0.7148 -1.0683
  440MPD2     N 6564   1.247   0.707  14.781  0.3897  0.2640 -0.6478
  440MPD2    H5 6565   1.250   0.612  14.747  2.0019 -0.6866  2.1946
  440MPD2    N1 6566   0.945   1.090  14.803 -0.0525 -0.3806  0.4178
  440MPD2    H7 6567   0.993   1.111  14.890 -1.0023 -0.6487  1.0108
  441TMC3    C1 6568   1.441   0.660  14.890 -0.6634 -0.1051  0.0676
  441TMC3    C2 6569   1.546   0.716  14.963  0.4406 -0.2305  0.2275
  441TMC3    C3 6570   1.599   0.642  15.066 -0.3909  0.1471  0.0485
  441TMC3    C4 6571   1.391   0.535  14.918 -0.0376  0.1977  0.6675
  441TMC3    C5 6572   1.447   0.463  15.019  0.0679  0.7676  0.4195
  441TMC3    C6 6573   1.561   0.511  15.089 -0.0418  0.0328 -0.4031
  441TMC3     C 6574   1.347   0.761  14.857 -0.2048  0.4949  0.1571
  441TMC3     O 6575   1.363   0.879  14.889  0.3405  0.1508 -0.5430
  441TMC3     H 6576   1.587   0.813  14.934  1.4576 -0.8548 -0.4133
  441TMC3    H1 6577   1.291   0.507  14.886  0.3261 -0.2545 -0.0704
  441TMC3    H2 6578   1.608   0.458  15.171 -2.8998 -0.4411  0.9071
  441TMC3    C7 6579   1.337   0.438  15.111 -0.7107 -0.0209 -0.1975
  441TMC3    C8 6580   1.576   0.715  15.193 -0.2309 -0.0989  0.3086
  441TMC3    O1 6581   1.246   0.374  15.069  0.4567  0.2094  0.1602
  441TMC3    O2 6582   1.581   0.667  15.307  0.3728  0.1830 -0.1725
  442MPD2     C 6583   4.331   1.615  16.748  0.2681 -0.3529  0.1588
  442MPD2    C1 6584   4.233   1.532  16.815  0.1179 -0.5510  0.2293
  442MPD2    C2 6585   4.187   1.421  16.753  0.5961  0.1773 -0.1835
  442MPD2    C3 6586   4.239   1.380  16.634  0.3302  0.6879 -0.5156
  442MPD2    C4 6587   4.343   1.453  16.579  0.2322 -0.2802  0.4472
  442MPD2    C5 6588   4.388   1.566  16.638  0.4956  0.0755  0.3013
  442MPD2     H 6589   4.112   1.363  16.806 -0.5285 -1.4220 -3.4679
  442MPD2    H1 6590   4.403   1.412  16.498  2.1020  0.6552  1.3466
  442MPD2    H2 6591   4.365   1.705  16.797  1.0202 -1.4667  1.6856
  442MPD2    H3 6592   4.463   1.627  16.588  1.4239 -1.7847 -0.5545
  442MPD2     N 6593   4.208   1.255  16.573  0.1049  0.3073  0.2720
  442MPD2    H5 6594   4.239   1.236  16.478 -0.1139 -1.2096  0.5061
  442MPD2    N1 6595   4.170   1.572  16.936 -0.1022  0.2334 -0.1653
  442MPD2    H7 6596   4.090   1.519  16.971 -1.4860  1.4408 -1.4743
  443TMC3    C1 6597   4.145   1.682  17.151 -0.2899 -0.0270  0.0628
  443TMC3    C2 6598   4.151   1.806  17.214 -0.2319 -0.2277 -0.2682
  443TMC3    C3 6599   4.085   1.803  17.340 -0.4637 -0.4773 -0.8806
  443TMC3    C4 6600   4.108   1.564  17.202 -0.2607  0.4725  0.2099
  443TMC3    C5 6601   4.059   1.573  17.328 -0.3488 -0.7752  0.0413
  443TMC3    C6 6602   4.044   1.687  17.403  0.5666  0.0677 -0.0528
  443TMC3     C 6603   4.207   1.683  17.020  0.1435 -0.3056 -0.8974
  443TMC3     O 6604   4.289   1.771  17.004 -0.5495 -0.5070  0.6414
  443TMC3     H 6605   4.167   1.896  17.156 -0.5347 -0.1360 -0.2109
  443TMC3    H1 6606   4.098   1.468  17.153 -1.3018  0.7513 -0.1173
  443TMC3    H2 6607   4.002   1.690  17.503  1.0354 -0.6976  0.1697
  443TMC3    C7 6608   3.970   1.457  17.356  0.2973  0.2329  0.7515
  443TMC3    C8 6609   3.969   1.902  17.339  0.5960  0.4063  0.5090
  443TMC3    O1 6610   3.981   1.360  17.288  0.2929  0.0811  0.9259
  443TMC3    O2 6611   3.974   1.991  17.251 -1.1850  0.0086  0.1348
  444MPD2     C 6612   4.517   1.193  17.564  0.1873  0.8084 -1.2664
  444MPD2    C1 6613   4.471   1.111  17.469 -0.1465  0.1003  0.1901
  444MPD2    C2 6614   4.553   1.040  17.392 -0.2644  0.2602 -0.2622
  444MPD2    C3 6615   4.693   1.035  17.418  0.1834  0.2842 -0.1550
  444MPD2    C4 6616   0.020   1.121  17.517  0.0647 -0.3323  0.3012
  444MPD2    C5 6617   4.654   1.193  17.585  0.1269 -0.4023 -0.1639
  444MPD2     H 6618   4.504   0.981  17.315  0.0306 -1.9689  1.2746
  444MPD2    H1 6619   0.122   1.110  17.551  0.0209 -1.5526  0.0337
  444MPD2    H2 6620   4.455   1.251  17.632  1.4883  0.7836 -0.0442
  444MPD2    H3 6621   4.693   1.260  17.661 -1.3126  1.5945 -1.1829
  444MPD2     N 6622   0.044   0.956  17.331  0.7209 -0.0887  0.1529
  444MPD2    H5 6623   4.720   0.884  17.278  0.2335 -0.3239  0.9083
  444MPD2    N1 6624   4.327   1.092  17.453  0.2177 -0.2914 -0.3199
  444MPD2    H7 6625   4.291   1.018  17.393  1.0216 -2.2372  1.5831
  445TMC3    C1 6626   0.208   0.812  17.275  0.5187 -0.3801  0.1071
  445TMC3    C2 6627   0.119   0.717  17.319 -1.0259  0.0142 -0.0250
  445TMC3    C3 6628   0.101   0.604  17.239  0.6533 -0.0766 -0.3228
  445TMC3    C4 6629   0.261   0.803  17.146 -0.3470 -0.0052  0.5629
  445TMC3    C5 6630   0.237   0.699  17.068  0.0039 -0.2470 -0.2441
  445TMC3    C6 6631   0.168   0.593  17.120  0.4224  0.0202  0.0774
  445TMC3     C 6632   0.178   0.942  17.333  0.0926  0.3702  0.4204
  445TMC3     O 6633   0.259   0.994  17.408  0.4856  0.0026  0.5304
  445TMC3     H 6634   0.071   0.735  17.414  1.4136 -1.7316  1.5462
  445TMC3    H1 6635   0.312   0.890  17.108  0.3274 -1.3766 -1.6733
  445TMC3    H2 6636   0.176   0.491  17.083 -0.3979  0.2948 -0.8418
  445TMC3    C7 6637   0.287   0.700  16.937  0.0959 -0.1890  0.1017
  445TMC3    C8 6638   0.039   0.495  17.300  0.1013 -1.3156 -0.1145
  445TMC3    O1 6639   0.330   0.809  16.892  0.3053  0.6319 -0.5146
  445TMC3    O2 6640   0.075   0.379  17.263 -0.3283 -0.6514 -0.0293
  446MPD2     C 6641   3.854   1.937  11.467  0.1771 -0.3968  0.2743
  446MPD2    C1 6642   3.860   1.965  11.335  0.1155  0.2502  0.0500
  446MPD2    C2 6643   3.925   2.082  11.296  0.3563 -0.1319 -0.3775
  446MPD2    C3 6644   3.993   2.167  11.381  0.1678  0.4487 -0.9185
  446MPD2    C4 6645   3.974   2.141  11.518 -0.0479  0.6678  0.9332
  446MPD2    C5 6646   3.907   2.027  11.557  0.8410 -0.2042  0.3640
  446MPD2     H 6647   3.924   2.111  11.192 -2.5350  0.1119 -0.2814
  446MPD2    H1 6648   3.995   2.219  11.590 -0.7128  0.9292  0.8452
  446MPD2    H2 6649   3.793   1.859  11.512  1.9394 -0.9852  1.6246
  446MPD2    H3 6650   3.876   2.007  11.659 -0.4601  0.5883  0.1242
  446MPD2     N 6651   4.071   2.276  11.339  0.2221 -0.2206 -0.2709
  446MPD2    H5 6652   4.061   2.301  11.241  0.3524  0.9642  0.0113
  446MPD2    N1 6653   3.785   1.895  11.232 -0.4258  0.3357 -0.8695
  446MPD2    H7 6654   3.794   1.934  11.138 -1.9420 -2.4007 -2.1510
  447TMC3    C1 6655   4.251   2.438  11.351  0.1896  0.9031  0.5935
  447TMC3    C2 6656   4.194   2.514  11.249 -0.1536 -0.3942 -0.3914
  447TMC3    C3 6657   4.267   2.622  11.210 -0.3959  0.0494  0.2041
  447TMC3    C4 6658   4.363   2.475  11.417 -0.5350  0.1903 -0.3720
  447TMC3    C5 6659   4.424   2.589  11.370  0.0068  0.6123  0.1435
  447TMC3    C6 6660   4.380   2.660  11.270  0.6186  0.5209 -0.0785
  447TMC3     C 6661   4.181   2.325  11.404  0.2311  0.1355  0.0082
  447TMC3     O 6662   4.232   2.275  11.507 -0.6037 -0.2296 -0.2134
  447TMC3     H 6663   4.103   2.489  11.197  0.4446  1.3388 -2.3057
  447TMC3    H1 6664   4.401   2.415  11.499  2.0027 -0.8369 -2.2668
  447TMC3    H2 6665   4.439   2.740  11.228  1.3280 -0.8480 -1.6621
  447TMC3    C7 6666   4.531   2.629  11.451 -0.0369 -0.1658 -0.5105
  447TMC3    C8 6667   4.254   2.645  11.065 -0.6157 -0.1987  0.0391
  447TMC3    O1 6668   4.548   2.745  11.454 -0.1575  0.1426  0.6173
  447TMC3    O2 6669   4.301   2.753  11.028  0.2132 -0.0343  0.1610
  448TMC3    C1 6670   2.776   2.436  16.591  0.2060  0.6549 -0.6461
  448TMC3    C2 6671   2.691   2.333  16.563 -0.1162 -0.3853 -0.0927
  448TMC3    C3 6672   2.631   2.257  16.662  0.1876  1.2548  0.5261
  448TMC3    C4 6673   2.801   2.469  16.717 -0.2606 -0.0909 -0.2370
  448TMC3    C5 6674   2.748   2.390  16.815  0.7234  0.0633  0.4854
  448TMC3    C6 6675   2.673   2.277  16.791  0.6093  0.3299 -0.4406
  448TMC3     C 6676   2.822   2.513  16.477 -0.1821 -0.5141 -0.9405
  448TMC3     O 6677   2.749   2.511  16.379 -0.2702 -0.3692  0.0006
  448TMC3     H 6678   2.663   2.316  16.460 -0.5340  0.5639 -0.1300
  448TMC3    H1 6679   2.854   2.559  16.747 -0.0521  0.1176 -1.2295
  448TMC3    H2 6680   2.616   2.223  16.866  1.8762  0.3399  0.5367
  448TMC3    C7 6681   2.788   2.426  16.950 -0.3246 -0.7532 -0.1009
  448TMC3    C8 6682   2.609   2.116  16.630  0.1171  0.4550  0.0746
  448TMC3    O1 6683   2.838   2.537  16.974  0.3391  0.3950  0.4158
  448TMC3    O2 6684   2.662   2.032  16.703 -0.1105  0.4927  0.0825
  449MPD2     C 6685   4.027   1.036  14.298 -0.7703 -0.1990  0.1698
  449MPD2    C1 6686   3.905   1.038  14.230 -0.3801  0.0376  0.2462
  449MPD2    C2 6687   3.827   0.925  14.226  0.2679 -0.2419 -0.1801
  449MPD2    C3 6688   3.869   0.811  14.295  0.1569 -0.4657 -0.5843
  449MPD2    C4 6689   3.994   0.809  14.356  0.1230  0.3223  0.2297
  449MPD2    C5 6690   4.074   0.923  14.354 -0.7706 -0.1468 -0.0921
  449MPD2     H 6691   3.729   0.933  14.183  0.6755  0.0011 -1.0606
  449MPD2    H1 6692   4.041   0.725  14.407 -2.1315  0.3250  2.3258
  449MPD2    H2 6693   4.085   1.128  14.289  0.0630 -0.7668 -0.2348
  449MPD2    H3 6694   4.163   0.923  14.415  0.4409 -1.9924 -1.8192
  449MPD2     N 6695   3.779   0.700  14.284  0.6611 -0.3029  0.1764
  449MPD2    H5 6696   3.704   0.711  14.217  0.6889  2.1259  0.5187
  449MPD2    N1 6697   3.855   1.149  14.159 -0.2424 -0.0235 -0.3124
  449MPD2    H7 6698   3.767   1.134  14.112  0.1341 -0.2296 -0.9584
  450TMC3    C1 6699   3.857   1.344  14.035 -0.1321  0.0979  0.3648
  450TMC3    C2 6700   3.920   1.315  13.914 -0.2194 -0.2031  0.6347
  450TMC3    C3 6701   3.839   1.278  13.813 -0.0443  1.0006 -0.0553
  450TMC3    C4 6702   3.721   1.332  14.040 -0.7458  0.4703  0.2598
  450TMC3    C5 6703   3.645   1.293  13.928 -0.0242 -0.0671  0.2374
  450TMC3    C6 6704   3.710   1.278  13.814 -0.0510 -0.3415 -0.3616
  450TMC3     C 6705   3.921   1.272  14.143  0.4556  0.2431 -0.2578
  450TMC3     O 6706   4.030   1.310  14.179  0.0384 -0.6010  0.0548
  450TMC3     H 6707   4.029   1.310  13.913 -0.1759  1.0569 -0.3450
  450TMC3    H1 6708   3.669   1.344  14.134  0.1082  0.5789  0.7165
  450TMC3    H2 6709   3.652   1.231  13.735 -2.2737 -1.1758  1.7617
  450TMC3    C7 6710   3.569   1.180  13.972  0.0157  0.3106  0.4100
  450TMC3    C8 6711   3.877   1.156  13.743  0.2790 -1.5692  0.4112
  450TMC3    O1 6712   3.631   1.097  14.035  0.0436  0.8367 -0.8744
  450TMC3    O2 6713   3.839   1.141  13.628  0.7212 -0.2584 -0.4823
  451MPD2     C 6714   4.121   3.465   1.623 -0.4126 -0.6556  0.1622
  451MPD2    C1 6715   4.191   3.541   1.531 -0.4041  0.2876 -0.3834
  451MPD2    C2 6716   4.318   3.497   1.493  0.1000  0.3294 -0.2667
  451MPD2    C3 6717   4.373   3.382   1.549 -1.3914  0.2722 -0.1126
  451MPD2    C4 6718   4.302   3.315   1.646  0.1198 -0.2917 -0.0717
  451MPD2    C5 6719   4.181   3.358   1.685 -0.1355  0.0475 -0.4189
  451MPD2     H 6720   4.377   3.553   1.422  0.0687 -1.5133 -1.7368
  451MPD2    H1 6721   4.338   3.220   1.685  0.4276 -0.1501 -0.0090
  451MPD2    H2 6722   4.020   3.488   1.654 -0.6135  0.3695 -1.2621
  451MPD2    H3 6723   4.115   3.303   1.750  0.8725 -1.4743 -0.6880
  451MPD2     N 6724   4.498   3.329   1.518  0.3772 -0.1897 -0.1980
  451MPD2    H5 6725   4.530   3.254   1.579 -0.8334  0.2245  0.9354
  451MPD2    N1 6726   4.125   3.657   1.471  0.0877 -0.7778  0.6494
  451MPD2    H7 6727   4.029   3.677   1.497  0.5638 -1.7392  3.0793
  452TMC3    C1 6728   4.725   3.316   1.429 -0.0055  0.1493  0.7742
  452TMC3    C2 6729   0.043   3.243   1.536  0.5092  0.1742 -0.3612
  452TMC3    C3 6730   0.160   3.177   1.516 -0.2567  0.1556 -0.3559
  452TMC3    C4 6731   0.065   3.321   1.310  0.0052 -0.2162  1.1789
  452TMC3    C5 6732   0.176   3.241   1.299 -0.1583 -0.4397 -0.3906
  452TMC3    C6 6733   0.222   3.165   1.400 -0.4663  0.2703  0.5304
  452TMC3     C 6734   4.587   3.371   1.419 -0.1096  0.2192  0.6326
  452TMC3     O 6735   4.570   3.464   1.342  0.0448  0.1142 -0.4783
  452TMC3     H 6736   4.710   3.235   1.627  0.9152 -1.5459 -0.2505
  452TMC3    H1 6737   0.023   3.375   1.226  2.9227  0.3727  0.1094
  452TMC3    H2 6738   0.304   3.097   1.381 -1.5755 -0.7155 -0.6416
  452TMC3    C7 6739   0.262   3.280   1.193  0.1940 -0.0229 -0.2078
  452TMC3    C8 6740   0.211   3.105   1.630 -0.5357  0.0219  0.0491
  452TMC3    O1 6741   0.260   3.397   1.154 -0.3710  0.3140  0.1096
  452TMC3    O2 6742   0.131   3.079   1.717  0.3676 -0.0126 -0.1945
  453TMC3    C1 6743   1.645   1.438  11.953  0.0056 -0.4001  0.5518
  453TMC3    C2 6744   1.540   1.387  12.019 -0.3810  0.2768 -0.0791
  453TMC3    C3 6745   1.439   1.331  11.946  0.6413 -0.5146 -0.1111
  453TMC3    C4 6746   1.652   1.453  11.817  0.1405 -0.2835  0.5560
  453TMC3    C5 6747   1.547   1.396  11.744 -0.4254 -0.8454  0.3731
  453TMC3    C6 6748   1.441   1.332  11.809 -0.3519 -0.6602  0.0466
  453TMC3     C 6749   1.774   1.442  12.016 -0.4484 -0.0097 -0.1456
  453TMC3     O 6750   1.846   1.539  11.988  0.2995 -0.0300 -0.1798
  453TMC3     H 6751   1.539   1.377  12.127 -0.4959 -1.4312 -0.2449
  453TMC3    H1 6752   1.735   1.502  11.768  1.1323 -2.6850 -0.1913
  453TMC3    H2 6753   1.358   1.290  11.753  1.4514 -1.0950 -2.2628
  453TMC3    C7 6754   1.573   1.338  11.608 -0.2218  0.5479 -0.0809
  453TMC3    C8 6755   1.376   1.214  12.002 -0.5861 -0.8590  0.3203
  453TMC3    O1 6756   1.539   1.221  11.595 -0.1038 -0.5488  0.1417
  453TMC3    O2 6757   1.312   1.215  12.103 -0.1226 -0.0161 -0.0478
  454MPD2     C 6758   0.234   1.096  16.139  0.8759  0.5506  0.5936
  454MPD2    C1 6759   0.145   0.991  16.121  0.1424  0.0552  0.0926
  454MPD2    C2 6760   0.093   0.930  16.233 -0.9027 -0.1364  0.0666
  454MPD2    C3 6761   0.126   0.973  16.367  0.9549 -0.1653 -0.3408
  454MPD2    C4 6762   0.213   1.073  16.375  0.3806  0.1567  0.6613
  454MPD2    C5 6763   0.257   1.139  16.269  0.1493 -0.2652  0.5554
  454MPD2     H 6764   0.022   0.850  16.221 -1.2739 -0.2292  2.9962
  454MPD2    H1 6765   0.230   1.113  16.474  1.3839  1.2861  0.0308
  454MPD2    H2 6766   0.270   1.169  16.068 -0.2395 -1.4862 -2.0582
  454MPD2    H3 6767   0.315   1.230  16.284  2.3714 -0.9450 -3.7462
  454MPD2     N 6768   0.078   0.912  16.487 -0.0475  0.7950  0.5913
  454MPD2    H5 6769   0.116   0.941  16.577  1.5570 -2.4030  0.9112
  454MPD2    N1 6770   0.093   0.947  16.000 -0.2442 -1.0522  0.5387
  454MPD2    H7 6771   0.023   0.874  15.994 -1.4204  0.2015 -1.0543
  455TMC3    C1 6772   4.694   0.755  16.621  0.1189  0.3634 -0.3739
  455TMC3    C2 6773   4.723   0.834  16.735  0.6803  0.1103 -0.5227
  455TMC3    C3 6774   4.687   0.772  16.856  0.2141  0.8475  0.6404
  455TMC3    C4 6775   4.635   0.636  16.630  0.2308  0.3817 -0.6012
  455TMC3    C5 6776   4.598   0.581  16.750  0.8266  0.1366 -0.0341
  455TMC3    C6 6777   4.635   0.646  16.866 -0.8826 -0.2131 -0.2511
  455TMC3     C 6778   4.720   0.802  16.487  0.3340 -0.4435  0.5215
  455TMC3     O 6779   4.646   0.758  16.398  0.0000 -0.5373 -0.5228
  455TMC3     H 6780   0.040   0.934  16.730 -0.0917  0.4818  0.3681
  455TMC3    H1 6781   4.640   0.576  16.540 -0.9909 -0.4566 -0.1122
  455TMC3    H2 6782   4.606   0.603  16.961 -0.4147 -0.1003 -0.0614
  455TMC3    C7 6783   4.616   0.433  16.764 -0.6129  0.3523  0.4832
  455TMC3    C8 6784   4.665   0.877  16.953 -0.3193  0.1600  0.6647
  455TMC3    O1 6785   4.679   0.393  16.864  0.0825 -0.6937 -0.0627
  455TMC3    O2 6786   4.695   0.864  17.072  0.7480  0.0252 -0.1362
  456MPD2     C 6787   2.782   0.649  16.169  0.0218 -0.1957  0.1548
  456MPD2    C1 6788   2.903   0.716  16.173 -0.2769 -0.3614  0.1975
  456MPD2    C2 6789   2.909   0.853  16.196 -0.3295 -0.2349 -0.2962
  456MPD2    C3 6790   2.797   0.926  16.227  0.3667  0.0925 -0.0817
  456MPD2    C4 6791   2.676   0.865  16.197  0.2431 -0.2910  0.1080
  456MPD2    C5 6792   2.674   0.734  16.164 -0.1790  0.6163 -0.1500
  456MPD2     H 6793   3.005   0.904  16.192 -0.8868  0.6954 -1.7982
  456MPD2    H1 6794   2.582   0.915  16.214  0.4464  0.3158 -0.5398
  456MPD2    H2 6795   2.773   0.543  16.151  1.5489 -0.2769 -0.1156
  456MPD2    H3 6796   2.575   0.691  16.161 -0.0911  0.3580  0.6208
  456MPD2     N 6797   2.820   1.060  16.272  0.0364  0.4324 -0.3795
  456MPD2    H5 6798   2.917   1.082  16.292  0.6537 -2.3695 -0.2040
  456MPD2    N1 6799   3.020   0.639  16.166  0.1350 -0.3779  0.6736
  456MPD2    H7 6800   3.106   0.686  16.140 -0.2600 -0.0176  0.0109
  457TMC3    C1 6801   2.766   1.249  16.397 -0.5382 -0.4609  0.0100
  457TMC3    C2 6802   2.691   1.358  16.412  0.0875  0.0624  0.4194
  457TMC3    C3 6803   2.715   1.443  16.517 -0.0126 -0.4915  0.2570
  457TMC3    C4 6804   2.871   1.214  16.482  0.4767 -0.5539  0.3656
  457TMC3    C5 6805   2.895   1.303  16.587  0.3237  0.4269 -0.3298
  457TMC3    C6 6806   2.823   1.421  16.602 -0.2998  0.8113 -0.6787
  457TMC3     C 6807   2.717   1.152  16.301  0.0558 -0.4641  0.8122
  457TMC3     O 6808   2.601   1.155  16.264  0.0698  0.2338 -0.0662
  457TMC3     H 6809   2.610   1.364  16.341  0.1180  2.1320  0.5754
  457TMC3    H1 6810   2.914   1.114  16.485  2.7835  0.4826  1.3799
  457TMC3    H2 6811   2.836   1.480  16.692 -0.3232 -0.1154 -0.0734
  457TMC3    C7 6812   2.973   1.261  16.700 -0.5739  0.5849 -0.9366
  457TMC3    C8 6813   2.656   1.575  16.515  0.5549 -0.2143  0.2828
  457TMC3    O1 6814   2.957   1.323  16.804 -0.4529  0.7237 -0.0235
  457TMC3    O2 6815   2.689   1.645  16.609  0.2236 -0.8415 -0.5063
  458MPD2     C 6816   0.362   0.461  12.553  0.1666  0.7046 -0.0622
  458MPD2    C1 6817   0.396   0.406  12.677  0.2097  0.0534 -0.7849
  458MPD2    C2 6818   0.294   0.343  12.744  0.1130  0.6769 -0.3799
  458MPD2    C3 6819   0.169   0.329  12.689 -0.2684 -0.0933 -0.6538
  458MPD2    C4 6820   0.144   0.364  12.559 -0.8472 -0.6324  0.4255
  458MPD2    C5 6821   0.245   0.431  12.494  0.4569 -0.1586  0.3153
  458MPD2     H 6822   0.310   0.309  12.846  0.1738 -0.4254 -0.7571
  458MPD2    H1 6823   0.047   0.347  12.514  0.0334  1.5430 -2.3260
  458MPD2    H2 6824   0.437   0.505  12.488  0.6311  1.7436  1.1680
  458MPD2    H3 6825   0.239   0.458  12.389 -0.9934  1.2393  0.7745
  458MPD2     N 6826   0.063   0.284  12.774 -0.2131 -0.5256  0.2454
  458MPD2    H5 6827   0.076   0.266  12.873 -1.3870  1.8702  0.8360
  458MPD2    N1 6828   0.529   0.424  12.725 -0.5179  0.5050 -0.1247
  458MPD2    H7 6829   0.594   0.480  12.672 -2.5675  2.0291 -1.0330
  459TMC3    C1 6830   0.724   0.401  12.853 -0.5092  0.0738  0.0201
  459TMC3    C2 6831   0.797   0.481  12.766 -0.4811 -0.5895  0.5819
  459TMC3    C3 6832   0.937   0.475  12.767 -0.3902  0.4468  0.1623
  459TMC3    C4 6833   0.786   0.326  12.944 -0.8054 -0.4665  0.7095
  459TMC3    C5 6834   0.919   0.329  12.952  0.2184  0.3719  0.2615
  459TMC3    C6 6835   0.996   0.403  12.863  0.4125 -0.2234  0.5739
  459TMC3     C 6836   0.583   0.367  12.840 -0.1020 -0.2044 -0.2391
  459TMC3     O 6837   0.535   0.289  12.918  0.1015 -0.9150 -0.3885
  459TMC3     H 6838   0.748   0.518  12.677 -0.5755 -2.2248 -0.0491
  459TMC3    H1 6839   0.732   0.273  13.022 -1.0408 -2.0895 -0.5540
  459TMC3    H2 6840   1.104   0.402  12.864  0.4435  0.2385 -2.1817
  459TMC3    C7 6841   0.977   0.206  13.005 -0.6365  0.5222 -0.1020
  459TMC3    C8 6842   1.014   0.557  12.672 -0.4468 -0.0382  0.3105
  459TMC3    O1 6843   1.071   0.209  13.084 -0.0812  0.1910 -0.3123
  459TMC3    O2 6844   1.134   0.524  12.666 -0.1650 -0.0282 -0.1387
  460MPD2     C 6845   4.377   2.410  10.825 -0.5881 -0.0839 -0.6592
  460MPD2    C1 6846   4.304   2.523  10.861  0.2082 -0.2110 -0.2014
  460MPD2    C2 6847   4.251   2.613  10.764 -1.2384 -0.0981 -0.0038
  460MPD2    C3 6848   4.252   2.576  10.631 -0.1655  0.2625 -0.1311
  460MPD2    C4 6849   4.335   2.472  10.593  0.3867 -0.0589 -0.5841
  460MPD2    C5 6850   4.395   2.388  10.686 -0.2693 -0.0330  0.3504
  460MPD2     H 6851   4.204   2.704  10.800 -1.8365 -0.2635 -0.3569
  460MPD2    H1 6852   4.351   2.445  10.489 -0.8716  1.1559 -1.0779
  460MPD2    H2 6853   4.422   2.345  10.899  0.6793  1.0024 -0.4827
  460MPD2    H3 6854   4.443   2.298  10.650  1.9602  2.1775 -2.2746
  460MPD2     N 6855   4.169   2.651  10.537 -0.1929 -0.2133  0.4445
  460MPD2    H5 6856   4.101   2.721  10.566  1.5844  0.5468  2.8041
  460MPD2    N1 6857   4.279   2.531  11.000  0.5372 -0.1410  0.6443
  460MPD2    H7 6858   4.300   2.456  11.064  1.2659 -0.2131  0.3156
  461TMC3    C1 6859   4.036   2.646  10.355 -0.3782 -0.1309  0.1879
  461TMC3    C2 6860   3.982   2.554  10.277  0.1111 -0.0565 -0.4714
  461TMC3    C3 6861   3.887   2.577  10.185  0.0733 -0.2674 -0.3026
  461TMC3    C4 6862   3.996   2.773  10.344  0.0140 -0.8461  0.0108
  461TMC3    C5 6863   3.898   2.794  10.253  0.0407  0.0136  0.2305
  461TMC3    C6 6864   3.847   2.705  10.164  0.5966  0.3776 -0.3446
  461TMC3     C 6865   4.169   2.612  10.406  0.3539 -0.4411 -0.1791
  461TMC3     O 6866   4.224   2.525  10.341  0.1665  0.0265  0.0306
  461TMC3     H 6867   4.025   2.454  10.278 -0.0683 -0.1356 -0.6868
  461TMC3    H1 6868   4.029   2.841  10.421 -1.2879  0.7035 -0.7897
  461TMC3    H2 6869   3.778   2.724  10.083 -0.5044 -0.3997  0.4092
  461TMC3    C7 6870   3.865   2.930  10.205  0.2686 -0.2879 -0.1147
  461TMC3    C8 6871   3.888   2.487  10.075 -0.6907 -0.2281 -0.6017
  461TMC3    O1 6872   3.771   2.939  10.127 -0.0534  0.0011 -0.2582
  461TMC3    O2 6873   3.909   2.544   9.967  0.0845  0.4683  0.7372
  462TMC3    C1 6874   0.516   3.435   0.706  0.3525 -0.0269 -0.7259
  462TMC3    C2 6875   0.573   3.316   0.675  0.7819 -0.2174  0.0936
  462TMC3    C3 6876   0.500   3.209   0.625 -0.0197  0.0727  0.2302
  462TMC3    C4 6877   0.375   3.434   0.724 -0.0157 -0.0161  0.4197
  462TMC3    C5 6878   0.309   3.327   0.675 -0.4790 -0.0454  0.7271
  462TMC3    C6 6879   0.366   3.213   0.635  0.2692  0.3772  0.0717
  462TMC3     C 6880   0.587   3.563   0.680 -1.2794  0.3526 -0.2077
  462TMC3     O 6881   0.690   3.550   0.620 -0.3210  0.1014  0.4817
  462TMC3     H 6882   0.681   3.309   0.673  0.7168 -0.9288 -0.6288
  462TMC3    H1 6883   0.319   3.523   0.747  2.0843  0.8403  2.2345
  462TMC3    H2 6884   0.301   3.130   0.610 -0.2694  0.9438 -0.3744
  462TMC3    C7 6885   0.161   3.335   0.666 -1.2014  0.8206  1.6603
  462TMC3    C8 6886   0.575   3.093   0.579  0.3762 -0.3178 -0.3972
  462TMC3    O1 6887   0.110   3.226   0.660  0.2533  0.2918 -0.1869
  462TMC3    O2 6888   0.691   3.087   0.614  0.1251  0.3376  0.0324
  463MPD2     C 6889   0.318   2.409   2.052  0.0640  0.0876 -0.1111
  463MPD2    C1 6890   0.255   2.507   1.966 -0.2909  0.0133 -0.0722
  463MPD2    C2 6891   0.336   2.574   1.875 -0.0357  0.0076 -0.3492
  463MPD2    C3 6892   0.473   2.554   1.871 -0.0051  0.3875 -0.8218
  463MPD2    C4 6893   0.536   2.470   1.964 -0.6606  0.8031 -0.0180
  463MPD2    C5 6894   0.456   2.402   2.057 -0.0581 -0.2853  0.2838
  463MPD2     H 6895   0.286   2.652   1.820 -4.1065 -1.9211  0.6023
  463MPD2    H1 6896   0.642   2.452   1.967 -1.4228 -3.8062 -0.8463
  463MPD2    H2 6897   0.256   2.339   2.107  0.7296  1.0846  1.8840
  463MPD2    H3 6898   0.500   2.329   2.124 -0.7643  0.6250  1.7576
  463MPD2     N 6899   0.559   2.623   1.779 -0.0540 -0.7267  0.4014
  463MPD2    H5 6900   0.657   2.606   1.802 -0.2154  0.0548  1.6583
  463MPD2    N1 6901   0.117   2.541   1.964 -0.2919  0.5550  0.1267
  463MPD2    H7 6902   0.087   2.599   1.887  0.6012  1.4102  0.4272
  464TMC3    C1 6903   4.616   2.481   1.999  0.0951 -0.1602  0.5446
  464TMC3    C2 6904   4.578   2.575   1.911 -0.1403 -0.0456 -0.7845
  464TMC3    C3 6905   4.457   2.568   1.846  0.2314 -0.6798 -0.7404
  464TMC3    C4 6906   4.540   2.378   2.037  0.4991 -0.4765 -0.1844
  464TMC3    C5 6907   4.422   2.359   1.971  0.1938  0.1402  0.0018
  464TMC3    C6 6908   4.380   2.457   1.884 -0.1201 -0.0229 -0.1574
  464TMC3     C 6909   0.026   2.476   2.047 -0.3800 -0.0936 -0.2323
  464TMC3     O 6910   0.052   2.397   2.133 -0.4241 -0.8915  0.1995
  464TMC3     H 6911   4.653   2.640   1.866 -1.0274  1.7426  0.3623
  464TMC3    H1 6912   4.561   2.301   2.109  2.9281  1.0403  0.7391
  464TMC3    H2 6913   4.287   2.443   1.830 -0.4846  0.2617  0.3968
  464TMC3    C7 6914   4.351   2.232   1.983  0.3448  0.4230  0.2193
  464TMC3    C8 6915   4.431   2.626   1.719 -0.0481 -0.5366 -0.0550
  464TMC3    O1 6916   4.339   2.185   2.095 -0.5341 -0.1883  0.3898
  464TMC3    O2 6917   4.518   2.709   1.683  0.1586 -0.3417  0.1964
  465MPD2     C 6918   2.098   1.091  16.583  0.2845 -0.6362  0.3207
  465MPD2    C1 6919   1.990   1.124  16.663 -0.0462 -0.0754  0.2627
  465MPD2    C2 6920   1.870   1.128  16.599  0.0422 -0.2306 -0.1868
  465MPD2    C3 6921   1.860   1.096  16.463 -0.2780  0.1370  0.3623
  465MPD2    C4 6922   1.974   1.062  16.392 -0.5051  0.1760  0.2541
  465MPD2    C5 6923   2.096   1.054  16.452 -0.5371 -0.1533  0.0268
  465MPD2     H 6924   1.779   1.143  16.657  1.4297  0.9847  1.6690
  465MPD2    H1 6925   1.962   1.032  16.288  1.6383  0.3748 -0.0422
  465MPD2    H2 6926   2.202   1.088  16.613  0.1136 -0.5292  0.9177
  465MPD2    H3 6927   2.187   1.023  16.401  0.4069  2.1784  0.2880
  465MPD2     N 6928   1.733   1.096  16.404 -0.5158  0.3795  0.1887
  465MPD2    H5 6929   1.652   1.125  16.457 -0.8128 -0.2122  0.0561
  465MPD2    N1 6930   1.999   1.158  16.801  0.2348  0.8891 -0.1154
  465MPD2    H7 6931   1.915   1.159  16.857 -0.1129  1.0649 -0.6341
  466TMC3    C1 6932   1.365   1.074  16.381  0.4471  0.1670  0.0061
  466TMC3    C2 6933   1.322   1.193  16.326  0.3801 -0.1384  0.3698
  466TMC3    C3 6934   1.401   1.268  16.239 -0.0740 -0.2095  0.0374
  466TMC3    C4 6935   1.492   1.029  16.344  0.1782 -0.0850 -0.9159
  466TMC3    C5 6936   1.562   1.099  16.252  0.4083 -0.7596 -0.6012
  466TMC3    C6 6937   1.523   1.217  16.192 -0.1265  0.0644 -0.0793
  466TMC3     C 6938   1.311   1.028  16.504 -0.5016 -0.6772  0.0427
  466TMC3     O 6939   1.236   1.104  16.562  0.2343 -0.2292  0.5589
  466TMC3     H 6940   1.221   1.224  16.349  1.4272  1.2678  3.1336
  466TMC3    H1 6941   1.535   0.938  16.384 -0.2343 -0.0401 -0.3646
  466TMC3    H2 6942   1.578   1.276  16.120 -0.1462 -0.2024 -0.3145
  466TMC3    C7 6943   1.708   1.082  16.270  0.4770 -0.4154 -0.1314
  466TMC3    C8 6944   1.351   1.396  16.196  0.1321  0.1822 -0.0931
  466TMC3    O1 6945   1.776   1.109  16.170 -0.0379 -0.4273 -0.2537
  466TMC3    O2 6946   1.374   1.436  16.083  0.9103  0.6653 -0.4381
  467TMC3    C1 6947   2.529   4.488  13.813  0.4272  0.1062 -0.3070
  467TMC3    C2 6948   2.443   4.521  13.717 -0.2509  0.7416 -0.5413
  467TMC3    C3 6949   2.359   4.426  13.676 -0.5260 -0.1471 -0.6053
  467TMC3    C4 6950   2.517   4.391  13.900  0.7342  0.6839  0.1372
  467TMC3    C5 6951   2.414   4.308  13.873  0.0163 -0.9202  0.6082
  467TMC3    C6 6952   2.345   4.315  13.751 -0.4982  0.3140 -0.0260
  467TMC3     C 6953   2.667   4.534  13.789 -0.0426 -0.7384  0.6390
  467TMC3     O 6954   2.730   4.573  13.884 -0.5560 -0.2574  0.0440
  467TMC3     H 6955   2.455   4.613  13.662 -0.0956  1.1621  0.1899
  467TMC3    H1 6956   2.599   4.368  13.968 -0.5440  0.9281  1.7474
  467TMC3    H2 6957   2.291   4.228  13.715 -2.6813  2.0019 -0.7943
  467TMC3    C7 6958   2.355   4.213  13.968 -0.6248 -0.0775 -0.0666
  467TMC3    C8 6959   2.367   4.409  13.530  0.2314 -0.0883  0.1430
  467TMC3    O1 6960   2.265   4.141  13.926 -0.5277  0.5331  0.9852
  467TMC3    O2 6961   2.360   4.516  13.472 -0.3912  0.1024 -0.1103
  468MPD2     C 6962   1.741   2.258  10.780 -0.0495  0.6694 -1.1139
  468MPD2    C1 6963   1.631   2.227  10.857  0.2494  0.1892 -0.8822
  468MPD2    C2 6964   1.612   2.094  10.892  0.5939  0.1104  0.3688
  468MPD2    C3 6965   1.696   1.995  10.851 -0.3089  0.4145  0.7116
  468MPD2    C4 6966   1.801   2.032  10.771 -0.2304  0.5329  0.3525
  468MPD2    C5 6967   1.829   2.158  10.736 -0.3500 -0.0271 -0.0734
  468MPD2     H 6968   1.525   2.069  10.951 -0.5788 -0.0802 -1.4355
  468MPD2    H1 6969   1.868   1.953  10.738 -1.2407 -0.1682  0.0055
  468MPD2    H2 6970   1.765   2.363  10.767  2.6553  0.5393  3.0397
  468MPD2    H3 6971   1.918   2.188  10.682 -0.2681  2.3117  1.3617
  468MPD2     N 6972   1.664   1.860  10.884 -0.1070  0.1929 -0.5297
  468MPD2    H5 6973   1.733   1.791  10.854  1.2979  1.2390  0.2631
  468MPD2    N1 6974   1.546   2.320  10.901 -0.0310 -0.2055 -0.0205
  468MPD2    H7 6975   1.474   2.291  10.966  0.1245 -1.1877 -0.2859
  469TMC3    C1 6976   1.430   2.524  10.905  0.0673  0.8411 -0.0346
  469TMC3    C2 6977   1.412   2.505  11.037  0.1031 -0.0464  0.4402
  469TMC3    C3 6978   1.299   2.552  11.089 -0.6474 -0.9939  0.2928
  469TMC3    C4 6979   1.335   2.566  10.817  0.2906  0.4844  0.3283
  469TMC3    C5 6980   1.213   2.600  10.871 -0.1939 -1.1200  0.2007
  469TMC3    C6 6981   1.194   2.582  11.005  0.5140 -0.3428  0.3990
  469TMC3     C 6982   1.533   2.446  10.847 -0.0602  0.1402 -0.1483
  469TMC3     O 6983   1.569   2.492  10.739  0.1013 -0.0197  0.4321
  469TMC3     H 6984   1.502   2.505  11.097  0.8234  1.0131 -0.6567
  469TMC3    H1 6985   1.352   2.565  10.710  0.7352 -1.9631  0.4217
  469TMC3    H2 6986   1.102   2.604  11.057 -0.2637 -2.6239 -0.0089
  469TMC3    C7 6987   1.103   2.583  10.781  0.0365  0.7045 -0.8348
  469TMC3    C8 6988   1.293   2.571  11.231 -0.0826 -0.6079  0.2045
  469TMC3    O1 6989   1.126   2.522  10.679 -0.2154 -0.0022  0.0609
  469TMC3    O2 6990   1.204   2.647  11.259  0.0427 -0.0274 -0.0823
  470TMC3    C1 6991   3.908   4.336   0.277 -1.0664  0.2390 -0.3566
  470TMC3    C2 6992   3.789   4.350   0.336  0.0520 -0.6556  0.0728
  470TMC3    C3 6993   3.774   4.308   0.463 -0.1310  0.0527 -1.2327
  470TMC3    C4 6994   4.019   4.281   0.344 -0.3478  0.0520  0.2626
  470TMC3    C5 6995   3.995   4.246   0.475  0.1383 -0.8081  0.1251
  470TMC3    C6 6996   3.878   4.257   0.540  0.1936 -0.2489 -0.5306
  470TMC3     C 6997   3.920   4.377   0.141  0.4688  0.3700 -0.1383
  470TMC3     O 6998   3.819   4.431   0.097  0.2551 -0.5359 -0.0241
  470TMC3     H 6999   3.706   4.392   0.280 -0.2235  0.5201  1.3494
  470TMC3    H1 7000   4.118   4.286   0.301 -1.3381  0.7208 -1.9330
  470TMC3    H2 7001   3.863   4.223   0.642 -0.7975  0.0057 -0.5857
  470TMC3    C7 7002   4.117   4.221   0.550 -0.5298 -0.1800  0.1331
  470TMC3    C8 7003   3.650   4.335   0.530 -0.3809 -0.1471  0.4054
  470TMC3    O1 7004   4.210   4.299   0.542  0.2967  0.2570  0.6801
  470TMC3    O2 7005   3.658   4.344   0.649  0.4861 -0.2386  0.1368
  471MPD2     C 7006   3.984   4.613  16.760  0.0064  0.1650  0.6626
  471MPD2    C1 7007   4.056   4.493  16.757  0.0544  0.0453 -0.0864
  471MPD2    C2 7008   4.136   4.463  16.865 -0.4313  0.9222 -1.1990
  471MPD2    C3 7009   4.134   4.542  16.978 -0.0559 -0.0462  0.7103
  471MPD2    C4 7010   4.044   4.647  16.986  0.4974 -0.4942 -0.6236
  471MPD2    C5 7011   3.980   4.688  16.873 -0.1363 -0.2843  0.5502
  471MPD2     H 7012   4.202   4.377  16.856  0.1303  1.3978 -1.6571
  471MPD2    H1 7013   4.043   4.707  17.076 -0.8393 -2.5624  0.7370
  471MPD2    H2 7014   3.928   4.651  16.676  0.7969 -0.5831 -0.2162
  471MPD2    H3 7015   3.918   0.052  16.881  0.5468  0.3067 -0.6347
  471MPD2     N 7016   4.233   4.526  17.071 -0.5194 -0.7874  0.6130
  471MPD2    H5 7017   4.285   4.439  17.064 -0.3286 -0.4765 -1.7134
  471MPD2    N1 7018   4.062   4.400  16.652  0.2212  0.4578  0.2745
  471MPD2    H7 7019   4.137   4.333  16.666  0.2631  0.4679  0.0961
  472TMC3    C1 7020   4.024   4.322  16.442  0.1483 -0.3790 -0.0002
  472TMC3    C2 7021   3.931   4.312  16.336 -0.3869  0.2043 -0.5281
  472TMC3    C3 7022   3.951   4.206  16.244 -0.5665 -0.5557  0.6435
  472TMC3    C4 7023   4.124   4.233  16.462 -0.3773 -0.0040 -0.8743
  472TMC3    C5 7024   4.134   4.127  16.378 -0.0930 -0.2755  0.7596
  472TMC3    C6 7025   4.047   4.111  16.270 -0.0756  0.2831 -0.3182
  472TMC3     C 7026   3.996   4.418  16.540 -0.1367 -0.8507  0.0707
  472TMC3     O 7027   3.890   4.478  16.524 -0.0298  0.4312 -0.4015
  472TMC3     H 7028   3.848   4.381  16.323 -0.1080  0.5032 -0.7109
  472TMC3    H1 7029   4.179   4.234  16.555 -0.3077 -1.3584 -0.9054
  472TMC3    H2 7030   4.062   4.031  16.198 -2.8993 -0.7204  0.2246
  472TMC3    C7 7031   4.130   4.014  16.465 -0.5511 -1.0463 -0.1720
  472TMC3    C8 7032   3.832   4.134  16.210 -0.4440 -0.1551 -0.3688
  472TMC3    O1 7033   4.168   4.020  16.580  0.0195  0.0432 -0.8491
  472TMC3    O2 7034   3.834   4.013  16.201  0.0661 -0.0135  0.0292
  473MPD2     C 7035   4.562   2.150  13.856  0.4117  0.3432  0.1777
  473MPD2    C1 7036   4.444   2.217  13.898  0.4471 -0.4229  0.0801
  473MPD2    C2 7037   4.439   2.268  14.027  0.6617 -0.0922  0.2089
  473MPD2    C3 7038   4.536   2.255  14.122 -1.0774 -0.0185 -0.2457
  473MPD2    C4 7039   4.647   2.189  14.079 -0.6445 -1.0661  0.8948
  473MPD2    C5 7040   4.667   2.146  13.946  0.2458 -0.9109 -0.0891
  473MPD2     H 7041   4.346   2.316  14.053  1.2675  1.6922 -0.9020
  473MPD2    H1 7042   4.721   2.171  14.157 -0.9817 -1.4312  1.1269
  473MPD2    H2 7043   4.580   2.102  13.760 -0.5957  1.9961 -0.8442
  473MPD2    H3 7044   0.030   2.096  13.908  0.8460 -0.0925  0.2198
  473MPD2     N 7045   4.526   2.296  14.255 -0.1262 -0.0553  0.0439
  473MPD2    H5 7046   4.586   2.248  14.321 -3.5115 -4.3479  0.0230
  473MPD2    N1 7047   4.331   2.240  13.819  0.4415 -0.4045 -0.1898
  473MPD2    H7 7048   4.253   2.288  13.863  1.8278  1.5792  0.0963
  474TMC3    C1 7049   4.421   2.409  14.445  0.6042  0.1666 -0.1025
  474TMC3    C2 7050   4.339   2.510  14.488 -0.0708 -0.1238  0.0089
  474TMC3    C3 7051   4.353   2.564  14.614  0.4567 -0.1182  0.3988
  474TMC3    C4 7052   4.514   2.361  14.530  0.4063 -1.1659 -0.1769
  474TMC3    C5 7053   4.530   2.415  14.654  0.3463  0.9807  0.5198
  474TMC3    C6 7054   4.447   2.518  14.698 -1.2904  0.0048  0.0617
  474TMC3     C 7055   4.428   2.384  14.301 -0.5108 -0.5343 -0.0328
  474TMC3     O 7056   4.360   2.461  14.233  0.3310  0.7879  0.4671
  474TMC3     H 7057   4.267   2.553  14.419  0.0385 -0.8010 -0.5363
  474TMC3    H1 7058   4.582   2.283  14.498 -2.2086 -2.2554 -3.1294
  474TMC3    H2 7059   4.443   2.562  14.798 -1.0411  0.0784  0.0391
  474TMC3    C7 7060   4.654   2.370  14.730 -0.3289  0.9736 -0.4528
  474TMC3    C8 7061   4.289   2.695  14.630  1.2525 -0.5911 -0.5141
  474TMC3    O1 7062   4.722   2.295  14.669 -0.4564 -0.1595 -0.4240
  474TMC3    O2 7063   4.236   2.728  14.735 -0.3612 -0.4272  0.2686
  475MPD2     C 7064   2.741   4.518  10.853  0.4971 -0.1423  0.1101
  475MPD2    C1 7065   2.699   4.491  10.725 -0.5421  0.6537  0.8236
  475MPD2    C2 7066   2.586   4.559  10.672 -0.0566  0.6488 -0.1727
  475MPD2    C3 7067   2.535   4.672  10.733  0.1920  0.8031  0.5878
  475MPD2    C4 7068   2.585   4.695  10.863 -0.5390 -0.4343 -0.3173
  475MPD2    C5 7069   2.676   4.621  10.923 -0.2406 -0.5347  0.5328
  475MPD2     H 7070   2.542   4.531  10.577  1.7077 -0.1891 -0.7425
  475MPD2    H1 7071   2.537   0.043  10.928 -1.3369 -2.0906  0.9389
  475MPD2    H2 7072   2.825   4.474  10.905  0.2833  0.5983  1.1037
  475MPD2    H3 7073   2.713   4.643  11.022  0.3481 -1.3329  0.4905
  475MPD2     N 7074   2.422   0.019  10.677 -0.1391  0.2164  0.3562
  475MPD2    H5 7075   2.386   4.717  10.586 -0.4836 -1.5907  1.0144
  475MPD2    N1 7076   2.761   4.378  10.661 -0.0535  0.0857 -0.3844
  475MPD2    H7 7077   2.799   4.303  10.718 -0.6154  1.6341  1.9976
  476TMC3    C1 7078   2.764   4.471  10.443 -0.1014  0.0283 -0.0307
  476TMC3    C2 7079   2.679   4.490  10.339  0.0614  0.3028 -0.2954
  476TMC3    C3 7080   2.666   4.618  10.291  0.1834 -0.6246 -0.8233
  476TMC3    C4 7081   2.852   4.561  10.486 -0.1124  0.6450  0.2131
  476TMC3    C5 7082   2.858   4.679  10.414 -0.2861  0.1920 -0.6246
  476TMC3    C6 7083   2.754   4.715  10.332 -0.2450  0.1602 -0.1956
  476TMC3     C 7084   2.749   4.354  10.526 -0.3804 -0.1517 -0.2552
  476TMC3     O 7085   2.758   4.246  10.465 -0.4687  0.2716 -0.1960
  476TMC3     H 7086   2.607   4.410  10.335 -1.4026  1.5333  1.9207
  476TMC3    H1 7087   2.928   4.540  10.560 -2.3533 -2.8798  1.5709
  476TMC3    H2 7088   2.735   0.094  10.305  0.9702  0.1619 -1.0402
  476TMC3    C7 7089   2.931   0.056  10.488 -0.0581  0.8527 -0.5176
  476TMC3    C8 7090   2.527   4.652  10.312 -0.4242 -0.4889  0.2299
  476TMC3    O1 7091   2.880   0.169  10.486 -0.3489 -0.7036 -0.0896
  476TMC3    O2 7092   2.508   0.019  10.394  0.5615  0.0704 -0.2970
  477MPD2     C 7093   0.235   1.722  11.742  0.1420 -0.2623  0.0299
  477MPD2    C1 7094   0.116   1.682  11.804  0.1281  0.5495 -0.8347
  477MPD2    C2 7095   0.123   1.580  11.903  0.3839 -0.2689  0.6633
  477MPD2    C3 7096   0.243   1.530  11.946 -0.3544 -0.1520 -0.2472
  477MPD2    C4 7097   0.363   1.583  11.882  0.5880  0.3740 -0.1304
  477MPD2    C5 7098   0.356   1.680  11.791  0.6261 -0.3885  0.5156
  477MPD2     H 7099   0.032   1.551  11.956  0.1292  2.0323  1.4893
  477MPD2    H1 7100   0.461   1.545  11.906  0.3868 -0.1432 -0.1432
  477MPD2    H2 7101   0.249   1.793  11.661  0.6905  1.5619  1.7267
  477MPD2    H3 7102   0.437   1.738  11.747  2.3108 -0.9664  2.8915
  477MPD2     N 7103   0.243   1.425  12.048 -0.0389  0.4413 -0.1147
  477MPD2    H5 7104   0.149   1.409  12.083 -0.0759  0.5088 -0.1856
  477MPD2    N1 7105   4.717   1.738  11.760 -0.6401  0.7419  0.7437
  477MPD2    H7 7106   4.723   1.799  11.680  0.8107  0.2956  0.4967
  478TMC3    C1 7107   4.487   1.770  11.728 -0.7762 -0.2651  0.6602
  478TMC3    C2 7108   4.413   1.851  11.804 -0.2460  0.5009  0.9166
  478TMC3    C3 7109   4.346   1.949  11.743  0.3215 -0.4913  0.4819
  478TMC3    C4 7110   4.509   1.791  11.596 -0.2066  0.3688  0.1496
  478TMC3    C5 7111   4.429   1.888  11.532 -0.0323 -0.0242  0.1275
  478TMC3    C6 7112   4.356   1.981  11.604  0.0998 -0.2505  0.0188
  478TMC3     C 7113   4.595   1.711  11.808  0.0847  0.4106 -0.5202
  478TMC3     O 7114   4.555   1.654  11.909 -0.6095 -0.5372  0.3604
  478TMC3     H 7115   4.416   1.838  11.911 -2.4146 -2.4649  0.6300
  478TMC3    H1 7116   4.564   1.718  11.539  1.8785  2.3414 -0.3626
  478TMC3    H2 7117   4.291   2.050  11.552  0.9310 -0.6406 -1.5411
  478TMC3    C7 7118   4.447   1.895  11.388  0.2844  0.7201  0.3999
  478TMC3    C8 7119   4.265   2.034  11.825  0.3504 -0.2507 -0.0766
  478TMC3    O1 7120   4.506   1.795  11.343  0.2897 -0.1006 -0.4574
  478TMC3    O2 7121   4.245   1.981  11.933 -0.5884 -0.1846 -0.2213
  479MPD2     C 7122   4.009   4.124  15.251  0.1539 -0.2625 -0.0307
  479MPD2    C1 7123   3.922   4.058  15.336  0.0841  0.1509 -0.4160
  479MPD2    C2 7124   3.909   4.113  15.463 -0.0023 -0.1270 -0.0299
  479MPD2    C3 7125   3.971   4.234  15.494 -0.1137 -0.0019  0.0464
  479MPD2    C4 7126   4.062   4.284  15.408  0.4139 -0.0642  0.0290
  479MPD2    C5 7127   4.080   4.229  15.285 -0.4363 -0.4106 -0.4399
  479MPD2     H 7128   3.857   4.061  15.543  0.2645 -3.0514 -1.7410
  479MPD2    H1 7129   4.109   4.380  15.423  2.6920 -1.4718  1.8996
  479MPD2    H2 7130   4.016   4.089  15.149  0.9472 -0.4968  0.1094
  479MPD2    H3 7131   4.137   4.276  15.206 -0.7128 -2.7834 -2.0595
  479MPD2     N 7132   3.958   4.300  15.616  0.3465 -0.2663 -0.7320
  479MPD2    H5 7133   4.045   4.347  15.639 -0.1104  0.9556 -1.5159
  479MPD2    N1 7134   3.843   3.952  15.285  0.7691 -0.3361 -0.1247
  479MPD2    H7 7135   3.861   3.930  15.187  0.2188  2.2214 -0.7995
  480TMC3    C1 7136   3.553   4.120  15.807  0.3778  0.1598 -0.0906
  480TMC3    C2 7137   3.476   4.168  15.706 -0.2356  0.1953 -0.0751
  480TMC3    C3 7138   3.540   4.233  15.596  0.1647 -0.5176  1.1659
  480TMC3    C4 7139   3.688   4.148  15.806  0.5532  0.3664  0.9362
  480TMC3    C5 7140   3.743   4.213  15.700  0.2274 -0.0401  0.4616
  480TMC3    C6 7141   3.669   4.263  15.595 -0.3012 -0.8733 -0.6545
  480TMC3     C 7142   3.508   4.013  15.888  0.2106 -0.2859  0.1330
  480TMC3     O 7143   3.594   3.931  15.903  0.5926 -0.2076  0.3968
  480TMC3     H 7144   3.370   4.144  15.703  0.2827 -2.0616 -0.5351
  480TMC3    H1 7145   3.748   4.114  15.889 -1.7204 -0.7399  2.1404
  480TMC3    H2 7146   3.718   4.338  15.534  1.4956 -2.0042 -0.6064
  480TMC3    C7 7147   3.888   4.250  15.724  0.2573 -0.0646 -0.1327
  480TMC3    C8 7148   3.472   4.241  15.464  0.0302  0.3002 -0.0226
  480TMC3    O1 7149   3.917   4.258  15.842 -0.3455  0.1830  0.2500
  480TMC3    O2 7150   3.362   4.197  15.458 -0.3448 -0.5522  0.2052
  481MPD2     C 7151   0.807   3.929  13.968 -0.1050  0.2507 -0.5519
  481MPD2    C1 7152   0.725   3.823  14.002  0.5822  0.1628 -0.2747
  481MPD2    C2 7153   0.755   3.755  14.117 -0.6143  0.1422 -0.0496
  481MPD2    C3 7154   0.853   3.802  14.206 -0.8404 -0.2010  0.2457
  481MPD2    C4 7155   0.934   3.906  14.167 -0.2303  0.0490  0.1453
  481MPD2    C5 7156   0.914   3.960  14.050 -0.4845  0.2028 -0.0808
  481MPD2     H 7157   0.706   3.662  14.139 -0.6947  0.4497  1.0391
  481MPD2    H1 7158   1.021   3.939  14.221 -0.3684  0.6490 -0.0055
  481MPD2    H2 7159   0.798   3.994  13.882  0.1160  0.1898 -0.6219
  481MPD2    H3 7160   0.977   4.040  14.012  0.3810  0.0622  1.0695
  481MPD2     N 7161   0.889   3.729  14.320  0.4423 -0.1826 -0.2566
  481MPD2    H5 7162   0.979   3.757  14.357  1.2698 -1.4158 -1.3195
  481MPD2    N1 7163   0.638   3.779  13.894 -0.3859  0.1494 -0.1436
  481MPD2    H7 7164   0.664   3.820  13.805 -2.7762 -1.3081 -1.5222
  482TMC3    C1 7165   0.493   3.630  13.781 -0.2842  0.3654  0.2885
  482TMC3    C2 7166   0.413   3.519  13.786 -0.4062  0.2128  0.0286
  482TMC3    C3 7167   0.335   3.486  13.679  0.4937  0.3240  0.0410
  482TMC3    C4 7168   0.492   3.713  13.671  0.1053 -0.6048  0.0470
  482TMC3    C5 7169   0.430   3.661  13.562  0.7644  0.2774 -0.7481
  482TMC3    C6 7170   0.353   3.550  13.564  0.1980  0.3787 -0.0539
  482TMC3     C 7171   0.554   3.669  13.908 -0.2759 -1.1822 -0.1735
  482TMC3     O 7172   0.533   3.609  14.011  0.2124 -0.6688 -0.5053
  482TMC3     H 7173   0.417   3.468  13.881  1.1087 -1.2522 -0.8125
  482TMC3    H1 7174   0.548   3.804  13.656  0.5502 -0.6812  1.1876
  482TMC3    H2 7175   0.326   3.493  13.476  1.1140  2.1572 -1.4755
  482TMC3    C7 7176   0.423   3.737  13.440  0.1502 -1.0326 -0.3010
  482TMC3    C8 7177   0.263   3.365  13.689 -0.0862  0.5781  0.4255
  482TMC3    O1 7178   0.495   3.834  13.434  0.4999 -0.2544  0.3565
  482TMC3    O2 7179   0.300   3.292  13.780 -0.0163 -0.2736  0.3094
  483TMC3    C1 7180   3.147   2.557   1.052  1.2053 -0.0843  0.3203
  483TMC3    C2 7181   3.218   2.662   1.102  0.1031  0.5460  0.3164
  483TMC3    C3 7182   3.315   2.641   1.198  0.2534 -0.5418  0.5594
  483TMC3    C4 7183   3.165   2.431   1.095 -0.3454 -0.4098  0.3538
  483TMC3    C5 7184   3.276   2.405   1.169  0.0366  0.4193  0.0107
  483TMC3    C6 7185   3.352   2.507   1.219  0.1099 -0.1612 -0.4393
  483TMC3     C 7186   3.146   2.564   0.906 -0.2557  0.8628 -0.3979
  483TMC3     O 7187   3.239   2.629   0.864  0.1429  0.8218 -0.5259
  483TMC3     H 7188   3.200   2.760   1.060  1.0173 -0.6428 -2.8488
  483TMC3    H1 7189   3.123   2.343   1.048 -0.3804 -0.7502  1.0229
  483TMC3    H2 7190   3.449   2.484   1.262  1.0251  0.9139 -1.9154
  483TMC3    C7 7191   3.334   2.271   1.165 -0.3669 -0.1935  0.0102
  483TMC3    C8 7192   3.428   2.737   1.194  0.7422  1.0125 -0.6992
  483TMC3    O1 7193   3.251   2.181   1.183  0.2883 -0.1071  0.3095
  483TMC3    O2 7194   3.537   2.698   1.228 -0.0803  0.5242  0.2490
  484MPD2     C 7195   0.928   0.842  12.453 -0.1482 -0.0672 -0.4328
  484MPD2    C1 7196   1.005   0.758  12.526  0.4989  0.1852  0.6022
  484MPD2    C2 7197   1.147   0.771  12.517  0.3171 -0.6248 -0.8319
  484MPD2    C3 7198   1.204   0.871  12.440 -1.0474 -0.0409  0.1704
  484MPD2    C4 7199   1.115   0.950  12.364 -0.5777 -0.3949 -0.2026
  484MPD2    C5 7200   0.979   0.935  12.374 -0.0833 -0.1570  0.1097
  484MPD2     H 7201   1.211   0.709  12.578  0.5295 -0.1496 -0.5718
  484MPD2    H1 7202   1.138   1.021  12.285  2.5798 -0.6226  0.5223
  484MPD2    H2 7203   0.820   0.826  12.458  0.1825 -1.3783  2.7099
  484MPD2    H3 7204   0.914   1.004  12.323  1.1360 -0.6666 -2.1370
  484MPD2     N 7205   1.347   0.877  12.430 -0.1191 -0.1266  0.7728
  484MPD2    H5 7206   1.382   0.939  12.358  0.5385 -2.9176 -1.3127
  484MPD2    N1 7207   0.946   0.662  12.608 -0.0444  0.1978 -0.5842
  484MPD2    H7 7208   0.845   0.666  12.615  0.0964  0.2373  1.4486
  485TMC3    C1 7209   1.574   0.857  12.469 -0.2020  0.0001 -0.3884
  485TMC3    C2 7210   1.676   0.818  12.563 -0.5746  0.8580 -0.0103
  485TMC3    C3 7211   1.802   0.816  12.516 -0.1208 -0.8457  0.6773
  485TMC3    C4 7212   1.598   0.870  12.331 -0.1376 -0.1481  0.3237
  485TMC3    C5 7213   1.728   0.873  12.299  0.4346 -0.6391  0.7296
  485TMC3    C6 7214   1.832   0.849  12.388 -0.0153  0.1858 -0.5926
  485TMC3     C 7215   1.438   0.815  12.506  0.4098  0.1640 -0.3885
  485TMC3     O 7216   1.429   0.731  12.596 -0.1787 -0.4101 -0.2276
  485TMC3     H 7217   1.646   0.806  12.667  1.5252  0.3834  0.5490
  485TMC3    H1 7218   1.524   0.884  12.254 -0.1171 -1.1864  0.1167
  485TMC3    H2 7219   1.931   0.865  12.347  0.2456 -0.9337 -0.4126
  485TMC3    C7 7220   1.756   0.849  12.153 -0.1287 -0.3793  0.0581
  485TMC3    C8 7221   1.882   0.700  12.556  0.1383  0.1758  0.6874
  485TMC3    O1 7222   1.733   0.937  12.067 -0.8794  0.0005  0.2469
  485TMC3    O2 7223   1.988   0.691  12.494 -0.6997 -0.2122  0.3466
  486MPD2     C 7224   3.529   3.757  12.783 -0.3880  0.1072 -0.0301
  486MPD2    C1 7225   3.392   3.773  12.770 -0.1662 -0.4001 -0.4054
  486MPD2    C2 7226   3.336   3.897  12.738 -0.2128  0.5862  0.2610
  486MPD2    C3 7227   3.425   4.000  12.739 -0.7207  0.5208  0.3775
  486MPD2    C4 7228   3.567   3.986  12.753  0.5562 -0.6475 -0.3863
  486MPD2    C5 7229   3.613   3.860  12.773  0.1657  0.7450  0.4111
  486MPD2     H 7230   3.232   3.917  12.718  0.4718  0.5703 -3.3243
  486MPD2    H1 7231   3.638   4.064  12.731 -1.3787  2.1112  3.0161
  486MPD2    H2 7232   3.561   3.654  12.792 -1.4152 -0.1814  0.2229
  486MPD2    H3 7233   3.718   3.838  12.765  0.0574 -0.1509  1.4446
  486MPD2     N 7234   3.366   4.121  12.716  0.5490  0.0611  0.1430
  486MPD2    H5 7235   3.265   4.126  12.705  0.4989 -1.4235 -0.1267
  486MPD2    N1 7236   3.314   3.659  12.792 -0.0062 -0.1132  0.3692
  486MPD2    H7 7237   3.361   3.577  12.829  0.6178 -0.2904 -0.8317
  487TMC3    C1 7238   3.115   3.550  12.870  0.1905  0.2109  0.1434
  487TMC3    C2 7239   2.987   3.512  12.828 -0.4774  0.7154  0.2176
  487TMC3    C3 7240   2.932   3.419  12.904 -0.5946  0.1355  0.8836
  487TMC3    C4 7241   3.178   3.517  12.988 -0.9733  0.4588  0.0366
  487TMC3    C5 7242   3.109   3.437  13.071 -0.6060  0.1600  0.9027
  487TMC3    C6 7243   2.988   3.386  13.026 -0.9303 -0.8314  0.0494
  487TMC3     C 7244   3.173   3.655  12.791  0.5657 -0.4329 -0.2515
  487TMC3     O 7245   3.102   3.727  12.724  0.0024  0.0416 -0.0870
  487TMC3     H 7246   2.950   3.557  12.736 -0.9365 -0.5822 -0.2436
  487TMC3    H1 7247   3.261   3.582  13.014  0.5535 -1.5010  0.0330
  487TMC3    H2 7248   2.932   3.311  13.080 -0.9811 -1.9498 -1.5652
  487TMC3    C7 7249   3.119   3.476  13.210  0.8883  0.5955  0.7299
  487TMC3    C8 7250   2.789   3.405  12.902  0.6451 -0.2440  0.3512
  487TMC3    O1 7251   3.183   3.580  13.225  0.3571  0.6176 -0.0387
  487TMC3    O2 7252   2.717   3.506  12.898 -0.2631  0.1982  0.4101
  488MPD2     C 7253   3.744   1.043  16.585 -0.2412 -0.7859  0.4292
  488MPD2    C1 7254   3.770   1.117  16.708  0.2863  0.3493 -0.1778
  488MPD2    C2 7255   3.754   1.047  16.831  0.1948 -0.5967 -0.2264
  488MPD2    C3 7256   3.719   0.910  16.838 -0.5072 -0.2449  0.3970
  488MPD2    C4 7257   3.697   0.846  16.719  0.3643 -0.3332  0.1450
  488MPD2    C5 7258   3.710   0.910  16.600  0.7322 -0.0252 -0.4446
  488MPD2     H 7259   3.769   1.094  16.928 -0.3735 -2.6593  0.8715
  488MPD2    H1 7260   3.659   0.745  16.715  1.1683 -0.6422  0.3737
  488MPD2    H2 7261   3.746   1.092  16.488  2.2724 -1.4137  0.1743
  488MPD2    H3 7262   3.696   0.852  16.509 -1.4295 -0.1563 -0.0200
  488MPD2     N 7263   3.703   0.858  16.969 -0.0314  0.4338 -0.1974
  488MPD2    H5 7264   3.718   0.925  17.043  0.4040 -0.7525  0.7972
  488MPD2    N1 7265   3.809   1.254  16.701 -0.1547  0.5349 -0.8337
  488MPD2    H7 7266   3.827   1.300  16.790  1.5681  0.3711 -1.1062
  489TMC3    C1 7267   3.652   0.718  17.137 -0.0909  0.5485  0.4568
  489TMC3    C2 7268   3.730   0.798  17.214  0.2458  0.1676  0.3381
  489TMC3    C3 7269   3.688   0.844  17.337  0.4979 -0.2579 -0.2370
  489TMC3    C4 7270   3.538   0.669  17.188 -0.0226 -0.2171  0.3559
  489TMC3    C5 7271   3.503   0.704  17.317 -0.0259  0.0382 -0.1833
  489TMC3    C6 7272   3.580   0.784  17.392  0.4327  0.1820 -0.2614
  489TMC3     C 7273   3.661   0.733  16.995  0.9067 -0.5168  0.5281
  489TMC3     O 7274   3.642   0.644  16.916  0.0780 -0.6731  0.1431
  489TMC3     H 7275   3.831   0.818  17.180  0.2823  1.6564  1.3040
  489TMC3    H1 7276   3.474   0.599  17.134  0.0858 -2.0941  2.6508
  489TMC3    H2 7277   3.538   0.812  17.488  0.1940 -0.2138 -0.2527
  489TMC3    C7 7278   3.392   0.633  17.384  0.0762 -0.4443  0.4041
  489TMC3    C8 7279   3.724   0.981  17.356  0.3906  0.3102  0.5980
  489TMC3    O1 7280   3.396   0.623  17.509 -0.1272 -0.2825  0.0110
  489TMC3    O2 7281   3.805   1.030  17.277  0.2300 -0.2810 -0.9025
  490MPD2     C 7282   4.254   0.709  17.667 -0.5089  0.0395  0.0890
  490MPD2    C1 7283   4.219   0.617   0.059  0.2369 -0.4286  0.4149
  490MPD2    C2 7284   4.247   0.643   0.195 -0.0687 -0.4796 -0.8725
  490MPD2    C3 7285   4.329   0.750   0.222  0.0250  0.0853 -0.5510
  490MPD2    C4 7286   4.374   0.833   0.125 -0.1992  0.5411 -0.5941
  490MPD2    C5 7287   4.327   0.818   0.004  0.0811 -0.3305  0.8131
  490MPD2     H 7288   4.215   0.567   0.265 -0.9285  0.1426 -0.5838
  490MPD2    H1 7289   4.442   0.915   0.146  0.2585 -0.5341  2.2069
  490MPD2    H2 7290   4.219   0.711  17.564  1.8787  1.3928 -0.7013
  490MPD2    H3 7291   4.369   0.893  17.638 -1.7757  0.0625  0.0905
  490MPD2     N 7292   4.385   0.760   0.348 -0.0046  0.2889  0.3576
  490MPD2    H5 7293   4.471   0.814   0.354 -0.8472  1.8428 -1.6840
  490MPD2    N1 7294   4.153   0.495   0.026  1.0468 -0.1547  0.1011
  490MPD2    H7 7295   4.129   0.436   0.105 -1.3900 -1.9645 -1.9733
  491TMC3    C1 7296   4.114   0.298  17.581 -0.3002  0.4546 -0.1676
  491TMC3    C2 7297   4.102   0.214  17.692 -0.4413  0.0877 -0.3845
  491TMC3    C3 7298   4.051   0.086  17.670  0.0946  0.4477  0.1172
  491TMC3    C4 7299   4.076   0.261  17.452 -0.7552 -0.1253  0.1473
  491TMC3    C5 7300   4.018   0.136  17.439 -0.3695 -0.7784  0.4362
  491TMC3    C6 7301   4.005   0.054  17.547  0.2577  0.3899 -0.2161
  491TMC3     C 7302   4.150   0.445  17.595 -0.2282  0.0521  0.2188
  491TMC3     O 7303   4.159   0.513  17.490 -0.2964 -0.0783 -0.2867
  491TMC3     H 7304   4.135   0.248   0.090  2.0661  0.1177 -1.2487
  491TMC3    H1 7305   4.092   0.328  17.369  0.0071  0.7168  0.9742
  491TMC3    H2 7306   3.952   4.684  17.536  0.3361  0.2673  0.4475
  491TMC3    C7 7307   3.927   0.117  17.328  0.4306 -0.1452 -0.0710
  491TMC3    C8 7308   3.964   0.034   0.066  0.0865 -0.6059 -1.1335
  491TMC3    O1 7309   3.859   0.018  17.334  0.0008  0.4070 -0.5858
  491TMC3    O2 7310   3.846   0.021   0.040  0.4094  0.4375 -0.7347
  492MPD2     C 7311   0.007   0.208  11.184 -0.0232 -0.6665  0.0076
  492MPD2    C1 7312   4.617   0.163  11.123 -0.2460 -0.6368  0.2088
  492MPD2    C2 7313   4.533   0.080  11.200  0.0556 -0.4981  0.1346
  492MPD2    C3 7314   4.562   0.065  11.331  0.6713 -0.1208  0.6681
  492MPD2    C4 7315   4.665   0.130  11.396 -0.5607  0.9034  0.5991
  492MPD2    C5 7316   0.024   0.204  11.320  0.7351  0.8011 -0.7325
  492MPD2     H 7317   4.440   0.045  11.158  0.0021  1.1872 -1.1406
  492MPD2    H1 7318   4.684   0.107  11.500 -2.8698  0.3294  0.8992
  492MPD2    H2 7319   0.088   0.251  11.125 -1.2731  0.1133 -1.1296
  492MPD2    H3 7320   0.111   0.245  11.370  0.6656  2.0613 -1.6635
  492MPD2     N 7321   4.486   4.708  11.422  0.0250 -0.3181  0.4403
  492MPD2    H5 7322   4.521   4.718  11.517  0.9423  0.8940 -0.0255
  492MPD2    N1 7323   4.599   0.188  10.987 -0.3979  0.4636  0.0108
  492MPD2    H7 7324   4.682   0.223  10.941  0.6602 -0.0960  1.4797
  493TMC3    C1 7325   4.500   0.211  10.780 -0.0709 -0.4261 -0.1654
  493TMC3    C2 7326   4.618   0.269  10.737 -0.1766 -0.4573  0.6828
  493TMC3    C3 7327   4.622   0.304  10.604 -0.7677 -0.0253  0.0062
  493TMC3    C4 7328   4.396   0.185  10.689 -1.1485 -0.8142 -0.6792
  493TMC3    C5 7329   4.407   0.239  10.564  0.1061 -0.3557  0.5725
  493TMC3    C6 7330   4.521   0.301  10.515 -0.4391 -0.6105 -0.0277
  493TMC3     C 7331   4.492   0.151  10.915 -0.1541  0.4556 -0.3551
  493TMC3     O 7332   4.392   0.089  10.943  0.0264 -0.4303  0.6260
  493TMC3     H 7333   4.715   0.281  10.784 -0.3333  0.4830  0.7623
  493TMC3    H1 7334   4.306   0.133  10.722 -1.1255  0.3390  1.1708
  493TMC3    H2 7335   4.531   0.321  10.409 -1.2206  1.4519  0.2840
  493TMC3    C7 7336   4.301   0.195  10.473  0.2818  0.2946 -0.1182
  493TMC3    C8 7337   0.026   0.340  10.545  0.8178 -0.2560  0.1155
  493TMC3    O1 7338   4.197   0.154  10.526 -0.2654  0.0583  0.1503
  493TMC3    O2 7339   0.121   0.268  10.555  0.2730  0.2079 -0.1611
  494TMC3    C1 7340   0.407   2.145   0.750  0.3819  0.8800  0.0341
  494TMC3    C2 7341   0.353   2.043   0.818  0.0957  0.1088 -0.1624
  494TMC3    C3 7342   0.329   1.921   0.755 -0.2206  0.1556  0.4375
  494TMC3    C4 7343   0.428   2.137   0.614 -1.2612 -0.0211 -0.0323
  494TMC3    C5 7344   0.406   2.016   0.555  0.8800 -0.5048  0.4333
  494TMC3    C6 7345   0.360   1.900   0.624 -0.2775 -0.0933  0.3770
  494TMC3     C 7346   0.382   2.277   0.801  0.2313  0.0141 -0.3833
  494TMC3     O 7347   0.322   2.290   0.903 -0.1877 -0.3544 -0.0604
  494TMC3     H 7348   0.346   2.054   0.926 -1.2557  1.3634 -0.3810
  494TMC3    H1 7349   0.456   2.222   0.554 -1.8909  1.6739  2.0745
  494TMC3    H2 7350   0.338   1.800   0.586 -0.0949 -0.0905  0.2647
  494TMC3    C7 7351   0.435   2.008   0.409 -0.4013  0.5866  0.9595
  494TMC3    C8 7352   0.270   1.813   0.837  0.3141  0.0048 -0.3227
  494TMC3    O1 7353   0.447   2.122   0.360  0.4891  0.1654  0.0364
  494TMC3    O2 7354   0.304   1.698   0.809  0.6984 -0.2363 -0.1368
  495TMC3    C1 7355   4.070   4.239  14.740 -0.4504  0.0966  0.2971
  495TMC3    C2 7356   4.021   4.265  14.614  0.3470  0.5001  0.2610
  495TMC3    C3 7357   3.932   4.362  14.605 -0.2239  0.6450  0.2073
  495TMC3    C4 7358   4.026   4.304  14.850 -0.4996 -0.5826 -1.0243
  495TMC3    C5 7359   3.918   4.393  14.833  0.1357 -0.2712  0.3622
  495TMC3    C6 7360   3.880   4.423  14.711 -0.2684 -0.4786  0.1816
  495TMC3     C 7361   4.111   4.106  14.768 -0.0335  0.0041  0.2150
  495TMC3     O 7362   4.049   4.060  14.865 -0.0240  0.8793 -0.3585
  495TMC3     H 7363   4.046   4.209  14.524 -0.2008  0.0780  0.3725
  495TMC3    H1 7364   4.049   4.265  14.949 -1.4232 -2.1309 -1.4197
  495TMC3    H2 7365   3.804   4.499  14.703 -1.1412 -1.6858 -3.4591
  495TMC3    C7 7366   3.835   4.404  14.947 -0.0518  0.7390 -0.8765
  495TMC3    C8 7367   3.841   4.369  14.492  0.5122 -0.8070  0.2408
  495TMC3    O1 7368   3.891   4.413  15.053 -0.0074 -0.4367  0.7383
  495TMC3    O2 7369   3.769   4.469  14.482  0.3247 -0.6746  0.2542
  496MPD2     C 7370   0.943   4.136  15.352 -0.1117 -0.0097 -0.0831
  496MPD2    C1 7371   0.878   4.009  15.370  0.1330 -0.8178 -0.2402
  496MPD2    C2 7372   0.754   4.000  15.431  0.6070 -0.2720 -0.2853
  496MPD2    C3 7373   0.695   4.114  15.493 -0.5726 -0.8153  0.1086
  496MPD2    C4 7374   0.765   4.229  15.477 -0.5198 -0.0893  0.1513
  496MPD2    C5 7375   0.879   4.243  15.401  0.2645  0.2623  0.3748
  496MPD2     H 7376   0.708   3.902  15.443 -2.2960  0.9626 -1.4349
  496MPD2    H1 7377   0.720   4.321  15.513 -0.5180 -1.4719  3.7332
  496MPD2    H2 7378   1.041   4.150  15.308  0.3278  1.1740  1.2650
  496MPD2    H3 7379   0.927   4.340  15.398  0.7871  0.0428  1.7939
  496MPD2     N 7380   0.576   4.116  15.565 -0.4181  0.3770  0.4068
  496MPD2    H5 7381   0.560   4.199  15.622 -1.1020 -0.5082  1.5168
  496MPD2    N1 7382   0.945   3.894  15.315  0.1655 -0.4245 -0.0107
  496MPD2    H7 7383   1.033   3.922  15.274 -0.3162  1.1994  0.0832
  497TMC3    C1 7384   0.384   4.034  15.674 -0.0914 -0.5984 -0.4401
  497TMC3    C2 7385   0.251   4.017  15.646 -0.4352  0.2092 -0.0949
  497TMC3    C3 7386   0.167   4.069  15.738  0.8508  0.9550  0.8228
  497TMC3    C4 7387   0.427   4.082  15.792 -0.4482 -0.6141  0.4696
  497TMC3    C5 7388   0.343   4.135  15.879  0.4370 -0.5989 -0.5959
  497TMC3    C6 7389   0.210   4.126  15.855  0.2723 -0.3649 -0.0145
  497TMC3     C 7390   0.480   4.017  15.569 -0.5914  0.1587 -0.2812
  497TMC3     O 7391   0.455   3.946  15.476 -0.1594 -0.1665  0.6242
  497TMC3     H 7392   0.211   3.970  15.557  2.8727 -1.3900 -0.7569
  497TMC3    H1 7393   0.532   4.082  15.820 -0.4006  1.4503  0.2692
  497TMC3    H2 7394   0.141   4.173  15.923  0.9224  3.0726 -1.6971
  497TMC3    C7 7395   0.397   4.210  15.994  0.5607 -0.1280  0.5026
  497TMC3    C8 7396   0.027   4.081  15.701  0.3753  0.2679 -0.0691
  497TMC3    O1 7397   0.323   4.293  16.038  0.0499  0.7437 -0.5071
  497TMC3    O2 7398   4.711   4.035  15.592 -0.6077 -0.1324 -0.2395
  498MPD2     C 7399   2.351   4.665   9.873  0.0625  0.0707 -0.5372
  498MPD2    C1 7400   2.301   0.019   9.982  0.9738 -0.3416  0.5914
  498MPD2    C2 7401   2.174   4.715  10.026 -0.2034 -0.1752 -0.2681
  498MPD2    C3 7402   2.102   4.608   9.977  0.5549  0.4314  0.1054
  498MPD2    C4 7403   2.155   4.533   9.874 -0.1278  0.7322 -0.1266
  498MPD2    C5 7404   2.279   4.560   9.822  0.4904 -0.4548 -1.0377
  498MPD2     H 7405   2.129   0.047  10.107  2.4561 -0.3581  1.3233
  498MPD2    H1 7406   2.100   4.452   9.830  1.7919 -1.4463  1.4756
  498MPD2    H2 7407   2.452   4.689   9.841  0.3639  0.0016  0.3929
  498MPD2    H3 7408   2.322   4.508   9.737  1.0139 -2.7681  0.6517
  498MPD2     N 7409   1.970   4.585  10.026  0.0061  0.2207 -0.0888
  498MPD2    H5 7410   1.938   4.640  10.106 -0.4994  0.5670 -0.5243
  498MPD2    N1 7411   2.377   0.121  10.047  0.0257  0.0608 -0.1743
  498MPD2    H7 7412   2.331   0.179  10.116  1.1786 -1.3489  1.7957
  499TMC3    C1 7413   2.535   0.303  10.041  0.5594  0.1254  0.1920
  499TMC3    C2 7414   2.513   0.352  10.171  0.1259  0.4280  0.2065
  499TMC3    C3 7415   2.536   0.486  10.189  0.7973 -0.0976 -0.1737
  499TMC3    C4 7416   2.580   0.375   9.937  0.7590 -0.2226  0.4274
  499TMC3    C5 7417   2.606   0.505   9.959  0.6833 -0.0233  0.0903
  499TMC3    C6 7418   2.581   0.561  10.082  0.9364  0.0994  0.5787
  499TMC3     C 7419   2.509   0.162  10.014  0.1120 -0.3976  0.2974
  499TMC3     O 7420   2.599   0.105   9.950  0.1104 -0.7079  0.3542
  499TMC3     H 7421   2.466   0.291  10.247  1.5745 -2.1473 -0.9992
  499TMC3    H1 7422   2.574   0.333   9.838 -0.6117 -3.4884  1.9020
  499TMC3    H2 7423   2.601   0.665  10.102 -0.7024  0.7622 -1.2050
  499TMC3    C7 7424   2.639   0.596   9.845  0.6487 -0.0199  0.2904
  499TMC3    C8 7425   2.457   0.560  10.284 -0.3041  0.4297  0.5777
  499TMC3    O1 7426   2.658   0.711   9.883 -0.0465  0.2923  0.1893
  499TMC3    O2 7427   2.423   0.673  10.256 -0.1726  0.0406  0.0603
  500MPD2     C 7428   3.733   1.126  10.754 -0.1104  0.5910  0.1794
  500MPD2    C1 7429   3.751   1.241  10.675  0.0622 -0.4152  0.3078
  500MPD2    C2 7430   3.643   1.325  10.646  0.0068 -0.4346  0.4571
  500MPD2    C3 7431   3.511   1.295  10.687 -0.4800 -0.0863  0.0060
  500MPD2    C4 7432   3.492   1.172  10.757 -0.2419 -0.1558  1.2762
  500MPD2    C5 7433   3.605   1.099  10.793 -0.0955 -0.3156  0.0524
  500MPD2     H 7434   3.654   1.404  10.572 -0.7588 -1.7757 -1.0766
  500MPD2    H1 7435   3.393   1.153  10.797 -0.7673  1.5762  0.7985
  500MPD2    H2 7436   3.807   1.054  10.786  0.7198  0.8810 -1.0860
  500MPD2    H3 7437   3.587   1.023  10.868 -0.7927 -0.8239 -0.6301
  500MPD2     N 7438   3.395   1.357  10.624  0.3358 -0.1083 -0.7645
  500MPD2    H5 7439   3.309   1.304  10.618  0.0820  0.2260 -0.1444
  500MPD2    N1 7440   3.874   1.280  10.624  0.1308  1.0080  0.5224
  500MPD2    H7 7441   3.879   1.359  10.561 -0.5926 -0.6235 -1.5706
  501TMC3    C1 7442   4.108   1.313  10.610  0.4234 -0.0989  0.5471
  501TMC3    C2 7443   4.097   1.438  10.557 -0.1947 -0.3041  0.1246
  501TMC3    C3 7444   4.212   1.511  10.529  0.7031 -0.1806 -1.0645
  501TMC3    C4 7445   4.238   1.262  10.626 -0.6084 -0.3148  0.1803
  501TMC3    C5 7446   4.342   1.346  10.602 -0.1341 -0.2419  0.2142
  501TMC3    C6 7447   4.338   1.471  10.556  0.2125 -0.0175  1.0388
  501TMC3     C 7448   3.995   1.230  10.662 -0.7074 -0.6882  0.2492
  501TMC3     O 7449   4.023   1.137  10.736  1.0756 -0.5930 -0.2767
  501TMC3     H 7450   4.005   1.493  10.575 -1.0432 -2.0525  1.1183
  501TMC3    H1 7451   4.247   1.169  10.681 -0.0362 -0.6334 -0.4632
  501TMC3    H2 7452   4.425   1.535  10.554  1.0535 -1.1764  0.6995
  501TMC3    C7 7453   4.472   1.286  10.614 -1.2482  0.1665  0.6667
  501TMC3    C8 7454   4.195   1.653  10.483 -0.0463 -0.3619 -0.3117
  501TMC3    O1 7455   4.472   1.195  10.695  0.3013  0.3363 -0.1814
  501TMC3    O2 7456   4.283   1.735  10.504  0.1378  0.3177 -0.3739
  502TMC3    C1 7457   3.352   0.369  14.933  0.5554  0.3134 -0.0240
  502TMC3    C2 7458   3.305   0.492  14.921 -0.3219 -0.1558  0.5675
  502TMC3    C3 7459   3.177   0.516  14.957 -0.0617  0.9944 -0.3326
  502TMC3    C4 7460   3.267   0.267  14.957  1.0219 -0.0129 -0.2852
  502TMC3    C5 7461   3.135   0.295  15.001  0.4433 -0.5413  0.4245
  502TMC3    C6 7462   3.091   0.422  15.016  0.0309 -0.0173 -0.4703
  502TMC3     C 7463   3.467   0.354  15.016  0.3057 -0.2933 -0.6314
  502TMC3     O 7464   3.548   0.448  15.004  0.1852  0.0753 -0.1218
  502TMC3     H 7465   3.378   0.569  14.897  0.9114 -1.3405  0.5214
  502TMC3    H1 7466   3.294   0.162  14.952 -0.2211 -0.4174  1.4984
  502TMC3    H2 7467   2.984   0.441  15.023 -0.2375 -3.1138  3.6516
  502TMC3    C7 7468   3.078   0.193  15.091 -0.5534 -0.1722  0.4501
  502TMC3    C8 7469   3.151   0.652  14.995  0.5124  0.0683 -0.3608
  502TMC3    O1 7470   3.166   0.138  15.158  0.2079  0.5452 -0.4242
  502TMC3    O2 7471   3.214   0.735  14.930  0.2152  0.7336 -0.1439
  503MPD2     C 7472   0.611   0.876  17.077  0.7992 -0.1065 -0.1420
  503MPD2    C1 7473   0.647   0.921  17.196 -0.5236  0.1881  0.4268
  503MPD2    C2 7474   0.738   0.843  17.269 -0.1430 -0.0956  0.2070
  503MPD2    C3 7475   0.800   0.735  17.206 -0.0970  0.8185 -0.4340
  503MPD2    C4 7476   0.770   0.699  17.077  0.4920 -0.0905 -0.4316
  503MPD2    C5 7477   0.669   0.767  17.012  0.1617  0.0536 -0.3441
  503MPD2     H 7478   0.765   0.863  17.371 -1.0867  1.7611  0.0852
  503MPD2    H1 7479   0.807   0.610  17.027 -0.7441 -0.0936 -1.3430
  503MPD2    H2 7480   0.536   0.927  17.018  1.7957  0.9021 -0.5444
  503MPD2    H3 7481   0.635   0.734  16.915  3.4576 -0.8178 -1.2008
  503MPD2     N 7482   0.899   0.662  17.277  0.6529 -0.1110  0.1717
  503MPD2    H5 7483   0.911   0.677  17.376  1.2711  1.7436 -0.1831
  503MPD2    N1 7484   0.616   1.052  17.240  0.7479  0.0234 -0.1008
  503MPD2    H7 7485   0.643   1.078  17.334  2.4503 -1.3105 -0.2154
  504TMC3    C1 7486   1.093   0.528  17.302  0.1772  0.0632  0.4897
  504TMC3    C2 7487   1.044   0.487  17.423  0.2943  0.6434 -0.2512
  504TMC3    C3 7488   1.106   0.375  17.476  0.4272 -0.4684  0.4655
  504TMC3    C4 7489   1.181   0.461  17.224 -0.7280 -0.0004 -0.8438
  504TMC3    C5 7490   1.229   0.345  17.275 -0.0822  0.1883  0.5238
  504TMC3    C6 7491   1.188   0.294  17.399  0.0587 -0.0631 -0.3281
  504TMC3     C 7492   1.011   0.610  17.216  0.1699 -0.3227  0.4274
  504TMC3     O 7493   1.044   0.620  17.098 -1.0607  0.6951 -0.2879
  504TMC3     H 7494   0.973   0.543  17.484  2.5782  1.7716  1.3736
  504TMC3    H1 7495   1.229   0.510  17.140 -1.2510  2.8996  0.5412
  504TMC3    H2 7496   1.220   0.205  17.451  0.6922  0.5514  0.3263
  504TMC3    C7 7497   1.316   0.263  17.185 -0.0954 -1.1696 -0.8404
  504TMC3    C8 7498   1.038   0.306  17.586 -0.2777  0.3052  0.0179
  504TMC3    O1 7499   1.368   0.319  17.088 -0.0001  0.1203 -0.2530
  504TMC3    O2 7500   1.033   0.182  17.588  0.1565  1.1558 -0.0047
  505MPD2     C 7501   0.769   4.437  10.600 -0.5085  0.1211  0.1249
  505MPD2    C1 7502   0.744   4.302  10.603 -0.0815 -0.0501 -0.4113
  505MPD2    C2 7503   0.813   4.230  10.695  0.5668  0.1283  0.9816
  505MPD2    C3 7504   0.897   4.291  10.781 -0.2449 -0.4211 -0.4614
  505MPD2    C4 7505   0.906   4.427  10.784  0.2965 -0.6294 -0.3954
  505MPD2    C5 7506   0.849   4.498  10.691  0.4422 -0.3874  0.3829
  505MPD2     H 7507   0.817   4.121  10.692  1.2890  0.1560  1.1837
  505MPD2    H1 7508   0.971   4.480  10.853 -1.8254  1.0248  0.3159
  505MPD2    H2 7509   0.745   4.500  10.516  2.5148  0.3982 -0.5586
  505MPD2    H3 7510   0.857   4.606  10.685  0.6900 -0.3471  1.4109
  505MPD2     N 7511   0.985   4.205  10.855  0.4493  0.3172 -0.9333
  505MPD2    H5 7512   0.976   4.106  10.838  1.0497  0.0481  0.3413
  505MPD2    N1 7513   0.667   4.240  10.508 -0.7118  0.7405  0.5540
  505MPD2    H7 7514   0.607   4.302  10.455 -3.0675 -1.3548  0.7786
  506TMC3    C1 7515   0.608   4.077  10.347  0.0562  0.4758 -0.8859
  506TMC3    C2 7516   0.650   4.165  10.251  0.4496  0.5253  0.0604
  506TMC3    C3 7517   0.672   4.114  10.122  0.2442 -0.4528  0.3040
  506TMC3    C4 7518   0.611   3.943  10.319 -1.2422 -0.7212 -0.5307
  506TMC3    C5 7519   0.644   3.893  10.195 -0.6438  0.3943 -0.7592
  506TMC3    C6 7520   0.667   3.980  10.093 -0.0732  0.0179 -0.2354
  506TMC3     C 7521   0.662   4.105  10.482  0.2666  0.0705 -0.9818
  506TMC3     O 7522   0.705   4.003  10.537 -0.3105 -0.4465 -0.0471
  506TMC3     H 7523   0.657   4.273  10.252 -3.2915  0.7419  2.1425
  506TMC3    H1 7524   0.564   3.883  10.395 -0.0018  0.6720  1.3351
  506TMC3    H2 7525   0.716   3.954   9.999 -1.2825  2.2119 -1.4874
  506TMC3    C7 7526   0.733   3.776  10.193 -0.9411  0.0669  0.1413
  506TMC3    C8 7527   0.730   4.192  10.016  0.0773  0.5857 -0.1628
  506TMC3    O1 7528   0.758   3.723  10.085  0.0801 -0.4640 -0.8993
  506TMC3    O2 7529   0.690   4.166   9.902  0.2486 -0.2240 -0.0965
  507TMC3    C1 7530   1.766   0.694  13.951 -0.1291 -0.4878 -0.1463
  507TMC3    C2 7531   1.684   0.644  13.855  0.3464 -0.5781  0.1190
  507TMC3    C3 7532   1.610   0.724  13.778 -0.5056 -0.0518 -0.6781
  507TMC3    C4 7533   1.776   0.826  13.971  0.2238 -0.5864  0.1667
  507TMC3    C5 7534   1.693   0.902  13.904 -0.2854 -0.1538  0.3850
  507TMC3    C6 7535   1.610   0.862  13.802  0.5547 -0.4275 -0.3923
  507TMC3     C 7536   1.771   0.619  14.081  0.1013  0.3991 -0.6182
  507TMC3     O 7537   1.863   0.647  14.159 -0.1081  0.0988 -0.3015
  507TMC3     H 7538   1.675   0.536  13.845  0.6606 -0.5586 -0.3939
  507TMC3    H1 7539   1.812   0.865  14.066  1.2646  0.9859 -0.8773
  507TMC3    H2 7540   1.541   0.932  13.756  1.2260  0.7644  0.3949
  507TMC3    C7 7541   1.617   0.979  14.000 -0.8513 -0.6481 -0.4652
  507TMC3    C8 7542   1.475   0.672  13.786 -0.2776  0.2093  0.0519
  507TMC3    O1 7543   1.677   1.047  14.082 -0.2339  0.3436  0.6765
  507TMC3    O2 7544   1.436   0.661  13.901  0.5694 -0.3575 -0.4652
  508MPD2     C 7545   2.276   2.979  16.388 -0.1092 -0.7855  0.0659
  508MPD2    C1 7546   2.408   2.981  16.347 -0.0758 -0.1825  0.0273
  508MPD2    C2 7547   2.437   3.034  16.214 -0.3782 -0.2619  0.2150
  508MPD2    C3 7548   2.336   3.086  16.137 -0.0628  0.3447 -0.3341
  508MPD2    C4 7549   2.202   3.088  16.189  0.5343  0.4623 -0.4459
  508MPD2    C5 7550   2.184   3.044  16.314  0.0158 -0.3178  0.3951
  508MPD2     H 7551   2.536   3.054  16.173  0.3775  0.5790  2.4152
  508MPD2    H1 7552   2.110   3.137  16.156  0.4890  0.2206 -0.6787
  508MPD2    H2 7553   2.253   2.949  16.490  0.4235 -0.7361  0.2005
  508MPD2    H3 7554   2.084   3.040  16.357  0.6974  1.4504  2.1160
  508MPD2     N 7555   2.365   3.133  16.002 -0.2358 -0.0984 -0.6483
  508MPD2    H5 7556   2.462   3.139  15.974  1.5198  0.9680  5.5679
  508MPD2    N1 7557   2.499   2.938  16.448 -0.3070 -0.2210 -0.6995
  508MPD2    H7 7558   2.455   2.893  16.527  0.1230 -1.4887 -1.1844
  509TMC3    C1 7559   2.295   3.320  15.581 -0.5045 -0.6051  0.2078
  509TMC3    C2 7560   2.425   3.349  15.567 -0.3646 -0.3305 -0.1109
  509TMC3    C3 7561   2.508   3.330  15.677 -0.2347  0.0121  0.7377
  509TMC3    C4 7562   2.252   3.248  15.685 -0.1432  0.1089 -0.0151
  509TMC3    C5 7563   2.333   3.224  15.789  0.3350 -0.0471 -0.0239
  509TMC3    C6 7564   2.463   3.264  15.786  0.1023 -0.2905 -0.1491
  509TMC3     C 7565   2.192   3.352  15.481 -0.1675 -0.1879  0.4186
  509TMC3     O 7566   2.079   3.326  15.507 -0.4575  0.5416  0.0953
  509TMC3     H 7567   2.464   3.377  15.469  1.3977 -1.0791  0.3770
  509TMC3    H1 7568   2.150   3.211  15.687 -0.6192  1.4391  0.9148
  509TMC3    H2 7569   2.525   3.263  15.874  1.0179 -2.4586 -0.8394
  509TMC3    C7 7570   2.270   3.163  15.908  0.8053 -0.3278 -0.3214
  509TMC3    C8 7571   2.641   3.378  15.668  0.2339 -0.3628  0.4352
  509TMC3    O1 7572   2.151   3.141  15.905  0.1723 -0.1551  0.3981
  509TMC3    O2 7573   2.728   3.329  15.734 -0.2479 -0.1277  0.6841
  510MPD2     C 7574   0.994   4.191  15.024  0.7672  0.2156 -0.2479
  510MPD2    C1 7575   0.900   4.287  15.027  0.5968 -0.0528  0.0402
  510MPD2    C2 7576   0.915   4.393  14.935 -0.0277 -0.2146  0.6470
  510MPD2    C3 7577   1.014   4.385  14.837 -0.6302  0.4190  0.3081
  510MPD2    C4 7578   1.102   4.282  14.822  0.2571  0.1638  0.2284
  510MPD2    C5 7579   1.086   4.187  14.917  0.9366  0.4369 -0.0222
  510MPD2     H 7580   0.835   4.464  14.916 -0.6693 -1.2012 -0.3461
  510MPD2    H1 7581   1.174   4.277  14.741 -1.0228 -0.8868 -0.8563
  510MPD2    H2 7582   0.988   4.090  15.062  1.9193  0.7869  1.4530
  510MPD2    H3 7583   1.149   4.098  14.914 -2.0697 -1.6357 -1.1586
  510MPD2     N 7584   1.005   4.488  14.739  0.9506 -0.2212 -0.4640
  510MPD2    H5 7585   0.938   4.563  14.750  0.8840  0.0666 -2.8016
  510MPD2    N1 7586   0.786   4.267  15.107 -0.3529 -0.5254  0.4210
  510MPD2    H7 7587   0.786   4.175  15.151  1.8710 -0.3134  0.8839
  511TMC3    C1 7588   0.576   4.286  15.196 -0.5478 -0.1666 -0.5930
  511TMC3    C2 7589   0.477   4.359  15.262 -0.0748  0.2883  0.3719
  511TMC3    C3 7590   0.365   4.287  15.293 -0.5998 -0.0600  0.2501
  511TMC3    C4 7591   0.559   4.154  15.164 -0.7040  0.3841  0.4002
  511TMC3    C5 7592   0.447   4.089  15.206  0.2770 -0.5404 -1.1181
  511TMC3    C6 7593   0.357   4.154  15.283  0.1922 -0.2157 -0.7901
  511TMC3     C 7594   0.685   4.353  15.124 -0.9854 -0.1000  0.2359
  511TMC3     O 7595   0.667   4.467  15.077  0.5886  0.2928  0.0079
  511TMC3     H 7596   0.464   4.466  15.265 -0.7142  0.2904 -2.6409
  511TMC3    H1 7597   0.625   4.107  15.091 -1.1409 -0.5870  0.6384
  511TMC3    H2 7598   0.269   4.104  15.323 -0.0249  0.9132  0.1515
  511TMC3    C7 7599   0.420   3.953  15.154 -0.6074 -0.8451 -0.2955
  511TMC3    C8 7600   0.254   4.360  15.364 -0.0625  0.8941 -0.2408
  511TMC3    O1 7601   0.523   3.894  15.111  0.5954 -0.1960  0.2563
  511TMC3    O2 7602   0.285   4.445  15.441  0.6324  0.2137 -0.6093
  512TMC3    C1 7603   4.141   3.702  13.318  0.2380 -0.0808 -0.5757
  512TMC3    C2 7604   4.266   3.755  13.294  0.2508 -0.1060  0.4055
  512TMC3    C3 7605   4.379   3.678  13.311 -0.4501 -0.0625 -0.5717
  512TMC3    C4 7606   4.131   3.568  13.345 -0.4705 -0.5489  0.0408
  512TMC3    C5 7607   4.245   3.496  13.361 -0.1564  0.6490 -0.1232
  512TMC3    C6 7608   4.370   3.552  13.350  0.5538  0.0760 -0.4545
  512TMC3     C 7609   4.037   3.796  13.351 -0.3022  0.3443 -0.7320
  512TMC3     O 7610   4.068   3.914  13.360 -0.1693 -0.0981  0.2338
  512TMC3     H 7611   4.285   3.860  13.274  0.0611 -0.1598 -0.0573
  512TMC3    H1 7612   4.033   3.524  13.358 -0.5578  0.5343  3.1575
  512TMC3    H2 7613   4.456   3.486  13.354 -1.9350 -3.2885 -2.9044
  512TMC3    C7 7614   4.229   3.363  13.411  0.2833 -0.1788  0.0395
  512TMC3    C8 7615   4.509   3.739  13.324 -1.4795 -0.0764 -0.3714
  512TMC3    O1 7616   4.131   3.294  13.378  0.3126 -0.3836 -0.1217
  512TMC3    O2 7617   4.607   3.701  13.264 -0.0161  0.1666  0.5807
  513MPD2     C 7618   0.684   3.609  13.217 -0.1060  0.1940  0.3854
  513MPD2    C1 7619   0.633   3.623  13.089 -0.2546  0.6662  0.2390
  513MPD2    C2 7620   0.694   3.714  13.002 -0.1421  0.1321  0.6429
  513MPD2    C3 7621   0.798   3.788  13.041  0.0096 -0.5094 -0.6276
  513MPD2    C4 7622   0.846   3.782  13.173  0.3764 -0.0032  0.1137
  513MPD2    C5 7623   0.792   3.686  13.259 -0.5329  0.4360  0.1830
  513MPD2     H 7624   0.667   3.728  12.898 -0.2864 -0.4248  0.6045
  513MPD2    H1 7625   0.925   3.848  13.208 -1.3777  2.0481  0.2411
  513MPD2    H2 7626   0.649   3.530  13.281 -1.5260  0.9634  0.5510
  513MPD2    H3 7627   0.830   3.670  13.359 -1.1069 -3.9300 -0.3056
  513MPD2     N 7628   0.842   3.883  12.944  0.5396 -0.1351  0.0887
  513MPD2    H5 7629   0.824   3.870  12.845 -0.8201  0.3070  0.2725
  513MPD2    N1 7630   0.526   3.534  13.062  0.9315 -0.1593 -0.3302
  513MPD2    H7 7631   0.474   3.496  13.140  0.1982 -1.5492 -1.5162
  514TMC3    C1 7632   0.568   3.503  12.826 -0.4201  0.5594 -0.0121
  514TMC3    C2 7633   0.533   3.569  12.707 -0.4082  1.2534  0.5212
  514TMC3    C3 7634   0.627   3.556  12.607  0.3794 -0.1599 -0.7134
  514TMC3    C4 7635   0.686   3.436  12.839 -0.4020  0.2527 -0.5538
  514TMC3    C5 7636   0.780   3.437  12.740 -0.1500  1.0918 -0.9854
  514TMC3    C6 7637   0.742   3.491  12.624 -0.3058 -0.3644 -0.3889
  514TMC3     C 7638   0.469   3.521  12.937 -0.2508 -0.1728 -0.4307
  514TMC3     O 7639   0.361   3.471  12.914 -0.1183 -0.0106 -0.6731
  514TMC3     H 7640   0.431   3.604  12.694 -0.8110 -1.1078 -2.6552
  514TMC3    H1 7641   0.714   3.397  12.936 -1.4808  2.1017  0.4999
  514TMC3    H2 7642   0.803   3.472  12.536 -2.2504 -2.4980 -1.3000
  514TMC3    C7 7643   0.865   3.323  12.737 -0.3504 -0.0261 -0.6507
  514TMC3    C8 7644   0.596   3.645  12.497  0.8601  0.0929 -0.1107
  514TMC3    O1 7645   0.829   3.220  12.789  0.1502  0.6057 -0.4593
  514TMC3    O2 7646   0.485   3.691  12.493 -0.1273 -0.0601 -0.1916
  515MPD2     C 7647   4.117   1.049  15.249  0.3659 -0.9470 -0.2798
  515MPD2    C1 7648   4.152   1.115  15.138  0.3637  0.3468  0.4691
  515MPD2    C2 7649   4.200   1.245  15.145 -0.4740  0.4245  0.1670
  515MPD2    C3 7650   4.225   1.309  15.268 -0.0539 -0.5502 -0.0440
  515MPD2    C4 7651   4.181   1.237  15.377 -0.1119  0.0161 -0.3767
  515MPD2    C5 7652   4.136   1.107  15.371  0.3120  0.2179 -0.3274
  515MPD2     H 7653   4.227   1.298  15.054 -0.5895  0.6199  0.2472
  515MPD2    H1 7654   4.180   1.278  15.478 -0.5964  0.6153 -0.6255
  515MPD2    H2 7655   4.074   0.950  15.259  1.2700 -1.5372 -2.3152
  515MPD2    H3 7656   4.104   1.074  15.469 -0.8710  2.1111 -0.0777
  515MPD2     N 7657   4.286   1.431  15.296 -0.1207  0.1248 -0.4494
  515MPD2    H5 7658   4.280   1.478  15.386  0.0210 -0.3704 -0.1781
  515MPD2    N1 7659   4.133   1.060  15.012  0.0027  0.0010 -0.3027
  515MPD2    H7 7660   4.136   1.129  14.938  0.2002  0.1010 -0.2033
  516TMC3    C1 7661   4.082   0.875  14.868  0.2031  0.2112 -0.1255
  516TMC3    C2 7662   3.992   0.945  14.790  0.1002 -0.2309 -0.6804
  516TMC3    C3 7663   3.920   0.880  14.701 -0.4530 -0.0485 -0.5143
  516TMC3    C4 7664   4.105   0.743  14.841  0.1776 -0.0330 -0.6614
  516TMC3    C5 7665   4.029   0.679  14.744  0.2833 -0.0909 -0.2082
  516TMC3    C6 7666   3.944   0.748  14.667 -0.0645  0.4105 -0.4802
  516TMC3     C 7667   4.126   0.926  14.993  0.5078  0.8714  0.4182
  516TMC3     O 7668   4.157   0.836  15.072  0.5091 -0.0284 -0.1998
  516TMC3     H 7669   3.972   1.044  14.829  1.7265 -0.4088  0.5720
  516TMC3    H1 7670   4.172   0.675  14.892 -1.7138 -2.3339 -1.2434
  516TMC3    H2 7671   3.875   0.706  14.595 -1.9915  1.2692  0.8417
  516TMC3    C7 7672   3.975   0.550  14.785  0.2796  0.0426  0.9943
  516TMC3    C8 7673   3.831   0.958  14.616 -0.5828 -0.5344 -0.0120
  516TMC3    O1 7674   4.001   0.523  14.903  0.5467 -0.0434 -0.4177
  516TMC3    O2 7675   3.746   0.894  14.560  0.0586 -0.3257 -0.3417
  517MPD2     C 7676   3.790   2.496   0.445 -0.6429  0.4805  0.7644
  517MPD2    C1 7677   3.925   2.502   0.474 -0.1937 -0.3904 -0.2971
  517MPD2    C2 7678   3.982   2.624   0.518 -0.2828 -0.1299 -0.2401
  517MPD2    C3 7679   3.900   2.738   0.536 -0.4769 -0.1529  0.1828
  517MPD2    C4 7680   3.765   2.712   0.514  0.6875  0.2085  0.3333
  517MPD2    C5 7681   3.705   2.601   0.462 -0.0370 -0.1025  0.2498
  517MPD2     H 7682   4.087   2.638   0.540 -0.0830  0.8000 -1.7527
  517MPD2    H1 7683   3.684   2.779   0.538  0.3578 -0.4298  1.0079
  517MPD2    H2 7684   3.745   2.414   0.390 -0.3321 -0.4638  1.9287
  517MPD2    H3 7685   3.598   2.603   0.440  0.3200 -0.5401 -1.5375
  517MPD2     N 7686   3.933   2.869   0.577 -0.8994 -0.6645  0.4678
  517MPD2    H5 7687   3.861   2.940   0.591 -1.1933 -0.6063 -1.2221
  517MPD2    N1 7688   4.004   2.391   0.446 -0.2096 -0.0423 -0.7680
  517MPD2    H7 7689   4.105   2.399   0.444 -0.3021  1.2722 -0.3187
  518TMC3    C1 7690   4.046   2.171   0.379  0.2056  0.3529  0.7575
  518TMC3    C2 7691   3.999   2.045   0.373 -0.1729  0.7526  0.0133
  518TMC3    C3 7692   4.078   1.955   0.293  0.0754 -0.0362 -0.1763
  518TMC3    C4 7693   4.149   2.225   0.307  0.5101 -0.7331  0.6502
  518TMC3    C5 7694   4.220   2.138   0.230  0.0844  0.1766  1.1208
  518TMC3    C6 7695   4.189   2.004   0.228 -0.3021  0.2770 -0.1028
  518TMC3     C 7696   3.955   2.263   0.444  0.0653  0.0118  0.7601
  518TMC3     O 7697   3.849   2.222   0.489  0.1610  0.3265  0.1620
  518TMC3     H 7698   3.923   2.009   0.442 -2.3456  2.7743 -1.3323
  518TMC3    H1 7699   4.170   2.331   0.298  0.2485 -0.7753 -0.4569
  518TMC3    H2 7700   4.249   1.928   0.179  2.6258  1.8068  1.1183
  518TMC3    C7 7701   4.348   2.183   0.183 -0.5437 -0.0736 -0.4802
  518TMC3    C8 7702   4.039   1.824   0.246 -0.3195 -0.6032  0.1526
  518TMC3    O1 7703   4.379   2.297   0.216  0.0204  0.1147 -0.1068
  518TMC3    O2 7704   4.083   1.786   0.142 -0.0368 -0.1760  0.0345
  519MPD2     C 7705   0.435   0.595  14.593 -0.2997 -0.4406  0.3652
  519MPD2    C1 7706   0.401   0.610  14.465  0.4772  0.6920 -0.3118
  519MPD2    C2 7707   0.495   0.582  14.371 -0.5706 -0.1489  0.3140
  519MPD2    C3 7708   0.613   0.514  14.402 -0.5227 -0.1829  0.7506
  519MPD2    C4 7709   0.648   0.501  14.538  0.5145  0.7293 -0.0495
  519MPD2    C5 7710   0.551   0.532  14.630 -0.6068 -0.7499  0.2412
  519MPD2     H 7711   0.469   0.607  14.269  1.2947 -0.9789 -0.3697
  519MPD2    H1 7712   0.743   0.470  14.579  0.6093  0.7528 -0.2537
  519MPD2    H2 7713   0.364   0.612  14.673  0.4161  1.3019  0.6370
  519MPD2    H3 7714   0.575   0.510  14.733 -2.1904  1.1036  1.0091
  519MPD2     N 7715   0.706   0.465  14.301  0.0513 -0.2387 -0.1787
  519MPD2    H5 7716   0.796   0.438  14.338 -0.4207 -1.2848  0.1955
  519MPD2    N1 7717   0.282   0.669  14.430  0.1550 -0.6263  0.5173
  519MPD2    H7 7718   0.242   0.729  14.502 -1.2184 -1.3158  0.3212
  520TMC3    C1 7719   0.742   0.360  14.085  0.4220 -0.5379 -0.9826
  520TMC3    C2 7720   0.686   0.335  13.960 -0.4067  0.1883  0.2202
  520TMC3    C3 7721   0.764   0.281  13.864 -0.1930  0.8900 -0.9025
  520TMC3    C4 7722   0.873   0.340  14.112  0.0892 -1.5852 -0.3414
  520TMC3    C5 7723   0.943   0.285  14.010  0.3908  0.8539  0.5116
  520TMC3    C6 7724   0.892   0.248  13.890  0.2815 -0.2604 -0.2443
  520TMC3     C 7725   0.655   0.422  14.183  0.3104  0.0230 -0.2911
  520TMC3     O 7726   0.541   0.428  14.137  0.5346 -0.1403 -0.1357
  520TMC3     H 7727   0.580   0.341  13.938 -0.7873 -0.0362  1.9983
  520TMC3    H1 7728   0.926   0.353  14.206  0.4797 -2.1698 -0.4803
  520TMC3    H2 7729   0.943   0.199  13.808 -1.4935 -0.1932 -1.3923
  520TMC3    C7 7730   1.085   0.283  14.035  0.1067  0.4926  0.3836
  520TMC3    C8 7731   0.730   0.311  13.723  1.1046  0.3075  0.6916
  520TMC3    O1 7732   1.122   0.264  14.147 -0.7590 -0.3456 -0.0516
  520TMC3    O2 7733   0.822   0.307  13.641 -0.6373  1.0306 -0.4793
  521MPD2     C 7734   1.599   3.229   0.287 -0.0173  0.2937 -0.0232
  521MPD2    C1 7735   1.599   3.103   0.227  0.1351 -0.3756 -0.0277
  521MPD2    C2 7736   1.706   3.069   0.143 -0.1381  0.0452 -0.2797
  521MPD2    C3 7737   1.797   3.166   0.103  0.6732 -0.1559  0.5091
  521MPD2    C4 7738   1.788   3.290   0.166 -1.1489  0.5438  0.4355
  521MPD2    C5 7739   1.702   3.315   0.265  0.3808 -0.5734  0.3926
  521MPD2     H 7740   1.727   2.970   0.104  0.4556  0.1175 -0.1533
  521MPD2    H1 7741   1.865   3.364   0.146  0.2744 -1.1540 -0.3772
  521MPD2    H2 7742   1.525   3.269   0.356  0.5754 -0.3712  0.9978
  521MPD2    H3 7743   1.709   3.413   0.310  2.5835 -0.9032  0.7456
  521MPD2     N 7744   1.911   3.132   0.021  0.5675 -0.4962 -0.0723
  521MPD2    H5 7745   1.917   3.037  17.684  0.3139 -1.1170  1.4875
  521MPD2    N1 7746   1.495   3.022   0.244 -0.6804  0.0193 -0.0346
  521MPD2    H7 7747   1.409   3.064   0.278 -0.9319  1.2494 -2.1945
  522TMC3    C1 7748   2.031   3.189  17.521 -0.1419 -0.1273  0.4946
  522TMC3    C2 7749   2.117   3.086  17.534  0.1476  0.5452 -0.3037
  522TMC3    C3 7750   2.184   3.052  17.425 -0.0016  0.3725 -0.3315
  522TMC3    C4 7751   1.995   3.251  17.401  0.3788  0.0327  1.0150
  522TMC3    C5 7752   2.066   3.207  17.289  0.5895  0.1293  0.1860
  522TMC3    C6 7753   2.161   3.111  17.300 -0.2533 -0.2132  0.2818
  522TMC3     C 7754   1.965   3.236  17.639  0.7803  0.6779 -0.6111
  522TMC3     O 7755   1.958   3.358  17.647 -0.0761  0.0784  0.0973
  522TMC3     H 7756   2.144   3.041  17.629  0.7759  1.6438  0.0395
  522TMC3    H1 7757   1.917   3.327  17.400  1.1020  0.7584 -1.0621
  522TMC3    H2 7758   2.220   3.092  17.211  2.6077 -0.1063  2.1407
  522TMC3    C7 7759   2.077   3.299  17.179  0.1783 -0.1965  0.2415
  522TMC3    C8 7760   2.290   2.950  17.432 -0.4503  0.2697 -0.2381
  522TMC3    O1 7761   2.181   3.289  17.116  0.4594 -0.2843  0.1877
  522TMC3    O2 7762   2.308   2.899  17.542 -0.2801 -1.0729 -0.1604
  523MPD2     C 7763   4.020   3.260  10.268  0.6916  0.4246  0.1387
  523MPD2    C1 7764   3.926   3.178  10.215  0.4218 -0.3719 -0.2998
  523MPD2    C2 7765   3.831   3.226  10.126  0.1360 -0.7435  0.4939
  523MPD2    C3 7766   3.840   3.358  10.087 -0.8317 -0.3436 -0.5811
  523MPD2    C4 7767   3.933   3.441  10.145  0.5465  0.9998 -0.1343
  523MPD2    C5 7768   4.020   3.394  10.239  0.5125 -0.1249  0.2077
  523MPD2     H 7769   3.758   3.160  10.082 -1.1073  0.0134  1.4390
  523MPD2    H1 7770   3.943   3.549  10.136 -1.1514  1.2928  1.6283
  523MPD2    H2 7771   4.094   3.230  10.341  1.3050 -0.1486 -0.7162
  523MPD2    H3 7772   4.083   3.465  10.291 -0.0260  0.7568 -0.3453
  523MPD2     N 7773   3.748   3.425  10.003  0.4015 -0.0122  0.8124
  523MPD2    H5 7774   3.755   3.527  10.001 -0.8103  0.0662  0.7186
  523MPD2    N1 7775   3.939   3.037  10.256 -0.1461  0.3332  0.7927
  523MPD2    H7 7776   4.005   3.030  10.332  1.7934  1.5723 -0.7743
  524TMC3    C1 7777   3.599   3.466   9.834  0.4586  0.5527  0.0179
  524TMC3    C2 7778   3.555   3.432   9.711  0.7743  0.1576 -0.4977
  524TMC3    C3 7779   3.490   3.524   9.633  0.0511 -0.8970  0.7733
  524TMC3    C4 7780   3.571   3.595   9.886  0.1166 -0.5321  0.0345
  524TMC3    C5 7781   3.499   3.685   9.809 -0.7747  0.2130 -0.2315
  524TMC3    C6 7782   3.457   3.648   9.683  0.2882 -0.6831  0.3400
  524TMC3     C 7783   3.663   3.364   9.920  0.3510 -0.3030 -0.2936
  524TMC3     O 7784   3.663   3.244   9.884 -0.5361 -0.1119 -0.2239
  524TMC3     H 7785   3.556   3.326   9.689  0.8242 -0.0558  0.5240
  524TMC3    H1 7786   3.608   3.623   9.984 -0.2316 -3.4355  0.9927
  524TMC3    H2 7787   3.400   3.720   9.624  0.7955 -0.5209  0.0526
  524TMC3    C7 7788   3.428   3.789   9.888  0.0905 -0.1244 -0.1294
  524TMC3    C8 7789   3.395   3.477   9.542 -0.2933 -0.7296 -0.3253
  524TMC3    O1 7790   3.480   3.829   9.994 -0.7784  0.3297 -0.1064
  524TMC3    O2 7791   3.293   3.549   9.527 -0.8656  0.3225  0.3206
  525MPD2     C 7792   2.080   0.273  14.482 -0.4408 -0.3253  0.1433
  525MPD2    C1 7793   2.149   0.265  14.601  0.1459 -0.2564 -0.0965
  525MPD2    C2 7794   2.185   0.384  14.662  0.1578  0.4848  0.2986
  525MPD2    C3 7795   2.156   0.506  14.601 -0.1619 -0.9008  0.0262
  525MPD2    C4 7796   2.087   0.508  14.483  0.0113  0.0871  0.7533
  525MPD2    C5 7797   2.049   0.387  14.425 -0.1597 -0.1097 -0.3340
  525MPD2     H 7798   2.239   0.386  14.756  1.6184  0.5937 -0.5353
  525MPD2    H1 7799   2.065   0.598  14.426  0.2436 -0.9226 -0.9408
  525MPD2    H2 7800   2.060   0.181  14.428 -0.4061 -0.4904  0.4110
  525MPD2    H3 7801   2.008   0.378  14.325 -2.9929  0.0684  0.8019
  525MPD2     N 7802   2.167   0.626  14.685 -0.6533  0.1841 -0.2151
  525MPD2    H5 7803   2.206   0.608  14.777 -0.4404 -2.0359 -0.7448
  525MPD2    N1 7804   2.191   0.148  14.658 -0.5093 -0.1600  0.0617
  525MPD2    H7 7805   2.260   0.149  14.732 -2.1992  0.5152  1.6293
  526TMC3    C1 7806   2.185   4.648  14.706  0.0896  0.2550  0.6876
  526TMC3    C2 7807   2.104   4.598  14.805 -0.5306 -0.5097  0.8905
  526TMC3    C3 7808   2.163   4.549  14.918 -0.2151 -0.6865  0.3881
  526TMC3    C4 7809   2.321   4.647  14.727 -0.1996 -0.0107 -0.0163
  526TMC3    C5 7810   2.384   4.587  14.834 -0.5359 -0.2493 -0.0485
  526TMC3    C6 7811   2.303   4.541  14.931  0.0213 -0.4784  0.0171
  526TMC3     C 7812   2.130   0.030  14.629 -0.5565  0.0968 -0.0165
  526TMC3     O 7813   2.027   0.003  14.572  0.8685 -0.2242 -0.1361
  526TMC3     H 7814   2.001   4.620  14.780 -0.2909 -1.6777 -1.1827
  526TMC3    H1 7815   2.381   4.701  14.654  1.1656  1.5149  2.2471
  526TMC3    H2 7816   2.344   4.527  15.030 -1.4699 -1.8071  0.4586
  526TMC3    C7 7817   2.530   4.576  14.839 -0.8185  0.7854  0.8924
  526TMC3    C8 7818   2.082   4.567  15.037  0.1815 -0.0432  0.0217
  526TMC3    O1 7819   2.575   4.521  14.943 -0.4586 -0.2489  0.5024
  526TMC3    O2 7820   2.130   4.594  15.149  0.1752  1.1696  0.4255
  527MPD2     C 7821   4.513   3.042   1.314 -0.3302 -0.5119  0.0150
  527MPD2    C1 7822   4.535   2.964   1.427 -0.5285  0.2543 -0.2876
  527MPD2    C2 7823   4.657   2.897   1.429  0.0826 -0.9855 -0.2285
  527MPD2    C3 7824   0.027   2.910   1.330 -0.8004  0.8361  0.2515
  527MPD2    C4 7825   0.001   2.989   1.222  1.1034  0.2216 -0.3723
  527MPD2    C5 7826   4.608   3.051   1.216  0.3738  0.0829  0.1597
  527MPD2     H 7827   4.678   2.823   1.506 -1.5447 -0.7227  0.4666
  527MPD2    H1 7828   0.056   3.002   1.130  1.9552  0.7483  0.2143
  527MPD2    H2 7829   4.426   3.106   1.299  0.5837  0.7269  0.0689
  527MPD2    H3 7830   4.584   3.106   1.126 -0.1253 -0.8298 -0.2685
  527MPD2     N 7831   0.141   2.826   1.337 -0.1526  0.1698  0.6932
  527MPD2    H5 7832   0.151   2.771   1.422  0.3759  0.4416  0.8094
  527MPD2    N1 7833   4.437   2.936   1.528  0.0802 -0.2247 -0.1982
  527MPD2    H7 7834   4.466   2.873   1.602  3.0088  2.6290  1.1148
  528TMC3    C1 7835   4.222   2.950   1.637  0.0421  0.1657 -0.7670
  528TMC3    C2 7836   4.277   2.955   1.765  0.2697  0.4005 -0.1801
  528TMC3    C3 7837   4.199   2.911   1.863 -0.0076 -0.4189 -0.7961
  528TMC3    C4 7838   4.090   2.931   1.610  0.0247  0.2574 -0.5831
  528TMC3    C5 7839   4.012   2.908   1.719  0.5739  0.4601  0.6979
  528TMC3    C6 7840   4.062   2.896   1.846  0.0084 -0.1504  0.3942
  528TMC3     C 7841   4.311   2.989   1.520  0.2511  0.1518 -0.0552
  528TMC3     O 7842   4.250   3.029   1.420  0.0547  0.6824  0.4496
  528TMC3     H 7843   4.383   2.951   1.788  0.2196 -0.7298 -0.1197
  528TMC3    H1 7844   4.044   2.923   1.513  0.5184  1.0734 -0.8903
  528TMC3    H2 7845   4.001   2.854   1.926 -0.3122  0.3273  0.4001
  528TMC3    C7 7846   3.866   2.894   1.703  0.0871 -0.3162  0.5359
  528TMC3    C8 7847   4.258   2.867   1.987 -0.3630 -0.0869 -0.4010
  528TMC3    O1 7848   3.829   2.797   1.639 -0.4724 -0.0579 -0.2492
  528TMC3    O2 7849   4.360   2.930   2.020 -0.6032 -0.4552  0.1237
  529MPD2     C 7850   2.550   2.069   0.585  0.7981 -0.1693 -0.0092
  529MPD2    C1 7851   2.530   1.930   0.572  0.1785 -0.6490 -0.4588
  529MPD2    C2 7852   2.548   1.861   0.449  0.3583  0.1364 -1.1773
  529MPD2    C3 7853   2.590   1.938   0.345 -0.0518 -0.6005  0.2325
  529MPD2    C4 7854   2.611   2.074   0.351 -0.7466 -0.0284  0.0014
  529MPD2    C5 7855   2.582   2.141   0.472  0.6461 -0.0223  0.2091
  529MPD2     H 7856   2.537   1.753   0.451 -1.7076  0.3600 -0.7091
  529MPD2    H1 7857   2.626   2.136   0.262  0.3431 -0.0708  0.1486
  529MPD2    H2 7858   2.530   2.118   0.679  0.1432 -2.6910  1.1495
  529MPD2    H3 7859   2.605   2.245   0.490  2.1553 -0.3304  0.1094
  529MPD2     N 7860   2.601   1.888   0.211 -0.1249  0.4582 -0.7634
  529MPD2    H5 7861   2.630   1.953   0.139  0.3335 -0.2288 -1.1965
  529MPD2    N1 7862   2.496   1.849   0.687  0.3218 -0.3578  0.1957
  529MPD2    H7 7863   2.478   1.751   0.668  0.1054  0.0976 -1.9158
  530TMC3    C1 7864   2.437   1.782   0.911 -0.3447  0.6221 -0.3632
  530TMC3    C2 7865   2.479   1.791   1.038  0.3005  0.2140 -0.0152
  530TMC3    C3 7866   2.448   1.684   1.117  0.0164  0.6797 -0.0880
  530TMC3    C4 7867   2.369   1.675   0.861  0.3403 -0.2258  0.0689
  530TMC3    C5 7868   2.324   1.580   0.943  0.4799 -0.4637 -0.1827
  530TMC3    C6 7869   2.370   1.575   1.077 -0.5544  0.3835 -0.4114
  530TMC3     C 7870   2.486   1.890   0.819  0.5804 -0.0712  0.7129
  530TMC3     O 7871   2.535   1.986   0.875  0.4002  0.7270 -0.1529
  530TMC3     H 7872   2.546   1.869   1.073 -0.3431  0.7120  0.1160
  530TMC3    H1 7873   2.326   1.680   0.761 -0.5536  0.3525  0.4782
  530TMC3    H2 7874   2.327   1.514   1.155  0.5624  0.0378 -0.0634
  530TMC3    C7 7875   2.277   1.462   0.887 -0.1620  0.8398 -0.8558
  530TMC3    C8 7876   2.491   1.701   1.254  0.1820  0.1528  0.3028
  530TMC3    O1 7877   2.244   1.467   0.770 -0.1126  0.7478  0.4933
  530TMC3    O2 7878   2.505   1.807   1.309  0.3484  0.5115  0.7005
  531MPD2     C 7879   1.183   3.632  12.459 -0.4744 -0.1302 -0.1545
  531MPD2    C1 7880   1.077   3.663  12.546 -0.4386  0.7237 -0.6017
  531MPD2    C2 7881   1.020   3.557  12.620  0.2847  0.1892  0.2571
  531MPD2    C3 7882   1.039   3.423  12.586 -0.4107 -0.2925 -0.1285
  531MPD2    C4 7883   1.146   3.400  12.498  0.2243 -0.8377 -0.8604
  531MPD2    C5 7884   1.214   3.503  12.441 -0.2359 -0.1568  0.1117
  531MPD2     H 7885   0.979   3.584  12.717  2.0729  1.9865  0.5260
  531MPD2    H1 7886   1.177   3.301  12.468  0.8764 -1.4253  1.7292
  531MPD2    H2 7887   1.227   3.714  12.405 -0.5990  0.5429  0.7651
  531MPD2    H3 7888   1.291   3.486  12.367  1.2483 -2.4025  2.1993
  531MPD2     N 7889   0.975   3.319  12.650 -0.2333  0.1038  0.2300
  531MPD2    H5 7890   1.014   3.227  12.634 -2.3690 -0.8052  0.2569
  531MPD2    N1 7891   1.026   3.796  12.550 -0.7472  0.6111  0.2546
  531MPD2    H7 7892   1.071   3.863  12.489 -0.9325  0.9012  0.4411
  532TMC3    C1 7893   0.943   3.979  12.649 -1.1396  0.4456 -0.6170
  532TMC3    C2 7894   0.856   4.015  12.744 -0.3111 -0.3472  0.4378
  532TMC3    C3 7895   0.908   4.089  12.850 -0.1997  0.3667 -1.2017
  532TMC3    C4 7896   1.068   4.032  12.644 -0.1084 -0.1844 -0.1065
  532TMC3    C5 7897   1.114   4.104  12.748 -0.0174 -0.1882 -0.2702
  532TMC3    C6 7898   1.033   4.137  12.851  0.3368  0.2951  0.8488
  532TMC3     C 7899   0.932   3.835  12.629  0.0275  0.2672  0.7731
  532TMC3     O 7900   0.843   3.780  12.690  0.2924 -0.0066 -0.2300
  532TMC3     H 7901   0.752   3.983  12.747 -0.1621 -0.6462  2.3046
  532TMC3    H1 7902   1.129   4.010  12.557  1.2594  0.5498  0.6581
  532TMC3    H2 7903   1.074   4.196  12.932 -1.1332  0.7842  1.2557
  532TMC3    C7 7904   1.254   4.101  12.772  0.7050 -0.9764 -0.2284
  532TMC3    C8 7905   0.894   4.009  12.971  0.0417  0.5523  0.3216
  532TMC3    O1 7906   1.310   4.199  12.731 -0.2315  0.0101 -0.3138
  532TMC3    O2 7907   0.927   4.057  13.078 -0.4891 -0.8938  0.6499
  533TMC3    C1 7908   2.142   0.846  14.766  0.4891 -0.6822  0.0229
  533TMC3    C2 7909   2.207   0.964  14.737  0.8260  0.4677  0.5096
  533TMC3    C3 7910   2.238   1.041  14.849 -0.1263 -0.0772 -0.0123
  533TMC3    C4 7911   2.114   0.800  14.890  0.1198  0.2910 -0.0865
  533TMC3    C5 7912   2.139   0.882  14.989 -0.2821  0.6729  0.3583
  533TMC3    C6 7913   2.198   1.004  14.977  0.1003 -0.8680  0.5246
  533TMC3     C 7914   2.133   0.754  14.655  0.4508  0.5027  0.1439
  533TMC3     O 7915   2.122   0.798  14.540 -0.0443 -0.2048 -0.6095
  533TMC3     H 7916   2.239   0.988  14.636 -1.2578  1.6442  0.1287
  533TMC3    H1 7917   2.049   0.714  14.898  0.0546  0.4191  0.7981
  533TMC3    H2 7918   2.231   1.074  15.054 -0.6383  1.5704 -1.3663
  533TMC3    C7 7919   2.140   0.819  15.123 -0.4008  0.5307 -0.1460
  533TMC3    C8 7920   2.328   1.155  14.844  0.3128 -0.2195  0.4196
  533TMC3    O1 7921   2.119   0.702  15.109 -0.2062  0.0299 -1.2577
  533TMC3    O2 7922   2.343   1.230  14.939  0.1345  0.3497  0.2327
  534MPD2     C 7923   4.165   2.009   1.947 -0.0290 -0.1864 -0.1826
  534MPD2    C1 7924   4.184   2.106   1.854 -0.1531 -0.1119 -0.3700
  534MPD2    C2 7925   4.112   2.116   1.733 -0.0667  0.2912 -0.0511
  534MPD2    C3 7926   4.035   2.004   1.702  0.0889  0.4391  0.7912
  534MPD2    C4 7927   4.018   1.906   1.795 -0.2574  1.0720  0.5387
  534MPD2    C5 7928   4.071   1.911   1.916  0.3077  0.1787 -0.5515
  534MPD2     H 7929   4.126   2.198   1.664  0.0216  0.0508 -0.3186
  534MPD2    H1 7930   3.947   1.826   1.779  0.5908  0.2096  1.0429
  534MPD2    H2 7931   4.226   2.006   2.036 -0.4328 -0.8107  0.0732
  534MPD2    H3 7932   4.068   1.830   1.988 -1.5279 -1.9034 -2.9713
  534MPD2     N 7933   3.963   1.992   1.579 -0.0724  0.6352  0.6561
  534MPD2    H5 7934   3.884   1.929   1.579 -0.8224  1.5718 -0.3705
  534MPD2    N1 7935   4.286   2.206   1.867 -0.1466  0.1254 -0.2097
  534MPD2    H7 7936   4.313   2.267   1.791  2.4057 -0.3388  0.3130
  535TMC3    C1 7937   3.933   2.024   1.342  0.0922 -0.7115 -0.2650
  535TMC3    C2 7938   3.823   1.945   1.366 -0.2081  0.3259  0.4768
  535TMC3    C3 7939   3.775   1.862   1.260  0.0314  0.9654  0.4398
  535TMC3    C4 7940   4.011   2.007   1.232 -0.3242 -0.1760  0.3407
  535TMC3    C5 7941   3.968   1.915   1.131 -0.3828  0.5227 -0.0413
  535TMC3    C6 7942   3.849   1.847   1.146 -0.1180  0.0672  0.8107
  535TMC3     C 7943   4.006   2.055   1.464  0.5047  0.2777  0.1827
  535TMC3     O 7944   4.101   2.128   1.448 -0.6622 -0.2156 -0.1401
  535TMC3     H 7945   3.761   1.954   1.454  0.8975  0.2733  1.2611
  535TMC3    H1 7946   4.104   2.062   1.218  0.2266 -1.1933 -0.0126
  535TMC3    H2 7947   3.817   1.781   1.066  1.7216  0.8068 -0.4981
  535TMC3    C7 7948   4.054   1.885   1.020 -0.1478 -0.5858  0.0992
  535TMC3    C8 7949   3.701   1.750   1.307 -0.7109 -0.0908  0.5016
  535TMC3    O1 7950   4.032   1.782   0.952 -0.0864 -0.9252  0.0613
  535TMC3    O2 7951   3.590   1.784   1.346 -0.3146  0.2560 -0.4157
  536MPD2     C 7952   3.758   4.695  16.345  0.0702 -0.7064 -0.0164
  536MPD2    C1 7953   3.630   4.640  16.354  0.1617 -0.4792  0.2991
  536MPD2    C2 7954   3.533   4.648  16.257 -0.1031  0.1622  0.2458
  536MPD2    C3 7955   3.562   0.007  16.149  0.4092 -0.5487 -0.8162
  536MPD2    C4 7956   3.694   0.051  16.126  0.3435 -0.5751  0.6195
  536MPD2    C5 7957   3.789   0.028  16.221 -0.4722  0.4995  0.3449
  536MPD2     H 7958   3.437   4.598  16.263 -0.2747  0.6463  1.5446
  536MPD2    H1 7959   3.719   0.105  16.035 -0.9473 -1.4501 -0.2586
  536MPD2    H2 7960   3.820   4.682  16.433 -1.7391 -1.2093  1.1841
  536MPD2    H3 7961   3.893   0.057  16.206 -1.2521  2.2525 -1.6894
  536MPD2     N 7962   3.461   0.023  16.047 -0.5231  0.2412  0.0043
  536MPD2    H5 7963   3.494   0.077  15.968 -0.0068  2.3353  1.6310
  536MPD2    N1 7964   3.611   4.572  16.465 -0.4691 -0.1327  0.6695
  536MPD2    H7 7965   3.691   4.573  16.528 -0.0724  0.9012  0.1499
  537TMC3    C1 7966   3.517   4.463  16.647 -0.6302 -0.2115 -0.1489
  537TMC3    C2 7967   3.575   4.544  16.738  0.5136  0.1138  0.3074
  537TMC3    C3 7968   3.542   4.521  16.873  0.5994 -0.8855  0.3138
  537TMC3    C4 7969   3.441   4.354  16.686  0.1656 -0.0073 -0.6149
  537TMC3    C5 7970   3.439   4.319  16.813  0.1573 -0.4083 -0.2298
  537TMC3    C6 7971   3.493   4.399  16.913 -0.0817  0.3915 -0.1419
  537TMC3     C 7972   3.504   4.499  16.507 -0.9874 -0.7510 -0.0600
  537TMC3     O 7973   3.399   4.463  16.448 -0.2560 -0.5082 -0.2291
  537TMC3     H 7974   3.625   4.634  16.705 -1.0124  0.5235 -0.8731
  537TMC3    H1 7975   3.390   4.292  16.613  0.8675  0.7375 -1.7395
  537TMC3    H2 7976   3.472   4.374  17.016  1.4875 -0.4233 -0.0181
  537TMC3    C7 7977   3.367   4.196  16.846  0.7584  0.0124  0.4681
  537TMC3    C8 7978   3.593   4.617  16.965  0.3053  0.1049 -0.2098
  537TMC3    O1 7979   3.288   4.161  16.760 -0.2855 -0.6513 -0.0099
  537TMC3    O2 7980   3.604   4.581  17.083 -0.2564 -0.0136 -0.0427
  538TMC3    C1 7981   4.618   2.686  10.717 -0.2648 -0.0104 -0.5565
  538TMC3    C2 7982   4.687   2.604  10.631  0.0791 -0.9169  0.0399
  538TMC3    C3 7983   4.675   2.634  10.500 -0.3848  0.0987  0.4243
  538TMC3    C4 7984   4.528   2.779  10.673  0.0142  0.4198 -0.4457
  538TMC3    C5 7985   4.507   2.788  10.537  0.3487 -0.5997  0.1311
  538TMC3    C6 7986   4.592   2.731  10.448  0.3607  0.6620 -0.3739
  538TMC3     C 7987   4.652   2.685  10.863 -0.4571  0.1664 -0.4359
  538TMC3     O 7988   4.587   2.755  10.930  0.2846 -0.1635 -0.1565
  538TMC3     H 7989   0.021   2.522  10.672  0.8314 -0.9191 -1.0021
  538TMC3    H1 7990   4.463   2.829  10.743 -2.0924 -0.7204 -1.5830
  538TMC3    H2 7991   4.585   2.759  10.344 -0.1057  2.3142  0.0961
  538TMC3    C7 7992   4.444   2.919  10.508 -0.2403 -0.1461  0.1252
  538TMC3    C8 7993   0.041   2.567  10.405  0.4117 -0.4037  0.0758
  538TMC3    O1 7994   4.368   2.925  10.414  0.5761 -0.2143  0.2955
  538TMC3    O2 7995   0.069   2.621  10.297 -0.1642 -0.5181 -0.2597
  539MPD2     C 7996   4.144   2.252  11.997 -0.2067 -0.7008 -0.9092
  539MPD2    C1 7997   4.192   2.268  11.867 -0.3907  0.8679  0.2197
  539MPD2    C2 7998   4.174   2.398  11.809  0.6972 -0.1719  0.9898
  539MPD2    C3 7999   4.106   2.501  11.869 -0.6573  0.6049 -0.5379
  539MPD2    C4 8000   4.073   2.481  12.003  0.8514 -0.1707  0.3536
  539MPD2    C5 8001   4.099   2.365  12.067 -0.5779 -0.4080  0.0367
  539MPD2     H 8002   4.195   2.401  11.703 -0.6887 -2.3943  0.6492
  539MPD2    H1 8003   4.040   2.557  12.072  2.1648  1.8597 -1.2712
  539MPD2    H2 8004   4.154   2.159  12.052 -0.6446  0.2899  0.8718
  539MPD2    H3 8005   4.074   2.356  12.172 -0.4883  1.2937  0.2012
  539MPD2     N 8006   4.076   2.628  11.812 -0.4238 -0.0842  0.0706
  539MPD2    H5 8007   4.035   2.699  11.872 -2.6320 -1.0691 -0.2787
  539MPD2    N1 8008   4.254   2.165  11.789 -0.2470  0.0528 -0.0033
  539MPD2    H7 8009   4.287   2.194  11.698 -1.3414  3.4961  0.7103
  540TMC3    C1 8010   4.051   2.793  11.645 -0.2170 -0.5100  0.3168
  540TMC3    C2 8011   4.108   2.849  11.535 -0.1005  0.2419  0.7215
  540TMC3    C3 8012   4.059   2.978  11.505 -0.3744 -0.0336  0.4669
  540TMC3    C4 8013   3.944   2.846  11.717 -0.0268  0.6474 -0.4770
  540TMC3    C5 8014   3.903   2.967  11.682 -1.1015 -0.2277 -0.0921
  540TMC3    C6 8015   3.960   3.040  11.580 -0.4472 -0.4863 -0.3266
  540TMC3     C 8016   4.103   2.660  11.677  0.2024 -0.1173  0.3624
  540TMC3     O 8017   4.162   2.600  11.591  0.4827 -0.1389  0.1079
  540TMC3     H 8018   4.179   2.799  11.470 -0.2707  2.4664 -1.1812
  540TMC3    H1 8019   3.883   2.787  11.784  0.6193  3.2666  2.4286
  540TMC3    H2 8020   3.914   3.129  11.539 -1.4506 -0.5571  0.6117
  540TMC3    C7 8021   3.804   3.028  11.774  0.2871 -0.1529 -0.4874
  540TMC3    C8 8022   4.076   3.025  11.373 -0.5557 -0.3529 -0.2177
  540TMC3    O1 8023   3.735   2.957  11.848 -0.2054 -0.2292  0.0498
  540TMC3    O2 8024   4.133   3.131  11.360  0.1697 -0.0926 -0.1147
  541MPD2     C 8025   2.150   4.183  13.169 -0.1656 -0.4038 -0.3736
  541MPD2    C1 8026   2.220   4.082  13.119 -0.1487 -0.6849 -0.7345
  541MPD2    C2 8027   2.317   4.103  13.024 -0.5121 -0.1074  0.8776
  541MPD2    C3 8028   2.341   4.231  12.991 -0.2358 -0.0671 -0.6775
  541MPD2    C4 8029   2.269   4.336  13.041  0.3874 -0.4739  1.0866
  541MPD2    C5 8030   2.173   4.316  13.141 -0.3519  0.1440  0.9033
  541MPD2     H 8031   2.387   4.026  12.993 -0.2454  0.6506 -0.3906
  541MPD2    H1 8032   2.293   4.440  13.025  2.4789 -1.3374 -1.3030
  541MPD2    H2 8033   2.075   4.162  13.244  1.1694  0.8662  1.3123
  541MPD2    H3 8034   2.111   4.395  13.178  0.4112 -0.1385  2.7681
  541MPD2     N 8035   2.441   4.272  12.898 -0.3397 -0.3355 -0.3169
  541MPD2    H5 8036   2.438   4.370  12.869 -0.5642 -0.3956 -0.5027
  541MPD2    N1 8037   2.184   3.951  13.170  0.4557  0.3850 -0.4775
  541MPD2    H7 8038   2.121   3.956  13.249  0.9899 -2.1407  0.1329
  542TMC3    C1 8039   2.620   4.240  12.734  0.9913  0.6365 -0.0181
  542TMC3    C2 8040   2.683   4.159  12.644 -0.2743 -0.9984 -0.6855
  542TMC3    C3 8041   2.747   4.214  12.538  0.0046  0.1815  0.1766
  542TMC3    C4 8042   2.632   4.373  12.711 -0.4519 -1.0635  0.2889
  542TMC3    C5 8043   2.679   4.425  12.590 -0.6412 -0.3328  0.3045
  542TMC3    C6 8044   2.748   4.347  12.506 -0.7000  0.4885 -0.1924
  542TMC3     C 8045   2.536   4.187  12.839  0.5029 -0.1434 -0.8945
  542TMC3     O 8046   2.540   4.063  12.847  0.2534  0.3797 -0.0917
  542TMC3     H 8047   2.691   4.052  12.658  2.0002 -0.9228 -1.3736
  542TMC3    H1 8048   2.579   4.431  12.786  0.8377  0.1789  0.2504
  542TMC3    H2 8049   2.813   4.392  12.431 -0.7267  1.1618  0.1916
  542TMC3    C7 8050   2.650   4.563  12.556  0.7616  0.6253  0.4648
  542TMC3    C8 8051   2.791   4.119  12.435 -0.0740  0.0016  0.1038
  542TMC3    O1 8052   2.616   4.634  12.647 -0.0129  0.3227  0.2804
  542TMC3    O2 8053   2.711   4.034  12.405 -0.2193 -0.2552  0.0269
  543TMC3    C1 8054   2.689   1.119  17.279 -0.0598  0.6135 -1.1126
  543TMC3    C2 8055   2.555   1.076  17.286 -0.4426 -0.6767  0.0318
  543TMC3    C3 8056   2.509   1.042  17.415  0.1556 -0.7519  0.2242
  543TMC3    C4 8057   2.779   1.139  17.382 -0.3676  0.4746  0.2225
  543TMC3    C5 8058   2.726   1.096  17.504  0.6806  0.1737 -0.1679
  543TMC3    C6 8059   2.593   1.055  17.529 -0.5075  0.4600 -0.1127
  543TMC3     C 8060   2.755   1.136  17.150 -0.2906 -0.3553 -0.1977
  543TMC3     O 8061   2.864   1.077  17.128 -0.5851  0.1274  0.2463
  543TMC3     H 8062   2.491   1.056  17.201  2.2533  0.3952 -2.2687
  543TMC3    H1 8063   2.878   1.178  17.362 -0.9582  1.1361 -1.4210
  543TMC3    H2 8064   2.560   1.027  17.628 -1.0157 -2.2708 -1.0657
  543TMC3    C7 8065   2.817   1.091  17.618 -0.1922  0.0934  0.1785
  543TMC3    C8 8066   2.371   0.995  17.429  0.0458  0.4214  0.2056
  543TMC3    O1 8067   2.930   1.132  17.588 -0.6476  1.1342 -0.1058
  543TMC3    O2 8068   2.303   0.986  17.326 -0.6692 -0.3398  0.9046
  544MPD2     C 8069   1.992   0.809   0.009 -0.1326  0.3567 -0.1674
  544MPD2    C1 8070   1.990   0.859  17.579  0.0450  0.5774  0.0673
  544MPD2    C2 8071   2.108   0.905  17.527  0.0932  0.9898  0.5644
  544MPD2    C3 8072   2.225   0.901  17.603 -0.3783  0.6165 -0.3097
  544MPD2    C4 8073   2.222   0.852   0.032 -0.3321 -0.0074  0.0320
  544MPD2    C5 8074   2.108   0.809   0.084 -0.3403 -0.0097 -0.8223
  544MPD2     H 8075   2.103   0.939  17.424  2.6141  0.8314  0.3671
  544MPD2    H1 8076   2.311   0.855   0.094 -0.2132 -0.1759 -0.1309
  544MPD2    H2 8077   1.903   0.782   0.065  0.8696 -2.7340 -0.0642
  544MPD2    H3 8078   2.118   0.773   0.185 -0.3527 -0.5212 -1.0045
  544MPD2     N 8079   2.348   0.943  17.555 -0.0726  0.2005  0.0170
  544MPD2    H5 8080   2.426   0.946  17.620  0.6543  1.8348 -0.9179
  544MPD2    N1 8081   1.865   0.857  17.512 -0.3682 -0.0600  0.1283
  544MPD2    H7 8082   1.786   0.807  17.552 -0.6993 -0.6224 -1.2094
  545TMC3    C1 8083   1.739   0.831  17.308  0.0440  0.2178 -0.2176
  545TMC3    C2 8084   1.759   0.809  17.171 -0.0446  0.2772 -0.0114
  545TMC3    C3 8085   1.699   0.699  17.113  0.4789  0.1870 -0.6893
  545TMC3    C4 8086   1.645   0.758  17.379  0.2242  0.4507  0.2487
  545TMC3    C5 8087   1.617   0.639  17.322 -0.3262  0.5636  0.3003
  545TMC3    C6 8088   1.633   0.608  17.191  0.1023  0.1169 -0.5858
  545TMC3     C 8089   1.841   0.897  17.386 -0.6373  0.3083 -0.1574
  545TMC3     O 8090   1.918   0.953  17.309 -0.0842  0.1511 -0.1923
  545TMC3     H 8091   1.832   0.872  17.121  1.3768 -0.0599  1.6269
  545TMC3    H1 8092   1.637   0.772  17.486  0.9953  0.8548  0.2491
  545TMC3    H2 8093   1.595   0.515  17.149 -1.7268  0.9028 -0.6983
  545TMC3    C7 8094   1.553   0.534  17.398  0.4984  0.1481 -0.6573
  545TMC3    C8 8095   1.767   0.633  16.996  0.4391 -0.1629 -0.5932
  545TMC3    O1 8096   1.475   0.568  17.485 -0.0924  0.1823 -0.5596
  545TMC3    O2 8097   1.750   0.510  16.987  0.3711 -0.8192 -0.1837
  546MPD2     C 8098   3.727   0.348   0.041  0.5879  0.1145  0.3923
  546MPD2    C1 8099   3.721   0.406  17.616 -0.6503 -0.4438  0.4453
  546MPD2    C2 8100   3.769   0.532  17.594  0.5152 -0.0834  0.6321
  546MPD2    C3 8101   3.811   0.600   0.002 -0.4528 -0.5711 -0.7569
  546MPD2    C4 8102   3.821   0.545   0.127 -0.2299 -0.1187 -0.3502
  546MPD2    C5 8103   3.781   0.416   0.141 -0.0068 -0.5311  0.3294
  546MPD2     H 8104   3.772   0.573  17.494  0.8390  1.7133  1.3817
  546MPD2    H1 8105   3.869   0.592   0.212 -0.5618  0.6404 -0.5846
  546MPD2    H2 8106   3.703   0.243   0.057 -2.7912  0.9325  0.6280
  546MPD2    H3 8107   3.795   0.374   0.240  0.2383 -0.2724  0.4067
  546MPD2     N 8108   3.874   0.730  17.694  0.1390  0.8039  0.2018
  546MPD2    H5 8109   3.879   0.783   0.080 -0.7366  0.3466  0.5358
  546MPD2    N1 8110   3.648   0.325  17.527  0.1912  0.5235 -0.2732
  546MPD2    H7 8111   3.600   0.245  17.567 -2.2425  1.8688 -0.4790
  547TMC3    C1 8112   3.512   0.273  17.336  0.5287  0.0609  0.2688
  547TMC3    C2 8113   3.482   0.312  17.207  0.2202 -0.3550 -0.1176
  547TMC3    C3 8114   3.368   0.259  17.147 -0.5665 -0.1878 -0.8445
  547TMC3    C4 8115   3.428   0.205  17.415 -0.9184  0.3791  0.1779
  547TMC3    C5 8116   3.314   0.153  17.349  0.1041  0.0858 -0.1151
  547TMC3    C6 8117   3.287   0.177  17.217  0.8517  0.6535 -0.4136
  547TMC3     C 8118   3.625   0.350  17.396 -0.0391 -0.1298 -0.5924
  547TMC3     O 8119   3.677   0.445  17.337 -0.2730  0.0867 -0.0150
  547TMC3     H 8120   3.558   0.369  17.155  1.6986 -1.2996  1.0090
  547TMC3    H1 8121   3.447   0.188  17.520  0.7912  1.1028 -0.0032
  547TMC3    H2 8122   3.190   0.149  17.177  0.9989 -0.2619 -0.1309
  547TMC3    C7 8123   3.235   0.068  17.434 -0.2215 -0.5111  0.2311
  547TMC3    C8 8124   3.312   0.326  17.027 -0.2407  0.0184 -0.1021
  547TMC3    O1 8125   3.253   0.064  17.557  0.6629  0.3345 -0.5336
  547TMC3    O2 8126   3.192   0.306  17.004  0.4205  0.3035  0.3384
  548MPD2     C 8127   3.577   1.049  12.441  0.8121  0.4001  0.8483
  548MPD2    C1 8128   3.548   0.922  12.477  0.6638  0.2554 -0.0432
  548MPD2    C2 8129   3.624   0.821  12.429 -0.0401 -0.2380  1.2551
  548MPD2    C3 8130   3.729   0.843  12.346  0.3761  0.3651  0.7214
  548MPD2    C4 8131   3.767   0.971  12.315  0.0960 -0.5889  0.3477
  548MPD2    C5 8132   3.692   1.075  12.367  0.8787  0.9968  0.1438
  548MPD2     H 8133   3.595   0.717  12.445  1.9032 -0.5380  2.8181
  548MPD2    H1 8134   3.851   0.994  12.251 -0.0830  1.3288  0.8043
  548MPD2    H2 8135   3.510   1.131  12.465 -0.1979 -0.2734  0.2861
  548MPD2    H3 8136   3.707   1.176  12.331  1.2232  0.7002 -0.5529
  548MPD2     N 8137   3.798   0.733  12.300  1.0646 -0.4527 -0.0247
  548MPD2    H5 8138   3.747   0.646  12.299 -0.1977  0.3076 -1.0641
  548MPD2    N1 8139   3.422   0.899  12.541 -0.6426 -0.6902  0.2312
  548MPD2    H7 8140   3.387   0.988  12.575  0.6879 -0.9245  2.1597
  549TMC3    C1 8141   3.243   0.791  12.654  0.3902 -0.0253  0.2447
  549TMC3    C2 8142   3.163   0.897  12.627 -0.6418 -0.2579 -0.4881
  549TMC3    C3 8143   3.052   0.908  12.705  0.2047  0.1986 -0.1409
  549TMC3    C4 8144   3.214   0.694  12.747 -0.4192  0.4400 -0.2411
  549TMC3    C5 8145   3.104   0.708  12.820 -0.3211 -0.3611  0.1797
  549TMC3    C6 8146   3.017   0.812  12.803 -0.2645 -0.7190  0.7865
  549TMC3     C 8147   3.368   0.779  12.579 -0.5263 -0.9752  0.2304
  549TMC3     O 8148   3.413   0.665  12.567 -0.9072  0.0192 -0.0431
  549TMC3     H 8149   3.160   0.968  12.546  0.0249 -0.6990 -0.8962
  549TMC3    H1 8150   3.286   0.615  12.766 -0.7596 -0.4778 -2.8761
  549TMC3    H2 8151   2.929   0.826  12.865  0.1313  2.0859  0.7290
  549TMC3    C7 8152   3.092   0.627  12.935  0.0329  0.2590  0.0546
  549TMC3    C8 8153   2.990   1.033  12.703  0.0489 -0.0648  0.0666
  549TMC3    O1 8154   3.023   0.658  13.028  0.1858 -0.1390 -0.1300
  549TMC3    O2 8155   2.867   1.029  12.725 -0.2155  0.0667  0.5351
  550TMC3    C1 8156   1.770   3.306  12.264  1.0029 -0.0680 -0.5963
  550TMC3    C2 8157   1.784   3.385  12.383  0.6576  0.7779  0.2664
  550TMC3    C3 8158   1.881   3.482  12.384  0.3158  0.6538 -0.1657
  550TMC3    C4 8159   1.874   3.304  12.168 -0.5107  0.6751  0.3796
  550TMC3    C5 8160   1.949   3.413  12.165 -0.1831 -0.3035 -0.4466
  550TMC3    C6 8161   1.970   3.491  12.273 -0.1906  0.1919 -0.1133
  550TMC3     C 8162   1.631   3.317  12.221 -0.1048  0.1114 -0.3527
  550TMC3     O 8163   1.559   3.395  12.284  0.2468  0.0325  0.7993
  550TMC3     H 8164   1.718   3.372  12.468 -0.6114  0.2196 -0.8080
  550TMC3    H1 8165   1.864   3.226  12.094  0.0376  2.0193 -1.0965
  550TMC3    H2 8166   2.048   3.566  12.268 -0.4787  0.6173  1.6078
  550TMC3    C7 8167   1.902   3.495  12.058 -0.3225  0.0781 -0.4647
  550TMC3    C8 8168   1.828   3.615  12.400 -0.4893 -0.1692 -0.2300
  550TMC3    O1 8169   1.888   3.615  12.080  0.8420  0.1259  0.1262
  550TMC3    O2 8170   1.908   3.707  12.384  0.1280 -0.0625  0.0870
  551TMC3    C1 8171   4.210   1.768  13.417  0.7275 -0.0197 -0.3090
  551TMC3    C2 8172   4.304   1.813  13.322 -0.3132 -0.4370  0.8198
  551TMC3    C3 8173   4.430   1.863  13.362 -0.4821  0.8755  0.5442
  551TMC3    C4 8174   4.243   1.758  13.552  0.6087  0.0872  0.3179
  551TMC3    C5 8175   4.372   1.801  13.582  0.0093  0.4012 -0.2675
  551TMC3    C6 8176   4.467   1.851  13.491 -0.6199  0.6342  0.1749
  551TMC3     C 8177   4.108   1.675  13.364  0.5626 -0.5550  0.0689
  551TMC3     O 8178   4.103   1.634  13.247 -0.0615 -0.2045  0.0454
  551TMC3     H 8179   4.289   1.793  13.216 -1.3949  0.7825  0.7526
  551TMC3    H1 8180   4.174   1.699  13.612  0.5774 -0.4743 -0.2714
  551TMC3    H2 8181   4.561   1.898  13.516 -0.4516 -1.0495  2.7161
  551TMC3    C7 8182   4.415   1.829  13.716 -0.1916  1.1939 -0.4360
  551TMC3    C8 8183   4.529   1.875  13.259 -0.0728 -0.5003 -0.2870
  551TMC3    O1 8184   4.329   1.814  13.803  0.1993  0.8559 -0.1110
  551TMC3    O2 8185   4.643   1.841  13.281  0.3061 -0.4506  0.3975
  552MPD2     C 8186   1.779   4.103  13.635 -0.8273 -0.2003 -0.6257
  552MPD2    C1 8187   1.779   3.969  13.669  0.2032 -0.5388 -0.0969
  552MPD2    C2 8188   1.882   3.914  13.747 -0.2021  0.1471  0.3099
  552MPD2    C3 8189   1.983   3.993  13.801 -0.4447  0.8134  0.1575
  552MPD2    C4 8190   1.982   4.124  13.761  0.7017  0.3927  0.5107
  552MPD2    C5 8191   1.883   4.185  13.681  0.4250  0.0645 -0.7808
  552MPD2     H 8192   1.882   3.806  13.764  3.8896  0.1397  0.4250
  552MPD2    H1 8193   2.058   4.186  13.807  0.4371 -0.4777  2.1202
  552MPD2    H2 8194   1.706   4.151  13.571 -0.6735  0.1573 -0.5309
  552MPD2    H3 8195   1.894   4.287  13.647 -0.1014 -0.2563 -1.8953
  552MPD2     N 8196   2.097   3.944  13.881 -0.0361  0.0589  0.4571
  552MPD2    H5 8197   2.159   4.022  13.900  1.2996 -0.7282 -0.6898
  552MPD2    N1 8198   1.671   3.879  13.635 -0.1262 -0.0649 -0.5149
  552MPD2    H7 8199   1.682   3.789  13.680  0.7355  0.2891 -0.0007
  553TMC3    C1 8200   1.480   3.792  13.526 -0.8621  0.8389 -0.5290
  553TMC3    C2 8201   1.408   3.781  13.404  0.3515  0.6049  0.3888
  553TMC3    C3 8202   1.324   3.672  13.392  1.2141  0.3093 -0.4551
  553TMC3    C4 8203   1.484   3.688  13.616  0.0101 -0.4443 -0.7659
  553TMC3    C5 8204   1.399   3.578  13.594  0.5524  0.2510  0.2220
  553TMC3    C6 8205   1.321   3.566  13.480  0.5420  0.0732 -0.8773
  553TMC3     C 8206   1.562   3.908  13.559  0.3609 -0.7836 -0.3287
  553TMC3     O 8207   1.542   4.004  13.486  0.0909 -0.2329 -0.0859
  553TMC3     H 8208   1.402   3.863  13.332 -2.5846  1.8800  2.1188
  553TMC3    H1 8209   1.544   3.696  13.706  0.5685 -0.4174 -1.1443
  553TMC3    H2 8210   1.263   3.476  13.465  1.6766 -0.8021  0.0446
  553TMC3    C7 8211   1.390   3.468  13.684  0.8183  0.1030  0.2075
  553TMC3    C8 8212   1.259   3.647  13.257  0.4610 -0.2877  0.0046
  553TMC3    O1 8213   1.285   3.403  13.686  0.5251 -0.2265 -0.2663
  553TMC3    O2 8214   1.326   3.661  13.153  0.7394 -0.4345 -0.4755
  554TMC3    C1 8215   3.269   2.543  11.665  0.1113 -0.2371  0.1342
  554TMC3    C2 8216   3.188   2.471  11.582 -0.0108  0.1368  0.2765
  554TMC3    C3 8217   3.229   2.479  11.454  0.3638  0.3178 -0.0731
  554TMC3    C4 8218   3.367   2.634  11.628  0.3462 -0.0370 -0.3286
  554TMC3    C5 8219   3.403   2.630  11.496  0.1335 -0.3787  0.0525
  554TMC3    C6 8220   3.330   2.559  11.404  0.6897  0.1240 -0.1293
  554TMC3     C 8221   3.273   2.508  11.810  0.0333  0.4095 -0.0318
  554TMC3     O 8222   3.374   2.540  11.874 -0.5271 -0.1487 -0.1681
  554TMC3     H 8223   3.105   2.409  11.612  0.2045 -1.5472 -2.6612
  554TMC3    H1 8224   3.420   2.700  11.696  0.3397 -0.5454  0.1739
  554TMC3    H2 8225   3.363   2.552  11.301  0.2611 -2.1828 -0.1048
  554TMC3    C7 8226   3.508   2.711  11.436 -0.5345 -0.0667 -0.4170
  554TMC3    C8 8227   3.154   2.416  11.353 -1.2964 -0.3696 -0.2463
  554TMC3    O1 8228   3.556   2.664  11.332  0.3110  0.6023 -0.0241
  554TMC3    O2 8229   3.157   2.482  11.252 -0.4089 -0.0801  0.3030
  555TMC3    C1 8230   2.818   1.757  15.159  0.0797 -0.4939  0.5380
  555TMC3    C2 8231   2.906   1.866  15.184  0.0896  0.0571 -0.5006
  555TMC3    C3 8232   2.943   1.883  15.311 -0.3900  0.0131  0.0430
  555TMC3    C4 8233   2.760   1.688  15.266 -0.4508 -0.1607  0.9814
  555TMC3    C5 8234   2.805   1.713  15.395  0.2488 -0.5031  0.4581
  555TMC3    C6 8235   2.892   1.817  15.424 -0.8104  0.1768 -0.3846
  555TMC3     C 8236   2.751   1.740  15.029 -0.2833  0.7005 -0.5174
  555TMC3     O 8237   2.710   1.630  15.006 -0.6249 -0.4247  0.3971
  555TMC3     H 8238   2.950   1.920  15.100  1.1668 -2.3822 -1.4950
  555TMC3    H1 8239   2.690   1.608  15.251 -2.5662  2.0181 -0.7548
  555TMC3    H2 8240   2.900   1.858  15.524 -0.0384  0.3794 -0.5258
  555TMC3    C7 8241   2.751   1.623  15.500 -0.0178  0.6877  0.0188
  555TMC3    C8 8242   3.031   1.998  15.326  0.4305 -0.0046 -0.2097
  555TMC3    O1 8243   2.641   1.577  15.478  0.5693  0.5730  0.9679
  555TMC3    O2 8244   3.025   2.091  15.245  0.0361  0.1789  0.3053
  556MPD2     C 8245   0.498   3.555  10.341  0.5051  0.2497 -0.1393
  556MPD2    C1 8246   0.513   3.482  10.454  0.6681  0.1641  0.2017
  556MPD2    C2 8247   0.572   3.350  10.434  0.8130  0.0654 -0.3241
  556MPD2    C3 8248   0.610   3.301  10.311 -0.3246  0.3696 -0.1185
  556MPD2    C4 8249   0.587   3.381  10.198 -0.1350 -0.0113 -0.1590
  556MPD2    C5 8250   0.538   3.502  10.222  0.4500  0.2995  0.3997
  556MPD2     H 8251   0.578   3.281  10.518  1.6810 -1.2287 -1.4485
  556MPD2    H1 8252   0.607   3.342  10.099 -2.3840  2.6806 -1.6484
  556MPD2    H2 8253   0.449   3.651  10.335  0.7101  0.3620 -0.0131
  556MPD2    H3 8254   0.509   3.558  10.134  0.0265  1.7396  1.4521
  556MPD2     N 8255   0.639   3.165  10.295 -0.1791  0.3145  0.2031
  556MPD2    H5 8256   0.644   3.114  10.383 -0.8096 -0.3179 -0.1268
  556MPD2    N1 8257   0.466   3.526  10.579 -0.2778 -0.2151 -0.2836
  556MPD2    H7 8258   0.469   3.461  10.657 -1.2335 -0.2111 -0.2386
  557TMC3    C1 8259   0.697   2.968  10.177 -0.0594 -0.3037  0.0696
  557TMC3    C2 8260   0.762   2.913  10.066  0.0539 -0.0441  0.4651
  557TMC3    C3 8261   0.771   2.778  10.055 -0.1882 -0.0292 -0.4445
  557TMC3    C4 8262   0.640   2.895  10.281 -0.2736  0.2287  0.2912
  557TMC3    C5 8263   0.639   2.758  10.258  0.3195 -0.3260 -0.5368
  557TMC3    C6 8264   0.700   2.706  10.143  1.1457 -0.0769 -0.1979
  557TMC3     C 8265   0.683   3.115  10.177  0.7626 -0.4037  0.6811
  557TMC3     O 8266   0.723   3.169  10.076  0.0557  0.1111  0.7180
  557TMC3     H 8267   0.814   2.976   9.995 -3.0151  0.7120 -1.0983
  557TMC3    H1 8268   0.583   2.941  10.360 -0.3613  2.5861 -1.1371
  557TMC3    H2 8269   0.684   2.602  10.116  0.3946  0.2462 -0.9880
  557TMC3    C7 8270   0.551   2.678  10.339  0.0906 -0.1615  0.2375
  557TMC3    C8 8271   0.826   2.729   9.926  0.0457  0.0931 -0.5556
  557TMC3    O1 8272   0.474   2.741  10.411  0.2427  0.6381  0.0562
  557TMC3    O2 8273   0.893   2.808   9.868  0.2358  0.0961  0.0217
  558TMC3    C1 8274   3.265   1.502  10.481 -0.2987 -0.0629  0.2137
  558TMC3    C2 8275   3.158   1.431  10.527  0.7936  0.3621  0.2919
  558TMC3    C3 8276   3.049   1.424  10.442 -0.2539 -0.6822  0.0406
  558TMC3    C4 8277   3.276   1.545  10.350 -0.3203  0.1754  0.2244
  558TMC3    C5 8278   3.169   1.531  10.269 -0.5601  0.2057  0.1849
  558TMC3    C6 8279   3.048   1.479  10.314 -0.0389  0.1668  0.3800
  558TMC3     C 8280   3.395   1.471  10.547 -0.0799 -0.4787  0.3784
  558TMC3     O 8281   3.483   1.546  10.517 -0.0291  0.5289 -0.0291
  558TMC3     H 8282   3.146   1.420  10.634  2.7654  3.1581  0.7952
  558TMC3    H1 8283   3.374   1.571  10.313  0.0923 -2.0346 -0.2707
  558TMC3    H2 8284   2.959   1.469  10.252 -0.8936  2.1441  1.2780
  558TMC3    C7 8285   3.186   1.601  10.143 -0.3073 -0.6269  0.1677
  558TMC3    C8 8286   2.934   1.352  10.486  0.4552 -0.0108  0.4141
  558TMC3    O1 8287   3.282   1.671  10.137  0.8410 -0.1609  0.1256
  558TMC3    O2 8288   2.830   1.367  10.431 -0.1828 -0.6010 -0.0500
  559MPD2     C 8289   3.131   1.827  10.471 -0.1632 -0.3491 -0.1280
  559MPD2    C1 8290   3.067   1.763  10.582 -0.1697  0.2306  0.4304
  559MPD2    C2 8291   3.143   1.734  10.695  0.7501 -0.1258  0.0797
  559MPD2    C3 8292   3.278   1.774  10.700 -0.3222  0.0400  0.7410
  559MPD2    C4 8293   3.340   1.839  10.594  0.0625 -0.6638  0.8831
  559MPD2    C5 8294   3.264   1.870  10.478  0.2068 -0.3016  1.1194
  559MPD2     H 8295   3.103   1.677  10.777 -0.3583  1.5836  0.7254
  559MPD2    H1 8296   3.442   1.877  10.594 -0.4082  0.6219  0.1838
  559MPD2    H2 8297   3.077   1.855  10.381  2.2899 -1.9763 -2.0917
  559MPD2    H3 8298   3.311   1.928  10.400 -1.3857 -2.0334 -1.1431
  559MPD2     N 8299   3.340   1.726  10.812  0.8129 -0.0436 -0.1932
  559MPD2    H5 8300   3.290   1.660  10.870 -0.5626  0.4691 -0.7861
  559MPD2    N1 8301   2.925   1.736  10.585 -0.8115 -0.2548 -0.2325
  559MPD2    H7 8302   2.868   1.764  10.506 -0.5911 -1.3567 -0.7761
  560TMC3    C1 8303   3.502   1.713  10.981 -1.1547  0.2533  0.5359
  560TMC3    C2 8304   3.470   1.581  11.015  0.5754  0.4493 -1.1429
  560TMC3    C3 8305   3.544   1.513  11.107  0.1837  0.4152 -0.0513
  560TMC3    C4 8306   3.602   1.776  11.051  0.5344 -0.7525  0.4959
  560TMC3    C5 8307   3.680   1.704  11.139  0.8724 -0.1730  0.1456
  560TMC3    C6 8308   3.649   1.568  11.170  0.0900 -0.2363  0.0124
  560TMC3     C 8309   3.461   1.773  10.865 -0.3063  0.5208 -0.3818
  560TMC3     O 8310   3.535   1.858  10.814 -0.7692 -0.1444  0.0524
  560TMC3     H 8311   3.394   1.527  10.960  0.5321 -0.0428 -0.6014
  560TMC3    H1 8312   3.624   1.880  11.030  2.1721 -1.1100  0.3960
  560TMC3    H2 8313   3.697   1.514  11.250 -3.3690 -0.7857  1.7414
  560TMC3    C7 8314   3.734   1.771  11.253 -0.4765  0.5322 -0.4140
  560TMC3    C8 8315   3.518   1.370  11.112  0.0188  0.4458 -0.2488
  560TMC3    O1 8316   3.745   1.701  11.350  0.4343  0.8747 -0.1351
  560TMC3    O2 8317   3.410   1.333  11.064  0.3592  0.0503 -0.3011
  561TMC3    C1 8318   1.221   0.720  11.595 -0.0067 -0.4659  0.7333
  561TMC3    C2 8319   1.153   0.662  11.698  0.0778 -0.0926  0.3131
  561TMC3    C3 8320   1.111   0.746  11.796  0.1140 -0.3827  0.0572
  561TMC3    C4 8321   1.228   0.852  11.572 -0.0842 -0.2229 -0.3449
  561TMC3    C5 8322   1.182   0.933  11.670  0.9780  0.3295  0.5872
  561TMC3    C6 8323   1.127   0.881  11.789 -0.1909 -0.6934  0.4563
  561TMC3     C 8324   1.320   0.633  11.527  0.0547  0.0540  0.4418
  561TMC3     O 8325   1.291   0.516  11.526  0.3600 -0.1972  0.1591
  561TMC3     H 8326   1.148   0.554  11.705 -0.4204  0.0705  2.5053
  561TMC3    H1 8327   1.260   0.886  11.475  2.1160  0.7290  0.7201
  561TMC3    H2 8328   1.088   0.956  11.858  0.4572 -0.1982  0.2857
  561TMC3    C7 8329   1.189   1.070  11.665 -0.4547  0.1418 -0.5276
  561TMC3    C8 8330   1.015   0.685  11.893  0.6695  0.5842 -0.2567
  561TMC3    O1 8331   1.180   1.132  11.773 -0.2208  0.3991  0.4704
  561TMC3    O2 8332   0.995   0.566  11.886  0.0031  0.5011 -0.1413
  562TMC3    C1 8333   2.337   2.627  15.921 -0.1214 -0.3845 -0.6822
  562TMC3    C2 8334   2.376   2.738  15.853 -0.0999 -0.5419  0.1623
  562TMC3    C3 8335   2.474   2.715  15.759  0.2709 -0.1680  0.0203
  562TMC3    C4 8336   2.383   2.504  15.897  0.6496 -0.4510  0.1712
  562TMC3    C5 8337   2.481   2.490  15.805 -0.0240  0.2501 -0.2204
  562TMC3    C6 8338   2.535   2.594  15.739 -0.0892  0.2523  0.0953
  562TMC3     C 8339   2.242   2.644  16.024 -1.2632  0.1571  0.1334
  562TMC3     O 8340   2.226   2.553  16.103 -0.1602  0.9816  0.5235
  562TMC3     H 8341   2.349   2.840  15.876  1.9131 -0.1296  0.6976
  562TMC3    H1 8342   2.336   2.412  15.930 -0.2466  0.6877  2.0345
  562TMC3    H2 8343   2.606   2.577  15.659 -1.5753 -1.0492 -0.9624
  562TMC3    C7 8344   2.538   2.350  15.780  0.0288 -0.3164  0.5015
  562TMC3    C8 8345   2.535   2.828  15.697 -0.1334 -0.4383 -0.6598
  562TMC3    O1 8346   2.554   2.320  15.660 -0.3205 -0.3727  1.0374
  562TMC3    O2 8347   2.659   2.841  15.706  0.1179  0.1350  0.7439
  563MPD2     C 8348   0.060   3.679  15.638  0.0696  0.2402 -0.9532
  563MPD2    C1 8349   0.010   3.694  15.769 -0.1103 -0.1520 -0.2820
  563MPD2    C2 8350   0.105   3.701  15.870  0.0565 -1.3716 -0.0846
  563MPD2    C3 8351   0.237   3.689  15.843  0.1085 -0.6971  1.1526
  563MPD2    C4 8352   0.281   3.676  15.710 -0.5931 -0.3131 -0.3224
  563MPD2    C5 8353   0.187   3.663  15.612  0.4320 -0.1485 -0.7647
  563MPD2     H 8354   0.074   3.720  15.973 -0.0809  2.0295 -0.7512
  563MPD2    H1 8355   0.386   3.672  15.682 -0.4628  1.5984 -0.1118
  563MPD2    H2 8356   0.002   3.678  15.546  1.1130  1.5554 -1.6328
  563MPD2    H3 8357   0.220   3.661  15.509  2.5159  2.1932 -0.1415
  563MPD2     N 8358   0.322   3.695  15.954 -0.2927 -0.0747  0.9554
  563MPD2    H5 8359   0.279   3.728  16.039 -0.4209  2.8142 -0.2463
  563MPD2    N1 8360   4.600   3.724  15.795 -0.6204 -0.4807 -0.2484
  563MPD2    H7 8361   4.536   3.699  15.720  0.7424 -0.7879 -1.3255
  564TMC3    C1 8362   4.427   3.819  15.923  0.0321 -0.6026 -0.1545
  564TMC3    C2 8363   4.384   3.694  15.947  0.5790 -0.6256 -0.7117
  564TMC3    C3 8364   4.329   3.658  16.069 -0.0667  0.8040  0.2585
  564TMC3    C4 8365   4.407   3.912  16.024  0.1608  0.3814  0.2885
  564TMC3    C5 8366   4.354   3.887  16.143  0.1247 -0.2130 -0.0751
  564TMC3    C6 8367   4.313   3.753  16.170 -0.2648 -0.0946  0.7117
  564TMC3     C 8368   4.569   3.819  15.892 -0.1845 -0.7985  0.5028
  564TMC3     O 8369   4.635   3.879  15.973 -0.3104 -0.7074  0.2948
  564TMC3     H 8370   4.388   3.619  15.868 -0.1083 -1.4684  0.0476
  564TMC3    H1 8371   4.426   4.014  15.994  1.3938 -0.3219 -1.3436
  564TMC3    H2 8372   4.279   3.724  16.269 -0.5047  2.2276  1.3212
  564TMC3    C7 8373   4.419   3.948  16.253 -0.6104 -0.9703 -0.0473
  564TMC3    C8 8374   4.319   3.516  16.101 -0.3019  0.0300 -0.3582
  564TMC3    O1 8375   4.409   4.066  16.281  0.3683  0.2436  0.5397
  564TMC3    O2 8376   4.260   3.505  16.204 -0.6543  0.0375 -0.7660
  565TMC3    C1 8377   0.505   0.199  10.205  0.2298  0.2530 -0.3290
  565TMC3    C2 8378   0.455   0.075  10.249  0.0683  0.3435  0.4294
  565TMC3    C3 8379   0.326   0.046  10.229  0.2539  0.3170  0.3897
  565TMC3    C4 8380   0.420   0.284  10.139 -1.1229  0.3444 -0.3375
  565TMC3    C5 8381   0.292   0.246  10.102  0.1199  0.3412  0.0388
  565TMC3    C6 8382   0.242   0.122  10.147 -0.8133  0.1256  0.2814
  565TMC3     C 8383   0.641   0.230  10.221  0.3507  0.5241  0.0693
  565TMC3     O 8384   0.697   0.306  10.146 -0.4763 -0.4722  0.0544
  565TMC3     H 8385   0.517   0.002  10.299  0.7506  1.2799  0.9556
  565TMC3    H1 8386   0.463   0.377  10.103  0.1989  0.2356  0.9586
  565TMC3    H2 8387   0.140   0.087  10.134 -0.7469  0.2201 -0.4615
  565TMC3    C7 8388   0.205   0.345  10.043 -0.5496 -0.0087 -0.4181
  565TMC3    C8 8389   0.272   4.661  10.307  0.3019 -0.5366  0.2698
  565TMC3    O1 8390   0.084   0.314  10.054 -0.0903 -0.4964  0.3786
  565TMC3    O2 8391   0.335   4.636  10.407  0.3108 -0.2158 -0.0193
  566MPD2     C 8392   1.614   2.080  14.242 -0.1868 -0.6187 -0.1332
  566MPD2    C1 8393   1.663   2.146  14.130 -0.2302 -0.3084  0.6108
  566MPD2    C2 8394   1.652   2.081  14.011  0.8881  0.3922  0.2802
  566MPD2    C3 8395   1.579   1.969  13.990 -0.6409  0.6091 -0.5835
  566MPD2    C4 8396   1.540   1.900  14.100  0.1772  0.2256 -0.3075
  566MPD2    C5 8397   1.560   1.952  14.230  0.3931  0.5851 -0.2242
  566MPD2     H 8398   1.696   2.123  13.921 -1.2260 -1.4774 -1.6322
  566MPD2    H1 8399   1.476   1.812  14.102 -1.3983  1.3914 -0.0595
  566MPD2    H2 8400   1.613   2.118  14.344  0.6343  0.4562 -0.5218
  566MPD2    H3 8401   1.511   1.918  14.320  0.3782 -1.8291 -1.1350
  566MPD2     N 8402   1.552   1.930  13.858 -0.7395 -0.4607  0.1516
  566MPD2    H5 8403   1.581   2.001  13.791 -2.1615 -0.4339 -0.4348
  566MPD2    N1 8404   1.735   2.271  14.140  0.4440  0.1188  0.0102
  566MPD2    H7 8405   1.752   2.303  14.235  1.8750  2.7048 -1.1013
  567TMC3    C1 8406   1.894   2.446  14.071  0.9237 -0.0595 -0.2589
  567TMC3    C2 8407   1.945   2.512  13.968  0.4305  0.4399  0.0023
  567TMC3    C3 8408   2.074   2.547  13.955  0.1368  0.0934  0.1040
  567TMC3    C4 8409   1.978   2.402  14.168  0.0640 -0.3915 -0.3641
  567TMC3    C5 8410   2.111   2.439  14.156 -0.2125  0.6212  0.0835
  567TMC3    C6 8411   2.169   2.505  14.052 -0.3162 -0.3929  0.5610
  567TMC3     C 8412   1.779   2.354  14.037 -0.0321 -0.0944 -0.4649
  567TMC3     O 8413   1.739   2.360  13.922  0.4634  0.2781 -0.2476
  567TMC3     H 8414   1.875   2.539  13.890  0.4791 -1.1005 -0.5741
  567TMC3    H1 8415   1.945   2.336  14.247 -0.3968 -0.7728 -0.8744
  567TMC3    H2 8416   2.275   2.526  14.045 -0.6018  1.1119  0.7354
  567TMC3    C7 8417   2.202   2.358  14.231 -0.3990 -0.3541  0.4144
  567TMC3    C8 8418   2.120   2.561  13.818 -0.2067  0.0421 -0.0389
  567TMC3    O1 8419   2.310   2.324  14.187 -0.2337 -0.1777 -0.4650
  567TMC3    O2 8420   2.044   2.537  13.725  0.1813 -0.6290 -0.0951
  568MPD2     C 8421   4.240   2.056  16.756 -0.4054 -0.6437 -0.3351
  568MPD2    C1 8422   4.264   2.151  16.849  0.7514 -0.1682  1.0209
  568MPD2    C2 8423   4.263   2.284  16.812  0.1619  1.0475 -0.0578
  568MPD2    C3 8424   4.257   2.324  16.685  0.0495 -0.5912 -0.2920
  568MPD2    C4 8425   4.246   2.229  16.589  0.0650  0.4918  0.5991
  568MPD2    C5 8426   4.226   2.095  16.620 -0.4834  0.1446  0.1745
  568MPD2     H 8427   4.266   2.361  16.889  2.2596  1.7509 -0.8358
  568MPD2    H1 8428   4.252   2.246  16.482 -1.2888  2.2084  0.8048
  568MPD2    H2 8429   4.255   1.950  16.770 -1.9972 -0.6146  1.5559
  568MPD2    H3 8430   4.216   2.017  16.547 -2.9134  0.6647 -0.0386
  568MPD2     N 8431   4.264   2.462  16.672  0.1084 -0.2445  0.3022
  568MPD2    H5 8432   4.282   2.526  16.749 -0.8389  0.3593  0.0317
  568MPD2    N1 8433   4.295   2.105  16.978  0.3252  0.0219  0.3931
  568MPD2    H7 8434   4.300   2.004  16.970  1.4341  0.1152 -0.1344
  569TMC3    C1 8435   4.260   2.668  16.548 -0.4953 -0.4644  0.4412
  569TMC3    C2 8436   4.212   2.735  16.656 -0.1809  0.0210 -0.4366
  569TMC3    C3 8437   4.193   2.868  16.646 -0.1603 -0.3663  0.2292
  569TMC3    C4 8438   4.297   2.738  16.452  0.0994 -0.4246 -0.6166
  569TMC3    C5 8439   4.301   2.871  16.450  0.7418 -0.0034  0.3847
  569TMC3    C6 8440   4.237   2.944  16.546  0.2182  0.3085  0.0212
  569TMC3     C 8441   4.270   2.523  16.544  0.4976 -0.3477 -0.2906
  569TMC3     O 8442   4.256   2.470  16.434 -0.5133 -0.1567  0.4292
  569TMC3     H 8443   4.161   2.693  16.742  0.1145 -0.7652 -0.6390
  569TMC3    H1 8444   4.351   2.689  16.372  1.4514 -2.0509  1.3103
  569TMC3    H2 8445   4.227   3.051  16.543 -2.2183  0.0958  0.5511
  569TMC3    C7 8446   4.391   2.932  16.355  0.9144 -0.7698  0.1878
  569TMC3    C8 8447   4.198   2.929  16.779  0.2847  0.3044 -0.2328
  569TMC3    O1 8448   4.486   2.864  16.331 -0.4417  0.0854  0.5861
  569TMC3    O2 8449   4.181   2.851  16.875 -0.2590  0.4159  0.2882
  570TMC3    C1 8450   3.878   1.466  16.618  0.0707  0.1376 -0.3552
  570TMC3    C2 8451   3.940   1.537  16.516  0.8790  1.7439 -0.7856
  570TMC3    C3 8452   3.958   1.670  16.524  0.4036  0.6219 -0.3899
  570TMC3    C4 8453   3.825   1.534  16.725  0.5508  0.0221  1.0495
  570TMC3    C5 8454   3.831   1.673  16.726  0.6385 -0.3362 -0.5079
  570TMC3    C6 8455   3.906   1.738  16.631 -0.5817  0.5139 -0.3639
  570TMC3     C 8456   3.829   1.332  16.590 -0.5515 -1.0301 -0.0716
  570TMC3     O 8457   3.842   1.291  16.475  0.7832 -0.2148  0.1335
  570TMC3     H 8458   3.987   1.478  16.438 -0.0995  1.1684 -0.9340
  570TMC3    H1 8459   3.758   1.490  16.798  0.4957  0.5726  1.3344
  570TMC3    H2 8460   3.911   1.847  16.634 -0.7299  0.5646 -1.7783
  570TMC3    C7 8461   3.813   1.739  16.854 -0.1131  0.0382 -0.0743
  570TMC3    C8 8462   4.010   1.743  16.409  0.0708  0.1037 -1.1501
  570TMC3    O1 8463   3.889   1.835  16.875  1.3043  0.9411 -0.1534
  570TMC3    O2 8464   4.042   1.860  16.425  0.9490  0.3648 -0.3317
  571MPD2     C 8465   2.002   2.595   0.150 -0.1164  0.0604 -0.3719
  571MPD2    C1 8466   2.118   2.664   0.134  0.1861 -0.3361  0.5154
  571MPD2    C2 8467   2.116   2.795   0.185  0.3782  0.3178 -0.2412
  571MPD2    C3 8468   2.006   2.843   0.254  0.6615  0.7397 -0.0574
  571MPD2    C4 8469   1.885   2.771   0.259  0.8359 -1.1873 -0.2421
  571MPD2    C5 8470   1.890   2.640   0.214  0.4963  0.3153  0.4325
  571MPD2     H 8471   2.204   2.858   0.188  0.2325  0.4048  3.3270
  571MPD2    H1 8472   1.796   2.815   0.302  1.0854  0.0402 -0.9740
  571MPD2    H2 8473   1.985   2.492   0.123 -0.5927  0.3071 -0.9961
  571MPD2    H3 8474   1.800   2.584   0.235  0.9244 -0.8396 -0.8273
  571MPD2     N 8475   1.989   2.975   0.300 -0.1485  0.7098 -0.5179
  571MPD2    H5 8476   1.899   2.998   0.340 -0.9911 -0.3318 -1.8040
  571MPD2    N1 8477   2.236   2.596   0.085 -0.7759  0.0387  0.5206
  571MPD2    H7 8478   2.216   2.500   0.059  0.8375 -0.3425  0.6960
  572TMC3    C1 8479   2.022   3.183   0.368  0.6424  0.5698 -0.2796
  572TMC3    C2 8480   1.932   3.164   0.467  0.0346  0.2033 -0.4960
  572TMC3    C3 8481   1.890   3.271   0.541  0.4579  0.1828  0.6892
  572TMC3    C4 8482   2.082   3.303   0.343  0.1384 -0.2233 -0.8302
  572TMC3    C5 8483   2.048   3.410   0.420  0.6705  0.9809 -0.0682
  572TMC3    C6 8484   1.946   3.396   0.519  0.7323 -0.4061  0.2189
  572TMC3     C 8485   2.085   3.069   0.306  0.1123  0.4775  0.4942
  572TMC3     O 8486   2.200   3.069   0.261  0.8463  0.1600  0.4737
  572TMC3     H 8487   1.905   3.065   0.504  3.5979 -0.7850 -0.5162
  572TMC3    H1 8488   2.146   3.309   0.255 -2.3724 -0.3394 -2.6828
  572TMC3    H2 8489   1.917   3.479   0.582  1.5189  0.3672 -0.4255
  572TMC3    C7 8490   2.051   3.545   0.370  0.5398  0.1182  0.2972
  572TMC3    C8 8491   1.759   3.253   0.613  0.4340  0.5834 -0.7752
  572TMC3    O1 8492   2.036   3.563   0.250 -0.0170  0.8869  0.1495
  572TMC3    O2 8493   1.715   3.140   0.609 -0.0208  0.3815  0.5281
  573MPD2     C 8494   2.400   3.810  17.559  0.1533 -0.5398  0.3922
  573MPD2    C1 8495   2.359   3.883  17.670  0.4188  0.6814 -0.4516
  573MPD2    C2 8496   2.296   4.007  17.643 -0.1241 -0.3160 -0.3934
  573MPD2    C3 8497   2.294   4.058  17.514 -0.0297 -0.4180 -0.4024
  573MPD2    C4 8498   2.339   3.983  17.415 -0.4122  0.4094 -0.1383
  573MPD2    C5 8499   2.390   3.858  17.435 -0.4985  0.1896  0.5846
  573MPD2     H 8500   2.255   4.068   0.022  1.5844  0.4819 -0.1179
  573MPD2    H1 8501   2.340   4.021  17.314  0.2541 -0.6969 -0.5521
  573MPD2    H2 8502   2.445   3.712  17.577  0.7443 -0.2133  0.7018
  573MPD2    H3 8503   2.421   3.791  17.356 -1.2857 -1.2701  1.5231
  573MPD2     N 8504   2.228   4.178  17.472  0.0314  0.4814  1.1779
  573MPD2    H5 8505   2.227   4.203  17.373 -1.9429  0.8700  1.2865
  573MPD2    N1 8506   2.376   3.828   0.096  0.2803  0.2462  0.5430
  573MPD2    H7 8507   2.400   3.729   0.099 -0.5888  0.0235  0.0459
  574TMC3    C1 8508   2.097   4.370  17.465  0.0605  0.0606 -0.4565
  574TMC3    C2 8509   1.986   4.432  17.520 -0.0210 -0.5338  0.2102
  574TMC3    C3 8510   1.899   4.505  17.443  0.3965  0.0377  0.1843
  574TMC3    C4 8511   2.132   4.390  17.335  0.2300  0.0425 -0.5626
  574TMC3    C5 8512   2.048   4.474  17.265  0.4992 -0.2546  0.3379
  574TMC3    C6 8513   1.933   4.535  17.312 -0.0966 -0.9465 -0.3950
  574TMC3     C 8514   2.156   4.263  17.549 -0.3671 -0.6819 -0.7680
  574TMC3     O 8515   2.128   4.253  17.666  0.0791 -0.2903  0.1350
  574TMC3     H 8516   1.958   4.410  17.623  0.6090 -0.8485  0.3175
  574TMC3    H1 8517   2.223   4.346  17.296 -1.1357 -1.5622 -1.9538
  574TMC3    H2 8518   1.858   4.577  17.245 -0.7604 -0.0154  0.9327
  574TMC3    C7 8519   2.078   4.490  17.126 -0.3289  0.2818 -0.0914
  574TMC3    C8 8520   1.815   4.591  17.523 -0.2081  0.6863  0.2224
  574TMC3    O1 8521   2.167   4.417  17.084 -0.0602  0.0346 -0.0719
  574TMC3    O2 8522   1.770   4.558  17.634  0.2423 -0.0478 -0.0560
  575TMC3    C1 8523   0.173   4.252  11.063  0.7498 -0.3071  0.1429
  575TMC3    C2 8524   0.108   4.135  11.074 -0.2520 -0.3991 -0.6438
  575TMC3    C3 8525   0.043   4.076  10.965 -0.4137 -0.1148 -0.5053
  575TMC3    C4 8526   0.181   4.314  10.944 -0.3613  0.0068  0.0798
  575TMC3    C5 8527   0.123   4.248  10.835  0.4063 -0.4850  1.1459
  575TMC3    C6 8528   0.061   4.126  10.838  0.2981 -0.2996 -0.5939
  575TMC3     C 8529   0.238   4.295  11.187 -0.1888 -0.1211 -0.3252
  575TMC3     O 8530   0.277   4.207  11.265  0.4407 -0.6681 -0.2354
  575TMC3     H 8531   0.090   4.096  11.173 -1.6963  1.9988  0.0475
  575TMC3    H1 8532   0.241   4.402  10.923 -1.4671  0.8118  0.2675
  575TMC3    H2 8533   0.025   4.080  10.747  0.5574 -0.2588 -0.7178
  575TMC3    C7 8534   0.129   4.329  10.709 -0.3521  0.0053  0.7191
  575TMC3    C8 8535   4.688   3.961  10.997 -0.5416 -0.5616 -0.2012
  575TMC3    O1 8536   0.205   4.424  10.704  0.1714 -0.3360  0.2710
  575TMC3    O2 8537   4.718   3.902  11.101 -0.2372  0.2250 -0.0627
  576MPD2     C 8538   4.628   1.246  12.667 -0.2128 -0.0660  0.3750
  576MPD2    C1 8539   4.693   1.348  12.609  0.0678  0.3015  0.3102
  576MPD2    C2 8540   4.632   1.474  12.635 -0.8957  0.3071 -0.6457
  576MPD2    C3 8541   4.521   1.495  12.716 -0.0714 -0.6798 -0.3510
  576MPD2    C4 8542   4.455   1.389  12.762  0.5237 -0.3754  0.4434
  576MPD2    C5 8543   4.510   1.271  12.745 -0.1303  0.1738 -0.1721
  576MPD2     H 8544   4.687   1.557  12.593  1.0123 -0.3790  0.5120
  576MPD2    H1 8545   4.365   1.383  12.822  0.7907 -0.3929  0.8417
  576MPD2    H2 8546   4.659   1.142  12.664  2.8992  0.9748 -1.9550
  576MPD2    H3 8547   4.468   1.186  12.798  0.8799  0.4717  1.1192
  576MPD2     N 8548   4.479   1.626  12.730 -0.3980  0.0196  0.2873
  576MPD2    H5 8549   4.543   1.692  12.688 -1.6098  1.4334  0.6565
  576MPD2    N1 8550   0.085   1.329  12.527  0.7350 -0.3491  1.3026
  576MPD2    H7 8551   0.126   1.408  12.477  1.2820 -2.4527 -1.5799
  577TMC3    C1 8552   0.265   1.220  12.425  0.0221 -0.2869  0.5359
  577TMC3    C2 8553   0.356   1.123  12.437  0.1176  0.2249  0.6835
  577TMC3    C3 8554   0.440   1.104  12.327  0.1435 -0.6341 -0.0981
  577TMC3    C4 8555   0.255   1.294  12.311  0.0336  0.1551 -0.2318
  577TMC3    C5 8556   0.334   1.266  12.204 -0.3696 -0.3524  0.3320
  577TMC3    C6 8557   0.423   1.165  12.205 -0.2548  0.5950  0.5504
  577TMC3     C 8558   0.156   1.210  12.521  0.2901  1.1648  0.2267
  577TMC3     O 8559   0.156   1.114  12.596  0.2246  0.3603  0.3374
  577TMC3     H 8560   0.345   1.048  12.514  0.0891 -0.5474 -0.0707
  577TMC3    H1 8561   0.174   1.366  12.305  0.5613  0.8467  0.9537
  577TMC3    H2 8562   0.467   1.133  12.112  0.9717  0.2666  1.2394
  577TMC3    C7 8563   0.353   1.354  12.084  0.1784  0.8108 -0.4273
  577TMC3    C8 8564   0.524   0.986  12.339 -1.1629 -0.2333  0.9506
  577TMC3    O1 8565   0.460   1.352  12.027  0.0572  0.0494  0.0360
  577TMC3    O2 8566   0.518   0.923  12.445  0.0777  0.4184  0.0442
  578MPD2     C 8567   2.817   1.910   1.077  0.3705  0.4592  0.4775
  578MPD2    C1 8568   2.848   1.797   0.999 -0.0054 -0.4570  0.3813
  578MPD2    C2 8569   2.886   1.679   1.062 -0.7855 -0.1665 -0.3995
  578MPD2    C3 8570   2.890   1.673   1.200  0.7837 -0.1564 -0.2218
  578MPD2    C4 8571   2.853   1.781   1.274 -0.2504 -0.6488 -0.5920
  578MPD2    C5 8572   2.828   1.901   1.213  0.1414 -0.5338 -0.0657
  578MPD2     H 8573   2.903   1.589   1.004 -0.7604 -1.4575  1.6112
  578MPD2    H1 8574   2.850   1.774   1.383  0.2988  2.1572 -0.3902
  578MPD2    H2 8575   2.789   2.008   1.040  0.1821 -0.7154 -2.4976
  578MPD2    H3 8576   2.819   1.983   1.284 -1.2403 -1.2404  0.5577
  578MPD2     N 8577   2.937   1.559   1.259  0.9428 -0.7961 -0.3500
  578MPD2    H5 8578   2.965   1.483   1.197  0.3912 -0.2643 -1.2545
  578MPD2    N1 8579   2.843   1.814   0.858  0.6636  0.2255 -0.1930
  578MPD2    H7 8580   2.822   1.909   0.829 -3.4883 -0.4817  0.5209
  579TMC3    C1 8581   3.019   1.402   1.413 -0.2662  0.0150  0.0305
  579TMC3    C2 8582   3.136   1.374   1.478 -0.1436  0.7294  0.2801
  579TMC3    C3 8583   3.186   1.246   1.479  0.3073 -0.3241  0.3683
  579TMC3    C4 8584   2.955   1.299   1.353  0.5576  0.5251 -0.0231
  579TMC3    C5 8585   3.002   1.172   1.363  0.0025 -0.3802 -0.6974
  579TMC3    C6 8586   3.117   1.142   1.431  1.3523  0.3642 -0.8151
  579TMC3     C 8587   2.991   1.544   1.387 -0.9855  0.7818  0.0436
  579TMC3     O 8588   3.022   1.629   1.467 -0.0840  0.2117 -0.4795
  579TMC3     H 8589   3.178   1.451   1.542 -0.7893 -1.1878  2.9533
  579TMC3    H1 8590   2.852   1.319   1.325  0.8583 -0.5165 -1.8919
  579TMC3    H2 8591   3.147   1.037   1.432 -0.2595 -0.0633  1.3162
  579TMC3    C7 8592   2.912   1.068   1.317 -0.0270 -0.0476 -0.7269
  579TMC3    C8 8593   3.324   1.228   1.465 -0.0412  0.5973  0.1832
  579TMC3    O1 8594   2.945   0.958   1.360  0.1078  0.2580 -0.0414
  579TMC3    O2 8595   3.368   1.118   1.460 -0.0776  0.7939 -0.5190
  580TMC3    C1 8596   2.768   0.653  12.247  0.0211  0.9153  0.1568
  580TMC3    C2 8597   2.862   0.752  12.281  0.1292 -0.0807  0.1741
  580TMC3    C3 8598   2.984   0.707  12.325 -0.8169  0.5752 -0.0701
  580TMC3    C4 8599   2.789   0.516  12.257  0.0785  0.0689 -0.7358
  580TMC3    C5 8600   2.914   0.483  12.300 -0.6478 -0.1305  0.2815
  580TMC3    C6 8601   3.014   0.575  12.332 -1.0478  0.1299  0.3905
  580TMC3     C 8602   2.703   0.682  12.120  0.2382  0.0292  0.4849
  580TMC3     O 8603   2.737   0.610  12.026  0.4156  0.3056 -0.6150
  580TMC3     H 8604   2.860   0.853  12.240 -1.2203 -0.5416 -0.8873
  580TMC3    H1 8605   2.708   0.445  12.241  0.7814 -0.7298 -0.7436
  580TMC3    H2 8606   3.110   0.548  12.374 -1.0928 -1.2580 -0.3906
  580TMC3    C7 8607   2.948   0.349  12.337 -0.0410 -0.3220  0.2064
  580TMC3    C8 8608   3.094   0.787  12.273 -0.2653 -0.4301  0.1375
  580TMC3    O1 8609   3.049   0.344  12.407 -0.1439 -0.0974 -0.4449
  580TMC3    O2 8610   3.107   0.907  12.302  0.2914 -0.4435 -0.4192
  581MPD2     C 8611   0.512   0.162  14.807  0.1583  0.4722  0.0328
  581MPD2    C1 8612   0.460   0.229  14.913 -0.0284  0.2740 -0.4782
  581MPD2    C2 8613   0.339   0.296  14.896  0.0740  0.2193  0.3191
  581MPD2    C3 8614   0.275   0.304  14.775  0.1717 -0.2540  0.6718
  581MPD2    C4 8615   0.338   0.244  14.670  0.4713 -0.0939 -0.4732
  581MPD2    C5 8616   0.455   0.175  14.682  0.3859 -0.7792  0.4706
  581MPD2     H 8617   0.294   0.340  14.985  0.0833 -2.4458  1.6476
  581MPD2    H1 8618   0.297   0.249  14.569 -0.1492 -1.8293 -0.3106
  581MPD2    H2 8619   0.613   0.122  14.809 -0.1591 -0.2935  1.2225
  581MPD2    H3 8620   0.503   0.121  14.601 -0.6664  0.0751 -0.7227
  581MPD2     N 8621   0.141   0.354  14.768 -0.1285  0.7192  0.0718
  581MPD2    H5 8622   0.103   0.391  14.855 -1.2421 -1.0128  0.3244
  581MPD2    N1 8623   0.519   0.223  15.037 -0.3847 -0.3830  0.2010
  581MPD2    H7 8624   0.586   0.149  15.056 -0.6961 -0.1748  2.1566
  582TMC3    C1 8625   0.568   0.261  15.263  0.2433  0.1915  0.1245
  582TMC3    C2 8626   0.624   0.356  15.343  0.6470 -0.1068  0.4514
  582TMC3    C3 8627   0.664   0.313  15.468  0.2840  0.0650 -0.0781
  582TMC3    C4 8628   0.548   0.131  15.307  0.1072 -0.9584  0.0049
  582TMC3    C5 8629   0.578   0.104  15.442  0.2922  0.2368 -0.6305
  582TMC3    C6 8630   0.651   0.189  15.524  0.2301  0.1783 -0.3784
  582TMC3     C 8631   0.503   0.306  15.143 -0.2054  0.5118 -0.0118
  582TMC3     O 8632   0.450   0.415  15.153  0.4417 -0.2244  0.0284
  582TMC3     H 8633   0.619   0.461  15.315 -0.7304 -0.2462  0.1436
  582TMC3    H1 8634   0.480   0.065  15.254  0.4248  0.3044 -1.9855
  582TMC3    H2 8635   0.686   0.164  15.623 -1.5713  0.5019  0.3247
  582TMC3    C7 8636   0.512   4.722  15.518  0.0081 -0.4165  0.2469
  582TMC3    C8 8637   0.719   0.418  15.553 -0.2070 -0.4044 -0.5810
  582TMC3    O1 8638   0.593   4.643  15.567  0.1329  0.4121 -0.1008
  582TMC3    O2 8639   0.681   0.532  15.539 -0.4544  0.4182  0.1161
  583MPD2     C 8640   0.763   1.890  16.635 -0.3676  0.0402  0.1800
  583MPD2    C1 8641   0.762   2.026  16.631  0.6408  0.3412 -0.0810
  583MPD2    C2 8642   0.745   2.094  16.750 -0.0342  0.0458 -0.6658
  583MPD2    C3 8643   0.724   2.026  16.872  0.4197  0.7447  0.0982
  583MPD2    C4 8644   0.701   1.893  16.864  0.4104 -0.3348 -0.1333
  583MPD2    C5 8645   0.716   1.827  16.748 -0.3406  0.9076 -0.5009
  583MPD2     H 8646   0.765   2.201  16.746 -0.2500  0.1250  0.4330
  583MPD2    H1 8647   0.672   1.830  16.948 -0.3442  0.7334  0.4075
  583MPD2    H2 8648   0.774   1.821  16.552  0.0831 -0.0594  0.3221
  583MPD2    H3 8649   0.694   1.722  16.739  0.8287  0.6158  0.0723
  583MPD2     N 8650   0.723   2.109  16.985 -0.0618 -0.5399  0.2819
  583MPD2    H5 8651   0.720   2.209  16.969  1.3300 -0.6470 -0.6595
  583MPD2    N1 8652   0.801   2.097  16.515  0.5645  0.4222  0.5741
  583MPD2    H7 8653   0.803   2.199  16.519  0.9012  0.4372 -0.1303
  584TMC3    C1 8654   0.692   2.159  17.224 -0.9146  1.0258  0.5001
  584TMC3    C2 8655   0.737   2.285  17.214  0.1239  0.1675  0.0608
  584TMC3    C3 8656   0.733   2.364  17.325  0.7658 -0.1822  0.1317
  584TMC3    C4 8657   0.626   2.112  17.341 -0.2810  0.3917  0.4405
  584TMC3    C5 8658   0.617   2.197  17.448  0.2145  0.7222 -0.0813
  584TMC3    C6 8659   0.677   2.318  17.443 -0.0068  0.1158  0.5522
  584TMC3     C 8660   0.717   2.061  17.119  0.1622  0.7316 -0.2610
  584TMC3     O 8661   0.704   1.948  17.160  0.2057  0.5707  0.3813
  584TMC3     H 8662   0.779   2.330  17.125 -0.8779  0.7240 -0.1205
  584TMC3    H1 8663   0.584   2.012  17.345  3.4720 -1.2057 -0.2387
  584TMC3    H2 8664   0.682   2.377  17.534 -0.9738 -1.5226  1.6815
  584TMC3    C7 8665   0.586   2.142  17.579  0.1581 -0.4961 -0.1139
  584TMC3    C8 8666   0.769   2.505  17.314 -0.0959 -0.5639 -0.0571
  584TMC3    O1 8667   0.605   2.219  17.674 -0.1223  0.6238 -0.3926
  584TMC3    O2 8668   0.769   2.558  17.201 -0.4473 -0.2338 -0.0899
  585MPD2     C 8669   4.464   1.182   1.060 -0.2815 -0.3663  0.4731
  585MPD2    C1 8670   4.548   1.178   0.946 -0.7136  0.1394 -0.8305
  585MPD2    C2 8671   4.567   1.052   0.900  0.1193 -0.1844 -0.0913
  585MPD2    C3 8672   4.528   0.936   0.964  0.3922  0.5712 -0.1863
  585MPD2    C4 8673   4.448   0.948   1.075  0.0185  0.3364 -0.0813
  585MPD2    C5 8674   4.410   1.071   1.118  0.4877  0.6453  0.1054
  585MPD2     H 8675   4.617   1.052   0.804  1.4863  5.0349  0.5904
  585MPD2    H1 8676   4.406   0.863   1.128 -2.2639  1.4510 -0.1145
  585MPD2    H2 8677   4.446   1.272   1.119  1.9750 -0.2148  0.9370
  585MPD2    H3 8678   4.354   1.086   1.210  1.4560 -0.9800  0.9695
  585MPD2     N 8679   4.538   0.812   0.898  0.6668 -0.1859 -0.3479
  585MPD2    H5 8680   4.480   0.731   0.917 -1.9144  2.1017  1.4185
  585MPD2    N1 8681   4.591   1.292   0.877 -0.3467  0.3156 -0.4118
  585MPD2    H7 8682   4.543   1.379   0.897 -0.8523  0.0248 -0.3552
  586TMC3    C1 8683   4.623   0.712   0.702  0.1671  0.2505  0.0287
  586TMC3    C2 8684   0.006   0.677   0.629  0.3794 -0.4981  0.7081
  586TMC3    C3 8685   4.704   0.635   0.500  1.7406 -0.3115 -0.0096
  586TMC3    C4 8686   4.491   0.697   0.664 -0.3683 -0.5134  0.2532
  586TMC3    C5 8687   4.476   0.661   0.536 -0.0398 -0.5604  0.1499
  586TMC3    C6 8688   4.581   0.635   0.453 -0.0289 -0.5831  0.1814
  586TMC3     C 8689   4.653   0.794   0.818  0.2636 -0.7709 -0.3705
  586TMC3     O 8690   0.036   0.855   0.813  0.8199  0.5001 -0.4125
  586TMC3     H 8691   0.109   0.701   0.654 -0.2701  1.0560  1.8614
  586TMC3    H1 8692   4.405   0.741   0.713 -1.5060 -0.3018 -1.9428
  586TMC3    H2 8693   4.557   0.606   0.351 -0.7939 -1.7803  0.7140
  586TMC3    C7 8694   4.351   0.687   0.461  0.4111  0.4172  0.2051
  586TMC3    C8 8695   0.072   0.663   0.395 -0.6389  0.4756  0.5387
  586TMC3    O1 8696   4.262   0.606   0.477  0.0440 -0.2321  0.2915
  586TMC3    O2 8697   0.149   0.755   0.416  0.2230 -0.2260  0.1463
  587TMC3    C1 8698   2.238   3.993  15.932 -0.0891  0.1874 -0.1041
  587TMC3    C2 8699   2.237   4.122  15.974  0.3548  0.7280 -0.2091
  587TMC3    C3 8700   2.357   4.189  15.963 -0.5085  0.8400  0.0277
  587TMC3    C4 8701   2.352   3.936  15.876 -0.0774  0.4013 -0.9331
  587TMC3    C5 8702   2.469   4.001  15.879 -0.5205 -0.4302  0.6183
  587TMC3    C6 8703   2.478   4.131  15.922 -0.0238  0.1621  1.2393
  587TMC3     C 8704   2.112   3.905  15.938  0.5814 -0.0774 -0.5687
  587TMC3     O 8705   2.117   3.793  15.886 -0.3552  0.2511 -0.2696
  587TMC3     H 8706   2.151   4.168  16.022  0.0823  0.6976 -0.6717
  587TMC3    H1 8707   2.345   3.832  15.845 -1.1347 -0.1858  1.2735
  587TMC3    H2 8708   2.567   4.190  15.940 -0.0096  0.6357 -0.3755
  587TMC3    C7 8709   2.585   3.934  15.821  0.5563  0.1159  0.3902
  587TMC3    C8 8710   2.364   4.327  15.986 -0.3763 -0.9884  0.4928
  587TMC3    O1 8711   2.593   3.813  15.831  0.1780  0.2364  0.5352
  587TMC3    O2 8712   2.467   4.387  15.963 -0.0268  0.5001 -0.1527
  588TMC3    C1 8713   4.405   2.214   9.902  0.5156 -0.2760  0.0133
  588TMC3    C2 8714   4.338   2.103   9.861  0.7768  0.2989  0.5401
  588TMC3    C3 8715   4.408   2.005   9.799  0.0725  0.7913  0.9041
  588TMC3    C4 8716   4.536   2.220   9.888 -0.4966 -0.2345 -0.0715
  588TMC3    C5 8717   4.614   2.127   9.824  0.4826 -0.1736  1.0086
  588TMC3    C6 8718   4.543   2.018   9.782 -0.5245  0.6348  0.4422
  588TMC3     C 8719   4.333   2.329   9.924 -0.1162  0.4293  1.0950
  588TMC3     O 8720   4.250   2.357   9.840 -0.3507 -0.0831  0.0592
  588TMC3     H 8721   4.231   2.103   9.873  0.6969  0.5154 -0.1318
  588TMC3    H1 8722   4.568   2.319   9.917  0.6171 -0.8976  0.9666
  588TMC3    H2 8723   4.593   1.952   9.711 -1.0507 -0.5903  1.2161
  588TMC3    C7 8724   4.711   2.169   9.729 -0.1769  0.7893 -0.2843
  588TMC3    C8 8725   4.339   1.873   9.780  0.4370 -0.2034 -0.1871
  588TMC3    O1 8726   4.716   2.117   9.616  0.7590  0.1674 -0.4242
  588TMC3    O2 8727   4.216   1.872   9.782  0.7052  0.0560  0.0537
  589TMC3    C1 8728   3.049   4.650   1.108 -0.5858 -0.2101 -0.0505
  589TMC3    C2 8729   3.108   4.631   1.228  0.0749  0.3145 -0.4945
  589TMC3    C3 8730   3.229   4.566   1.228  0.6211  0.0212  0.3623
  589TMC3    C4 8731   3.101   4.612   0.984 -0.2427 -0.2418 -0.1221
  589TMC3    C5 8732   3.217   4.540   0.989 -0.9569  0.3930  0.1572
  589TMC3    C6 8733   3.289   4.527   1.111  0.2439 -0.1744 -0.3697
  589TMC3     C 8734   2.943   0.021   1.086 -0.5626  0.2320 -0.2127
  589TMC3     O 8735   2.914   0.053   0.970  0.3985  0.0899 -0.1593
  589TMC3     H 8736   3.058   4.650   1.322  2.4900  0.1080  0.8250
  589TMC3    H1 8737   3.049   4.634   0.891 -2.2961  0.5009  1.2278
  589TMC3    H2 8738   3.382   4.473   1.111  0.5091  0.2874 -2.8331
  589TMC3    C7 8739   3.280   4.509   0.864  0.6427  0.0047 -0.5086
  589TMC3    C8 8740   3.266   4.497   1.341  0.0351  0.3889  0.4629
  589TMC3    O1 8741   3.401   4.506   0.870 -0.2333  0.4522 -0.3240
  589TMC3    O2 8742   3.181   4.479   1.436 -0.1115  0.1488  0.7187
  590MPD2     C 8743   3.328   2.884  16.886 -0.1242 -0.5327 -0.1958
  590MPD2    C1 8744   3.237   2.949  16.795  0.1883 -0.3474  0.0461
  590MPD2    C2 8745   3.298   3.053  16.723 -0.0215 -0.1738 -0.2893
  590MPD2    C3 8746   3.430   3.089  16.735 -0.2868  0.0581 -0.3267
  590MPD2    C4 8747   3.514   3.019  16.821  0.0744  0.6611  0.2535
  590MPD2    C5 8748   3.460   2.921  16.899  0.7191 -0.1930  0.0823
  590MPD2     H 8749   3.238   3.103  16.649  0.0702  0.9171  0.3752
  590MPD2    H1 8750   3.619   3.045  16.826  0.2454 -0.4191  2.1478
  590MPD2    H2 8751   3.289   2.810  16.955 -0.0185  0.5189  0.9800
  590MPD2    H3 8752   3.522   2.855  16.960 -1.3888 -2.5803 -0.3792
  590MPD2     N 8753   3.456   3.188  16.641  0.3710 -0.2417 -0.0119
  590MPD2    H5 8754   3.383   3.217  16.577  1.3651 -1.3239 -1.6250
  590MPD2    N1 8755   3.103   2.906  16.783 -0.7600 -0.0654 -0.4618
  590MPD2    H7 8756   3.082   2.821  16.834  0.7359  0.1103  0.4803
  591TMC3    C1 8757   3.583   3.306  16.485 -0.9014  0.0677 -0.1907
  591TMC3    C2 8758   3.686   3.267  16.405  0.4365  0.4363  0.4485
  591TMC3    C3 8759   3.687   3.329  16.286 -0.3063 -0.1642  0.2557
  591TMC3    C4 8760   3.476   3.382  16.452  0.5426  0.0453 -0.2336
  591TMC3    C5 8761   3.483   3.440  16.323 -0.2755  0.4525 -1.4557
  591TMC3    C6 8762   3.589   3.413  16.237  0.0427 -0.0494 -0.1762
  591TMC3     C 8763   3.580   3.235  16.610  0.6056 -0.5316 -0.4103
  591TMC3     O 8764   3.691   3.217  16.664  0.0620 -0.2003  0.4421
  591TMC3     H 8765   3.744   3.180  16.434  0.3591  0.3520  0.3473
  591TMC3    H1 8766   3.407   3.426  16.524 -0.0446 -0.4467 -0.4906
  591TMC3    H2 8767   3.583   3.444  16.133 -2.7280 -0.1200 -0.0501
  591TMC3    C7 8768   3.379   3.533  16.291 -0.1737 -0.0117  0.0112
  591TMC3    C8 8769   3.795   3.294  16.197 -0.0980  0.8514 -0.0010
  591TMC3    O1 8770   3.284   3.538  16.367 -0.4914  0.1928  0.2749
  591TMC3    O2 8771   3.859   3.190  16.225 -0.1168  0.1480 -0.0526
  592MPD2     C 8772   3.942   4.672  11.246  0.7746 -0.0751 -0.1195
  592MPD2    C1 8773   3.944   4.689  11.379  0.0688  0.3227  0.7797
  592MPD2    C2 8774   3.855   4.632  11.463 -0.6399  0.0984  0.3568
  592MPD2    C3 8775   3.750   4.555  11.419  0.4063 -0.1918  0.3505
  592MPD2    C4 8776   3.737   4.546  11.283  0.5799 -0.6100 -0.1336
  592MPD2    C5 8777   3.827   4.604  11.199  0.1449  0.9229 -0.6389
  592MPD2     H 8778   3.870   4.653  11.569  1.5781  0.2237  0.0201
  592MPD2    H1 8779   3.651   4.498  11.237 -0.7450 -0.7537  2.4939
  592MPD2    H2 8780   4.004   0.005  11.178 -1.5966  0.5715 -1.7731
  592MPD2    H3 8781   3.812   4.586  11.093 -2.0933  2.2239 -0.5417
  592MPD2     N 8782   3.652   4.507  11.509 -0.5578  0.3076 -0.1606
  592MPD2    H5 8783   3.681   4.534  11.603 -0.8523  1.2729 -0.3541
  592MPD2    N1 8784   4.038   0.059  11.423 -0.2820 -0.1712 -0.2674
  592MPD2    H7 8785   4.091   0.098  11.346 -3.5340 -0.1511 -2.5176
  593TMC3    C1 8786   4.183   0.189  11.555  0.3159 -0.0724  0.3373
  593TMC3    C2 8787   4.187   0.257  11.677 -0.6026  0.3058  0.3575
  593TMC3    C3 8788   4.248   0.378  11.675  0.4890 -0.5521  0.1473
  593TMC3    C4 8789   4.237   0.244  11.438 -0.4253 -0.5386 -0.3445
  593TMC3    C5 8790   4.321   0.349  11.463 -0.7099  0.6589  0.1826
  593TMC3    C6 8791   4.328   0.422  11.579 -0.2825 -0.1701 -0.2145
  593TMC3     C 8792   4.065   0.099  11.547  0.0929  1.0769 -0.5846
  593TMC3     O 8793   4.027   0.047  11.650 -0.0618 -0.3527  0.2390
  593TMC3     H 8794   4.137   0.215  11.763  0.6259 -2.6212 -0.3702
  593TMC3    H1 8795   4.230   0.195  11.341  1.5881  0.9544 -1.2334
  593TMC3    H2 8796   4.380   0.517  11.590  0.0329 -0.3355 -0.2713
  593TMC3    C7 8797   4.391   0.416  11.353  0.1916 -0.0223  0.1793
  593TMC3    C8 8798   4.147   0.481  11.711  0.7093 -0.4364  0.9706
  593TMC3    O1 8799   4.482   0.493  11.380 -0.0989  0.4876 -0.0245
  593TMC3    O2 8800   4.031   0.452  11.686 -0.5652 -0.2048 -0.4534
  594MPD2     C 8801   2.708   4.088  13.658  0.2859  0.3033  0.1158
  594MPD2    C1 8802   2.694   4.060  13.793 -0.0663 -0.8108 -0.6172
  594MPD2    C2 8803   2.771   4.137  13.881  0.2471 -0.1264 -0.1248
  594MPD2    C3 8804   2.855   4.234  13.834 -1.0556 -0.0532 -0.3405
  594MPD2    C4 8805   2.868   4.259  13.699  0.4284 -0.0859 -0.3477
  594MPD2    C5 8806   2.788   4.190  13.612 -0.0312 -0.6138 -0.4474
  594MPD2     H 8807   2.765   4.113  13.986  3.0020  1.9255  0.5065
  594MPD2    H1 8808   2.934   4.331  13.652 -0.0582  0.1838 -0.6288
  594MPD2    H2 8809   2.640   4.046  13.584 -1.3929  0.7209  1.4287
  594MPD2    H3 8810   2.793   4.212  13.506  0.5588  0.7494 -0.1330
  594MPD2     N 8811   2.934   4.311  13.924  0.4933  0.1185 -0.2019
  594MPD2    H5 8812   2.896   4.302  14.018  0.6913  0.8771 -0.0537
  594MPD2    N1 8813   2.595   3.965  13.833 -0.0567  0.1123 -0.0236
  594MPD2    H7 8814   2.533   3.937  13.758  0.1901  0.8654 -0.5013
  595TMC3    C1 8815   3.259   4.528  14.157 -0.0144  0.3997  0.3948
  595TMC3    C2 8816   3.223   4.480  14.030 -0.2533 -0.3606 -0.8373
  595TMC3    C3 8817   3.087   4.477  14.003  0.0522 -0.3599  0.4014
  595TMC3    C4 8818   3.168   4.580  14.242 -0.1698  0.3297  0.2483
  595TMC3    C5 8819   3.032   4.574  14.206  0.6726 -0.3194 -0.4199
  595TMC3    C6 8820   2.991   4.517  14.090  0.3210 -0.9063  0.2725
  595TMC3     C 8821   3.390   4.508  14.204  0.1552  0.0609  0.2211
  595TMC3     O 8822   3.407   4.541  14.321 -0.0722 -0.4134  0.0955
  595TMC3     H 8823   3.290   4.445  13.951 -0.0983 -0.3623 -0.7051
  595TMC3    H1 8824   3.201   4.633  14.331  1.9610  0.3020 -0.5251
  595TMC3    H2 8825   2.885   4.502  14.073  0.8714 -0.8552 -3.2856
  595TMC3    C7 8826   2.926   4.588  14.311 -0.0695  0.5527  0.2983
  595TMC3    C8 8827   3.041   4.391  13.894  0.5636  0.2244 -0.4779
  595TMC3    O1 8828   2.807   4.578  14.280 -0.3731 -0.1353  0.0770
  595TMC3    O2 8829   3.120   4.378  13.799  0.2577  0.2567 -0.0519
  596MPD2     C 8830   1.503   1.722  16.783 -0.8785 -0.5281 -0.4481
  596MPD2    C1 8831   1.546   1.856  16.757 -0.0197 -0.2908  0.0020
  596MPD2    C2 8832   1.582   1.883  16.629 -0.7753  0.9289 -0.7123
  596MPD2    C3 8833   1.585   1.790  16.532 -0.1100  0.4418  0.0198
  596MPD2    C4 8834   1.554   1.663  16.559  0.5045 -0.1680 -0.2305
  596MPD2    C5 8835   1.505   1.633  16.682  0.0953 -0.0698  0.1306
  596MPD2     H 8836   1.615   1.983  16.604  1.0107  0.0731 -1.7913
  596MPD2    H1 8837   1.562   1.580  16.490  1.0978 -2.0189  2.1107
  596MPD2    H2 8838   1.459   1.697  16.879 -0.7727  0.7421 -0.0639
  596MPD2    H3 8839   1.468   1.532  16.696  1.0093 -0.4597 -0.3189
  596MPD2     N 8840   1.610   1.822  16.393  0.2668  0.1542  0.4836
  596MPD2    H5 8841   1.607   1.741  16.332  0.3410  1.0223 -0.6674
  596MPD2    N1 8842   1.568   1.950  16.857  0.2250  0.5918  0.1494
  596MPD2    H7 8843   1.602   2.040  16.824  1.3134  0.6277  1.3756
  597TMC3    C1 8844   1.545   2.044  17.079  0.6550  0.2358  0.4614
  597TMC3    C2 8845   1.673   2.099  17.075 -0.7952 -0.0364  0.5232
  597TMC3    C3 8846   1.712   2.180  17.181  0.2858  0.3274  0.8068
  597TMC3    C4 8847   1.453   2.080  17.176  0.3870 -0.1949  1.3392
  597TMC3    C5 8848   1.490   2.179  17.264 -0.4852  0.3305  0.0986
  597TMC3    C6 8849   1.618   2.226  17.277  0.1449 -0.1511 -0.1893
  597TMC3     C 8850   1.514   1.944  16.983 -0.4696  0.0109 -0.2734
  597TMC3     O 8851   1.433   1.863  17.027  0.0840 -0.1747  0.3475
  597TMC3     H 8852   1.740   2.063  16.998 -1.7036 -1.0455  0.2002
  597TMC3    H1 8853   1.352   2.040  17.171  0.0087  1.0384 -1.0656
  597TMC3    H2 8854   1.643   2.269  17.374  2.9980 -1.9308 -0.1195
  597TMC3    C7 8855   1.387   2.217  17.349 -0.5218  0.4068  0.4777
  597TMC3    C8 8856   1.846   2.223  17.195 -0.0873 -0.5868 -0.5931
  597TMC3    O1 8857   1.315   2.128  17.399  0.0978 -0.0697  0.6744
  597TMC3    O2 8858   1.930   2.141  17.159  0.6096 -0.2035  1.0236
  598TMC3    C1 8859   4.317   3.552  15.455  0.2688 -0.1641  0.9550
  598TMC3    C2 8860   4.232   3.448  15.424 -0.1090  0.4469 -0.2498
  598TMC3    C3 8861   4.275   3.360  15.329  0.2690 -0.0452 -0.8202
  598TMC3    C4 8862   4.434   3.571  15.375  0.2131  0.4266 -0.7707
  598TMC3    C5 8863   4.455   3.478  15.281 -0.0804  0.2943  0.3338
  598TMC3    C6 8864   4.376   3.374  15.248 -0.8097  0.4551  0.0629
  598TMC3     C 8865   4.295   3.655  15.552 -0.3045  0.4906  0.0393
  598TMC3     O 8866   4.384   3.722  15.598  0.0143  0.3058  0.1272
  598TMC3     H 8867   4.141   3.427  15.479  0.5976 -1.2025  0.2880
  598TMC3    H1 8868   4.502   3.655  15.393 -0.7794  1.1213 -0.2807
  598TMC3    H2 8869   4.406   3.306  15.169  1.9953  1.6303  0.1390
  598TMC3    C7 8870   4.585   3.484  15.206 -0.5137 -0.3526  0.3432
  598TMC3    C8 8871   4.183   3.257  15.286  0.2452 -1.0822 -0.4221
  598TMC3    O1 8872   4.610   3.391  15.132 -0.1669  0.2720 -0.6569
  598TMC3    O2 8873   4.159   3.240  15.168  0.5485  0.0530  0.0111
  599MPD2     C 8874   4.323   1.265  15.789  0.0415 -0.2526  0.0115
  599MPD2    C1 8875   4.343   1.131  15.815  0.1133  0.7799 -0.3537
  599MPD2    C2 8876   4.294   1.078  15.932  0.4668  0.9279 -0.4981
  599MPD2    C3 8877   4.214   1.154  16.016 -1.2415 -0.3780  0.4064
  599MPD2    C4 8878   4.186   1.282  15.983  0.2120  0.1399 -0.4976
  599MPD2    C5 8879   4.236   1.333  15.867 -0.4586  0.1869 -0.2854
  599MPD2     H 8880   4.315   0.979  15.970  1.0836  1.7793  1.3500
  599MPD2    H1 8881   4.112   1.341  16.036 -1.2731 -2.1233 -0.0645
  599MPD2    H2 8882   4.365   1.312  15.701 -1.3406  0.7685 -0.1001
  599MPD2    H3 8883   4.215   1.430  15.825 -2.1172  0.2023  0.5842
  599MPD2     N 8884   4.155   1.107  16.132 -0.0795 -0.8143 -0.1643
  599MPD2    H5 8885   4.096   1.179  16.172 -0.0539  0.2036 -1.9998
  599MPD2    N1 8886   4.419   1.055  15.721  0.3605  0.1055  0.0422
  599MPD2    H7 8887   4.485   1.101  15.659  1.0679 -1.8825 -0.6513
  600TMC3    C1 8888   4.107   0.969  16.314 -0.4042 -0.4294  0.4013
  600TMC3    C2 8889   4.080   0.845  16.360 -0.1163  0.2908 -0.6774
  600TMC3    C3 8890   4.068   0.832  16.494 -0.9052 -0.2286 -0.0174
  600TMC3    C4 8891   4.120   1.074  16.399  0.3547 -0.3578 -0.0198
  600TMC3    C5 8892   4.100   1.057  16.529  0.3286 -1.1231 -0.0917
  600TMC3    C6 8893   4.063   0.937  16.579 -0.7391  0.9784 -0.4009
  600TMC3     C 8894   4.159   0.980  16.185 -0.0724 -0.2448 -0.2612
  600TMC3     O 8895   4.178   0.872  16.127  0.0127  0.3862 -0.8003
  600TMC3     H 8896   4.075   0.762  16.290 -1.1969 -0.3339  0.1314
  600TMC3    H1 8897   4.132   1.176  16.365 -1.9607  0.7675  2.4849
  600TMC3    H2 8898   4.033   0.928  16.683  0.0377 -1.2678 -0.3712
  600TMC3    C7 8899   4.125   1.163  16.625 -0.4384  0.4725 -0.3399
  600TMC3    C8 8900   4.009   0.711  16.551  0.7993  0.2301  1.0300
  600TMC3    O1 8901   4.080   1.150  16.734  0.2768  0.1710  0.1359
  600TMC3    O2 8902   4.065   0.661  16.647  0.2537 -0.0585 -0.4041
  601MPD2     C 8903   1.983   4.037   0.434 -0.3855 -0.1449 -0.3325
  601MPD2    C1 8904   1.950   3.964   0.322 -0.0091  0.5511  0.4027
  601MPD2    C2 8905   1.980   3.826   0.328 -0.3411  0.6000 -0.0872
  601MPD2    C3 8906   2.033   3.771   0.445  0.1038 -0.5972  0.4158
  601MPD2    C4 8907   2.077   3.863   0.544 -0.0552 -0.0534 -0.0032
  601MPD2    C5 8908   2.047   3.993   0.540  0.5307  0.3399 -0.2926
  601MPD2     H 8909   1.948   3.764   0.245 -0.2225 -1.8666  1.7170
  601MPD2    H1 8910   2.123   3.820   0.632  1.3017  3.7679  1.1177
  601MPD2    H2 8911   1.947   4.139   0.447 -0.1505 -0.2789  1.4426
  601MPD2    H3 8912   2.081   4.056   0.621 -3.1658 -1.3721  2.5833
  601MPD2     N 8913   2.052   3.640   0.469 -0.2811 -0.2496 -0.7131
  601MPD2    H5 8914   2.091   3.611   0.558  0.9312  1.3441 -0.7237
  601MPD2    N1 8915   1.892   4.015   0.197 -0.4799 -0.0378  0.4544
  601MPD2    H7 8916   1.864   3.948   0.126  1.5741  0.8972 -1.1945
  602TMC3    C1 8917   1.762   4.153   0.063 -0.1986  0.3598  0.2544
  602TMC3    C2 8918   1.649   4.232   0.071  0.4731  0.1334  0.0118
  602TMC3    C3 8919   1.605   4.287  17.655 -0.4260 -0.0160  0.9690
  602TMC3    C4 8920   1.819   4.123  17.643  0.3580 -0.1940 -0.5221
  602TMC3    C5 8921   1.763   4.176  17.526 -0.6901  0.2460  0.4374
  602TMC3    C6 8922   1.663   4.271  17.534 -0.3276 -0.1878  0.3785
  602TMC3     C 8923   1.841   4.140   0.182  0.2315 -0.1549 -0.1061
  602TMC3     O 8924   1.836   4.231   0.258  0.0888 -0.0495  0.3542
  602TMC3     H 8925   1.606   4.255   0.167 -0.6691  1.2884 -0.7911
  602TMC3    H1 8926   1.908   4.061  17.638  0.1319 -0.6918  1.8443
  602TMC3    H2 8927   1.638   4.335  17.450 -2.8386 -1.0909  0.4314
  602TMC3    C7 8928   1.818   4.136  17.398  0.5337  0.2059  0.4456
  602TMC3    C8 8929   1.497   4.377  17.660 -0.2589  0.1338 -0.6237
  602TMC3    O1 8930   1.941   4.126  17.387  0.5991  0.0749  0.1899
  602TMC3    O2 8931   1.487   4.459   0.050 -0.2435  0.1704  0.1135
  603TMC3    C1 8932   4.289   4.259  10.842 -0.6122 -0.2970 -0.2504
  603TMC3    C2 8933   4.343   4.235  10.964 -0.0479 -0.5486  0.1682
  603TMC3    C3 8934   4.448   4.319  11.006 -0.1227  0.1717  0.1845
  603TMC3    C4 8935   4.349   4.349  10.757 -0.0595 -0.1958  0.1886
  603TMC3    C5 8936   4.444   4.434  10.804  0.0574  0.2070  0.0621
  603TMC3    C6 8937   4.498   4.417  10.930  0.0291  0.1745 -0.3544
  603TMC3     C 8938   4.184   4.178  10.795 -0.5786 -0.2039  0.0572
  603TMC3     O 8939   4.194   4.148  10.677 -0.1172 -0.2326 -0.9764
  603TMC3     H 8940   4.313   4.157  11.033 -0.4726 -1.5704 -1.1679
  603TMC3    H1 8941   4.298   4.355  10.661  0.4084 -2.6009 -0.2138
  603TMC3    H2 8942   4.557   4.498  10.973 -0.6987 -0.8422  2.5644
  603TMC3    C7 8943   4.520   4.515  10.707 -0.2587  0.5322  0.1619
  603TMC3    C8 8944   4.501   4.297  11.142 -0.6338  0.1573  0.1370
  603TMC3    O1 8945   4.621   4.570  10.747 -0.1123 -0.4418  0.1625
  603TMC3    O2 8946   4.457   4.194  11.195 -0.0787 -0.0904 -0.4624
  604MPD2     C 8947   0.613   2.861  16.399 -0.4097  0.0803  0.3520
  604MPD2    C1 8948   0.564   2.975  16.337  0.1253 -0.0402  0.2749
  604MPD2    C2 8949   0.595   2.995  16.199 -0.4797 -0.6150  0.0236
  604MPD2    C3 8950   0.681   2.908  16.131  0.0996  0.0145 -0.2883
  604MPD2    C4 8951   0.727   2.793  16.196  0.4273  0.1037  0.2679
  604MPD2    C5 8952   0.690   2.770  16.329  0.5421  0.2455 -0.3104
  604MPD2     H 8953   0.562   3.087  16.152  3.7280 -0.2506 -2.2384
  604MPD2    H1 8954   0.794   2.723  16.149  0.7197 -0.5194  1.6013
  604MPD2    H2 8955   0.582   2.836  16.500  1.1240 -1.0317  0.5472
  604MPD2    H3 8956   0.726   2.682  16.381  0.7837 -0.0580 -1.0001
  604MPD2     N 8957   0.722   2.944  16.003 -0.2622 -0.7059 -0.0953
  604MPD2    H5 8958   0.672   3.025  15.968  0.5957  0.4964  1.4631
  604MPD2    N1 8959   0.485   3.068  16.416 -0.6500 -1.0314 -0.1344
  604MPD2    H7 8960   0.481   3.051  16.516 -0.1535 -0.5079 -0.0298
  605TMC3    C1 8961   0.361   3.253  16.484  1.1186 -0.6367 -0.6456
  605TMC3    C2 8962   0.432   3.261  16.603 -0.3799  1.1063  0.3072
  605TMC3    C3 8963   0.421   3.376  16.677  0.2738 -0.3531  0.2309
  605TMC3    C4 8964   0.263   3.342  16.449  0.2509 -0.2942 -0.2035
  605TMC3    C5 8965   0.249   3.459  16.533  0.1431  0.1924 -0.4497
  605TMC3    C6 8966   0.330   3.472  16.640  0.2239  0.4703 -0.1496
  605TMC3     C 8967   0.413   3.177  16.369 -0.4258 -0.5530  0.5102
  605TMC3     O 8968   0.384   3.208  16.250  0.6128 -0.2803  0.0189
  605TMC3     H 8969   0.514   3.194  16.628 -1.9099 -0.1712  1.8456
  605TMC3    H1 8970   0.198   3.325  16.364  1.4771 -1.3346 -0.9240
  605TMC3    H2 8971   0.324   3.557  16.707 -1.6462  2.2937 -2.6556
  605TMC3    C7 8972   0.150   3.554  16.490  0.0817  0.3389  0.4213
  605TMC3    C8 8973   0.521   3.400  16.768  0.9421 -0.1939 -0.1050
  605TMC3    O1 8974   0.098   3.520  16.382 -1.3210  0.3207  0.9337
  605TMC3    O2 8975   0.558   3.518  16.772  0.3051 -0.6746  0.1997
  606TMC3    C1 8976   1.932   1.677  16.714 -0.4535  0.4442  0.8331
  606TMC3    C2 8977   1.967   1.715  16.841  0.4922 -0.3481 -0.4937
  606TMC3    C3 8978   1.925   1.639  16.944  0.0157  0.3913 -0.0352
  606TMC3    C4 8979   1.850   1.571  16.681 -0.5063 -0.5210  0.7054
  606TMC3    C5 8980   1.790   1.509  16.789 -0.3039  0.4440 -0.3071
  606TMC3    C6 8981   1.830   1.536  16.920 -0.2442 -0.2136  0.1119
  606TMC3     C 8982   1.950   1.777  16.611 -0.5553 -0.7277  0.2879
  606TMC3     O 8983   1.962   1.891  16.648 -1.2091 -0.4136 -0.3032
  606TMC3     H 8984   2.040   1.795  16.851 -0.6168  0.4556  1.2192
  606TMC3    H1 8985   1.819   1.561  16.578 -0.8104 -0.6620  0.8080
  606TMC3    H2 8986   1.796   1.472  17.000 -0.2711 -0.2571  0.0659
  606TMC3    C7 8987   1.695   1.410  16.763 -0.0509 -0.1493 -0.2711
  606TMC3    C8 8988   1.984   1.655  17.080  0.1282 -0.0664 -0.0049
  606TMC3    O1 8989   1.710   1.350  16.656  0.3563 -0.3729  0.2463
  606TMC3    O2 8990   2.099   1.696  17.086  0.4623  0.3168  0.2937
  607MPD2     C 8991   3.787   4.188  11.661 -0.0944  0.0465 -0.3477
  607MPD2    C1 8992   3.864   4.285  11.722  0.1984 -0.9083 -0.3961
  607MPD2    C2 8993   3.828   4.315  11.853  0.2194  0.3688 -0.7370
  607MPD2    C3 8994   3.723   4.245  11.916 -0.0469 -0.5018 -0.8240
  607MPD2    C4 8995   3.642   4.161  11.847  0.5017 -0.3525 -0.2441
  607MPD2    C5 8996   3.676   4.136  11.720  0.2166  0.1187  0.1573
  607MPD2     H 8997   3.876   4.385  11.921 -0.1192 -2.0149  1.9396
  607MPD2    H1 8998   3.563   4.105  11.895  2.4632 -3.2516 -0.4035
  607MPD2    H2 8999   3.832   4.149  11.570  1.9433  1.2212  0.1520
  607MPD2    H3 9000   3.625   4.057  11.666  1.8169 -1.5308  1.0724
  607MPD2     N 9001   3.705   4.279  12.054 -0.2591  0.2210  0.2056
  607MPD2    H5 9002   3.775   4.342  12.092  0.0791 -0.0830  0.0894
  607MPD2    N1 9003   3.978   4.357  11.682  0.0210 -0.3090 -0.7591
  607MPD2    H7 9004   4.031   4.418  11.743  0.1120 -0.7451 -0.4073
  608TMC3    C1 9005   4.168   4.403  11.572  0.1237  0.8764  0.6349
  608TMC3    C2 9006   4.240   4.381  11.682  0.2504 -0.0434 -0.1382
  608TMC3    C3 9007   4.363   4.437  11.700 -0.4292 -0.2106 -0.1687
  608TMC3    C4 9008   4.213   4.484  11.476  0.0055 -0.3536  0.1830
  608TMC3    C5 9009   4.328   4.552  11.497  0.0079  0.0200  0.1052
  608TMC3    C6 9010   4.400   4.531  11.611 -0.0236  0.3120  0.0296
  608TMC3     C 9011   4.034   4.345  11.561  0.3746 -0.3537 -0.3878
  608TMC3     O 9012   3.999   4.287  11.456 -0.4492 -0.0398  0.4845
  608TMC3     H 9013   4.219   4.292  11.740  0.2185  0.0035 -0.0779
  608TMC3    H1 9014   4.161   4.500  11.382 -0.4557  0.3723  0.5615
  608TMC3    H2 9015   4.498   4.577  11.624  0.3982 -0.7412  0.6392
  608TMC3    C7 9016   4.381   4.632  11.388  0.1094  0.3587 -0.1155
  608TMC3    C8 9017   4.413   4.455  11.837 -0.0014  0.0597  0.0259
  608TMC3    O1 9018   4.330   4.620  11.279  0.1159  0.2210 -0.8034
  608TMC3    O2 9019   4.523   4.507  11.854  0.4851 -0.0495  0.2424
  609TMC3    C1 9020   2.230   3.149   9.456  0.2955 -0.3872 -0.5230
  609TMC3    C2 9021   2.139   3.066   9.402 -0.4151  0.3509  0.7189
  609TMC3    C3 9022   2.174   2.944   9.353 -0.0566  0.0053  0.4064
  609TMC3    C4 9023   2.366   3.125   9.452 -0.1909 -0.4691 -0.4207
  609TMC3    C5 9024   2.397   2.994   9.402 -0.6988 -0.4926  0.2971
  609TMC3    C6 9025   2.305   2.910   9.354  0.2031  0.1269 -0.3216
  609TMC3     C 9026   2.179   3.267   9.526 -0.1550 -0.2410 -0.0535
  609TMC3     O 9027   2.055   3.285   9.525  0.0347  0.0259  0.2670
  609TMC3     H 9028   2.033   3.088   9.403 -0.6761 -0.9884  3.5391
  609TMC3    H1 9029   2.443   3.199   9.472  1.0936 -2.2565  1.2296
  609TMC3    H2 9030   2.328   2.808   9.325 -3.1660 -0.7575  0.0275
  609TMC3    C7 9031   2.542   2.957   9.420 -0.1922 -0.2192 -0.2750
  609TMC3    C8 9032   2.075   2.858   9.288 -0.2634 -0.5692  0.5360
  609TMC3    O1 9033   2.604   3.043   9.480  0.9118 -0.6483  0.9739
  609TMC3    O2 9034   2.108   2.745   9.269 -0.7173  0.3904 -0.1949
  610TMC3    C1 9035   3.846   4.259  13.217  0.6683 -0.8071 -0.2573
  610TMC3    C2 9036   3.708   4.269  13.207 -0.2283  0.4508 -0.1139
  610TMC3    C3 9037   3.633   4.177  13.138 -0.2829  0.1214  0.2491
  610TMC3    C4 9038   3.907   4.144  13.162 -0.5063  0.6344  0.3069
  610TMC3    C5 9039   3.831   4.063  13.091  0.5678  0.0467  0.2351
  610TMC3    C6 9040   3.699   4.071  13.076  0.0947 -0.6004 -0.1130
  610TMC3     C 9041   3.939   4.363  13.254 -0.1650  0.6926 -0.2149
  610TMC3     O 9042   4.056   4.347  13.228 -0.4006  0.2551  0.7335
  610TMC3     H 9043   3.660   4.361  13.237 -0.4088  1.3303 -3.0463
  610TMC3    H1 9044   4.013   4.124  13.172 -0.3900  0.7206 -0.7154
  610TMC3    H2 9045   3.640   4.000  13.019 -1.8927  1.9178 -1.2021
  610TMC3    C7 9046   3.905   3.947  13.033  1.1514 -0.0564 -0.9956
  610TMC3    C8 9047   3.489   4.191  13.156  0.0689  0.0309 -0.0835
  610TMC3    O1 9048   4.003   3.980  12.970  0.3561 -0.2200 -0.1856
  610TMC3    O2 9049   3.444   4.306  13.175 -0.1710 -0.3156 -0.5938
  611MPD2     C 9050   3.787   3.957   9.856  0.3228  0.7698 -0.2521
  611MPD2    C1 9051   3.762   4.069   9.938 -0.4228  0.6725 -0.3428
  611MPD2    C2 9052   3.842   4.186   9.927 -0.1120 -0.1010  0.0024
  611MPD2    C3 9053   3.936   4.196   9.825 -0.0889 -0.2567  0.2618
  611MPD2    C4 9054   3.953   4.084   9.749 -0.3005 -0.3617  0.6218
  611MPD2    C5 9055   3.880   3.968   9.760  0.1551  0.1564 -0.3147
  611MPD2     H 9056   3.835   4.266  10.000  0.3610 -1.0071  1.0480
  611MPD2    H1 9057   4.034   4.088   9.677 -1.2093  2.6236 -0.2380
  611MPD2    H2 9058   3.724   3.869   9.862  0.5480  0.6576  0.4376
  611MPD2    H3 9059   3.897   3.893   9.684 -0.3445  0.0201 -0.2869
  611MPD2     N 9060   4.017   4.308   9.798  0.4178  0.0398 -0.4927
  611MPD2    H5 9061   4.076   4.311   9.715  0.4231 -2.5220 -0.5932
  611MPD2    N1 9062   3.668   4.045  10.040 -0.0631 -0.2292  0.0039
  611MPD2    H7 9063   3.622   3.956  10.053  0.6932 -0.6838 -0.4017
  612TMC3    C1 9064   4.120   4.517   9.846 -0.8280  0.3002  0.0740
  612TMC3    C2 9065   4.209   4.567   9.943  0.2677 -0.5177 -0.1412
  612TMC3    C3 9066   4.310   4.654   9.904 -0.4249 -0.3079 -0.3505
  612TMC3    C4 9067   4.144   4.552   9.717  0.2777 -0.0532 -1.2169
  612TMC3    C5 9068   4.250   4.632   9.674  0.0386  0.9806 -0.6611
  612TMC3    C6 9069   4.337   4.681   9.768  0.6514 -0.9879 -0.6653
  612TMC3     C 9070   4.027   4.415   9.884 -0.0901 -0.0592 -0.0856
  612TMC3     O 9071   4.003   4.414   9.999 -0.1673  0.0678 -0.0245
  612TMC3     H 9072   4.180   4.557  10.047  1.1375  1.8896  0.3349
  612TMC3    H1 9073   4.071   4.522   9.643 -2.5037 -2.7549  2.5700
  612TMC3    H2 9074   4.420   0.022   9.743  0.0242 -1.0205 -2.8314
  612TMC3    C7 9075   4.260   4.673   9.535  0.1773 -0.2816  0.7350
  612TMC3    C8 9076   4.408   4.701   9.993  0.1585 -0.6476 -0.3555
  612TMC3    O1 9077   4.314   0.052   9.510  0.2127 -0.0024 -0.2382
  612TMC3    O2 9078   4.471   0.074   9.966  0.3163  0.4203 -0.4712
  613MPD2     C 9079   3.604   2.005  16.596  0.8150 -0.1426 -0.2818
  613MPD2    C1 9080   3.547   2.044  16.482 -0.0938 -0.4692 -0.1581
  613MPD2    C2 9081   3.415   2.012  16.457  0.3737  0.3355  0.0087
  613MPD2    C3 9082   3.340   1.941  16.544 -0.1899  0.4424 -0.3062
  613MPD2    C4 9083   3.398   1.912  16.666  0.6982  0.2198  1.0450
  613MPD2    C5 9084   3.525   1.950  16.688 -0.3043 -0.3973 -0.1957
  613MPD2     H 9085   3.379   2.021  16.355  0.4934  1.4179  0.0660
  613MPD2    H1 9086   3.344   1.869  16.749 -2.2039 -1.3402 -1.6893
  613MPD2    H2 9087   3.710   2.020  16.615  0.3736 -0.9402  2.7943
  613MPD2    H3 9088   3.570   1.921  16.782 -1.4145  4.9266  1.9778
  613MPD2     N 9089   3.217   1.878  16.517  0.2394  0.4769  0.4666
  613MPD2    H5 9090   3.176   1.811  16.582  1.5300 -1.8212 -1.0812
  613MPD2    N1 9091   3.635   2.103  16.383 -0.0575  0.4491 -1.0222
  613MPD2    H7 9092   3.735   2.089  16.398 -0.0099  1.8004 -0.1127
  614TMC3    C1 9093   3.688   2.143  16.158 -0.3493 -0.4786 -0.2900
  614TMC3    C2 9094   3.734   2.014  16.157 -1.1570 -0.4150  0.5510
  614TMC3    C3 9095   3.704   1.929  16.051  0.2835  0.0751 -0.2128
  614TMC3    C4 9096   3.641   2.188  16.040 -0.1726  0.0274  0.2111
  614TMC3    C5 9097   3.623   2.103  15.929  0.5274 -0.2901  0.1165
  614TMC3    C6 9098   3.649   1.965  15.934 -0.3410 -0.3437 -0.2625
  614TMC3     C 9099   3.598   2.161  16.265 -0.4717  0.3293  0.4817
  614TMC3     O 9100   3.486   2.203  16.239  0.2961 -0.4663 -0.2286
  614TMC3     H 9101   3.779   1.975  16.247  0.5409  0.7740  0.2097
  614TMC3    H1 9102   3.596   2.287  16.031  0.2343  0.1720 -0.2276
  614TMC3    H2 9103   3.617   1.896  15.857 -0.3687 -0.4675 -0.1415
  614TMC3    C7 9104   3.566   2.172  15.814 -0.2112  0.3251  0.3338
  614TMC3    C8 9105   3.653   1.801  16.096 -1.1084  0.4679 -0.1581
  614TMC3    O1 9106   3.631   2.265  15.768 -0.3764  0.1940 -0.5410
  614TMC3    O2 9107   3.629   1.792  16.218 -0.5683  0.4535  0.4662
  615MPD2     C 9108   2.559   3.500  16.151  0.2174  0.1924 -0.0829
  615MPD2    C1 9109   2.455   3.431  16.217  0.1304 -0.0612 -0.9164
  615MPD2    C2 9110   2.329   3.424  16.171  0.4357  0.9978  0.6182
  615MPD2    C3 9111   2.293   3.494  16.054  0.3759  0.2205  0.0011
  615MPD2    C4 9112   2.393   3.574  15.989 -0.8934 -0.4544  0.4909
  615MPD2    C5 9113   2.523   3.565  16.033  0.0552 -0.2756  0.0290
  615MPD2     H 9114   2.263   3.359  16.227 -1.5805  0.8937 -1.8766
  615MPD2    H1 9115   2.378   3.637  15.902 -0.2634 -0.2981  0.4929
  615MPD2    H2 9116   2.662   3.496  16.183  0.1154 -0.9724  0.0788
  615MPD2    H3 9117   2.603   3.608  15.974  2.4154 -2.4290  1.6789
  615MPD2     N 9118   2.170   3.498  15.997 -0.7786 -0.1625 -0.1439
  615MPD2    H5 9119   2.154   3.556  15.915 -1.4542  0.0767  0.1605
  615MPD2    N1 9120   2.475   3.356  16.336  0.0944  0.4582  0.0536
  615MPD2    H7 9121   2.388   3.312  16.364  0.7227 -0.5461  0.4423
  616TMC3    C1 9122   2.569   3.265  16.534  0.5181 -0.7005 -0.2562
  616TMC3    C2 9123   2.683   3.229  16.609  0.4044  0.7665 -0.3574
  616TMC3    C3 9124   2.672   3.185  16.740 -0.1157 -0.0614 -0.0570
  616TMC3    C4 9125   2.442   3.241  16.581 -0.6447 -1.2187 -0.2497
  616TMC3    C5 9126   2.435   3.183  16.705 -0.8235  0.4528 -0.3609
  616TMC3    C6 9127   2.544   3.161  16.791  0.1131 -0.5545  0.0149
  616TMC3     C 9128   2.587   3.335  16.409 -0.1381 -0.2765  0.5185
  616TMC3     O 9129   2.698   3.392  16.395  0.2075  0.1725 -0.1740
  616TMC3     H 9130   2.784   3.227  16.572  1.6967 -1.8130  3.2182
  616TMC3    H1 9131   2.356   3.244  16.514 -0.3123 -0.1491 -0.6233
  616TMC3    H2 9132   2.535   3.112  16.887 -0.0352  3.0112  1.8206
  616TMC3    C7 9133   2.300   3.136  16.749  0.3792  0.3644  0.0822
  616TMC3    C8 9134   2.788   3.161  16.826 -0.4966 -0.3627 -0.6111
  616TMC3    O1 9135   2.205   3.200  16.707 -0.1644  0.4052  0.0253
  616TMC3    O2 9136   2.774   3.090  16.924  0.1432  0.2807 -0.2884
  617MPD2     C 9137   0.346   1.454  13.831 -0.2406 -0.4507 -0.1812
  617MPD2    C1 9138   0.352   1.436  13.970 -0.2709 -0.4118  0.1100
  617MPD2    C2 9139   0.236   1.456  14.045 -0.2422 -0.0932 -0.4695
  617MPD2    C3 9140   0.118   1.462  13.975  0.0004  0.4292 -0.4994
  617MPD2    C4 9141   0.111   1.474  13.841  0.1143  0.6049 -0.0216
  617MPD2    C5 9142   0.227   1.473  13.769  0.5577 -0.5331 -0.4252
  617MPD2     H 9143   0.241   1.437  14.152  2.0754  2.9769 -0.0473
  617MPD2    H1 9144   0.017   1.480  13.788  0.0209 -0.1067  0.0650
  617MPD2    H2 9145   0.434   1.450  13.768 -0.0173  0.7667  0.0681
  617MPD2    H3 9146   0.226   1.475  13.660  1.7472 -1.9121 -0.4691
  617MPD2     N 9147   4.717   1.477  14.035 -0.0215 -0.4126  0.4412
  617MPD2    H5 9148   4.639   1.467  13.971  1.5239  1.3299 -1.7087
  617MPD2    N1 9149   0.471   1.391  14.024 -0.3980  0.5003 -0.0543
  617MPD2    H7 9150   0.544   1.382  13.955 -1.5153 -2.5730 -0.7960
  618TMC3    C1 9151   0.639   1.334  14.165  1.0669 -0.1353  0.2795
  618TMC3    C2 9152   0.690   1.246  14.074  0.5688 -0.2139  0.1925
  618TMC3    C3 9153   0.821   1.236  14.065 -0.9648 -0.0509 -0.1710
  618TMC3    C4 9154   0.714   1.432  14.232  0.1752 -0.6943  0.2695
  618TMC3    C5 9155   0.849   1.421  14.209 -0.2598  0.4149 -0.0031
  618TMC3    C6 9156   0.902   1.318  14.135 -0.2240 -0.4244  0.0265
  618TMC3     C 9157   0.503   1.377  14.155 -0.0300  0.1520  0.1937
  618TMC3     O 9158   0.447   1.424  14.253  0.2044 -0.2021 -0.5658
  618TMC3     H 9159   0.628   1.187  14.007  1.5092 -1.2361  0.2344
  618TMC3    H1 9160   0.669   1.508  14.296 -0.4954 -0.6009 -0.3152
  618TMC3    H2 9161   1.009   1.304  14.142 -0.3177 -0.0030  2.2179
  618TMC3    C7 9162   0.941   1.527  14.258 -0.3749  0.2923 -0.2393
  618TMC3    C8 9163   0.876   1.152  13.961 -0.4715  0.4676  0.2207
  618TMC3    O1 9164   0.924   1.557  14.375  0.6232 -0.2013 -0.2342
  618TMC3    O2 9165   0.804   1.065  13.912 -0.1708  0.2258 -0.0969
  619MPD2     C 9166   1.601   2.755  12.975  0.3305  0.3975  0.3818
  619MPD2    C1 9167   1.530   2.856  13.031  0.9845  0.1734 -0.3003
  619MPD2    C2 9168   1.442   2.830  13.134  0.4999 -0.1124  0.1725
  619MPD2    C3 9169   1.410   2.712  13.180 -0.2324  0.1734  0.2369
  619MPD2    C4 9170   1.485   2.609  13.130 -0.1768  0.1542 -0.5851
  619MPD2    C5 9171   1.577   2.629  13.031 -0.3190  0.3300 -0.5255
  619MPD2     H 9172   1.383   2.918  13.156 -1.2176 -1.0306 -0.7459
  619MPD2    H1 9173   1.465   2.506  13.158  0.6078 -0.9518 -4.1573
  619MPD2    H2 9174   1.663   2.760  12.886  0.7475  0.6544  0.6891
  619MPD2    H3 9175   1.636   2.543  13.001 -2.3050 -1.8157  1.7768
  619MPD2     N 9176   1.318   2.694  13.285  0.2863 -0.3347  0.0700
  619MPD2    H5 9177   1.297   2.598  13.308 -0.4863 -0.0378  0.5963
  619MPD2    N1 9178   1.544   2.986  12.985 -0.7104 -0.5165  0.3531
  619MPD2    H7 9179   1.489   3.057  13.031 -2.3701 -0.8295 -1.1436
  620TMC3    C1 9180   1.554   3.161  12.839  0.1662 -0.8018 -0.1523
  620TMC3    C2 9181   1.419   3.164  12.824  0.0283  0.5403  0.2511
  620TMC3    C3 9182   1.370   3.268  12.751  0.6149 -0.0075  0.3739
  620TMC3    C4 9183   1.641   3.256  12.794 -0.0229 -0.4657  0.2147
  620TMC3    C5 9184   1.588   3.362  12.722 -0.0943  0.0097  0.4572
  620TMC3    C6 9185   1.452   3.363  12.696 -0.5888 -0.6710  0.2373
  620TMC3     C 9186   1.606   3.027  12.869 -0.1357 -0.4756  0.6314
  620TMC3     O 9187   1.692   2.986  12.793 -0.6547 -0.2868  1.1249
  620TMC3     H 9188   1.348   3.088  12.856  0.0536  0.3246 -0.2003
  620TMC3    H1 9189   1.749   3.256  12.803  0.0716 -0.3136 -0.9524
  620TMC3    H2 9190   1.407   3.427  12.620  0.1849 -1.1450 -0.6137
  620TMC3    C7 9191   1.649   3.496  12.738 -0.5753  0.2941 -0.0725
  620TMC3    C8 9192   1.272   3.339  12.822 -0.0021 -0.0832 -0.0015
  620TMC3    O1 9193   1.773   3.512  12.755 -0.0504  0.2342  0.0117
  620TMC3    O2 9194   1.274   3.461  12.819  0.3449  0.0009 -0.4432
  621MPD2     C 9195   1.925   2.892  10.483  0.4381  0.2033 -0.0150
  621MPD2    C1 9196   2.044   2.820  10.503  0.3583  1.0464 -0.1310
  621MPD2    C2 9197   2.148   2.845  10.410  0.1547 -1.0927  0.9737
  621MPD2    C3 9198   2.128   2.937  10.310  0.4315  0.2328  0.3770
  621MPD2    C4 9199   2.005   3.012  10.300  0.5493 -0.1608 -0.1568
  621MPD2    C5 9200   1.909   2.986  10.389  0.8053  0.3937 -0.3596
  621MPD2     H 9201   2.243   2.796  10.428 -0.0944 -1.8965  0.0777
  621MPD2    H1 9202   1.983   3.100  10.241 -3.5112 -0.8720  0.3093
  621MPD2    H2 9203   1.835   2.873  10.540  0.5694 -1.1465 -0.2482
  621MPD2    H3 9204   1.819   3.046  10.391 -0.2553 -1.1898 -0.7466
  621MPD2     N 9205   2.235   2.955  10.231 -0.0637  0.2881  0.1201
  621MPD2    H5 9206   2.324   2.912  10.255 -0.7676 -1.5261 -0.5088
  621MPD2    N1 9207   2.050   2.735  10.615  0.0401 -0.4768  0.5383
  621MPD2    H7 9208   1.972   2.726  10.678  0.2386  1.9868  1.1261
  622TMC3    C1 9209   2.137   2.592  10.773 -0.3161  0.3682 -0.8879
  622TMC3    C2 9210   2.030   2.622  10.853 -0.7220 -0.3416  0.7386
  622TMC3    C3 9211   1.991   2.531  10.951 -0.3754  0.2743 -0.5934
  622TMC3    C4 9212   2.193   2.471  10.786  0.3915 -0.2866 -0.1677
  622TMC3    C5 9213   2.150   2.379  10.881  0.0906  0.2435  0.0056
  622TMC3    C6 9214   2.054   2.416  10.977 -0.1165 -0.4162 -1.1525
  622TMC3     C 9215   2.159   2.660  10.645 -0.9668 -0.3976 -0.2013
  622TMC3     O 9216   2.263   2.633  10.588 -0.1862  0.1800  0.2074
  622TMC3     H 9217   1.980   2.715  10.830  2.3112  1.1393  0.1754
  622TMC3    H1 9218   2.281   2.459  10.724  0.3761  1.8987 -0.6496
  622TMC3    H2 9219   2.018   2.351  11.055  0.2898 -0.4767 -1.0163
  622TMC3    C7 9220   2.160   2.242  10.841 -0.4134  0.3693  0.0487
  622TMC3    C8 9221   1.888   2.567  11.050 -0.4635  0.2605 -0.6493
  622TMC3    O1 9222   2.118   2.149  10.911 -0.2036 -0.4913  0.1865
  622TMC3    O2 9223   1.904   2.514  11.159 -0.0399 -0.0409 -0.1650
  623MPD2     C 9224   1.049   3.858  16.111 -0.0910  0.3500 -0.0637
  623MPD2    C1 9225   0.969   3.882  16.217  0.0957  0.1100 -0.0328
  623MPD2    C2 9226   1.017   3.862  16.347 -0.5741 -0.1910 -0.5244
  623MPD2    C3 9227   1.138   3.795  16.367  0.0855 -0.7707  0.7796
  623MPD2    C4 9228   1.220   3.760  16.255  0.6474  0.5458  0.1872
  623MPD2    C5 9229   1.172   3.796  16.131  0.4231 -0.3756  0.1969
  623MPD2     H 9230   0.958   3.890  16.433  0.2219  0.3600 -0.1522
  623MPD2    H1 9231   1.318   3.714  16.258 -0.0989 -1.0967 -0.7718
  623MPD2    H2 9232   1.012   3.884  16.013 -0.9290  1.0646  0.4317
  623MPD2    H3 9233   1.231   3.778  16.043  0.4384 -0.2841  0.1886
  623MPD2     N 9234   1.169   3.768  16.501  0.1838 -0.0418  0.0643
  623MPD2    H5 9235   1.101   3.801  16.569  1.2037  0.6067  0.7583
  623MPD2    N1 9236   0.831   3.911  16.190 -0.0217  1.0721  0.2636
  623MPD2    H7 9237   0.806   3.911  16.092  1.8009 -1.5412 -0.1868
  624TMC3    C1 9238   1.398   3.552  16.854  0.6080  0.6216  0.0937
  624TMC3    C2 9239   1.282   3.515  16.913  0.6686 -1.0103  0.3452
  624TMC3    C3 9240   1.169   3.545  16.842  0.8930  0.1429 -0.6650
  624TMC3    C4 9241   1.407   3.631  16.742 -0.6109  0.3778  0.4261
  624TMC3    C5 9242   1.288   3.656  16.680  0.1497  0.9373  0.6021
  624TMC3    C6 9243   1.168   3.621  16.732 -0.6278  0.1978 -0.2487
  624TMC3     C 9244   1.518   3.522  16.921 -0.0369 -0.0297  0.0230
  624TMC3     O 9245   1.517   3.483  17.032  0.2669  0.2407  0.0642
  624TMC3     H 9246   1.272   3.466  17.010  1.5735 -0.3599  0.7679
  624TMC3    H1 9247   1.496   3.690  16.727 -1.9946  1.6318 -2.7944
  624TMC3    H2 9248   1.068   3.649  16.700 -0.5999  1.3888  0.6868
  624TMC3    C7 9249   1.286   3.709  16.540 -0.2889  0.3334 -1.0715
  624TMC3    C8 9250   1.035   3.507  16.897  0.2818  0.0366  0.3467
  624TMC3    O1 9251   1.393   3.701  16.483  0.3665 -0.4495 -0.6103
  624TMC3    O2 9252   0.939   3.581  16.875 -0.2784 -0.1375 -0.2536
  625MPD2     C 9253   1.131   0.361   1.123 -0.1766  0.3125 -0.0478
  625MPD2    C1 9254   1.173   0.430   1.011  1.1557  0.1734  0.7408
  625MPD2    C2 9255   1.310   0.451   0.989  0.2653 -0.1614 -0.0507
  625MPD2    C3 9256   1.399   0.409   1.079 -0.3366 -0.1514  0.2258
  625MPD2    C4 9257   1.350   0.348   1.193 -0.8296  0.0718 -0.3611
  625MPD2    C5 9258   1.222   0.334   1.218  0.3799  0.5890  0.3811
  625MPD2     H 9259   1.345   0.508   0.903 -0.9893  0.6021 -0.0515
  625MPD2    H1 9260   1.420   0.306   1.265  0.3540 -1.2584 -2.2910
  625MPD2    H2 9261   1.032   0.331   1.156  0.0374  0.4613  0.7325
  625MPD2    H3 9262   1.186   0.282   1.306 -0.8224 -0.9167 -0.9956
  625MPD2     N 9263   1.536   0.419   1.043 -0.0971  0.2362  0.5493
  625MPD2    H5 9264   1.556   0.465   0.955  0.9337  0.8875  1.1276
  625MPD2    N1 9265   1.081   0.489   0.911  0.5352  0.2207 -0.1971
  625MPD2    H7 9266   1.115   0.540   0.830 -0.1481 -1.6305 -1.6465
  626TMC3    C1 9267   0.876   0.574   0.827  0.3355 -0.7223 -0.2044
  626TMC3    C2 9268   0.927   0.580   0.702 -0.2055 -0.1898  0.5851
  626TMC3    C3 9269   0.850   0.637   0.605 -0.5463  1.2470 -0.3419
  626TMC3    C4 9270   0.747   0.605   0.854 -0.3227  0.0062  0.4863
  626TMC3    C5 9271   0.664   0.652   0.754 -0.3116 -0.0820 -0.2814
  626TMC3    C6 9272   0.717   0.673   0.623  0.4236 -0.3020 -0.0123
  626TMC3     C 9273   0.944   0.487   0.924 -0.4317 -0.0207  0.6283
  626TMC3     O 9274   0.872   0.435   1.009 -0.5437  0.1729  0.0095
  626TMC3     H 9275   1.019   0.529   0.678  0.3660  0.5891  1.1274
  626TMC3    H1 9276   0.700   0.569   0.944 -1.4660  0.3349  0.0244
  626TMC3    H2 9277   0.654   0.715   0.546  1.1442  1.5579  0.4288
  626TMC3    C7 9278   0.526   0.656   0.780  0.2157  0.6150  0.5017
  626TMC3    C8 9279   0.887   0.598   0.469 -0.2395  0.0599 -0.1938
  626TMC3    O1 9280   0.450   0.653   0.682 -0.8393 -0.4752 -0.5885
  626TMC3    O2 9281   0.970   0.660   0.407 -0.2370  0.5123 -0.4822
  627MPD2     C 9282   4.094   0.227  14.421 -0.5580  0.2694 -0.2734
  627MPD2    C1 9283   4.213   0.181  14.458 -0.8570  0.4992 -0.6550
  627MPD2    C2 9284   4.247   0.050  14.426  0.3225  0.2550 -0.3527
  627MPD2    C3 9285   4.154   4.696  14.358 -0.6719  0.0020 -0.3658
  627MPD2    C4 9286   4.029   0.021  14.330  0.3762 -0.1710 -0.1637
  627MPD2    C5 9287   4.001   0.151  14.348 -0.0741 -0.6542  0.2376
  627MPD2     H 9288   4.342   0.002  14.447  0.0571  0.0214  0.3152
  627MPD2    H1 9289   3.954   4.689  14.275  0.9198  1.5624 -2.7058
  627MPD2    H2 9290   4.068   0.331  14.436  0.9358  0.8567 -1.7415
  627MPD2    H3 9291   3.916   0.203  14.304  1.8432  1.9084 -0.4647
  627MPD2     N 9292   4.186   4.561  14.332 -0.6779  0.3675 -0.2650
  627MPD2    H5 9293   4.273   4.525  14.371 -1.3020 -2.0280 -1.0438
  627MPD2    N1 9294   4.302   0.247  14.544  0.0451 -0.6892 -0.2146
  627MPD2    H7 9295   4.379   0.192  14.581  1.1101  1.2094  0.4119
  628TMC3    C1 9296   4.420   0.432  14.634  0.4456 -0.1339  0.3710
  628TMC3    C2 9297   4.537   0.363  14.612  0.2192 -0.6946 -0.3854
  628TMC3    C3 9298   4.639   0.395  14.694  0.1792  1.0034  0.0933
  628TMC3    C4 9299   4.407   0.540  14.713  0.3578 -0.3271 -1.0176
  628TMC3    C5 9300   4.516   0.574  14.786  0.1895 -0.1756 -0.3641
  628TMC3    C6 9301   4.635   0.507  14.776 -0.4161  0.3648 -0.3594
  628TMC3     C 9302   4.294   0.381  14.580 -0.0043 -0.3325  0.6383
  628TMC3     O 9303   4.202   0.459  14.564  0.3319 -0.4420  0.0321
  628TMC3     H 9304   4.550   0.282  14.540  0.2709  0.9476 -2.2202
  628TMC3    H1 9305   4.314   0.597  14.721  0.6318  0.1629 -1.3362
  628TMC3    H2 9306   0.004   0.551  14.808 -0.7909 -0.1025  1.4336
  628TMC3    C7 9307   4.529   0.706  14.843  0.2789 -0.7721  0.3286
  628TMC3    C8 9308   0.051   0.339  14.662 -0.4394  0.5906 -0.2704
  628TMC3    O1 9309   4.603   0.714  14.941  0.3227 -0.1653 -0.4491
  628TMC3    O2 9310   0.057   0.261  14.561 -0.1978  0.2612 -0.0631
  629MPD2     C 9311   3.261   3.274  16.997  0.1831  0.1662  0.3590
  629MPD2    C1 9312   3.222   3.363  16.900 -0.1824  0.1297 -0.4444
  629MPD2    C2 9313   3.105   3.352  16.833  0.0404  0.1030  0.3467
  629MPD2    C3 9314   3.018   3.251  16.873 -0.0519  0.1100  0.0746
  629MPD2    C4 9315   3.044   3.168  16.978 -0.8377 -0.1336 -0.4707
  629MPD2    C5 9316   3.166   3.174  17.026  0.3337  0.5461 -0.1083
  629MPD2     H 9317   3.078   3.417  16.750  0.7954  0.9978  0.7966
  629MPD2    H1 9318   2.986   3.082  17.009 -0.2108 -0.4708 -0.2333
  629MPD2    H2 9319   3.360   3.274  17.041  0.5613  0.6836 -0.5066
  629MPD2    H3 9320   3.198   3.109  17.107  0.6169  2.4248  1.2911
  629MPD2     N 9321   2.895   3.245  16.804 -0.5134  0.1151  0.4356
  629MPD2    H5 9322   2.889   3.310  16.726 -0.2071 -1.0937 -0.6015
  629MPD2    N1 9323   3.317   3.464  16.866  0.0279  0.0861  0.3601
  629MPD2    H7 9324   3.405   3.463  16.916 -0.1960 -0.8574  0.7374
  630TMC3    C1 9325   3.417   3.648  16.757  0.2256  0.2478 -0.4654
  630TMC3    C2 9326   3.416   3.745  16.663  0.4265  0.5795  0.0665
  630TMC3    C3 9327   3.503   3.849  16.692  0.7257  0.8709 -0.4829
  630TMC3    C4 9328   3.494   3.650  16.873  0.1283 -0.8284  0.2493
  630TMC3    C5 9329   3.584   3.755  16.897  0.7123  0.3436 -0.2148
  630TMC3    C6 9330   3.580   3.858  16.804  0.1651 -0.0134 -0.3247
  630TMC3     C 9331   3.312   3.554  16.761 -0.0391 -0.4472  0.7480
  630TMC3     O 9332   3.230   3.560  16.672  0.2775  0.3835 -0.6141
  630TMC3     H 9333   3.358   3.731  16.573 -1.3476 -0.2954  1.3323
  630TMC3    H1 9334   3.517   3.555  16.920  0.7860  0.8816  3.3656
  630TMC3    H2 9335   3.637   3.949  16.822 -1.9417  1.4549 -1.0890
  630TMC3    C7 9336   3.682   3.746  17.009 -0.0971  0.3244  0.0840
  630TMC3    C8 9337   3.543   3.950  16.592  1.5274  0.0331  0.4250
  630TMC3    O1 9338   3.676   3.646  17.081  0.0774 -0.6552  0.6540
  630TMC3    O2 9339   3.658   3.990  16.606  0.0320  0.2431  0.6742
  631MPD2     C 9340   1.171   3.292  15.762  0.5353  0.0327  0.4356
  631MPD2    C1 9341   1.253   3.333  15.658 -0.1197  0.1756  0.0945
  631MPD2    C2 9342   1.389   3.331  15.685 -0.4317  0.1999 -0.0773
  631MPD2    C3 9343   1.437   3.277  15.798 -0.1944  0.4562  0.2791
  631MPD2    C4 9344   1.356   3.241  15.901 -0.1077  0.8737  0.9060
  631MPD2    C5 9345   1.224   3.242  15.876 -0.2007 -0.0549 -0.8937
  631MPD2     H 9346   1.466   3.374  15.622  0.9107  1.4924  2.4239
  631MPD2    H1 9347   1.396   3.195  15.991 -0.4058 -0.7087  0.2224
  631MPD2    H2 9348   1.063   3.294  15.758  0.5842  2.2578 -0.0409
  631MPD2    H3 9349   1.164   3.196  15.953  1.1125  0.4934  0.4646
  631MPD2     N 9350   1.578   3.285  15.819 -0.2697  0.2233 -0.4292
  631MPD2    H5 9351   1.628   3.329  15.742 -0.4908  0.3451 -0.5039
  631MPD2    N1 9352   1.191   3.392  15.548  0.2532  0.6288 -0.2191
  631MPD2    H7 9353   1.090   3.404  15.550 -0.3273 -3.8493 -1.2000
  632TMC3    C1 9354   1.181   3.510  15.341 -0.0135  0.1615  0.3449
  632TMC3    C2 9355   1.075   3.578  15.387 -0.1267  0.5295 -0.3370
  632TMC3    C3 9356   1.034   3.677  15.303  0.4666  0.0870 -0.1237
  632TMC3    C4 9357   1.250   3.524  15.229  0.0031  0.0657  0.8823
  632TMC3    C5 9358   1.205   3.623  15.142 -0.3495 -0.9193 -0.3789
  632TMC3    C6 9359   1.089   3.695  15.178 -0.2544 -0.1549  0.2752
  632TMC3     C 9360   1.265   3.445  15.442 -0.5577  0.1429  0.1003
  632TMC3     O 9361   1.383   3.428  15.416 -1.0450 -0.5150 -0.2086
  632TMC3     H 9362   1.031   3.576  15.486  0.3504 -1.9541 -0.1683
  632TMC3    H1 9363   1.330   3.454  15.209 -0.2515  0.0077  0.0331
  632TMC3    H2 9364   1.070   3.779  15.113 -0.4220 -0.0318  0.4832
  632TMC3    C7 9365   1.306   3.706  15.080  0.0444  0.0568 -0.3662
  632TMC3    C8 9366   0.928   3.762  15.348 -0.6854 -0.0739 -0.1228
  632TMC3    O1 9367   1.271   3.799  15.006 -0.2919 -0.8717  0.8451
  632TMC3    O2 9368   0.835   3.707  15.407  0.4779  0.2608 -0.5518
  633MPD2     C 9369   1.078   1.831  17.361  0.1268  0.1281  0.1481
  633MPD2    C1 9370   1.059   1.774  17.236 -0.5764 -0.1237 -0.3850
  633MPD2    C2 9371   1.049   1.635  17.220  0.4574  0.4576  0.1009
  633MPD2    C3 9372   1.052   1.547  17.330 -0.1894  0.0418 -0.1256
  633MPD2    C4 9373   1.079   1.605  17.451  1.6763 -1.3487  0.5474
  633MPD2    C5 9374   1.088   1.744  17.467 -0.0386 -0.0156  0.3530
  633MPD2     H 9375   1.044   1.596  17.119 -0.0425  0.8760 -0.0345
  633MPD2    H1 9376   1.085   1.546  17.542 -0.0673 -0.1204  1.4682
  633MPD2    H2 9377   1.086   1.937  17.382  0.3833 -0.3085  2.2525
  633MPD2    H3 9378   1.102   1.787  17.565  0.6429  0.5714  0.0041
  633MPD2     N 9379   1.033   1.408  17.319 -0.4014 -0.3999 -0.0207
  633MPD2    H5 9380   1.078   1.350  17.389 -1.8401 -1.0518  0.3637
  633MPD2    N1 9381   1.051   1.853  17.117 -0.4511  0.4501  0.2093
  633MPD2    H7 9382   1.047   1.799  17.032 -0.5692  1.0013 -0.1346
  634TMC3    C1 9383   1.117   2.021  16.974 -0.1787  0.2292 -0.1560
  634TMC3    C2 9384   1.161   1.924  16.890 -0.0880  0.2019 -0.3475
  634TMC3    C3 9385   1.173   1.961  16.757 -0.2002 -0.3224 -0.0077
  634TMC3    C4 9386   1.077   2.141  16.935 -0.1488  0.3315  0.0509
  634TMC3    C5 9387   1.086   2.168  16.800 -0.3163  0.0872  0.2287
  634TMC3    C6 9388   1.140   2.084  16.706  0.2676  0.4624 -0.4112
  634TMC3     C 9389   1.072   1.987  17.105  0.5892  0.1128  0.2549
  634TMC3     O 9390   1.055   2.080  17.180  0.6128  0.0189 -0.4526
  634TMC3     H 9391   1.196   1.829  16.929  1.6341  1.2377  0.6452
  634TMC3    H1 9392   1.021   2.205  17.001  1.7006  0.7934  1.1584
  634TMC3    H2 9393   1.131   2.105  16.601 -1.1356  3.1601  0.2554
  634TMC3    C7 9394   1.042   2.295  16.744 -0.5340  0.4179  0.6462
  634TMC3    C8 9395   1.185   1.850  16.659  0.1935 -0.2425  0.0383
  634TMC3    O1 9396   1.033   2.303  16.624 -0.1421  0.2473  0.1132
  634TMC3    O2 9397   1.168   1.736  16.696  0.0778  0.1426 -0.3641
  635TMC3    C1 9398   2.461   2.536   0.059 -0.3699 -0.8174 -0.3111
  635TMC3    C2 9399   2.596   2.557   0.086 -0.5397  0.4925  0.7938
  635TMC3    C3 9400   2.686   2.460   0.057 -1.1867  0.3103 -0.2949
  635TMC3    C4 9401   2.417   2.427  17.691 -0.1294  0.2109  0.4802
  635TMC3    C5 9402   2.506   2.335  17.655 -0.0399 -0.6343 -0.1455
  635TMC3    C6 9403   2.641   2.350  17.690 -0.5497 -0.5344 -0.0824
  635TMC3     C 9404   2.363   2.637   0.099 -0.4693 -0.6049  0.6224
  635TMC3     O 9405   2.403   2.742   0.148  0.1355  0.2881 -0.1106
  635TMC3     H 9406   2.624   2.643   0.146 -2.2249  2.1539 -0.7912
  635TMC3    H1 9407   2.313   2.398  17.675  0.1704 -1.1299  0.9759
  635TMC3    H2 9408   2.707   2.265  17.676  1.0212  0.9714 -1.7849
  635TMC3    C7 9409   2.457   2.199  17.652  0.2427 -0.1353  0.1462
  635TMC3    C8 9410   2.836   2.472   0.070  0.0075 -0.5755  0.4650
  635TMC3    O1 9411   2.512   2.127   0.037  0.4410  0.2190  0.3114
  635TMC3    O2 9412   2.897   2.387   0.004  0.2775 -0.1821 -0.3211
  636MPD2     C 9413   2.558   2.058  15.782  0.4737  0.7505  0.0923
  636MPD2    C1 9414   2.580   2.137  15.893  0.4422 -0.4110 -0.3125
  636MPD2    C2 9415   2.636   2.080  16.004  0.0606  0.4964  0.0944
  636MPD2    C3 9416   2.672   1.947  16.011  0.2636 -0.5182  0.7979
  636MPD2    C4 9417   2.642   1.873  15.898 -0.0398  0.2976 -0.1438
  636MPD2    C5 9418   2.588   1.930  15.782  0.4562 -0.3938  0.0400
  636MPD2     H 9419   2.665   2.152  16.079  0.2037  1.6187 -1.0405
  636MPD2    H1 9420   2.673   1.770  15.886 -0.1383  0.2991 -0.3889
  636MPD2    H2 9421   2.518   2.100  15.690  0.7107 -2.7479 -1.5719
  636MPD2    H3 9422   2.573   1.861  15.700 -0.1541 -1.3142  0.9263
  636MPD2     N 9423   2.753   1.892  16.114  1.0491  0.1695 -0.2184
  636MPD2    H5 9424   2.777   1.959  16.187  2.0613 -0.2536 -0.1631
  636MPD2    N1 9425   2.545   2.274  15.895 -0.5609 -0.0893 -0.7691
  636MPD2    H7 9426   2.555   2.335  15.975 -0.6471 -2.5822  1.1202
  637TMC3    C1 9427   2.875   1.720  16.227  0.6373  0.0565  0.0787
  637TMC3    C2 9428   2.944   1.812  16.297  1.0309  0.0575  0.0590
  637TMC3    C3 9429   3.045   1.779  16.384  0.6484  0.7837  0.0589
  637TMC3    C4 9430   2.914   1.591  16.235 -0.4737 -0.0426  0.0327
  637TMC3    C5 9431   3.015   1.551  16.323  0.3006  0.0150  0.5112
  637TMC3    C6 9432   3.080   1.649  16.401 -0.6316  0.1511  0.4621
  637TMC3     C 9433   2.780   1.752  16.126  0.1910 -0.0980  0.0076
  637TMC3     O 9434   2.711   1.664  16.079  0.4021  0.3907 -0.0741
  637TMC3     H 9435   2.930   1.919  16.288 -0.7542 -0.2783 -1.0996
  637TMC3    H1 9436   2.879   1.517  16.165 -1.5692  0.9005 -0.4206
  637TMC3    H2 9437   3.170   1.616  16.451  0.5198 -0.7476 -2.1835
  637TMC3    C7 9438   3.109   1.467  16.249  0.3351  0.2772  0.3809
  637TMC3    C8 9439   3.150   1.885  16.399  0.4954  0.0059  0.0219
  637TMC3    O1 9440   3.075   1.349  16.228 -0.4019 -0.3635  0.2194
  637TMC3    O2 9441   3.170   1.958  16.302  0.0915  0.9958  0.5924
  638MPD2     C 9442   2.345   0.874  15.417  0.2162 -0.1168  0.0757
  638MPD2    C1 9443   2.250   0.810  15.337  0.8547 -0.0769 -0.2627
  638MPD2    C2 9444   2.197   0.692  15.378 -0.4185  0.1295 -0.0318
  638MPD2    C3 9445   2.242   0.634  15.491 -0.4220 -0.1106  0.4052
  638MPD2    C4 9446   2.343   0.695  15.562  0.0648 -0.6854  0.3719
  638MPD2    C5 9447   2.388   0.816  15.532 -0.2541  0.0105  0.3316
  638MPD2     H 9448   2.125   0.635  15.321 -0.4905 -0.0389  0.2250
  638MPD2    H1 9449   2.394   0.655  15.649 -0.7904  0.0144  1.1868
  638MPD2    H2 9450   2.393   0.969  15.392  1.5836 -0.4653  1.3922
  638MPD2    H3 9451   2.454   0.867  15.601  1.1075 -0.6253 -0.5178
  638MPD2     N 9452   2.206   0.504  15.524  0.1258  0.2168 -0.1558
  638MPD2    H5 9453   2.272   0.440  15.567 -0.0270 -0.2389 -0.5938
  638MPD2    N1 9454   2.209   0.879  15.221  0.6933  0.3210  0.0615
  638MPD2    H7 9455   2.249   0.970  15.201  1.5052  0.1511  0.9022
  639TMC3    C1 9456   2.109   0.320  15.411 -0.2863  0.8122 -0.1829
  639TMC3    C2 9457   2.056   0.291  15.291  0.0043  0.1072  0.0572
  639TMC3    C3 9458   2.115   0.207  15.191  0.4137  0.1858 -0.3768
  639TMC3    C4 9459   2.225   0.251  15.440 -0.2027  0.4767  0.3220
  639TMC3    C5 9460   2.284   0.170  15.344  0.2163  0.2534  0.4882
  639TMC3    C6 9461   2.237   0.150  15.218 -0.1278 -0.1740 -0.6735
  639TMC3     C 9462   2.091   0.449  15.468 -0.0892 -0.2054  0.1014
  639TMC3     O 9463   1.986   0.503  15.444 -1.2835  0.1193 -0.3811
  639TMC3     H 9464   1.964   0.343  15.267 -0.3744 -1.1637 -1.2727
  639TMC3    H1 9465   2.276   0.254  15.536 -0.5072  1.2252  0.4580
  639TMC3    H2 9466   2.274   0.077  15.147  1.8284 -1.5367  1.7494
  639TMC3    C7 9467   2.424   0.122  15.379  0.2224 -0.0823  0.4355
  639TMC3    C8 9468   2.046   0.191  15.064  0.4754  1.3569 -0.3644
  639TMC3    O1 9469   2.432   0.070  15.489 -0.1371  0.0060 -0.0877
  639TMC3    O2 9470   2.101   0.169  14.956  0.7996  0.0471 -0.1748
  640MPD2     C 9471   2.072   3.887   9.264  0.8969  0.3853 -0.2784
  640MPD2    C1 9472   2.145   3.856   9.372  0.2206 -0.3151 -0.4205
  640MPD2    C2 9473   2.106   3.913   9.493 -0.3381 -0.1146  0.2556
  640MPD2    C3 9474   1.983   3.984   9.504  0.8901  0.6539  0.6221
  640MPD2    C4 9475   1.894   3.978   9.390 -0.2902 -0.7726  0.0552
  640MPD2    C5 9476   1.947   3.938   9.268 -0.3731  0.2011  1.0366
  640MPD2     H 9477   2.177   3.913   9.575 -0.9699 -0.2571  0.7967
  640MPD2    H1 9478   1.794   4.019   9.384 -1.5513 -3.8449  0.5281
  640MPD2    H2 9479   2.111   3.853   9.169 -0.2552 -2.0631  0.1155
  640MPD2    H3 9480   1.885   3.957   9.181 -0.1149 -1.2306  0.5457
  640MPD2     N 9481   1.930   4.028   9.623 -0.0619  0.1489 -0.1198
  640MPD2    H5 9482   1.840   4.075   9.621  0.8411  1.9163  0.9294
  640MPD2    N1 9483   2.257   3.774   9.352  0.0592 -0.3452  1.0880
  640MPD2    H7 9484   2.264   3.727   9.263  3.2421  0.4529  0.9237
  641TMC3    C1 9485   2.443   3.634   9.388  0.8492 -0.0419 -0.2797
  641TMC3    C2 9486   2.554   3.608   9.462 -1.0228  0.7533  0.4148
  641TMC3    C3 9487   2.629   3.493   9.437  0.4295 -0.4577 -0.1226
  641TMC3    C4 9488   2.410   3.554   9.287  0.2082  0.0213 -1.0632
  641TMC3    C5 9489   2.488   3.451   9.249  0.6025  0.1065  0.0023
  641TMC3    C6 9490   2.607   3.420   9.325  0.5038  0.0820  0.8533
  641TMC3     C 9491   2.350   3.736   9.450 -0.0188 -0.2754  0.0467
  641TMC3     O 9492   2.380   3.774   9.566 -0.2126 -0.1619 -0.4868
  641TMC3     H 9493   2.576   3.679   9.542  1.7321 -2.8039  2.8036
  641TMC3    H1 9494   2.323   3.568   9.223 -0.6101 -2.0084 -0.3717
  641TMC3    H2 9495   2.674   3.343   9.289 -0.5509 -0.7460  0.6666
  641TMC3    C7 9496   2.443   3.362   9.143 -0.1594  0.2434 -0.7674
  641TMC3    C8 9497   2.751   3.467   9.497 -1.2240  0.2285  0.6077
  641TMC3    O1 9498   2.347   3.401   9.078 -0.5660  0.2889  0.1237
  641TMC3    O2 9499   2.826   3.396   9.435  0.0980 -0.1872  0.0132
  642TMC3    C1 9500   3.940   0.608  12.165 -0.2661 -0.8370 -0.7482
  642TMC3    C2 9501   4.065   0.556  12.159  0.0875  0.3394  0.1342
  642TMC3    C3 9502   4.080   0.435  12.095 -0.0465 -0.0242  1.1788
  642TMC3    C4 9503   3.835   0.532  12.121  0.5223 -0.1735 -0.1709
  642TMC3    C5 9504   3.856   0.408  12.064  0.1370 -0.1339 -0.2144
  642TMC3    C6 9505   3.981   0.356  12.052 -0.1666 -0.0926 -0.0568
  642TMC3     C 9506   3.922   0.733  12.240  0.6045 -0.2049  0.5800
  642TMC3     O 9507   4.025   0.799  12.263  0.2172  0.6169 -0.3380
  642TMC3     H 9508   4.147   0.620  12.187 -1.3015  2.4983 -0.6937
  642TMC3    H1 9509   3.737   0.574  12.103  2.0197  3.1493 -0.6508
  642TMC3    H2 9510   3.986   0.260  12.001  0.7439 -0.0119 -0.1251
  642TMC3    C7 9511   3.743   0.325  12.015 -0.3471  0.6362 -0.1072
  642TMC3    C8 9512   4.218   0.376  12.087  0.7685 -0.5629  0.5717
  642TMC3    O1 9513   3.758   0.253  11.916 -0.4875  0.0898 -0.2403
  642TMC3    O2 9514   4.233   0.270  12.026 -0.2526 -0.6143  0.3551
  643TMC3    C1 9515   2.624   0.220   0.311 -0.7553 -0.8632  0.3253
  643TMC3    C2 9516   2.502   0.244   0.242  0.1896  0.5656  0.6215
  643TMC3    C3 9517   2.483   0.158   0.138  0.0016 -0.1988  0.3857
  643TMC3    C4 9518   2.717   0.126   0.276  0.4733  0.4035 -0.6725
  643TMC3    C5 9519   2.682   0.041   0.170  0.2739 -0.1472  0.7008
  643TMC3    C6 9520   2.565   0.056   0.105  0.0376  0.1349 -0.4352
  643TMC3     C 9521   2.665   0.325   0.394  0.1311 -0.8068 -1.0240
  643TMC3     O 9522   2.617   0.434   0.365 -0.8578  0.0409 -0.4300
  643TMC3     H 9523   2.424   0.316   0.261 -0.1429  0.1118  0.9559
  643TMC3    H1 9524   2.793   0.092   0.346 -1.2250 -2.5497 -0.2761
  643TMC3    H2 9525   2.537   4.724   0.016  1.7357  0.4803 -1.1837
  643TMC3    C7 9526   2.797   0.019   0.085 -0.2877  0.3457  0.3378
  643TMC3    C8 9527   2.437   0.232   0.022  0.2424 -0.1976  0.4552
  643TMC3    O1 9528   2.895   0.092   0.092  0.2028  0.2249 -0.6096
  643TMC3    O2 9529   2.377   0.177  17.634  0.4082  0.4826  0.0334
  644MPD2     C 9530   2.440   3.844   9.070  0.2527 -0.3386 -0.6363
  644MPD2    C1 9531   2.563   3.857   9.141 -0.4554 -0.3150 -0.1063
  644MPD2    C2 9532   2.668   3.761   9.114 -0.3620  0.6315  0.4071
  644MPD2    C3 9533   2.650   3.661   9.023 -0.0796  0.0151  0.0079
  644MPD2    C4 9534   2.530   3.650   8.953  0.0485  0.4920 -0.1234
  644MPD2    C5 9535   2.431   3.744   8.972  0.1563  0.3936  0.6438
  644MPD2     H 9536   2.762   3.781   9.163 -0.4323  1.2625  0.2882
  644MPD2    H1 9537   2.505   3.575   8.879 -1.8539 -0.8508  1.8677
  644MPD2    H2 9538   2.360   3.910   9.101 -1.2129 -2.1580 -0.5581
  644MPD2    H3 9539   2.342   3.733   8.911 -1.1368 -0.0503  2.5985
  644MPD2     N 9540   2.758   3.572   9.012 -0.1972 -0.1766 -0.0486
  644MPD2    H5 9541   2.840   3.589   9.070 -1.4145  3.9122  0.4655
  644MPD2    N1 9542   2.570   3.965   9.234  0.7505 -0.5102  0.4491
  644MPD2    H7 9543   2.500   4.039   9.235  0.7258 -0.5229 -0.6581
  645TMC3    C1 9544   2.875   3.367   8.953 -0.0159 -0.5464 -0.0951
  645TMC3    C2 9545   2.849   3.236   8.926 -0.2230 -0.0634 -0.6010
  645TMC3    C3 9546   2.958   3.155   8.909 -0.5043 -0.7698  0.3743
  645TMC3    C4 9547   3.002   3.415   8.985 -0.5711 -0.3476 -0.1385
  645TMC3    C5 9548   3.099   3.324   8.994  0.2979  0.5335  0.1927
  645TMC3    C6 9549   3.087   3.198   8.946 -0.3816 -0.3094 -0.3203
  645TMC3     C 9550   2.754   3.449   8.949 -0.1706  0.7070 -0.2307
  645TMC3     O 9551   2.663   3.410   8.876 -0.4611 -0.5496  0.1668
  645TMC3     H 9552   2.750   3.198   8.906  0.7009 -2.1384 -1.2869
  645TMC3    H1 9553   3.021   3.522   8.996 -2.5475 -0.2674  2.5134
  645TMC3    H2 9554   3.162   3.120   8.956  0.6650  0.5073 -1.7637
  645TMC3    C7 9555   3.233   3.379   9.024 -0.1298  0.6698 -0.5997
  645TMC3    C8 9556   2.939   3.011   8.884 -0.0022 -0.3757 -0.1192
  645TMC3    O1 9557   3.327   3.333   8.957  0.8040  0.4084 -0.1439
  645TMC3    O2 9558   2.994   2.939   8.964  0.0497  0.7399  0.5003
  646MPD2     C 9559   2.491   4.364  14.468 -0.6173  0.3745 -0.4577
  646MPD2    C1 9560   2.395   4.308  14.549 -0.7140 -1.0329 -0.2819
  646MPD2    C2 9561   2.260   4.349  14.530  0.0292 -0.4222  0.3244
  646MPD2    C3 9562   2.225   4.431  14.423 -0.5053  0.5371 -0.3657
  646MPD2    C4 9563   2.327   4.479  14.341 -0.2215 -0.5644 -0.4906
  646MPD2    C5 9564   2.452   4.445  14.366  0.2652 -0.8329 -0.1296
  646MPD2     H 9565   2.186   4.299  14.590  1.8681 -1.5737  1.6204
  646MPD2    H1 9566   2.318   4.535  14.249  0.3719  0.0030 -0.2039
  646MPD2    H2 9567   2.595   4.334  14.466 -0.2721  1.5865 -0.3853
  646MPD2    H3 9568   2.530   4.487  14.303  0.0482 -1.6511 -0.9389
  646MPD2     N 9569   2.089   4.457  14.398  0.2779 -0.6182  0.9620
  646MPD2    H5 9570   2.026   4.416  14.465 -1.5571  1.3717  0.4487
  646MPD2    N1 9571   2.442   4.220  14.650  0.6648  0.4072 -0.6831
  646MPD2    H7 9572   2.543   4.216  14.647  0.7044  0.5316  0.9330
  647TMC3    C1 9573   2.462   4.073  14.835  0.4754  0.4754  0.1629
  647TMC3    C2 9574   2.396   3.982  14.908  0.2214  0.0326 -0.0200
  647TMC3    C3 9575   2.472   3.894  14.976 -0.1245 -0.4877  0.2684
  647TMC3    C4 9576   2.602   4.077  14.816 -0.0300 -0.2849 -0.4912
  647TMC3    C5 9577   2.674   3.995  14.898 -0.3322 -0.2930  0.8775
  647TMC3    C6 9578   2.610   3.910  14.980  0.6343  0.7538 -0.1495
  647TMC3     C 9579   2.378   4.167  14.759  0.1930 -0.3276  0.1803
  647TMC3     O 9580   2.264   4.170  14.801 -0.1758 -0.2989  0.4958
  647TMC3     H 9581   2.288   3.975  14.903  0.2110  1.1511 -1.3947
  647TMC3    H1 9582   2.647   4.131  14.734  0.8842 -1.3012 -0.6504
  647TMC3    H2 9583   2.666   3.834  15.034 -0.1490  0.3955  0.1468
  647TMC3    C7 9584   2.813   4.010  14.929  0.2764 -0.3160 -0.3678
  647TMC3    C8 9585   2.416   3.811  15.084  0.2442 -0.2670 -0.7139
  647TMC3    O1 9586   2.855   3.931  15.010 -0.1319 -0.5880 -0.0826
  647TMC3    O2 9587   2.488   3.765  15.172  0.8709 -0.0316  0.3604
  648TMC3    C1 9588   1.621   1.947  16.193  0.3623 -0.1018  0.5562
  648TMC3    C2 9589   1.648   1.821  16.135 -0.0765 -0.4227  0.4222
  648TMC3    C3 9590   1.614   1.813  16.003 -0.3292  0.5396  0.4775
  648TMC3    C4 9591   1.572   2.055  16.131 -0.5988  0.4600 -0.1708
  648TMC3    C5 9592   1.558   2.039  15.992 -0.0465  0.1582 -0.8459
  648TMC3    C6 9593   1.563   1.916  15.926 -0.5398  0.1734 -0.2924
  648TMC3     C 9594   1.610   1.942  16.342  0.0039 -0.0941  0.5886
  648TMC3     O 9595   1.593   2.050  16.391  0.0392 -0.0248 -0.4838
  648TMC3     H 9596   1.694   1.741  16.192  1.0780 -0.3396 -0.3976
  648TMC3    H1 9597   1.554   2.146  16.186 -1.5098  0.1285  0.0792
  648TMC3    H2 9598   1.539   1.903  15.822  0.9265 -1.4641 -0.4202
  648TMC3    C7 9599   1.517   2.144  15.901 -0.6965  0.2695  0.5590
  648TMC3    C8 9600   1.615   1.681  15.933 -0.0889 -0.0102  0.0452
  648TMC3    O1 9601   1.533   2.121  15.782 -0.2300 -0.2084  0.5226
  648TMC3    O2 9602   1.512   1.661  15.872 -0.0358  0.5235  0.2920
  649TMC3    C1 9603   0.290   3.269  12.568  0.0801 -0.1149  0.4087
  649TMC3    C2 9604   0.391   3.298  12.479  0.8645 -0.3329  0.2838
  649TMC3    C3 9605   0.515   3.257  12.510 -0.1162 -0.6127 -0.3337
  649TMC3    C4 9606   0.307   3.209  12.690  0.1191  0.2311 -0.5906
  649TMC3    C5 9607   0.433   3.183  12.720 -0.3186  0.2505 -0.3672
  649TMC3    C6 9608   0.543   3.199  12.635 -0.1695 -0.8100 -0.5349
  649TMC3     C 9609   0.160   3.233  12.512 -0.0503 -0.4039 -0.8075
  649TMC3     O 9610   0.104   3.147  12.585 -0.1076 -0.4600  0.2051
  649TMC3     H 9611   0.379   3.346  12.382  2.5621  2.0381  1.2369
  649TMC3    H1 9612   0.230   3.205  12.765  1.2601  0.7119  0.6047
  649TMC3    H2 9613   0.641   3.156  12.648 -0.5046 -1.1735  0.7142
  649TMC3    C7 9614   0.453   3.094  12.843 -0.3456 -0.1875  0.2196
  649TMC3    C8 9615   0.623   3.273  12.408  0.3040  0.9762  0.2579
  649TMC3    O1 9616   0.357   3.048  12.899  0.4589 -0.7111  0.1369
  649TMC3    O2 9617   0.733   3.236  12.446 -0.3992  0.1135 -0.3955
  650TMC3    C1 9618   3.336   4.350  12.754  0.3491 -0.2893 -0.4820
  650TMC3    C2 9619   3.346   4.453  12.844  0.0476  0.1974 -0.1900
  650TMC3    C3 9620   3.254   4.556  12.833 -0.1265 -0.3073 -0.4916
  650TMC3    C4 9621   3.252   4.358  12.650  0.3783 -0.3499  0.1174
  650TMC3    C5 9622   3.162   4.459  12.643 -0.6689 -0.0171 -0.0596
  650TMC3    C6 9623   3.161   4.565  12.736  0.0083  0.0297 -0.4321
  650TMC3     C 9624   3.426   4.236  12.757  0.3763  0.6613  0.6026
  650TMC3     O 9625   3.530   4.253  12.825 -0.4047  0.0272 -0.1796
  650TMC3     H 9626   3.399   4.430  12.936 -2.6019  0.3197  1.3662
  650TMC3    H1 9627   3.260   4.284  12.571  0.3094  1.3988 -1.5204
  650TMC3    H2 9628   3.076   4.632  12.742 -0.5742 -0.7857  0.5215
  650TMC3    C7 9629   3.083   4.472  12.521  0.3876 -0.2870 -0.4575
  650TMC3    C8 9630   3.246   4.640  12.945 -0.4310 -0.0036 -0.7668
  650TMC3    O1 9631   3.056   4.370  12.460 -0.4302 -0.1621  0.0623
  650TMC3    O2 9632   3.257   4.593  13.056 -0.1576 -0.1403 -0.2614
  651MPD2     C 9633   1.984   1.245  10.761  0.1502  0.8094  0.2316
  651MPD2    C1 9634   1.970   1.375  10.801  0.3067  0.3342 -0.4921
  651MPD2    C2 9635   2.078   1.453  10.787 -0.1297  0.2928 -0.1102
  651MPD2    C3 9636   2.196   1.409  10.740 -0.2759  0.0675 -0.6631
  651MPD2    C4 9637   2.213   1.278  10.696 -0.1378  0.0075 -1.1882
  651MPD2    C5 9638   2.104   1.193  10.717  0.3929  0.0933  0.3370
  651MPD2     H 9639   2.066   1.552  10.830  1.7057 -0.5992  2.4566
  651MPD2    H1 9640   2.307   1.241  10.657 -0.0869 -0.9374 -0.1633
  651MPD2    H2 9641   1.903   1.174  10.747  2.3827 -1.8633  0.9851
  651MPD2    H3 9642   2.116   1.088  10.692 -0.7882 -0.0908  0.5650
  651MPD2     N 9643   2.305   1.495  10.750  0.1035  0.2320  0.2751
  651MPD2    H5 9644   2.289   1.582  10.799  1.7274 -0.5502  2.1854
  651MPD2    N1 9645   1.845   1.431  10.836  0.1585 -0.6209 -0.0427
  651MPD2    H7 9646   1.846   1.525  10.873  0.0248 -1.2830  1.6618
  652TMC3    C1 9647   2.720   1.684  10.649 -0.4945 -0.1744  0.6591
  652TMC3    C2 9648   2.639   1.578  10.657  0.3249 -0.4407 -0.0208
  652TMC3    C3 9649   2.504   1.600  10.685 -0.5550 -0.7385 -0.7920
  652TMC3    C4 9650   2.667   1.810  10.670  0.4193 -0.3919 -0.0341
  652TMC3    C5 9651   2.532   1.828  10.685 -0.0443  0.1970 -0.2151
  652TMC3    C6 9652   2.447   1.722  10.685 -0.1223  0.3679 -0.1764
  652TMC3     C 9653   2.855   1.671  10.681 -0.2091  0.7884 -0.5005
  652TMC3     O 9654   2.888   1.579  10.761  0.3513 -0.2937 -0.1032
  652TMC3     H 9655   2.673   1.475  10.652  0.0633 -0.4873 -0.8287
  652TMC3    H1 9656   2.733   1.893  10.692 -0.8153  0.6247 -0.1624
  652TMC3    H2 9657   2.343   1.737  10.712 -0.0000 -1.1727  1.1078
  652TMC3    C7 9658   2.491   1.937  10.777 -0.0113 -0.4074 -0.8842
  652TMC3    C8 9659   2.427   1.482  10.693  0.4761  0.2405 -0.2615
  652TMC3    O1 9660   2.438   1.914  10.883 -0.5285  0.3519  0.6836
  652TMC3    O2 9661   2.474   1.392  10.630  0.0239  0.1491 -0.3232
  653MPD2     C 9662   0.934   1.704   0.209 -0.4990 -0.2894  0.0076
  653MPD2    C1 9663   0.875   1.801   0.127  0.0863  0.2928  0.4162
  653MPD2    C2 9664   0.808   1.757   0.009  0.0244 -0.3101 -0.4641
  653MPD2    C3 9665   0.802   1.620  17.676  0.4852  0.6117 -0.0391
  653MPD2    C4 9666   0.855   1.527   0.063 -1.2706 -0.0840  0.6404
  653MPD2    C5 9667   0.921   1.570   0.173 -0.2299  0.1585  0.0713
  653MPD2     H 9668   0.783   1.835  17.638 -0.6498 -0.5032 -0.4362
  653MPD2    H1 9669   0.842   1.419   0.061  2.1265 -0.4585 -1.6656
  653MPD2    H2 9670   0.998   1.731   0.292  1.1351 -1.2450 -0.9381
  653MPD2    H3 9671   0.960   1.494   0.240 -0.2939 -0.6236 -0.7789
  653MPD2     N 9672   0.734   1.584  17.559  0.1964  0.4624  0.2814
  653MPD2    H5 9673   0.678   1.656  17.513 -0.2723  0.0287  0.1840
  653MPD2    N1 9674   0.880   1.940   0.153 -0.0959 -0.4789 -0.4245
  653MPD2    H7 9675   0.859   2.004   0.078 -1.5840  1.1593  1.3778
  654TMC3    C1 9676   0.645   1.431  17.389 -0.0103  0.2918 -0.1450
  654TMC3    C2 9677   0.551   1.522  17.359  0.6451 -0.4458 -0.4075
  654TMC3    C3 9678   0.449   1.477  17.276 -0.1824 -1.0488 -0.3303
  654TMC3    C4 9679   0.649   1.313  17.325 -0.2023  0.6270  0.2100
  654TMC3    C5 9680   0.544   1.274  17.241  0.0206  0.2787  0.3414
  654TMC3    C6 9681   0.442   1.350  17.220 -0.8173  0.4750 -0.5512
  654TMC3     C 9682   0.731   1.451  17.507 -0.0819 -0.5989  0.0938
  654TMC3     O 9683   0.786   1.356  17.551 -0.1198 -0.2054 -0.3876
  654TMC3     H 9684   0.551   1.626  17.390 -0.0695 -0.8342  0.9302
  654TMC3    H1 9685   0.727   1.242  17.351 -0.5711  0.2503  0.2935
  654TMC3    H2 9686   0.364   1.309  17.156 -1.6531  3.2657 -1.3179
  654TMC3    C7 9687   0.550   1.150  17.168  0.6489 -0.4942 -0.4071
  654TMC3    C8 9688   0.351   1.575  17.251 -0.1199 -0.1901  0.6710
  654TMC3    O1 9689   0.495   1.138  17.060 -0.0834 -0.5020 -0.2045
  654TMC3    O2 9690   0.331   1.663  17.330  0.3686  0.0099 -0.3599
  655MPD2     C 9691   2.188   2.180  15.706  0.0084  0.4433 -0.4497
  655MPD2    C1 9692   2.075   2.253  15.670 -0.4446 -0.6637  0.8426
  655MPD2    C2 9693   2.015   2.241  15.546  0.0351 -0.3004 -0.1866
  655MPD2    C3 9694   2.069   2.149  15.453 -0.3686 -0.2004  0.5565
  655MPD2    C4 9695   2.171   2.073  15.496  0.2680 -0.2808 -0.2402
  655MPD2    C5 9696   2.231   2.086  15.615  0.5414  0.1412 -1.4555
  655MPD2     H 9697   1.927   2.296  15.516 -1.5347 -2.7281  0.0161
  655MPD2    H1 9698   2.209   1.995  15.432  0.2294  0.2775 -0.9465
  655MPD2    H2 9699   2.238   2.200  15.800 -1.1567 -1.2288  0.5339
  655MPD2    H3 9700   2.317   2.024  15.637  2.0233  2.8986  0.5685
  655MPD2     N 9701   2.000   2.130  15.327  0.6070  0.3100  0.2730
  655MPD2    H5 9702   2.056   2.091  15.251  0.5193  1.1539 -0.2308
  655MPD2    N1 9703   2.006   2.340  15.763  0.0688 -0.2498  0.5132
  655MPD2    H7 9704   1.928   2.395  15.730 -0.8512 -3.5715 -2.8067
  656TMC3    C1 9705   1.934   2.442  15.948  0.2012  0.4250 -0.7530
  656TMC3    C2 9706   1.850   2.410  16.051  0.1032 -0.6641 -0.0157
  656TMC3    C3 9707   1.760   2.511  16.093  0.3537  0.3332 -0.1497
  656TMC3    C4 9708   1.920   2.556  15.874 -0.1179  0.1419 -0.1054
  656TMC3    C5 9709   1.818   2.641  15.906 -0.0520  0.2561  0.3240
  656TMC3    C6 9710   1.741   2.627  16.022  0.5734  0.0234 -0.1768
  656TMC3     C 9711   2.016   2.336  15.898 -0.1569 -0.0750 -0.4300
  656TMC3     O 9712   2.063   2.247  15.965  0.0969 -0.1447 -0.5180
  656TMC3     H 9713   1.864   2.322  16.114  4.6589  0.0016 -0.0953
  656TMC3    H1 9714   1.996   2.593  15.807  0.1998  0.3684  0.3818
  656TMC3    H2 9715   1.656   2.690  16.047  0.1172 -1.1759  1.2872
  656TMC3    C7 9716   1.802   2.762  15.823 -0.4863 -0.1038 -0.4505
  656TMC3    C8 9717   1.672   2.470  16.205 -0.8176 -0.0408  0.0942
  656TMC3    O1 9718   1.883   2.782  15.733  0.3890  0.0871 -0.1387
  656TMC3    O2 9719   1.661   2.351  16.230 -0.2036 -0.1194  0.4527
  657TMC3    C1 9720   0.793   1.252  14.872  0.4034  0.1474  0.8455
  657TMC3    C2 9721   0.798   1.197  14.998  0.0028 -0.3773  0.4667
  657TMC3    C3 9722   0.707   1.245  15.094  0.1681 -0.1229 -0.1527
  657TMC3    C4 9723   0.721   1.365  14.842 -0.2329 -0.0726  0.5331
  657TMC3    C5 9724   0.656   1.428  14.946 -0.4165  0.7158  0.5626
  657TMC3    C6 9725   0.644   1.370  15.073 -0.1828  1.1041  0.1484
  657TMC3     C 9726   0.843   1.173  14.758  0.1264  0.3035  0.2776
  657TMC3     O 9727   0.774   1.174  14.657 -0.0756  0.2575 -0.7727
  657TMC3     H 9728   0.841   1.099  15.018  0.0860 -0.2975  0.6798
  657TMC3    H1 9729   0.735   1.405  14.742  0.7490 -2.2791 -0.2006
  657TMC3    H2 9730   0.594   1.427  15.150  0.0904 -0.7534  1.7161
  657TMC3    C7 9731   0.614   1.563  14.930 -0.1618 -0.2486 -0.0252
  657TMC3    C8 9732   0.692   1.182  15.223 -0.4480  0.1014  0.5117
  657TMC3    O1 9733   0.646   1.628  15.030 -0.3013 -0.1065  0.3397
  657TMC3    O2 9734   0.792   1.127  15.264  0.7038  0.1586 -0.0460
  658MPD2     C 9735   2.178   1.995  14.571 -0.3530  0.1756 -0.2717
  658MPD2    C1 9736   2.125   2.105  14.630  0.1139  0.2185  0.7078
  658MPD2    C2 9737   2.110   2.219  14.554  0.0824  0.0957 -0.1482
  658MPD2    C3 9738   2.174   2.223  14.427 -0.3261  1.7756 -0.1361
  658MPD2    C4 9739   2.243   2.108  14.381  0.0455 -0.3231  0.5642
  658MPD2    C5 9740   2.248   1.995  14.457 -0.5831 -0.5340 -0.2100
  658MPD2     H 9741   2.050   2.302  14.590 -2.1295 -1.7916  0.4971
  658MPD2    H1 9742   2.295   2.108  14.286  3.1905  0.8475  2.2731
  658MPD2    H2 9743   2.172   1.902  14.627 -2.0336 -0.9473 -2.3272
  658MPD2    H3 9744   2.279   1.903  14.410  1.0524  1.2463 -2.6045
  658MPD2     N 9745   2.147   2.330  14.351 -0.2401 -0.1069 -0.5148
  658MPD2    H5 9746   2.071   2.392  14.376 -0.8594 -0.5664 -1.2619
  658MPD2    N1 9747   2.073   2.076  14.761  0.3952 -0.4923 -0.3518
  658MPD2    H7 9748   2.077   1.980  14.794  1.7993  0.0489  1.0502
  659TMC3    C1 9749   1.942   2.122  14.950 -0.2476  0.5802  0.3147
  659TMC3    C2 9750   1.947   2.183  15.074 -0.0893 -0.1884 -0.6213
  659TMC3    C3 9751   1.845   2.166  15.159 -0.1266 -0.5628 -0.5477
  659TMC3    C4 9752   1.837   2.045  14.906 -0.5313 -0.5014  0.0521
  659TMC3    C5 9753   1.746   2.021  15.005 -0.0223 -0.3925  0.1968
  659TMC3    C6 9754   1.741   2.085  15.126  0.5135 -0.9443 -0.1275
  659TMC3     C 9755   2.027   2.174  14.841 -0.2992  0.4209 -0.5634
  659TMC3     O 9756   2.048   2.296  14.852 -0.7186  0.1052  0.3381
  659TMC3     H 9757   2.037   2.238  15.101  0.2276 -0.3583 -1.3437
  659TMC3    H1 9758   1.836   2.002  14.807  2.7596 -0.4634 -0.0139
  659TMC3    H2 9759   1.678   2.042  15.202 -0.4768  0.1776 -0.3289
  659TMC3    C7 9760   1.636   1.928  14.972  0.0681  0.0514 -0.4401
  659TMC3    C8 9761   1.880   2.178  15.291  0.4044  0.5723  0.6050
  659TMC3    O1 9762   1.551   1.917  15.059  0.3127  0.2895  0.3607
  659TMC3    O2 9763   1.783   2.198  15.367 -0.6230 -0.9003 -0.2318
  660MPD2     C 9764   4.597   0.711  12.642 -0.5138 -0.2620  0.1854
  660MPD2    C1 9765   4.478   0.780  12.651 -0.5449  0.0208  0.3192
  660MPD2    C2 9766   4.397   0.755  12.765  0.1420 -0.0055 -0.2258
  660MPD2    C3 9767   4.429   0.656  12.860 -0.2798 -0.5725 -0.1914
  660MPD2    C4 9768   4.553   0.600  12.848 -0.2152  0.5007 -0.6394
  660MPD2    C5 9769   4.634   0.623  12.741 -0.2647  0.3435  0.5097
  660MPD2     H 9770   4.307   0.810  12.787  0.2881  0.2917 -0.3727
  660MPD2    H1 9771   4.587   0.528  12.921 -2.3984  0.6121  0.5016
  660MPD2    H2 9772   4.671   0.725  12.564 -1.0319 -3.5901 -0.9110
  660MPD2    H3 9773   4.724   0.564  12.732  0.5664  1.4798  1.4276
  660MPD2     N 9774   4.357   0.643  12.981  0.5482  0.0507  0.9728
  660MPD2    H5 9775   4.397   0.578  13.048 -0.0348 -1.6724 -0.3320
  660MPD2    N1 9776   4.466   0.881  12.557  0.1668 -0.5090  0.0766
  660MPD2    H7 9777   4.522   0.881  12.473  1.9271 -0.2753  1.2505
  661TMC3    C1 9778   4.377   1.061  12.445  0.3392 -0.2883 -0.3406
  661TMC3    C2 9779   4.503   1.073  12.397 -0.0383  0.0605 -0.7421
  661TMC3    C3 9780   4.515   1.108  12.270  0.6006 -0.0335  0.4206
  661TMC3    C4 9781   4.268   1.083  12.363  0.2557 -0.2518  0.0741
  661TMC3    C5 9782   4.287   1.112  12.235 -0.0958  0.0250  0.8048
  661TMC3    C6 9783   4.413   1.124  12.181 -0.6877 -0.1907  0.7129
  661TMC3     C 9784   4.364   0.965  12.553  0.3575 -0.3916 -0.5165
  661TMC3     O 9785   4.255   0.957  12.600 -1.0045  0.5407 -0.2004
  661TMC3     H 9786   4.590   1.056  12.458  0.3597 -2.4509 -2.0310
  661TMC3    H1 9787   4.166   1.083  12.402 -0.2319  0.3559 -1.2123
  661TMC3    H2 9788   4.424   1.140  12.074  0.6032 -2.5093  0.4834
  661TMC3    C7 9789   4.186   1.070  12.135  0.1253  0.6413 -0.0830
  661TMC3    C8 9790   4.644   1.127  12.217 -0.1603 -0.7571  0.6626
  661TMC3    O1 9791   4.085   1.133  12.136 -0.4880  0.1739 -0.0242
  661TMC3    O2 9792   0.010   1.065  12.275  0.4267  0.0221  0.0857
  662MPD2     C 9793   0.250   0.609  17.626 -0.4420 -0.3981  0.6258
  662MPD2    C1 9794   0.220   0.483  17.677  0.0590  1.0920 -0.3615
  662MPD2    C2 9795   0.145   0.483   0.095 -0.0734 -0.3935 -0.3838
  662MPD2    C3 9796   0.121   0.593   0.166  0.2023  0.7367 -0.6976
  662MPD2    C4 9797   0.160   0.715   0.119 -0.3675  0.4046 -0.2504
  662MPD2    C5 9798   0.227   0.721  17.700  0.2607  0.0781 -0.1559
  662MPD2     H 9799   0.100   0.391   0.131  2.0116 -1.4752 -0.5439
  662MPD2    H1 9800   0.129   0.799   0.180 -0.9940  0.3265 -0.4624
  662MPD2    H2 9801   0.287   0.631  17.527  0.7935 -0.1650  1.1398
  662MPD2    H3 9802   0.260   0.819  17.670 -1.4691  0.2292 -1.6303
  662MPD2     N 9803   0.055   0.575   0.288  0.4097 -0.2900 -0.0481
  662MPD2    H5 9804   0.006   0.487   0.301 -0.8076  0.3547 -0.2893
  662MPD2    N1 9805   0.229   0.365  17.601 -0.4334 -0.2781  0.0363
  662MPD2    H7 9806   0.175   0.285  17.633 -1.7596  0.0326 -1.4702
  663TMC3    C1 9807   0.319   0.217  17.439 -0.2133  0.4147 -0.3790
  663TMC3    C2 9808   0.217   0.128  17.462 -0.2861  0.2508  0.6654
  663TMC3    C3 9809   0.202   0.018  17.379 -0.5464  0.2359  0.5170
  663TMC3    C4 9810   0.423   0.186  17.359 -0.2184 -0.4951 -0.1608
  663TMC3    C5 9811   0.415   0.071  17.283  0.6538  0.4435  0.6286
  663TMC3    C6 9812   0.305   4.721  17.291  0.8304 -0.6313  0.0911
  663TMC3     C 9813   0.319   0.352  17.501  0.2767 -0.0685 -0.5698
  663TMC3     O 9814   0.413   0.428  17.475  0.1119 -0.0355 -0.4595
  663TMC3     H 9815   0.124   0.173  17.494 -0.2820  1.7119 -1.3253
  663TMC3    H1 9816   0.518   0.236  17.376 -1.5443  1.1797  2.1265
  663TMC3    H2 9817   0.269   4.657  17.211 -2.1333  1.0772  0.0315
  663TMC3    C7 9818   0.532   4.711  17.306  0.0420 -0.1858 -0.5260
  663TMC3    C8 9819   0.170   4.624  17.455  0.6699 -0.6204 -1.1406
  663TMC3    O1 9820   0.644   0.036  17.302  0.8685 -0.4100  0.0967
  663TMC3    O2 9821   0.222   4.529  17.406  0.1104 -0.3010 -0.0518
  664MPD2     C 9822   3.379   3.192  17.633 -0.0780 -0.3208 -0.1915
  664MPD2    C1 9823   3.352   3.326  17.675  0.3301 -0.2028 -0.1923
  664MPD2    C2 9824   3.254   3.341   0.065  0.3102  0.3972 -0.3117
  664MPD2    C3 9825   3.167   3.241   0.104  1.7638 -1.0840 -0.1335
  664MPD2    C4 9826   3.194   3.115   0.062 -0.0302 -0.1187  0.3329
  664MPD2    C5 9827   3.306   3.091  17.686 -0.3639 -0.5462 -0.9152
  664MPD2     H 9828   3.233   3.437   0.111 -1.6020 -0.2762  0.2140
  664MPD2    H1 9829   3.142   3.030   0.104 -2.2974  0.8014 -0.5908
  664MPD2    H2 9830   3.448   3.149  17.561  0.8219 -0.0599  0.5117
  664MPD2    H3 9831   3.331   2.987  17.668 -0.9729 -0.7013 -0.8613
  664MPD2     N 9832   3.063   3.275   0.196  0.0751 -0.3847  0.9776
  664MPD2    H5 9833   3.050   3.376   0.190  0.8648 -0.4841 -2.3236
  664MPD2    N1 9834   3.423   3.439  17.632  0.4443 -0.1802  0.4248
  664MPD2    H7 9835   3.389   3.531  17.658 -0.5406 -0.0460 -1.2965
  665TMC3    C1 9836   2.887   3.261   0.350 -0.5932  0.2563  0.7132
  665TMC3    C2 9837   2.866   3.203   0.476 -0.3133  0.1515  0.0099
  665TMC3    C3 9838   2.815   3.290   0.572 -0.7781  0.2476  0.5194
  665TMC3    C4 9839   2.860   3.389   0.316 -0.2476  0.4487 -0.1584
  665TMC3    C5 9840   2.812   3.471   0.415  0.4498  0.8095  0.7580
  665TMC3    C6 9841   2.789   3.419   0.538 -0.4430  0.3429  0.2450
  665TMC3     C 9842   2.980   3.190   0.268 -0.2095  0.5198  0.1999
  665TMC3     O 9843   2.986   3.070   0.271  0.0136 -0.4329 -0.1464
  665TMC3     H 9844   2.884   3.099   0.501  0.1978  0.7520  2.2071
  665TMC3    H1 9845   2.882   3.429   0.218 -0.1648 -1.2824 -0.8439
  665TMC3    H2 9846   2.761   3.486   0.618 -1.1279 -0.0527  0.3340
  665TMC3    C7 9847   2.821   3.619   0.386 -0.4910 -0.2165 -0.5428
  665TMC3    C8 9848   2.803   3.252   0.707  0.5497 -0.4981 -0.1443
  665TMC3    O1 9849   2.811   3.655   0.269  0.0583  1.1698  0.7155
  665TMC3    O2 9850   2.820   3.339   0.790 -0.1104 -0.4224  0.3812
  666TMC3    C1 9851   2.367   3.088  10.092  0.8201  0.4059  0.2338
  666TMC3    C2 9852   2.459   2.998  10.121 -0.4274 -0.3603 -0.5591
  666TMC3    C3 9853   2.592   3.036  10.123 -0.3360 -0.1740 -0.4080
  666TMC3    C4 9854   2.393   3.222  10.078 -0.2867 -0.9067  0.2111
  666TMC3    C5 9855   2.525   3.259  10.091 -0.2588 -0.0733 -0.0933
  666TMC3    C6 9856   2.627   3.167  10.113 -0.0483  0.1230  0.1350
  666TMC3     C 9857   2.235   3.049  10.125 -0.0550  0.1321  0.2190
  666TMC3     O 9858   2.140   3.109  10.079 -0.5076  0.1664  0.1955
  666TMC3     H 9859   2.433   2.893  10.108  2.4057 -1.2060  0.5746
  666TMC3    H1 9860   2.316   3.291  10.044 -0.3143 -0.9094  0.2673
  666TMC3    H2 9861   2.730   3.197  10.130 -0.0951  1.9275 -2.7411
  666TMC3    C7 9862   2.545   3.393  10.127 -0.1337  0.1205 -0.2336
  666TMC3    C8 9863   2.704   2.943  10.139 -0.2313 -0.1604 -0.2789
  666TMC3    O1 9864   2.442   3.443  10.173  0.3870 -0.2206  0.6751
  666TMC3    O2 9865   2.678   2.843  10.207 -0.1424  0.1002  0.0231
  667MPD2     C 9866   3.701   3.128  14.700  0.2667  0.2680 -0.4282
  667MPD2    C1 9867   3.623   3.208  14.786 -0.0197 -0.4693 -0.3592
  667MPD2    C2 9868   3.498   3.259  14.748  0.5294  0.6655 -0.1835
  667MPD2    C3 9869   3.461   3.243  14.613  0.2928 -0.3625 -0.0635
  667MPD2    C4 9870   3.539   3.168  14.525 -0.1905 -0.3905 -0.6273
  667MPD2    C5 9871   3.653   3.110  14.572  0.3829 -0.0408  0.6876
  667MPD2     H 9872   3.436   3.314  14.818 -0.0258 -1.5177  1.0358
  667MPD2    H1 9873   3.508   3.158  14.421 -1.3528 -1.2084 -0.1874
  667MPD2    H2 9874   3.785   3.064  14.726  0.2034  0.8940  1.3313
  667MPD2    H3 9875   3.697   3.037  14.504  2.4361  2.1860 -0.3701
  667MPD2     N 9876   3.341   3.293  14.567 -0.7248  0.3191  0.6866
  667MPD2    H5 9877   3.323   3.280  14.468 -1.9004 -0.0369  0.9386
  667MPD2    N1 9878   3.669   3.238  14.919  0.4304 -0.5823 -0.1348
  667MPD2    H7 9879   3.613   3.291  14.985  0.8873 -0.2745  0.0064
  668TMC3    C1 9880   3.819   3.266  15.098  0.0108 -0.3905  0.3834
  668TMC3    C2 9881   3.870   3.395  15.106 -0.1839  0.1461 -0.2138
  668TMC3    C3 9882   3.878   3.455  15.228  0.0965 -0.0780  0.1811
  668TMC3    C4 9883   3.744   3.211  15.208  0.5710 -0.1971  0.5883
  668TMC3    C5 9884   3.741   3.287  15.319  0.1076  0.5717  0.1726
  668TMC3    C6 9885   3.823   3.395  15.334 -0.0661 -0.2237 -0.2079
  668TMC3     C 9886   3.794   3.214  14.968 -0.0864 -0.3211 -0.6121
  668TMC3     O 9887   3.895   3.176  14.907 -0.8261  0.5166  0.2518
  668TMC3     H 9888   3.910   3.431  15.012 -0.0633  1.3358  0.2877
  668TMC3    H1 9889   3.713   3.107  15.210 -1.6182  0.4441 -0.4645
  668TMC3    H2 9890   3.833   3.445  15.430 -1.9127 -0.8227  0.2835
  668TMC3    C7 9891   3.649   3.248  15.431 -0.8242 -1.4140  0.0668
  668TMC3    C8 9892   3.968   3.577  15.234 -0.5718  0.8764 -0.7821
  668TMC3    O1 9893   3.688   3.301  15.532  0.1139  0.7954  0.5281
  668TMC3    O2 9894   3.973   3.631  15.344 -0.0554  0.0428 -0.1465
  669TMC3    C1 9895   2.372   3.718  14.172 -0.4211  0.5844 -0.1651
  669TMC3    C2 9896   2.249   3.750  14.122  0.0603 -0.3342 -0.1374
  669TMC3    C3 9897   2.244   3.823  14.006  0.4587  0.2370  0.6719
  669TMC3    C4 9898   2.488   3.766  14.116  0.5160 -0.3234  0.1113
  669TMC3    C5 9899   2.470   3.838  14.000  0.2983 -0.2371 -0.4461
  669TMC3    C6 9900   2.354   3.870  13.942  0.1031  0.0240 -0.0433
  669TMC3     C 9901   2.368   3.650  14.305 -0.5601 -0.1806 -0.6685
  669TMC3     O 9902   2.261   3.603  14.346 -0.7631 -0.3049  0.3152
  669TMC3     H 9903   2.158   3.721  14.173  0.7415 -3.3034 -0.5961
  669TMC3    H1 9904   2.583   3.730  14.155 -0.0617 -0.3628  1.4629
  669TMC3    H2 9905   2.354   3.923  13.847  1.5621 -2.9829 -1.7256
  669TMC3    C7 9906   2.589   3.909  13.963 -0.2959  0.0001  0.3781
  669TMC3    C8 9907   2.115   3.827  13.945  0.1046 -0.2015  0.3745
  669TMC3    O1 9908   2.672   3.922  14.057 -0.4020 -0.6621  0.3036
  669TMC3    O2 9909   2.034   3.736  13.952 -0.2000 -0.1773  0.5409
  670MPD2     C 9910   0.105   1.192  13.616  0.4290 -0.0855  0.1414
  670MPD2    C1 9911   0.220   1.136  13.674  0.0203 -0.0578 -0.5645
  670MPD2    C2 9912   0.203   1.062  13.795 -0.1123  0.2143 -0.0993
  670MPD2    C3 9913   0.077   1.053  13.859 -0.0048  0.2783  0.1240
  670MPD2    C4 9914   4.692   1.116  13.804  0.7831  0.1661  0.2294
  670MPD2    C5 9915   4.706   1.177  13.682  0.1090 -0.4690 -0.2222
  670MPD2     H 9916   0.292   1.012  13.830  0.4572  1.4166  0.1654
  670MPD2    H1 9917   4.592   1.099  13.842  0.5751 -0.9762 -0.8194
  670MPD2    H2 9918   0.103   1.245  13.522 -0.4494 -0.4298 -0.0289
  670MPD2    H3 9919   4.627   1.221  13.622 -0.9514 -2.9393 -0.6166
  670MPD2     N 9920   0.071   0.980  13.977 -1.0773  0.6171  0.0647
  670MPD2    H5 9921   0.152   0.926  14.001 -1.3848 -0.1800 -0.6859
  670MPD2    N1 9922   0.351   1.149  13.626  0.4753  0.5664 -0.4468
  670MPD2    H7 9923   0.429   1.109  13.676  0.1546  0.1093 -0.3103
  671TMC3    C1 9924   4.709   0.892  14.182 -0.3293 -0.5677 -0.0733
  671TMC3    C2 9925   0.085   0.799  14.182  0.0560  0.1633 -1.1873
  671TMC3    C3 9926   0.098   0.736  14.301  0.0831  0.8673 -0.2361
  671TMC3    C4 9927   4.610   0.892  14.283  0.1067  0.0059  0.1385
  671TMC3    C5 9928   4.621   0.809  14.392  0.2735 -0.8435 -0.1174
  671TMC3    C6 9929   0.007   0.734  14.403  0.2620  0.0958 -0.3922
  671TMC3     C 9930   4.690   0.978  14.068 -0.5006  0.2096  0.1794
  671TMC3     O 9931   4.591   1.048  14.073  0.1378  0.2431  0.1563
  671TMC3     H 9932   0.173   0.796  14.119  1.6201 -0.2328  0.9964
  671TMC3    H1 9933   4.530   0.964  14.278  0.1024 -0.0563 -0.7718
  671TMC3    H2 9934   0.030   0.670  14.487  1.5956 -1.3933 -1.8797
  671TMC3    C7 9935   4.495   0.732  14.389 -0.2123 -0.1026  0.5268
  671TMC3    C8 9936   0.223   0.658  14.311 -0.3955 -0.1717 -0.3568
  671TMC3    O1 9937   4.417   0.732  14.482  0.1372  0.4376  0.2445
  671TMC3    O2 9938   0.250   0.588  14.215 -0.3726  0.0207  0.0966
  672MPD2     C 9939   0.190   1.085   1.840  0.5784  0.3032 -0.2048
  672MPD2    C1 9940   0.160   1.195   1.766 -0.5385 -0.3983  0.1849
  672MPD2    C2 9941   0.174   1.327   1.817 -0.1096  0.1603 -0.6800
  672MPD2    C3 9942   0.247   1.344   1.937  0.4489  0.3213  0.2341
  672MPD2    C4 9943   0.285   1.232   2.005 -0.0122  0.1073  0.0859
  672MPD2    C5 9944   0.246   1.104   1.962 -0.3162  0.2674  0.2869
  672MPD2     H 9945   0.148   1.415   1.761 -1.4116  0.0517 -0.2536
  672MPD2    H1 9946   0.353   1.239   2.088  2.1868 -0.3878 -1.6693
  672MPD2    H2 9947   0.176   0.981   1.811 -0.3925  0.4896 -0.4086
  672MPD2    H3 9948   0.276   1.020   2.024 -1.4322 -1.2469 -1.2620
  672MPD2     N 9949   0.299   1.467   1.987 -0.5442  0.2363  0.0611
  672MPD2    H5 9950   0.349   1.468   2.076 -1.4174 -0.2038  0.5510
  672MPD2    N1 9951   0.113   1.181   1.633  0.5491  0.3730  0.3170
  672MPD2    H7 9952   0.085   1.271   1.595 -0.3487 -0.2135 -0.3701
  673TMC3    C1 9953   0.087   1.101   1.414 -0.2998 -0.2007 -0.2640
  673TMC3    C2 9954   0.163   1.042   1.315 -0.2707  0.6497 -0.2933
  673TMC3    C3 9955   0.155   1.103   1.189  0.4956  0.0538  0.2145
  673TMC3    C4 9956   0.009   1.206   1.391  0.1133  0.9645  0.3546
  673TMC3    C5 9957   0.006   1.255   1.270 -0.2309  0.2408  0.3961
  673TMC3    C6 9958   0.083   1.214   1.166  0.2192  0.5954 -0.1451
  673TMC3     C 9959   0.127   1.067   1.549  0.3668 -0.4238 -0.0825
  673TMC3     O 9960   0.179   0.958   1.569 -0.4969  0.3956 -0.0761
  673TMC3     H 9961   0.233   0.962   1.337 -1.2972 -0.0730  0.3231
  673TMC3    H1 9962   4.670   1.250   1.467  0.8784 -2.2906  2.8816
  673TMC3    H2 9963   0.083   1.242   1.061 -1.2124 -4.0009 -1.3635
  673TMC3    C7 9964   4.681   1.392   1.258 -0.5544 -0.1766 -0.5714
  673TMC3    C8 9965   0.274   1.084   1.108  0.1989  0.3913  0.5059
  673TMC3    O1 9966   4.579   1.424   1.318 -0.1619 -0.0110 -0.5531
  673TMC3    O2 9967   0.258   1.070   0.987 -0.1806 -0.1779  0.4130
  674MPD2     C 9968   0.678   1.299   0.267  0.0657  0.5320 -0.6954
  674MPD2    C1 9969   0.599   1.203   0.315 -0.3858  0.1464  0.3394
  674MPD2    C2 9970   0.491   1.226   0.396  0.0870 -0.2569 -0.3838
  674MPD2    C3 9971   0.448   1.359   0.419  0.0657  0.0456 -0.1227
  674MPD2    C4 9972   0.521   1.459   0.355 -0.1526  0.2355  0.0579
  674MPD2    C5 9973   0.628   1.425   0.276  0.0075 -0.0914 -0.5561
  674MPD2     H 9974   0.434   1.141   0.433 -1.6333  1.1339  0.2056
  674MPD2    H1 9975   0.507   1.566   0.365  0.8219  0.5931 -2.3204
  674MPD2    H2 9976   0.765   1.281   0.206 -0.2229  0.9250 -1.2264
  674MPD2    H3 9977   0.689   1.508   0.243  1.6296 -0.2985  1.9127
  674MPD2     N 9978   0.331   1.393   0.487 -0.2373  0.1478  0.3524
  674MPD2    H5 9979   0.292   1.312   0.535 -0.0632 -0.9306 -1.3061
  674MPD2    N1 9980   0.626   1.079   0.256  0.4101 -0.1271 -0.4698
  674MPD2    H7 9981   0.669   1.088   0.165  0.6850  2.3123 -0.1029
  675TMC3    C1 9982   0.638   0.844   0.225  0.3909 -0.7239 -0.1000
  675TMC3    C2 9983   0.566   0.725   0.205  0.0493  0.1897 -0.5142
  675TMC3    C3 9984   0.615   0.635   0.110 -0.2720  0.2502 -0.3824
  675TMC3    C4 9985   0.761   0.864   0.168 -0.9731 -0.0880  0.2747
  675TMC3    C5 9986   0.807   0.764   0.080 -1.0404 -0.1848  0.0946
  675TMC3    C6 9987   0.734   0.656   0.047 -0.6064 -0.4328  0.3966
  675TMC3     C 9988   0.578   0.953   0.300  0.4128  0.1796 -0.2762
  675TMC3     O 9989   0.508   0.926   0.395  0.0414 -0.3546 -0.4999
  675TMC3     H 9990   0.464   0.714   0.241  0.4522 -0.0647  0.5325
  675TMC3    H1 9991   0.816   0.956   0.188  0.0096 -0.7709  0.7017
  675TMC3    H2 9992   0.759   0.590  17.664  1.4165  0.1574  0.5288
  675TMC3    C7 9993   0.933   0.781   0.002  0.1112  0.4291  0.5638
  675TMC3    C8 9994   0.559   0.498   0.104 -0.0801 -0.5636  0.5796
  675TMC3    O1 9995   0.929   0.750  17.583 -0.1557  0.0934  0.6120
  675TMC3    O2 9996   0.610   0.423   0.025 -0.0182 -0.3441 -0.0002
  676MPD2     C 9997   3.239   4.024  10.966 -1.3714  0.3182  0.1844
  676MPD2    C1 9998   3.121   3.967  11.021 -0.2532 -0.5733  0.0118
  676MPD2    C2 9999   3.077   3.855  10.965  0.5104  0.0743  0.1811
  676MPD2    C310000   3.138   3.781  10.863 -0.7062 -0.4060  0.0064
  676MPD2    C410001   3.254   3.834  10.812 -0.9011  0.2848  0.3660
  676MPD2    C510002   3.298   3.958  10.861  0.1217  0.4768  0.2459
  676MPD2     H10003   2.986   3.829  11.018  0.6202 -1.0215 -0.1790
  676MPD2    H110004   3.315   3.787  10.735  0.6255  0.0005  1.7564
  676MPD2    H210005   3.282   4.115  11.006 -0.2058 -0.0932 -0.1258
  676MPD2    H310006   3.392   3.994  10.821  0.1686 -0.8214 -0.7703
  676MPD2     N10007   3.087   3.663  10.811  0.4246 -0.0057 -0.3824
  676MPD2    H510008   3.137   3.613  10.738  1.4646  1.8335 -0.9313
  676MPD2    N110009   3.048   4.024  11.123  0.1662 -0.1098 -0.0036
  676MPD2    H710010   2.955   3.985  11.135  0.3973  0.3520  3.4751
  677TMC3    C110011   2.989   4.152  11.301 -0.4077  0.1548 -0.2602
  677TMC3    C210012   2.905   4.048  11.331 -0.4195  0.2415  0.0972
  677TMC3    C310013   2.814   4.078  11.430  0.0601 -0.0206  0.6098
  677TMC3    C410014   3.015   4.266  11.382  0.2131  0.4800 -0.1559
  677TMC3    C510015   2.922   4.283  11.479 -0.1395  1.0883  0.0983
  677TMC3    C610016   2.818   4.194  11.499  0.3842 -0.2841  0.8356
  677TMC3     C10017   3.093   4.118  11.208 -0.2333 -0.4798 -0.1401
  677TMC3     O10018   3.203   4.178  11.204  0.0615 -0.3921 -0.2477
  677TMC3     H10019   2.892   3.953  11.280 -1.9223  1.2988 -1.4765
  677TMC3    H110020   3.088   4.339  11.349 -0.7238  0.4287 -2.3272
  677TMC3    H210021   2.738   4.210  11.570 -0.6873  0.3065 -0.5027
  677TMC3    C710022   2.939   4.391  11.576  0.4299  0.2120 -0.2384
  677TMC3    C810023   2.732   3.966  11.472 -0.4099  0.0609 -0.3417
  677TMC3    O110024   2.847   4.385  11.659 -0.1525  0.0996  0.1845
  677TMC3    O210025   2.671   3.924  11.372 -0.3224  0.2682 -0.3342
  678MPD2     C10026   3.577   4.175   1.574  0.3247 -1.1364  0.7492
  678MPD2    C110027   3.641   4.220   1.467 -0.5509  0.8062 -0.0781
  678MPD2    C210028   3.589   4.322   1.390  0.0776  0.0688 -0.1270
  678MPD2    C310029   3.467   4.377   1.423 -0.1087  0.1713 -0.2174
  678MPD2    C410030   3.409   4.337   1.538 -0.5261 -1.2675 -0.7558
  678MPD2    C510031   3.461   4.231   1.616  0.1124  0.1807  0.1647
  678MPD2     H10032   3.632   4.342   1.293  0.5423  1.0818  0.2947
  678MPD2    H110033   3.313   4.376   1.571  0.0856  1.0632 -1.7735
  678MPD2    H210034   3.609   4.092   1.636  1.2491 -1.5859 -0.3309
  678MPD2    H310035   3.410   4.200   1.707 -1.3262  0.0904 -0.6675
  678MPD2     N10036   3.406   4.474   1.344 -0.0351 -0.2986 -0.4146
  678MPD2    H510037   3.464   4.516   1.273 -0.5689 -0.8062 -1.1520
  678MPD2    N110038   3.763   4.159   1.410 -0.3399 -0.3286  0.1972
  678MPD2    H710039   3.781   4.184   1.314 -1.3693 -0.9788 -0.1664
  679TMC3    C110040   4.130   3.863   1.353 -0.7151  0.1364  0.3844
  679TMC3    C210041   4.010   3.896   1.418  0.1111 -0.8040 -0.3115
  679TMC3    C310042   3.957   4.015   1.386  0.0882 -0.2900  0.4609
  679TMC3    C410043   4.189   3.947   1.259 -0.3329 -0.0419  0.5189
  679TMC3    C510044   4.134   4.071   1.233  0.2218 -0.0764 -0.5865
  679TMC3    C610045   4.018   4.103   1.297 -0.5231 -0.1476 -0.8995
  679TMC3     C10046   4.195   3.741   1.385 -0.4719  0.4819 -0.6479
  679TMC3     O10047   4.310   3.734   1.342  0.0334  0.2213 -0.3166
  679TMC3     H10048   3.954   3.838   1.491  1.0904  1.5889  2.3709
  679TMC3    H110049   4.278   3.917   1.205 -0.6348  0.8883 -0.5026
  679TMC3    H210050   3.977   4.203   1.298  0.0239  0.0508  2.3069
  679TMC3    C710051   4.205   4.166   1.152 -0.9838 -0.1780 -0.3682
  679TMC3    C810052   3.838   4.060   1.467  0.3101 -0.5908 -0.2830
  679TMC3    O110053   4.138   4.260   1.098 -0.1915 -0.4765  0.3686
  679TMC3    O210054   3.816   4.008   1.574  0.5670  0.4005  0.0816
  680MPD2     C10055   4.698   3.002  13.481 -0.3042  0.6319 -0.4761
  680MPD2    C110056   0.091   2.993  13.550 -0.6912 -0.0660 -0.1784
  680MPD2    C210057   0.158   3.103  13.593 -0.3495 -0.1559 -0.5720
  680MPD2    C310058   0.098   3.227  13.575  0.5487 -0.1625 -0.8865
  680MPD2    C410059   4.699   3.234  13.509  0.3901  0.4737 -0.1814
  680MPD2    C510060   4.641   3.122  13.451  0.1075 -0.3655 -0.1370
  680MPD2     H10061   0.251   3.088  13.648  0.1266  1.3231 -0.9652
  680MPD2    H110062   4.665   3.330  13.472  0.2061 -0.8708 -3.4796
  680MPD2    H210063   4.645   2.920  13.432  1.3868 -0.9155  0.2926
  680MPD2    H310064   4.547   3.140  13.400  1.1600  0.5464 -1.7466
  680MPD2     N10065   0.170   3.347  13.595  0.0364  0.8713 -0.6064
  680MPD2    H510066   0.135   3.432  13.553  0.4271 -0.0244 -2.7375
  680MPD2    N110067   0.169   2.875  13.549  0.2869  0.0803 -0.4033
  680MPD2    H710068   0.266   2.900  13.560  0.2400 -0.5461  1.3193
  681TMC3    C110069   0.222   2.651  13.508 -1.0825 -0.3486 -1.0087
  681TMC3    C210070   0.196   2.526  13.557 -0.2405  0.4200 -0.3085
  681TMC3    C310071   0.279   2.428  13.517  0.4412 -0.5452  0.2238
  681TMC3    C410072   0.323   2.674  13.414  0.0401 -0.1093  0.2724
  681TMC3    C510073   0.402   2.576  13.379  0.8542  0.2019 -0.3553
  681TMC3    C610074   0.387   2.449  13.434 -0.0771 -0.5194  0.9292
  681TMC3     C10075   0.118   2.749  13.530 -0.6386 -0.0625 -0.4041
  681TMC3     O10076   0.000   2.720  13.540  0.1791  0.3469 -0.5243
  681TMC3     H10077   0.101   2.512  13.607 -0.0314 -1.1165 -0.3314
  681TMC3    H110078   0.349   2.776  13.386 -0.6062  0.1960  0.7791
  681TMC3    H210079   0.464   2.375  13.414 -0.9408 -1.3095  0.5065
  681TMC3    C710080   0.525   2.619  13.311  0.7113 -0.3664 -0.0212
  681TMC3    C810081   0.297   2.321  13.617 -0.0455 -0.9458 -0.8983
  681TMC3    O110082   0.624   2.568  13.362 -0.2289 -0.4366 -0.3741
  681TMC3    O210083   0.362   2.223  13.574  0.4664 -0.2283 -0.7804
  682MPD2     C10084   2.366   4.378  10.842  0.0503  0.3393 -0.0006
  682MPD2    C110085   2.257   4.310  10.794 -0.5514 -0.3695  0.0512
  682MPD2    C210086   2.144   4.300  10.872 -0.1140  0.4148 -0.2639
  682MPD2    C310087   2.139   4.351  11.000  0.2431  0.1895 -0.0753
  682MPD2    C410088   2.240   4.433  11.036  0.3486 -0.4254 -0.0225
  682MPD2    C510089   2.352   4.447  10.959  0.0754  0.3594 -0.2886
  682MPD2     H10090   2.057   4.246  10.838 -0.7734  0.7035  0.9637
  682MPD2    H110091   2.248   4.486  11.130 -0.4978  2.5376 -1.6332
  682MPD2    H210092   2.459   4.378  10.788  0.1799 -1.6331  0.2411
  682MPD2    H310093   2.434   4.507  10.996  0.7101 -2.4549  2.8882
  682MPD2     N10094   2.035   4.334  11.091 -0.0860  0.0339 -0.3712
  682MPD2    H510095   2.036   4.399  11.169  1.2927  2.6745 -2.5816
  682MPD2    N110096   2.255   4.245  10.663  0.0022  0.0096 -0.3250
  682MPD2    H710097   2.178   4.179  10.655  0.1401 -0.1690 -0.1484
  683TMC3    C110098   1.810   4.282  11.427 -0.3232  0.5678 -0.4057
  683TMC3    C210099   1.690   4.217  11.413  0.2923  0.5217  0.1215
  683TMC3    C310100   1.662   4.153  11.293 -0.5122  0.3598 -0.5635
  683TMC3    C410101   1.894   4.292  11.316 -0.5062  0.0540  0.1593
  683TMC3    C510102   1.865   4.218  11.199 -0.7880 -0.1193 -0.0289
  683TMC3    C610103   1.746   4.148  11.183 -0.1319  0.0082  0.2140
  683TMC3     C10104   1.856   4.333  11.559 -0.2158 -0.3020 -0.1550
  683TMC3     O10105   1.957   4.403  11.560  0.2723 -1.1646  0.2890
  683TMC3     H10106   1.622   4.206  11.497 -2.5083  0.0412 -2.1941
  683TMC3    H110107   1.988   4.345  11.328  1.5345 -3.1454 -1.7558
  683TMC3    H210108   1.705   4.108  11.091 -2.5403 -1.5536  1.9931
  683TMC3    C710109   1.950   4.227  11.083  0.0622  0.1773 -0.0179
  683TMC3    C810110   1.534   4.091  11.287 -0.5724  0.2013 -0.5259
  683TMC3    O110111   1.911   4.162  10.986  0.4651 -0.5430  0.2648
  683TMC3    O210112   1.447   4.158  11.348 -0.1436 -0.1277 -0.4215
  684MPD2     C10113   0.101   4.049  16.183  0.2677 -0.2337  0.1098
  684MPD2    C110114   0.198   4.071  16.279  0.4958 -0.4836  0.0683
  684MPD2    C210115   0.214   4.192  16.337  0.5603 -0.5218  0.3165
  684MPD2    C310116   0.126   4.291  16.293  0.0532 -0.7566  0.1720
  684MPD2    C410117   0.018   4.265  16.206 -0.3590  0.2038  0.5011
  684MPD2    C510118   0.008   4.145  16.154 -0.7782  0.4246 -0.0353
  684MPD2     H10119   0.300   4.215  16.399 -1.2045  1.2508  2.1045
  684MPD2    H110120   4.680   4.345  16.167 -0.3797  0.1314  0.3851
  684MPD2    H210121   0.088   3.950  16.141  0.3038 -0.4960  0.7079
  684MPD2    H310122   4.658   4.128  16.077  0.7297  0.1915 -1.4458
  684MPD2     N10123   0.142   4.427  16.333  0.2645  0.1784 -1.2068
  684MPD2    H510124   0.087   4.493  16.279  0.5363 -1.2038 -3.2133
  684MPD2    N110125   0.290   3.969  16.315  0.0565  0.3686  0.2189
  684MPD2    H710126   0.364   4.000  16.378  2.4722 -0.1895 -2.3360
  685TMC3    C110127   0.404   3.769  16.298 -0.1021  0.2426 -0.5676
  685TMC3    C210128   0.403   3.687  16.188  0.2665 -0.5566  0.3644
  685TMC3    C310129   0.499   3.706  16.095  0.1790 -0.6299 -0.0057
  685TMC3    C410130   0.503   3.861  16.315 -0.5055 -0.4248  0.6653
  685TMC3    C510131   0.606   3.877  16.225  0.3816  0.2433 -0.2443
  685TMC3    C610132   0.597   3.797  16.113  0.1683 -0.8565 -0.2161
  685TMC3     C10133   0.279   3.838  16.289  0.0931 -0.0550  1.2455
  685TMC3     O10134   0.193   3.772  16.231  0.7935  0.4216 -0.1284
  685TMC3     H10135   0.334   3.603  16.180 -0.5340  0.1466 -0.0648
  685TMC3    H110136   0.505   3.916  16.408 -0.2875 -0.2559  0.5643
  685TMC3    H210137   0.675   3.793  16.037  2.5537 -2.7678  2.3534
  685TMC3    C710138   0.733   3.918  16.289  0.2414 -0.0072  0.6386
  685TMC3    C810139   0.460   3.680  15.958  0.2840 -0.1158 -0.0482
  685TMC3    O110140   0.737   3.930  16.410 -0.1341 -0.3023  0.0994
  685TMC3    O210141   0.541   3.677  15.869  0.4691  0.3448 -0.1225
  686MPD2     C10142   1.721   3.901  15.434 -0.2468  0.5728  0.0290
  686MPD2    C110143   1.644   3.809  15.498 -0.4225 -0.2849  0.2211
  686MPD2    C210144   1.705   3.696  15.551 -0.6949  0.9259 -0.0289
  686MPD2    C310145   1.841   3.680  15.523  0.6109 -1.0996  0.3766
  686MPD2    C410146   1.923   3.774  15.465 -0.6438 -0.6962 -0.2132
  686MPD2    C510147   1.857   3.887  15.413 -0.3768  0.5550  0.2308
  686MPD2     H10148   1.640   3.623  15.598  0.6875  0.3863  1.0220
  686MPD2    H110149   2.031   3.773  15.465 -0.6531 -0.6036 -1.9723
  686MPD2    H210150   1.682   3.996  15.398  1.3388  1.3164  0.2409
  686MPD2    H310151   1.913   3.968  15.367 -1.4335  0.9849 -0.2885
  686MPD2     N10152   1.904   3.564  15.586 -0.0226 -0.6090 -0.1357
  686MPD2    H510153   2.005   3.570  15.587  0.0076 -0.6950 -1.7865
  686MPD2    N110154   1.506   3.835  15.522 -0.1814 -0.2434 -0.4090
  686MPD2    H710155   1.473   3.922  15.480 -0.3362 -0.4524 -0.7202
  687TMC3    C110156   1.909   3.371  15.724  0.0472 -0.4722 -0.7611
  687TMC3    C210157   1.821   3.270  15.763 -0.5238 -0.7330 -0.3422
  687TMC3    C310158   1.795   3.260  15.895  0.0497 -0.1358 -0.5083
  687TMC3    C410159   1.977   3.446  15.819  1.0526  0.6422  0.8902
  687TMC3    C510160   1.964   3.411  15.951  0.4583  0.4016 -0.0331
  687TMC3    C610161   1.871   3.318  15.995 -0.3818 -0.1783 -0.0062
  687TMC3     C10162   1.841   3.446  15.621  0.8845  0.0905 -0.0532
  687TMC3     O10163   1.731   3.400  15.583  0.0543 -0.2191  0.1704
  687TMC3     H10164   1.762   3.209  15.695 -0.8834 -1.4109  0.5762
  687TMC3    H110165   2.056   3.506  15.776  0.2091  1.2935  0.2396
  687TMC3    H210166   1.841   3.316  16.098 -0.2720 -1.6556 -0.0058
  687TMC3    C710167   2.061   3.441  16.051  0.0120  0.0688  0.1523
  687TMC3    C810168   1.658   3.241  15.926  0.0128 -0.4925  0.4588
  687TMC3    O110169   2.040   3.399  16.165  0.1595 -0.2440 -0.0754
  687TMC3    O210170   1.633   3.191  16.036 -0.4097  0.6046  0.0706
  688MPD2     C10171   1.195   2.579  17.672  0.4654 -0.2486  0.2032
  688MPD2    C110172   1.160   2.444  17.662  0.2853  0.6350  0.1261
  688MPD2    C210173   1.226   2.366  17.568  0.2376 -0.5990  0.3456
  688MPD2    C310174   1.320   2.420  17.486  0.2011 -0.2613  0.3226
  688MPD2    C410175   1.341   2.560  17.489  0.2375  0.0953  0.1243
  688MPD2    C510176   1.279   2.627  17.588  0.1163  0.2578 -0.2330
  688MPD2     H10177   1.217   2.258  17.564 -1.2927 -0.4347 -0.5015
  688MPD2    H110178   1.403   2.619  17.422  2.9438 -1.9428  0.8145
  688MPD2    H210179   1.149   2.646   0.045 -0.2901  0.7353 -1.1771
  688MPD2    H310180   1.300   2.733  17.594  0.4169  0.0617  2.3263
  688MPD2     N10181   1.384   2.355  17.375  0.0989 -0.1241 -0.1271
  688MPD2    H510182   1.457   2.412  17.335 -1.8817  2.3752 -0.1435
  688MPD2    N110183   1.069   2.378   0.055 -0.4358  0.2046 -0.0828
  688MPD2    H710184   1.078   2.277   0.057 -0.7725  0.1505 -1.0751
  689TMC3    C110185   0.910   2.342   0.223  0.1542 -0.8701 -0.5284
  689TMC3    C210186   0.851   2.387   0.337  0.2397 -0.3023  0.4662
  689TMC3    C310187   0.796   2.304   0.435  1.1437  0.0768 -0.3087
  689TMC3    C410188   0.916   2.206   0.207  0.9656 -0.9869  0.0470
  689TMC3    C510189   0.862   2.124   0.305 -0.5800  0.5004 -0.6934
  689TMC3    C610190   0.807   2.173   0.422 -0.0020 -0.1305  0.1716
  689TMC3     C10191   0.988   2.440   0.146  0.4810 -0.0679 -0.2131
  689TMC3     O10192   0.964   2.560   0.158  0.3544  0.5482 -0.1768
  689TMC3     H10193   0.852   2.495   0.347  0.0570 -0.5664  3.4609
  689TMC3    H110194   0.969   2.161   0.124 -0.0225 -1.4357 -0.3442
  689TMC3    H210195   0.762   2.109   0.498 -0.2749 -0.3105 -0.1436
  689TMC3    C710196   0.873   1.983   0.283  0.3962 -0.4852 -0.2198
  689TMC3    C810197   0.783   2.352   0.566  0.2754 -0.1583 -0.2543
  689TMC3    O110198   0.839   1.916   0.377 -0.8326 -0.0603  0.1756
  689TMC3    O210199   0.707   2.295   0.642  0.3692 -0.2549 -0.0445
  690MPD2     C10200   3.052   4.512  15.621  0.1493 -0.5837 -0.3272
  690MPD2    C110201   3.068   4.492  15.487 -0.1319 -0.4157 -0.2550
  690MPD2    C210202   3.192   4.524  15.425 -0.2668 -0.5739 -0.5537
  690MPD2    C310203   3.303   4.568  15.494 -1.1692  0.5057  0.9477
  690MPD2    C410204   3.289   4.578  15.636  0.5794 -0.4752  0.1012
  690MPD2    C510205   3.165   4.551  15.691  0.4161  0.7732 -0.4519
  690MPD2     H10206   3.207   4.511  15.318 -1.9761  0.0875 -0.8733
  690MPD2    H110207   3.371   4.613  15.698 -0.3687 -0.9145  1.6303
  690MPD2    H210208   2.964   4.478  15.675 -0.0560 -0.1140 -0.3642
  690MPD2    H310209   3.160   4.562  15.799  1.6068 -2.4629 -0.0603
  690MPD2     N10210   3.421   4.602  15.419 -0.1036 -0.0418 -0.3795
  690MPD2    H510211   3.400   4.616  15.320 -2.7732  4.5938  0.8450
  690MPD2    N110212   2.967   4.425  15.408 -0.1625  1.0102  0.4955
  690MPD2    H710213   2.980   4.395  15.312 -1.9475  1.1680  0.2136
  691TMC3    C110214   2.774   4.288  15.380  0.3213  0.4267 -0.2238
  691TMC3    C210215   2.646   4.265  15.415 -0.6718  0.0345 -0.4424
  691TMC3    C310216   2.586   4.144  15.381 -0.4602  0.3685  0.6356
  691TMC3    C410217   2.854   4.196  15.325 -0.6204 -0.4152 -0.5396
  691TMC3    C510218   2.790   4.077  15.288  0.1753 -0.7971  0.3222
  691TMC3    C610219   2.652   4.057  15.300 -0.6457  0.3903  0.5843
  691TMC3     C10220   2.847   4.391  15.462  1.0281 -0.4056 -0.0571
  691TMC3     O10221   2.788   4.412  15.567  0.5053  0.3878 -0.4804
  691TMC3     H10222   2.591   4.346  15.462 -0.1340  0.0755  0.1275
  691TMC3    H110223   2.963   4.201  15.320 -0.6560  1.8215  1.3694
  691TMC3    H210224   2.608   3.963  15.270 -0.0566  0.3424 -0.1294
  691TMC3    C710225   2.869   3.957  15.312 -0.2248  1.3510  0.1759
  691TMC3    C810226   2.470   4.085  15.450  0.0155 -0.4786 -0.3758
  691TMC3    O110227   2.989   3.950  15.303  0.0053  0.3330  0.0661
  691TMC3    O210228   2.465   3.962  15.449  0.6440 -0.6676  0.1180
  692TMC3    C110229   4.564   0.883  15.669 -0.2264  0.1648  0.1017
  692TMC3    C210230   4.670   0.964  15.706  0.0020 -0.4895  0.9091
  692TMC3    C310231   0.043   0.908  15.784  0.3677  0.4888  0.1448
  692TMC3    C410232   4.575   0.745  15.680 -0.0082  0.1860 -0.0042
  692TMC3    C510233   4.674   0.693  15.753 -0.3348 -0.2462  0.0253
  692TMC3    C610234   0.041   0.773  15.809  0.4628 -1.2428 -0.3419
  692TMC3     C10235   4.442   0.919  15.734  0.0574 -0.3855  0.3711
  692TMC3     O10236   4.379   0.835  15.797  0.3143 -0.4319  0.1404
  692TMC3     H10237   4.651   1.070  15.721 -1.6110 -0.7799  0.8991
  692TMC3    H110238   4.487   0.683  15.664  0.0507 -0.2623  1.4756
  692TMC3    H210239   0.131   0.729  15.850  0.6952  0.4506  0.9955
  692TMC3    C710240   4.689   0.552  15.752  0.2223 -0.2814 -0.2524
  692TMC3    C810241   0.111   0.993  15.878  0.4246 -0.4168  0.5411
  692TMC3    O110242   4.615   0.495  15.675  0.0127  0.1450  0.1342
  692TMC3    O210243   0.173   1.088  15.844 -0.2480  0.3428 -0.4497
  693MPD2     C10244   4.271   3.366  10.667 -0.2258  0.2305 -0.2525
  693MPD2    C110245   4.210   3.248  10.632  0.1506 -0.0298 -0.6210
  693MPD2    C210246   4.282   3.141  10.592 -0.1637 -0.1596 -0.1945
  693MPD2    C310247   4.420   3.143  10.582 -0.3281  0.2902  0.1934
  693MPD2    C410248   4.482   3.254  10.638 -0.2079 -0.1181  0.2574
  693MPD2    C510249   4.409   3.364  10.678  0.6235  0.6945  0.0217
  693MPD2     H10250   4.231   3.048  10.571 -2.0419  0.4458  1.8017
  693MPD2    H110251   4.591   3.252  10.643 -0.2091 -0.8793  0.0748
  693MPD2    H210252   4.219   3.448  10.712  1.7909  2.1050 -1.3197
  693MPD2    H310253   4.450   3.458  10.713 -0.2329  0.4183  1.7456
  693MPD2     N10254   4.498   3.025  10.576  0.1713  0.0487 -0.1573
  693MPD2    H510255   4.597   3.024  10.601 -0.1090 -0.5243  0.9084
  693MPD2    N110256   4.072   3.244  10.651 -0.2887 -0.5184 -0.1773
  693MPD2    H710257   4.030   3.327  10.692 -1.7373 -0.5093 -1.6845
  694TMC3    C110258   3.854   3.133  10.661  0.0148  0.5127  0.1410
  694TMC3    C210259   3.780   3.027  10.616 -0.8110 -0.0865 -0.0076
  694TMC3    C310260   3.678   2.972  10.692 -0.7934 -0.5049  0.1507
  694TMC3    C410261   3.828   3.190  10.789  0.3241  0.2085 -1.2221
  694TMC3    C510262   3.738   3.119  10.863  0.5965  1.1211  0.3154
  694TMC3    C610263   3.665   3.019  10.820 -0.5613 -0.1578 -0.5471
  694TMC3     C10264   3.987   3.144  10.609 -0.0909 -0.5281 -0.0643
  694TMC3     O10265   4.018   3.073  10.510  0.4582  0.3466  0.2456
  694TMC3     H10266   3.794   2.996  10.513  0.6519 -2.6828  0.9609
  694TMC3    H110267   3.891   3.265  10.836 -0.8896  0.0002  0.7176
  694TMC3    H210268   3.606   2.957  10.886  2.8552 -0.7831  1.9100
  694TMC3    C710269   3.746   3.147  11.006 -0.7039 -0.7897  0.4152
  694TMC3    C810270   3.602   2.851  10.652 -0.2154 -0.1673 -0.4891
  694TMC3    O110271   3.822   3.233  11.045  0.2916 -0.5716 -0.0660
  694TMC3    O210272   3.537   2.791  10.738 -0.0229 -0.2495  0.4097
  695MPD2     C10273   0.611   0.452  13.498 -0.2191 -0.1221 -0.9945
  695MPD2    C110274   0.541   0.385  13.594 -0.3388  0.7101  0.5250
  695MPD2    C210275   0.405   0.386  13.595  0.6564 -0.0413 -0.3132
  695MPD2    C310276   0.333   0.464  13.506  0.3937  0.2216  0.0341
  695MPD2    C410277   0.402   0.518  13.401  0.3733  0.0059  0.8126
  695MPD2    C510278   0.544   0.513  13.397  0.4269  0.0043 -0.5433
  695MPD2     H10279   0.356   0.331  13.675  0.0605 -0.2897 -0.8498
  695MPD2    H110280   0.355   0.576  13.322  3.2066  0.4876 -0.5462
  695MPD2    H210281   0.717   0.472  13.507 -0.5067  0.8733  0.1657
  695MPD2    H310282   0.600   0.556  13.315 -0.0066  0.2122 -0.7337
  695MPD2     N10283   0.187   0.469  13.505 -0.9355  0.1233  0.3491
  695MPD2    H510284   0.135   0.541  13.455 -0.6867 -0.5286 -0.8491
  695MPD2    N110285   0.598   0.329  13.706 -0.4232 -0.7321 -0.2342
  695MPD2    H710286   0.537   0.291  13.777  0.5317  0.5422  1.2855
  696TMC3    C110287   4.700   0.416  13.594 -0.1231 -0.4723  0.8264
  696TMC3    C210288   4.639   0.342  13.688  0.0577  0.0252  0.3813
  696TMC3    C310289   4.518   0.396  13.725 -0.2520 -0.4865 -0.9006
  696TMC3    C410290   4.649   0.526  13.537  0.7747 -0.8361 -0.2499
  696TMC3    C510291   4.517   0.558  13.555  0.2444 -0.0311  0.0690
  696TMC3    C610292   4.453   0.498  13.659 -0.4621  0.6639  0.4254
  696TMC3     C10293   0.120   0.384  13.580 -0.1902 -0.0497  0.5328
  696TMC3     O10294   0.149   0.274  13.624  0.5084 -0.2574 -0.0945
  696TMC3     H10295   4.673   0.248  13.728  0.9716 -0.3312 -1.2222
  696TMC3    H110296   4.710   0.584  13.469 -0.2927 -1.5055 -1.7837
  696TMC3    H210297   4.356   0.541  13.683 -2.4741 -2.7816 -1.5145
  696TMC3    C710298   4.464   0.685  13.525  0.0578 -0.3525 -0.4374
  696TMC3    C810299   4.481   0.374  13.863 -0.7539  0.8918 -0.1333
  696TMC3    O110300   4.426   0.695  13.410 -0.1538  0.4531 -0.2540
  696TMC3    O210301   4.570   0.339  13.935  0.0492 -0.6787 -0.0379
  697MPD2     C10302   4.679   2.707  16.006  0.5858  0.5649 -0.8684
  697MPD2    C110303   4.676   2.633  15.893  0.5436  0.1589 -0.4164
  697MPD2    C210304   4.710   2.698  15.778 -0.1625 -0.2602  0.4178
  697MPD2    C310305   0.040   2.829  15.773  0.1181 -0.6500 -0.0524
  697MPD2    C410306   0.059   2.892  15.885 -0.1697 -0.1382 -0.6398
  697MPD2    C510307   0.012   2.827  15.995 -0.3299 -0.0522  0.6083
  697MPD2     H10308   4.705   2.656  15.678 -2.3933 -1.1718  0.9028
  697MPD2    H110309   0.110   2.987  15.896  0.6859 -1.0818  3.5880
  697MPD2    H210310   4.647   2.667  16.102 -0.4812 -0.2704 -1.5701
  697MPD2    H310311   0.021   2.877  16.091  0.1069  0.9414  0.0459
  697MPD2     N10312   0.073   2.888  15.645 -0.1120  0.0557 -0.2188
  697MPD2    H510313   0.072   2.827  15.564  1.2569 -0.1924 -0.0422
  697MPD2    N110314   4.644   2.494  15.895  0.2354 -0.0729 -0.0660
  697MPD2    H710315   4.643   2.457  15.801  1.1192  1.7525 -0.7742
  698TMC3    C110316   0.159   3.026  15.470 -0.0803 -0.5709 -0.5429
  698TMC3    C210317   0.280   3.090  15.445 -0.2854  0.1411  0.3695
  698TMC3    C310318   0.344   3.081  15.320  0.5933 -0.1890  0.1089
  698TMC3    C410319   0.098   2.942  15.378  0.0151  0.2388  0.2796
  698TMC3    C510320   0.173   2.926  15.260  0.2799  0.6502  0.5008
  698TMC3    C610321   0.287   3.000  15.228  0.7125 -0.4903 -0.1834
  698TMC3     C10322   0.120   3.012  15.611 -0.5630  0.2527  0.3615
  698TMC3     O10323   0.154   3.102  15.684  0.1787 -0.7687  0.8681
  698TMC3     H10324   0.330   3.144  15.524 -0.4668  0.7469  0.0680
  698TMC3    H110325   0.008   2.884  15.395  0.2115 -0.3310 -0.6281
  698TMC3    H210326   0.332   2.984  15.132 -3.2991 -1.4454 -1.9185
  698TMC3    C710327   0.121   2.828  15.162  0.6084 -0.4072 -0.0406
  698TMC3    C810328   0.485   3.115  15.328  0.0601 -0.2364  0.3656
  698TMC3    O110329   0.001   2.818  15.152 -0.0434  0.2529  0.0671
  698TMC3    O210330   0.539   3.104  15.434  0.5630 -0.1106 -0.2158
  699TMC3    C110331   4.196   0.638  13.144 -0.6972 -0.2542 -0.7441
  699TMC3    C210332   4.231   0.512  13.180  0.3843 -0.6435  0.1222
  699TMC3    C310333   4.168   0.459  13.289  0.0872 -0.0152  0.3666
  699TMC3    C410334   4.105   0.705  13.213 -0.0460 -0.3459 -0.1977
  699TMC3    C510335   4.034   0.651  13.319  0.5437  0.6813  0.7661
  699TMC3    C610336   4.061   0.520  13.351  0.1899 -0.0796  0.5683
  699TMC3     C10337   4.238   0.692  13.015 -0.3992  0.1156 -0.0899
  699TMC3     O10338   4.167   0.764  12.953 -0.3542 -0.0884  0.3384
  699TMC3     H10339   4.298   0.456  13.116  0.8319 -0.8179  0.7514
  699TMC3    H110340   4.083   0.807  13.184 -3.2757 -0.4856  1.7795
  699TMC3    H210341   4.003   0.474  13.430 -2.3661  0.0741 -1.2331
  699TMC3    C710342   3.993   0.740  13.424 -0.6035  0.5710 -0.0014
  699TMC3    C810343   4.236   0.359  13.370  0.1517 -0.4001 -0.1880
  699TMC3    O110344   3.951   0.851  13.390 -0.0430 -0.2885 -0.1878
  699TMC3    O210345   4.190   0.323  13.473 -0.7702 -0.0821  0.2527
  700TMC3    C110346   3.683   2.811   0.090 -0.6679 -0.6924  0.9896
  700TMC3    C210347   3.732   2.690   0.090  0.3499  0.5430 -0.4417
  700TMC3    C310348   3.858   2.666   0.140 -0.6272 -0.4874 -0.0019
  700TMC3    C410349   3.752   2.918   0.140 -0.3420  0.1180 -0.9424
  700TMC3    C510350   3.871   2.894   0.202 -0.0823 -0.2773  0.3443
  700TMC3    C610351   3.931   2.769   0.200  0.4863 -0.1613 -0.3403
  700TMC3     C10352   3.624   2.847  17.663 -0.1151 -0.3140 -0.1076
  700TMC3     O10353   3.529   2.781  17.620 -0.3566 -0.0737 -0.8399
  700TMC3     H10354   3.692   2.615   0.022 -1.7250  2.6924 -1.5544
  700TMC3    H110355   3.706   3.017   0.139 -0.5354  0.0294 -0.6223
  700TMC3    H210356   4.032   2.747   0.235 -0.1206  0.2932  1.6895
  700TMC3    C710357   3.957   3.001   0.249 -0.5420 -0.3006 -0.1119
  700TMC3    C810358   3.931   2.551   0.096 -1.0061  0.3601 -0.7361
  700TMC3    O110359   4.078   2.994   0.234  0.2325 -0.9097 -0.3142
  700TMC3    O210360   4.050   2.568   0.067 -0.4704  0.6450  0.0465
  701TMC3    C110361   3.796   1.897  15.587 -0.6375 -0.0506  0.2288
  701TMC3    C210362   3.716   1.922  15.479 -0.3832  0.4585  0.2303
  701TMC3    C310363   3.728   2.051  15.435 -0.2996 -0.3944  0.3141
  701TMC3    C410364   3.865   1.990  15.660  0.3107 -0.7088 -0.0980
  701TMC3    C510365   3.879   2.110  15.603  0.2100  0.7251  0.4367
  701TMC3    C610366   3.803   2.150  15.499 -0.9285  0.0597  0.4687
  701TMC3     C10367   3.795   1.762  15.642  0.1994 -0.3793  0.1514
  701TMC3     O10368   3.786   1.749  15.768  0.0045 -0.4024  0.3838
  701TMC3     H10369   3.659   1.848  15.424  0.0349  0.4486 -0.1861
  701TMC3    H110370   3.918   1.960  15.750  2.0873 -0.0634 -0.9427
  701TMC3    H210371   3.795   2.254  15.470 -3.0838 -0.0366  0.7309
  701TMC3    C710372   3.976   2.209  15.656  0.3850  0.1784 -0.2398
  701TMC3    C810373   3.650   2.096  15.326  0.0592 -0.5799  0.7860
  701TMC3    O110374   4.002   2.299  15.578 -0.4235 -0.3996  0.3417
  701TMC3    O210375   3.678   2.201  15.267  0.5950 -0.0368 -0.1869
  702MPD2     C10376   3.144   3.399  10.210 -0.2805 -0.3116 -0.0882
  702MPD2    C110377   3.121   3.503  10.295  1.0236  0.2635 -0.0716
  702MPD2    C210378   3.217   3.607  10.314  0.4080  0.5265  0.5190
  702MPD2    C310379   3.331   3.614  10.242  0.5153  1.3122 -0.3474
  702MPD2    C410380   3.357   3.508  10.162 -0.0082 -0.0012 -0.1287
  702MPD2    C510381   3.265   3.405  10.144 -0.0994  0.5089 -0.3957
  702MPD2     H10382   3.192   3.682  10.388  0.8385  1.2167 -0.0192
  702MPD2    H110383   3.448   3.506  10.103  0.1646 -1.1217  0.1752
  702MPD2    H210384   3.081   3.312  10.200 -1.2054  0.6812 -2.9513
  702MPD2    H310385   3.281   3.326  10.071  0.7770  0.2215  0.1070
  702MPD2     N10386   3.426   3.717  10.264 -0.7124  0.7618  0.6039
  702MPD2    H510387   3.471   3.750  10.179  0.7498  1.3664  1.6075
  702MPD2    N110388   3.007   3.515  10.380 -0.0035  0.0699 -0.1322
  702MPD2    H710389   3.007   3.594  10.444  1.0934  1.1574 -1.4920
  703TMC3    C110390   3.489   3.905  10.377  0.5193 -0.2211 -0.3262
  703TMC3    C210391   3.412   3.996  10.449 -0.3326  0.2244  0.0119
  703TMC3    C310392   3.409   4.129  10.416  0.9382  0.2538 -0.1837
  703TMC3    C410393   3.548   3.952  10.264 -0.6268 -0.5464 -0.3275
  703TMC3    C510394   3.558   4.085  10.251  0.5184  0.2920  0.5568
  703TMC3    C610395   3.493   4.178  10.321  0.3315  0.1044  0.2258
  703TMC3     C10396   3.447   3.769  10.386  0.0088  0.6450  0.4559
  703TMC3     O10397   3.394   3.743  10.493 -0.3372  0.1895 -0.1562
  703TMC3     H10398   3.364   3.963  10.540 -0.9022  0.3578 -0.2417
  703TMC3    H110399   3.610   3.880  10.212  0.5330  0.7034 -0.6807
  703TMC3    H210400   3.482   4.282  10.292 -1.8194 -0.4838 -1.0866
  703TMC3    C710401   3.622   4.143  10.131  0.5638 -0.2851 -1.3278
  703TMC3    C810402   3.328   4.225  10.494 -0.4589 -0.2127 -0.1481
  703TMC3    O110403   3.637   4.265  10.129 -0.0766 -0.3650 -0.1708
  703TMC3    O210404   3.352   4.344  10.491  0.5845 -0.3927 -0.0040
  704TMC3    C110405   0.828   2.298  12.553  0.1382 -0.3607 -0.0610
  704TMC3    C210406   0.948   2.360  12.523 -0.0330  0.2033  0.3067
  704TMC3    C310407   1.053   2.332  12.596 -0.0134  0.7025 -0.3250
  704TMC3    C410408   0.818   2.207  12.656 -0.0985 -0.2345  1.0727
  704TMC3    C510409   0.934   2.169  12.721  0.8921  0.2813 -0.2714
  704TMC3    C610410   1.055   2.234  12.690 -0.3666 -0.3169  0.5193
  704TMC3     C10411   0.741   2.269  12.437  0.0000 -0.4056 -0.1491
  704TMC3     O10412   0.627   2.237  12.447  0.4668  0.0746  0.2569
  704TMC3     H10413   0.963   2.445  12.457 -0.1779 -0.7296 -0.9323
  704TMC3    H110414   0.732   2.141  12.652  0.2787 -0.7000  0.5509
  704TMC3    H210415   1.148   2.188  12.720  0.1507 -0.8584 -1.9737
  704TMC3    C710416   0.941   2.047  12.790 -0.4127  0.1850 -0.1897
  704TMC3    C810417   1.179   2.330  12.524  0.4111 -0.0274  0.3789
  704TMC3    O110418   1.048   1.983  12.787  0.2996 -0.4200  0.3377
  704TMC3    O210419   1.166   2.330  12.403  0.2392  0.1365 -0.0040
  705MPD2     C10420   0.309   0.496  16.462 -0.1333  0.2536  0.7043
  705MPD2    C110421   0.327   0.623  16.504  0.1299  0.2530 -0.9071
  705MPD2    C210422   0.316   0.652  16.638  0.6748 -0.3215  0.0327
  705MPD2    C310423   0.276   0.554  16.731  0.7715  0.5626 -0.0920
  705MPD2    C410424   0.243   0.428  16.686 -0.1803 -1.0027 -0.3060
  705MPD2    C510425   0.267   0.404  16.551  0.2477  0.2647 -0.1022
  705MPD2     H10426   0.351   0.746  16.679  0.8137 -0.0721 -0.6675
  705MPD2    H110427   0.221   0.346  16.754  0.3591 -1.3597 -0.5600
  705MPD2    H210428   0.319   0.461  16.360 -1.1637 -0.8705  0.9980
  705MPD2    H310429   0.247   0.302  16.520 -1.9922  1.0793 -1.3410
  705MPD2     N10430   0.258   0.584  16.869  0.2926  0.0496 -0.3585
  705MPD2    H510431   0.224   0.507  16.926 -1.3959  1.7475  0.9380
  705MPD2    N110432   0.381   0.721  16.420  0.1303 -0.1651 -0.2754
  705MPD2    H710433   0.424   0.798  16.470  1.4751 -1.8223  1.1520
  706TMC3    C110434   0.734   0.820  16.141 -0.1019 -0.0454 -0.1123
  706TMC3    C210435   0.763   0.931  16.214 -0.5646 -0.1969 -1.0496
  706TMC3    C310436   0.663   0.976  16.302 -0.1820 -0.0454  0.4885
  706TMC3    C410437   0.617   0.750  16.161 -0.4758  0.3041  0.5895
  706TMC3    C510438   0.525   0.799  16.248 -0.5980  1.0304  0.7522
  706TMC3    C610439   0.544   0.916  16.318 -0.5197 -0.4550 -0.5319
  706TMC3     C10440   0.850   0.739  16.102 -0.0454 -0.5629 -0.0632
  706TMC3     O10441   0.957   0.759  16.161  0.4545  0.3026  0.5688
  706TMC3     H10442   0.862   0.975  16.212  0.4298 -2.3617  0.4292
  706TMC3    H110443   0.606   0.654  16.113  0.9372 -1.1573  3.1664
  706TMC3    H210444   0.466   0.963  16.378  0.7154  2.6200 -1.3515
  706TMC3    C710445   0.417   0.710  16.290 -0.1507 -0.0142 -0.4471
  706TMC3    C810446   0.665   1.114  16.348  0.1172  0.5593 -0.0838
  706TMC3    O110447   0.385   0.626  16.209  0.1478 -0.9908 -0.4376
  706TMC3    O210448   0.573   1.158  16.421  0.4875 -0.5078  0.5924
  707TMC3    C110449   2.501   4.090   1.329  0.5412 -0.3824  0.1516
  707TMC3    C210450   2.581   4.025   1.424 -0.1839  0.2675 -0.6896
  707TMC3    C310451   2.575   4.067   1.550  0.1441 -0.4441  0.9774
  707TMC3    C410452   2.408   4.184   1.364  0.3029 -0.6515  0.0044
  707TMC3    C510453   2.398   4.220   1.492  0.4012  0.2150  0.1931
  707TMC3    C610454   2.488   4.167   1.581 -0.2785 -0.4588 -0.4925
  707TMC3     C10455   2.531   4.066   1.187 -0.0365 -0.6687  0.0114
  707TMC3     O10456   2.571   3.959   1.145 -0.7287 -0.2977 -0.9316
  707TMC3     H10457   2.646   3.949   1.382 -2.2992 -1.3894 -0.9709
  707TMC3    H110458   2.349   4.231   1.286  0.6546  2.1772  1.4255
  707TMC3    H210459   2.495   4.208   1.681  1.6690 -2.2503  0.0993
  707TMC3    C710460   2.304   4.322   1.539  0.4468  0.1234  1.1528
  707TMC3    C810461   2.662   4.005   1.645 -0.7938 -0.4435 -0.7722
  707TMC3    O110462   2.277   4.304   1.655  0.2764 -0.2177  0.3698
  707TMC3    O210463   2.652   4.048   1.760  0.2370  0.1793  0.1484
  708MPD2     C10464   3.640   3.576  13.852 -0.4135  0.4635 -0.2452
  708MPD2    C110465   3.580   3.665  13.936 -0.2973 -0.1999 -0.2024
  708MPD2    C210466   3.591   3.643  14.067 -0.7496  0.4870 -0.1775
  708MPD2    C310467   3.662   3.543  14.124 -0.1923 -0.1095  0.6856
  708MPD2    C410468   3.736   3.461  14.039 -0.0604 -0.3697  0.2160
  708MPD2    C510469   3.722   3.485  13.904 -0.2454  0.3302  0.2607
  708MPD2     H10470   3.534   3.709  14.132  1.4683  1.3143  0.9052
  708MPD2    H110471   3.795   3.377  14.074  1.3111  0.7828  0.7032
  708MPD2    H210472   3.654   3.598  13.747  1.4005  1.3043  0.1814
  708MPD2    H310473   3.780   3.423  13.836 -0.7162 -0.3417  0.4743
  708MPD2     N10474   3.653   3.527  14.267  0.3268 -0.3627 -0.0163
  708MPD2    H510475   3.625   3.610  14.320 -1.2393 -0.2062 -1.0936
  708MPD2    N110476   3.497   3.759  13.872  0.0109  0.7294 -0.0704
  708MPD2    H710477   3.493   3.763  13.770  2.2600 -0.3883 -0.2104
  709TMC3    C110478   3.347   3.943  13.876 -0.9404 -0.1137 -0.1887
  709TMC3    C210479   3.262   3.867  13.798 -0.3122 -0.0574  0.5234
  709TMC3    C310480   3.128   3.882  13.804 -0.1645 -1.1671  0.4351
  709TMC3    C410481   3.291   4.044  13.958 -0.7355  0.5226 -0.0306
  709TMC3    C510482   3.157   4.040  13.973  0.6005 -0.7459  0.2015
  709TMC3    C610483   3.073   3.965  13.893  0.6951 -0.2223  0.9465
  709TMC3     C10484   3.444   3.870  13.937 -0.1766 -0.2335  0.4647
  709TMC3     O10485   3.455   3.906  14.054  0.4866 -0.1705 -0.4862
  709TMC3     H10486   3.304   3.785  13.742  0.8385  0.9814 -0.1291
  709TMC3    H110487   3.364   4.102  14.014 -1.6648  0.5596  1.1313
  709TMC3    H210488   2.970   3.963  13.924  0.7127  2.7352  1.2474
  709TMC3    C710489   3.123   4.037  14.112 -0.3266 -0.2888 -0.6218
  709TMC3    C810490   3.063   3.751  13.789 -0.4860  0.4944  0.1161
  709TMC3    O110491   3.006   4.062  14.128 -0.2771  0.4095 -0.4026
  709TMC3    O210492   3.014   3.695  13.888 -0.3458 -0.1648 -0.2374
  710TMC3    C110493   4.376   0.080   0.596 -0.9325 -0.0215  0.2046
  710TMC3    C210494   4.471   0.069   0.500  0.3863  0.5296 -0.4457
  710TMC3    C310495   4.521   4.670   0.475 -0.5891 -0.0280 -0.5717
  710TMC3    C410496   4.335   4.704   0.674 -0.2159 -0.0093 -0.6006
  710TMC3    C510497   4.383   4.577   0.635 -0.2399 -0.5447  0.1988
  710TMC3    C610498   4.487   4.560   0.545 -0.6971 -0.0764  0.2141
  710TMC3     C10499   4.333   0.213   0.637  0.7313 -0.0664  0.7427
  710TMC3     O10500   4.302   0.290   0.547  0.5860  0.6099  0.3443
  710TMC3     H10501   4.505   0.156   0.444 -1.1923  0.0344 -2.1766
  710TMC3    H110502   4.254   0.004   0.741  1.3407  0.9856  0.9142
  710TMC3    H210503   4.529   4.464   0.516  2.2889  0.9595  1.0785
  710TMC3    C710504   4.361   4.475   0.739  0.7466  0.4301  0.3755
  710TMC3    C810505   4.608   4.658   0.351  0.3282 -0.2775 -0.4376
  710TMC3    O110506   4.260   4.489   0.800 -0.7789  0.6700  0.3317
  710TMC3    O210507   4.628   0.038   0.294 -0.4090 -0.1479  0.3361
  711TMC3    C110508   4.453   1.594  15.273  0.5299  0.2673  0.9724
  711TMC3    C210509   4.431   1.623  15.403 -0.0147 -0.1156 -0.3832
  711TMC3    C310510   4.531   1.626  15.495  0.4117  0.4627 -0.4970
  711TMC3    C410511   4.589   1.574  15.231 -0.0100 -0.2777 -0.4656
  711TMC3    C510512   4.678   1.539  15.333 -0.6955  0.1766 -0.4483
  711TMC3    C610513   4.656   1.576  15.465 -0.0648  0.5285  0.5993
  711TMC3     C10514   4.364   1.503  15.206 -0.2321 -0.5295  0.2866
  711TMC3     O10515   4.407   1.465  15.099 -0.1422  0.2873 -0.1779
  711TMC3     H10516   4.335   1.656  15.439  0.0372  0.5314 -0.8473
  711TMC3    H110517   4.617   1.546  15.129 -1.4502  1.8370 -1.4462
  711TMC3    H210518   0.003   1.543  15.539 -2.2927 -1.1047  2.0267
  711TMC3    C710519   4.708   1.402  15.336  0.3740 -0.2802  0.1087
  711TMC3    C810520   4.489   1.617  15.630 -0.0588  0.2479  0.8387
  711TMC3    O110521   0.055   1.358  15.422  0.7017 -0.1388  0.2728
  711TMC3    O210522   4.366   1.590  15.640  0.0705 -0.2644  0.4975
  712MPD2     C10523   1.325   2.226  14.029  0.4881  0.4150  0.8002
  712MPD2    C110524   1.186   2.216  13.981  0.3161 -0.3237  0.2799
  712MPD2    C210525   1.143   2.292  13.877  0.6802 -0.5196 -0.8437
  712MPD2    C310526   1.223   2.397  13.834  0.0308 -0.0091  1.0651
  712MPD2    C410527   1.354   2.410  13.878  0.0626 -0.4788 -0.9793
  712MPD2    C510528   1.401   2.325  13.970 -0.4451  0.3369 -0.3662
  712MPD2     H10529   1.048   2.269  13.830  0.7276 -2.2332 -0.1075
  712MPD2    H110530   1.423   2.478  13.830  0.9167 -0.7430 -0.1179
  712MPD2    H210531   1.383   2.157  14.088  0.6586  0.2327  0.4175
  712MPD2    H310532   1.495   2.351  14.017  0.0420  1.9931 -2.2284
  712MPD2     N10533   1.179   2.499  13.739 -0.0135  0.0530  0.0121
  712MPD2    H510534   1.246   2.556  13.689  1.4484 -0.5264  1.2894
  712MPD2    N110535   1.098   2.116  14.028 -0.2459 -0.3927 -0.5563
  712MPD2    H710536   1.006   2.106  13.986 -1.0505 -1.9539  1.5479
  713TMC3    C110537   1.039   2.609  13.587  0.5852 -0.2958 -0.4355
  713TMC3    C210538   1.150   2.633  13.501 -0.1114 -0.0117 -0.6931
  713TMC3    C310539   1.151   2.753  13.435 -0.4546  0.2368  0.5107
  713TMC3    C410540   0.949   2.703  13.608  0.8825  0.5178 -0.0944
  713TMC3    C510541   0.952   2.817  13.541 -0.0035  0.2844 -0.1723
  713TMC3    C610542   1.060   2.852  13.462 -0.3147  0.3292 -0.4255
  713TMC3     C10543   1.050   2.507  13.686 -0.5036  0.5222 -0.6323
  713TMC3     O10544   0.951   2.463  13.737 -0.4240 -0.0145  0.5086
  713TMC3     H10545   1.233   2.564  13.486 -0.4409 -0.8360  1.2615
  713TMC3    H110546   0.867   2.686  13.677  0.1749  2.3411 -0.4891
  713TMC3    H210547   1.064   2.944  13.405  0.7092 -0.5867 -1.8464
  713TMC3    C710548   0.833   2.891  13.520 -0.6315 -0.5394 -0.0208
  713TMC3    C810549   1.252   2.797  13.351  0.3364  0.5778 -0.6821
  713TMC3    O110550   0.721   2.839  13.520 -0.2066 -0.6450 -1.3242
  713TMC3    O210551   1.278   2.915  13.361 -0.0063  0.6632  0.3845
  714MPD2     C10552   2.659   1.503   1.711  0.4759  0.7784 -0.3319
  714MPD2    C110553   2.648   1.405   1.617 -0.4426 -0.1636 -0.9617
  714MPD2    C210554   2.599   1.427   1.491 -0.6543  0.1613 -0.5059
  714MPD2    C310555   2.567   1.552   1.443 -0.1392  0.3581 -0.1700
  714MPD2    C410556   2.575   1.649   1.540 -0.1240 -0.4144 -0.3032
  714MPD2    C510557   2.616   1.624   1.667  0.6188 -0.7879  0.8096
  714MPD2     H10558   2.613   1.343   1.424 -1.5096  0.8786 -1.5995
  714MPD2    H110559   2.543   1.750   1.518  0.4479 -0.4060 -1.1016
  714MPD2    H210560   2.684   1.484   1.815  0.1738  1.2568 -0.1727
  714MPD2    H310561   2.626   1.700   1.743 -0.5785  2.7908 -2.6093
  714MPD2     N10562   2.520   1.580   1.308  0.1158  0.1472 -0.3954
  714MPD2    H510563   2.532   1.501   1.245  1.0696  1.2590 -1.6022
  714MPD2    N110564   2.688   1.275   1.655 -0.1559  0.7565 -0.2383
  714MPD2    H710565   2.727   1.266   1.749  1.2102 -2.9812 -1.1561
  715TMC3    C110566   2.754   1.050   1.659  0.1262  0.2842 -0.4130
  715TMC3    C210567   2.744   0.919   1.620  0.0410 -0.6151 -0.4547
  715TMC3    C310568   2.833   0.828   1.665 -0.2319 -1.1475  0.8240
  715TMC3    C410569   2.854   1.092   1.747 -0.6230 -0.2546 -0.6601
  715TMC3    C510570   2.939   0.992   1.792  0.2065 -0.6929  0.4017
  715TMC3    C610571   2.936   0.859   1.753 -0.4876 -0.0075  0.2422
  715TMC3     C10572   2.682   1.154   1.584 -0.0977 -0.2802  0.4055
  715TMC3     O10573   2.636   1.124   1.473  0.8428 -0.4206 -0.4424
  715TMC3     H10574   2.665   0.891   1.551  1.7846 -2.0850 -1.8761
  715TMC3    H110575   2.880   1.196   1.762 -2.5183  0.1343 -0.0614
  715TMC3    H210576   3.017   0.794   1.782  0.7815  1.7317  0.6088
  715TMC3    C710577   3.058   1.046   1.857  0.8972  0.6422  0.0096
  715TMC3    C810578   2.861   0.706   1.590 -0.3302 -0.7188  0.2011
  715TMC3    O110579   3.070   1.169   1.832  0.2025 -0.2237 -0.0503
  715TMC3    O210580   2.818   0.687   1.476  1.0187  0.6246  0.4274
  716MPD2     C10581   2.948   3.610   9.767  0.0264 -0.7438  0.7481
  716MPD2    C110582   2.904   3.517   9.678  0.2245 -1.2343 -0.7172
  716MPD2    C210583   2.972   3.402   9.674  0.4976  0.0215 -0.2406
  716MPD2    C310584   3.082   3.370   9.750 -0.2487  0.1324 -0.2748
  716MPD2    C410585   3.134   3.476   9.825 -0.0734 -0.3799  0.1074
  716MPD2    C510586   3.063   3.594   9.835 -0.3158 -0.1291  0.6560
  716MPD2     H10587   2.931   3.318   9.618  2.3277 -1.8647  1.2283
  716MPD2    H110588   3.229   3.461   9.876  0.5253  2.0655 -0.2838
  716MPD2    H210589   2.891   3.702   9.778  2.0999  0.8582 -1.9429
  716MPD2    H310590   3.092   3.667   9.909  0.0291 -1.1935  1.5775
  716MPD2     N10591   3.146   3.245   9.741 -0.3976 -0.1915 -0.1712
  716MPD2    H510592   3.121   3.184   9.664  1.5352  0.0035 -0.9316
  716MPD2    N110593   2.784   3.538   9.608  0.5867  0.0937  0.0637
  716MPD2    H710594   2.729   3.621   9.630  1.7818  1.1453 -0.9498
  717TMC3    C110595   3.284   3.061   9.779 -0.3236 -0.0795 -0.0486
  717TMC3    C210596   3.174   2.999   9.724 -0.2720  0.3759  0.2627
  717TMC3    C310597   3.194   2.928   9.616 -0.1881 -0.3621  0.0040
  717TMC3    C410598   3.415   3.043   9.737  0.3680 -0.6849  0.1017
  717TMC3    C510599   3.422   2.971   9.620  0.6625  0.5481  0.1274
  717TMC3    C610600   3.320   2.909   9.557  0.4342 -0.7107  0.6640
  717TMC3     C10601   3.254   3.195   9.810 -0.5985 -0.2126 -0.2450
  717TMC3     O10602   3.337   3.263   9.869  0.6426 -0.0545 -0.3494
  717TMC3     H10603   3.081   3.009   9.779  0.1398  2.1399  0.6486
  717TMC3    H110604   3.493   3.115   9.759 -0.7222  0.9099 -1.2415
  717TMC3    H210605   3.337   2.855   9.465 -0.0480 -0.7367  0.5893
  717TMC3    C710606   3.551   2.961   9.564  0.6964  0.3277 -0.2114
  717TMC3    C810607   3.066   2.910   9.549  0.0261 -0.3209  0.4589
  717TMC3    O110608   3.558   2.932   9.444  0.5045  0.6937 -0.0350
  717TMC3    O210609   2.969   2.960   9.606 -0.3130  0.0267 -0.1424
  718MPD2     C10610   2.560   2.289  13.200  0.6104  0.0323  0.3869
  718MPD2    C110611   2.543   2.255  13.066 -0.4619 -1.2456  0.0294
  718MPD2    C210612   2.443   2.164  13.032 -0.3559  0.9892 -0.4212
  718MPD2    C310613   2.360   2.109  13.124 -0.3841 -0.3757 -0.4325
  718MPD2    C410614   2.378   2.137  13.258  0.1697  0.2760  0.0164
  718MPD2    C510615   2.480   2.229  13.294 -0.3518  0.2480  0.0233
  718MPD2     H10616   2.420   2.157  12.926  0.9552  0.3091 -0.6584
  718MPD2    H110617   2.327   2.088  13.340  0.9328 -1.3802 -0.5104
  718MPD2    H210618   2.639   2.358  13.227 -0.0618  0.4766  1.2405
  718MPD2    H310619   2.509   2.231  13.398  0.1722 -2.1116 -0.0768
  718MPD2     N10620   2.261   2.021  13.072 -0.5858 -0.3436  0.2169
  718MPD2    H510621   2.249   2.015  12.972  3.3741 -3.2952 -0.1087
  718MPD2    N110622   2.615   2.304  12.959 -0.1023 -0.0098  0.5038
  718MPD2    H710623   2.589   2.258  12.872  2.6347 -2.1758  0.8162
  719TMC3    C110624   2.766   2.405  12.833 -0.2391  0.3778 -0.4132
  719TMC3    C210625   2.716   2.318  12.743 -0.7475  0.6772 -0.7282
  719TMC3    C310626   2.649   2.367  12.625  0.0675 -0.4706  0.1920
  719TMC3    C410627   2.759   2.539  12.801 -0.9859 -0.1727  0.0480
  719TMC3    C510628   2.699   2.585  12.683  0.0426 -0.0644 -0.0756
  719TMC3    C610629   2.637   2.501  12.595  0.5458  0.1227 -0.4365
  719TMC3     C10630   2.724   2.384  12.965 -0.3308 -0.2461 -0.6130
  719TMC3     O10631   2.774   2.445  13.052 -0.1960  0.1112 -0.1973
  719TMC3     H10632   2.708   2.211  12.758  0.8646  0.6444 -0.1315
  719TMC3    H110633   2.801   2.612  12.869 -0.2729 -2.2557  1.8038
  719TMC3    H210634   2.579   2.527  12.508 -0.2463  1.2216  0.4181
  719TMC3    C710635   2.706   2.725  12.648  0.6114  0.1822 -0.6061
  719TMC3    C810636   2.515   2.307  12.628 -0.5174 -0.0639  0.8356
  719TMC3    O110637   2.805   2.781  12.682  0.2103 -0.0171  0.1868
  719TMC3    O210638   2.499   2.246  12.727 -0.5483  0.4301  0.1610
  720MPD2     C10639   1.158   4.292  14.119 -0.1530 -0.1925  0.5124
  720MPD2    C110640   1.281   4.288  14.053  0.5561  0.0591  0.2713
  720MPD2    C210641   1.392   4.244  14.115 -0.1329 -0.0715 -0.3450
  720MPD2    C310642   1.388   4.210  14.250  1.1476  0.1020 -0.1417
  720MPD2    C410643   1.276   4.226  14.320 -0.0291  0.1898 -0.8074
  720MPD2    C510644   1.160   4.256  14.256 -0.7598  0.0124  0.3718
  720MPD2     H10645   1.482   4.242  14.054  0.5497  0.8437  0.6098
  720MPD2    H110646   1.266   4.219  14.427  0.6782 -2.0080 -0.8945
  720MPD2    H210647   1.065   4.314  14.067  0.4564  3.6845  1.1179
  720MPD2    H310648   1.065   4.257  14.310 -2.0185 -1.1410 -1.8176
  720MPD2     N10649   1.511   4.177  14.302 -0.1230 -0.5038  0.4663
  720MPD2    H510650   1.585   4.175  14.231 -1.2787 -0.9260 -0.7279
  720MPD2    N110651   1.293   4.318  13.912 -0.0944 -0.5315  0.9167
  720MPD2    H710652   1.387   4.304  13.879 -0.2648  1.4249 -0.3935
  721TMC3    C110653   1.671   4.091  14.460 -0.4306 -0.4306 -0.4330
  721TMC3    C210654   1.686   4.041  14.586 -0.2089 -0.4454  0.2201
  721TMC3    C310655   1.794   3.977  14.624 -0.7952  0.7103  0.4086
  721TMC3    C410656   1.774   4.083  14.371 -0.5369 -0.2935 -0.5486
  721TMC3    C510657   1.887   4.020  14.411 -0.2318  0.3325 -0.4167
  721TMC3    C610658   1.903   3.969  14.541 -0.6937  0.1324  0.1321
  721TMC3     C10659   1.538   4.156  14.437  0.2484  0.6170  0.0420
  721TMC3     O10660   1.464   4.159  14.532 -0.2970 -0.2808 -0.7257
  721TMC3     H10661   1.605   4.065  14.654  0.7440  0.8127  0.8926
  721TMC3    H110662   1.767   4.128  14.273  0.1125  0.8817 -0.0528
  721TMC3    H210663   1.992   3.922  14.582 -1.5824 -2.3752 -0.7809
  721TMC3    C710664   2.003   4.030  14.321  0.3933 -0.4406 -0.9204
  721TMC3    C810665   1.809   3.916  14.755 -0.0101 -0.0725  0.2338
  721TMC3    O110666   1.986   4.099  14.224 -0.3504 -0.3559  0.6437
  721TMC3    O210667   1.914   3.862  14.782  0.1691 -0.3510  0.2785
  722MPD2     C10668   0.027   2.571  13.174 -0.1514 -0.2072  0.1903
  722MPD2    C110669   4.693   2.686  13.213 -0.4408 -0.0742  0.0777
  722MPD2    C210670   4.566   2.684  13.260  0.1149  0.2732  0.0782
  722MPD2    C310671   4.498   2.568  13.274 -0.4460 -0.0266  0.2374
  722MPD2    C410672   4.549   2.450  13.223 -0.7573  0.0150 -0.2140
  722MPD2    C510673   4.675   2.451  13.181  0.5328  0.1498  0.3109
  722MPD2     H10674   4.500   2.765  13.284 -0.3913 -0.1757  0.2021
  722MPD2    H110675   4.495   2.358  13.204  0.9601 -1.2984  1.2345
  722MPD2    H210676   0.121   2.568  13.120 -2.4495 -1.1912 -3.6955
  722MPD2    H310677   4.710   2.367  13.123  0.5925  1.6651 -1.8598
  722MPD2     N10678   4.365   2.572  13.317 -0.3281 -0.5970  0.0305
  722MPD2    H510679   4.326   2.666  13.321 -0.5696 -0.7747  1.9982
  722MPD2    N110680   0.016   2.818  13.182 -0.0225  0.2062  0.1569
  722MPD2    H710681   4.668   2.885  13.204 -1.3907 -2.0500  2.3887
  723TMC3    C110682   4.145   2.526  13.365  0.3770 -0.4414 -0.2434
  723TMC3    C210683   4.042   2.518  13.271  0.6964 -0.4720 -0.1420
  723TMC3    C310684   3.951   2.619  13.272  0.2628  0.2269 -0.9665
  723TMC3    C410685   4.156   2.629  13.453  0.1548  0.4294  0.1736
  723TMC3    C510686   4.062   2.730  13.447  0.3612  0.4207 -0.0224
  723TMC3    C610687   3.961   2.725  13.354 -0.0624 -0.1208 -0.4363
  723TMC3     C10688   4.273   2.465  13.324 -0.2030  0.1521 -0.6373
  723TMC3     O10689   4.268   2.353  13.280 -0.2487 -0.0546  0.0377
  723TMC3     H10690   4.048   2.441  13.195  1.7412 -0.7757  0.2416
  723TMC3    H110691   4.238   2.637  13.524  1.2289 -0.7754 -0.9244
  723TMC3    H210692   3.901   2.815  13.344 -0.3037 -0.2623 -0.2764
  723TMC3    C710693   4.083   2.861  13.513 -0.0184 -0.2294 -0.7030
  723TMC3    C810694   3.869   2.640  13.152  0.2076  0.2542 -0.1332
  723TMC3    O110695   4.011   2.956  13.479 -1.0165 -0.4022  0.1290
  723TMC3    O210696   3.827   2.750  13.119 -0.3185 -0.2817  0.4199
  724TMC3    C110697   0.428   0.662   9.581 -0.4946 -0.2184 -0.3846
  724TMC3    C210698   0.296   0.693   9.576 -0.0472  0.5373 -1.0868
  724TMC3    C310699   0.257   0.789   9.492 -0.3438  0.1442 -0.1545
  724TMC3    C410700   0.511   0.701   9.483  0.3338 -0.2439  0.7232
  724TMC3    C510701   0.476   0.802   9.395 -0.0732 -0.4145  0.3586
  724TMC3    C610702   0.347   0.850   9.400 -0.0230  0.1334 -0.5454
  724TMC3     C10703   0.456   0.543   9.662 -0.1152  0.6153  0.4030
  724TMC3     O10704   0.556   0.542   9.729 -0.0387  0.2264  0.2027
  724TMC3     H10705   0.229   0.666   9.657 -0.3774 -3.0657 -2.5387
  724TMC3    H110706   0.608   0.654   9.486 -0.3714 -1.7779 -0.0730
  724TMC3    H210707   0.307   0.933   9.344 -0.6793 -0.5540 -1.1020
  724TMC3    C710708   0.550   0.836   9.273  0.3532  0.0275 -0.0280
  724TMC3    C810709   0.163   0.879   9.545  0.2424 -0.4122  0.5548
  724TMC3    O110710   0.476   0.892   9.190 -0.3087  0.1579  0.2784
  724TMC3    O210711   0.045   0.846   9.553 -0.1322 -0.0751  0.1082
  725TMC3    C110712   1.873   4.482  12.540 -0.0148 -0.6943  0.1753
  725TMC3    C210713   1.794   4.571  12.467  0.6349 -0.3509 -0.5060
  725TMC3    C310714   1.701   4.522  12.379 -0.6590  0.7729  0.5640
  725TMC3    C410715   1.855   4.350  12.539  0.7632 -0.4948  0.9515
  725TMC3    C510716   1.765   4.301  12.448 -0.2054 -0.0047  0.4373
  725TMC3    C610717   1.685   4.382  12.369  0.1798 -0.3693  0.4584
  725TMC3     C10718   1.939   4.540  12.654  0.3893 -0.4451  0.1468
  725TMC3     O10719   1.995   4.651  12.640  0.3091 -0.1741 -0.4186
  725TMC3     H10720   1.807   4.677  12.486  0.4916 -0.3293 -0.5295
  725TMC3    H110721   1.901   4.289  12.616  2.2698  0.6460  0.9605
  725TMC3    H210722   1.633   4.342  12.283  0.2996  4.0551 -1.7014
  725TMC3    C710723   1.765   4.157  12.426  0.9326  0.1979 -0.1219
  725TMC3    C810724   1.677   4.604  12.267 -0.6272 -0.5513 -0.5757
  725TMC3    O110725   1.863   4.094  12.446  0.1838 -0.0530  0.4324
  725TMC3    O210726   1.728   4.715  12.281 -0.1720 -0.7050  0.0659
  726MPD2     C10727   4.350   1.048  10.351 -0.5702 -0.1017  0.5342
  726MPD2    C110728   4.224   1.093  10.324 -0.3960 -0.3558 -0.0761
  726MPD2    C210729   4.123   1.031  10.390 -0.2650  0.0838  0.8712
  726MPD2    C310730   4.124   0.932  10.480  0.9374  0.4733  0.5577
  726MPD2    C410731   4.256   0.885  10.510 -0.3770 -0.1635 -0.2977
  726MPD2    C510732   4.362   0.939  10.438 -0.0048 -0.8001  0.1452
  726MPD2     H10733   4.028   1.083  10.387  1.2417  2.5513 -4.5322
  726MPD2    H110734   4.274   0.806  10.582  0.1697  0.1809 -0.0591
  726MPD2    H210735   4.438   1.091  10.305 -1.0436  0.5796  0.2653
  726MPD2    H310736   4.461   0.902  10.462 -0.2612  0.2175  2.7733
  726MPD2     N10737   4.011   0.870  10.550 -0.2156 -0.4706 -0.4909
  726MPD2    H510738   4.028   0.789  10.609  0.7257  1.0816  1.3596
  726MPD2    N110739   4.197   1.212  10.253  0.4030  0.0714 -0.3306
  726MPD2    H710740   4.100   1.219  10.225  0.1841 -0.9172  0.1925
  727TMC3    C110741   4.253   1.428  10.169 -0.1015 -0.0468 -0.1141
  727TMC3    C210742   4.338   1.534  10.184 -0.0232  0.4841  0.1734
  727TMC3    C310743   4.288   1.650  10.142 -0.1715  0.1279  0.1153
  727TMC3    C410744   4.136   1.432  10.096  0.2534  0.0592 -0.6118
  727TMC3    C510745   4.097   1.555  10.048  0.2617  0.0433  0.4026
  727TMC3    C610746   4.170   1.668  10.073 -0.0866  0.0597 -0.0309
  727TMC3     C10747   4.292   1.310  10.244  0.0784 -0.5422  0.0132
  727TMC3     O10748   4.396   1.326  10.304  0.1234  0.5151 -0.8343
  727TMC3     H10749   4.443   1.532  10.212  0.1533  0.3673 -0.5029
  727TMC3    H110750   4.093   1.338  10.064  1.3924 -1.4123  2.1185
  727TMC3    H210751   4.144   1.762  10.027  0.5307 -0.1160 -0.7403
  727TMC3    C710752   3.978   1.568   9.975  0.0963  0.1209  0.6402
  727TMC3    C810753   4.387   1.759  10.156 -0.5833  0.7552 -0.0836
  727TMC3    O110754   3.964   1.674   9.910 -0.3659 -0.5278  0.6631
  727TMC3    O210755   4.509   1.729  10.150 -0.3301  0.3027  0.2127
  728TMC3    C110756   3.645   4.663  15.386  0.2474  0.0360 -0.3353
  728TMC3    C210757   3.765   4.696  15.444  0.3447  0.9239  0.0549
  728TMC3    C310758   3.869   4.713  15.366  0.0742 -0.1600  0.3059
  728TMC3    C410759   3.628   4.663  15.253 -0.4349  0.6397  0.4815
  728TMC3    C510760   3.739   4.701  15.174 -0.0866  0.0407  0.5146
  728TMC3    C610761   3.859   4.711  15.229  0.3128 -0.2853 -0.1952
  728TMC3     C10762   3.537   4.636  15.476  0.1613 -0.2313  0.1511
  728TMC3     O10763   3.565   4.618  15.590  0.0760  0.2116  0.1282
  728TMC3     H10764   3.786   4.697  15.551 -1.2598 -0.0168  0.3748
  728TMC3    H110765   3.531   4.646  15.206 -0.7967 -0.0442  1.4810
  728TMC3    H210766   3.944   4.723  15.161 -0.0975  0.5609 -0.5602
  728TMC3    C710767   3.711   0.012  15.038  0.1937 -0.6100 -0.5308
  728TMC3    C810768   3.989   0.037  15.433  0.1125  0.1173 -0.5220
  728TMC3    O110769   3.601   4.707  14.984  0.4268  0.4507  0.0148
  728TMC3    O210770   3.976   0.097  15.541  0.4254 -0.4745  0.1835
  729MPD2     C10771   1.264   0.671  16.607 -0.0841 -0.0401 -0.1032
  729MPD2    C110772   1.261   0.806  16.620 -0.1227 -0.4503  0.3726
  729MPD2    C210773   1.177   0.862  16.722 -0.3304  0.6308 -0.2663
  729MPD2    C310774   1.109   0.780  16.810 -0.0377 -0.4071  0.0898
  729MPD2    C410775   1.143   0.647  16.802  0.1173  0.5926  0.3063
  729MPD2    C510776   1.213   0.593  16.701  0.5181 -0.2424  0.0267
  729MPD2     H10777   1.182   0.970  16.734 -0.6491  0.6136  0.0107
  729MPD2    H110778   1.100   0.570  16.866 -3.7862  0.3655 -2.5883
  729MPD2    H210779   1.316   0.629  16.522 -0.3670 -0.7481  0.0714
  729MPD2    H310780   1.236   0.487  16.709  0.2023 -0.2533  0.8026
  729MPD2     N10781   1.037   0.826  16.923 -0.7122 -0.0327  0.1334
  729MPD2    H510782   1.021   0.758  16.996 -0.9534 -0.8122 -0.6383
  729MPD2    N110783   1.331   0.892  16.525  0.0072  0.0727 -0.2595
  729MPD2    H710784   1.391   0.834  16.467  1.8940 -0.3146  2.0493
  730TMC3    C110785   0.997   0.995  17.086 -0.0555  0.2120 -0.8297
  730TMC3    C210786   1.093   0.945  17.173  0.3397  0.7782  0.2498
  730TMC3    C310787   1.161   1.033  17.254  0.5971 -0.3827 -0.1300
  730TMC3    C410788   0.947   1.119  17.109 -0.3557  0.2464 -0.2468
  730TMC3    C510789   1.008   1.195  17.207  0.1507 -0.4466 -0.8623
  730TMC3    C610790   1.126   1.159  17.266  0.5000  0.6711 -0.3805
  730TMC3     C10791   1.009   0.956  16.945 -0.3002 -0.0221 -0.8321
  730TMC3     O10792   1.004   1.049  16.865 -0.2971  0.6917  0.0331
  730TMC3     H10793   1.142   0.854  17.142  0.2238  0.7599  0.1165
  730TMC3    H110794   0.862   1.151  17.049 -0.0296 -2.6159 -2.2669
  730TMC3    H210795   1.179   1.225  17.333  1.6479  0.1528 -0.7885
  730TMC3    C710796   0.982   1.341  17.209 -0.0831  1.1580  0.4138
  730TMC3    C810797   1.303   1.018  17.227  0.2493 -0.8915 -0.1255
  730TMC3    O110798   0.912   1.389  17.119  0.1986 -0.3648 -0.2606
  730TMC3    O210799   1.345   0.903  17.216 -0.8201 -0.1576 -0.1199
  731MPD2     C10800   0.743   3.941  12.116 -0.8765  0.3396  0.4258
  731MPD2    C110801   0.836   3.848  12.127 -0.6440  0.0053 -0.0521
  731MPD2    C210802   0.831   3.755  12.235  0.2705  0.1221  0.1374
  731MPD2    C310803   0.718   3.759  12.320  0.6031  0.1918  0.1875
  731MPD2    C410804   0.619   3.858  12.304 -0.6180 -0.5892 -0.3861
  731MPD2    C510805   0.635   3.948  12.196 -0.8969  0.0037  0.4032
  731MPD2     H10806   0.906   3.680  12.254  1.2190  1.6476  2.3016
  731MPD2    H110807   0.530   3.866  12.365 -0.1863 -0.6457  0.2460
  731MPD2    H210808   0.745   4.018  12.039 -2.4449 -0.5743 -0.5286
  731MPD2    H310809   0.560   4.022  12.170 -1.5726 -0.5434  0.8218
  731MPD2     N10810   0.706   3.672  12.427 -0.9080 -0.4491  0.4646
  731MPD2    H510811   0.789   3.618  12.449 -0.5517  0.2522  0.8527
  731MPD2    N110812   0.937   3.856  12.028 -0.0028 -0.9892  0.2304
  731MPD2    H710813   0.933   3.936  11.965  0.1384 -1.1010  0.0822
  732TMC3    C110814   1.099   3.771  11.889 -0.3192 -0.0081  0.5916
  732TMC3    C210815   1.021   3.829  11.794  0.1453  0.8278 -0.5102
  732TMC3    C310816   1.072   3.833  11.674 -0.3837  0.1988 -0.1690
  732TMC3    C410817   1.231   3.731  11.869  0.5827 -0.0070  0.3972
  732TMC3    C510818   1.267   3.734  11.737  0.1797 -0.5459 -0.3437
  732TMC3    C610819   1.194   3.788  11.633  0.0587  0.1797  0.1896
  732TMC3     C10820   1.042   3.773  12.024  0.1185  0.2049  0.1073
  732TMC3     O10821   1.104   3.712  12.115 -0.0287 -0.3664  0.0500
  732TMC3     H10822   0.916   3.851  11.810  0.8404  3.1262  0.7749
  732TMC3    H110823   1.299   3.697  11.947 -1.1118 -0.0207  1.8711
  732TMC3    H210824   1.226   3.788  11.529 -1.1225  1.5688 -0.1693
  732TMC3    C710825   1.382   3.658  11.688  0.1486  0.1411  0.2459
  732TMC3    C810826   0.979   3.863  11.564 -0.7544 -0.0312 -0.0121
  732TMC3    O110827   1.365   3.616  11.573 -0.5160  0.0198 -0.1017
  732TMC3    O210828   0.986   3.793  11.467 -0.4445  0.0857  0.3729
  733TMC3    C110829   1.837   1.843  12.985 -1.1761  0.1561  0.9165
  733TMC3    C210830   1.940   1.862  13.075  0.1929 -0.4370 -0.0286
  733TMC3    C310831   2.061   1.912  13.030 -1.1203 -0.2207  0.5033
  733TMC3    C410832   1.847   1.882  12.853 -0.3908  0.1346 -0.0547
  733TMC3    C510833   1.963   1.932  12.818 -0.7398  0.0725 -0.1406
  733TMC3    C610834   2.079   1.952  12.894  0.3490 -0.5742 -0.2758
  733TMC3     C10835   1.705   1.795  13.024  0.2223 -0.1741  1.0134
  733TMC3     O10836   1.623   1.790  12.936  0.2106 -0.2649  0.2161
  733TMC3     H10837   1.939   1.829  13.178  1.1284 -0.8808 -0.1599
  733TMC3    H110838   1.770   1.885  12.778 -1.4920  1.0766  1.1252
  733TMC3    H210839   2.169   1.985  12.842 -0.1731 -2.1062 -2.1474
  733TMC3    C710840   1.968   1.959  12.675 -0.7036 -0.5231 -0.5490
  733TMC3    C810841   2.161   1.953  13.131  0.3124  0.3312 -0.6084
  733TMC3    O110842   1.928   1.879  12.590 -0.2513 -0.3109  0.9648
  733TMC3    O210843   2.148   1.930  13.249 -1.2205 -0.1983  0.0897
  734MPD2     C10844   4.295   4.482  12.340 -0.1898  0.1664 -0.3659
  734MPD2    C110845   4.183   4.440  12.266 -0.3784  0.0875  0.5442
  734MPD2    C210846   4.196   4.404  12.133 -0.0094 -0.0912 -0.8721
  734MPD2    C310847   4.316   4.429  12.070  0.1121 -0.4603 -0.4057
  734MPD2    C410848   4.426   4.476  12.134  0.2280  0.5180 -0.3493
  734MPD2    C510849   4.418   4.501  12.269 -0.1096  0.3342  0.1371
  734MPD2     H10850   4.111   4.370  12.075 -0.0733 -0.9022 -0.3011
  734MPD2    H110851   4.519   4.492  12.080  0.2685 -0.8964 -0.6791
  734MPD2    H210852   4.287   4.501  12.446 -0.5871 -0.2479 -0.3252
  734MPD2    H310853   4.508   4.534  12.319  0.4371 -0.3709 -0.3936
  734MPD2     N10854   4.313   4.423  11.928 -0.6693 -0.1076  0.0461
  734MPD2    H510855   4.223   4.394  11.893 -1.8650  1.9196  1.4463
  734MPD2    N110856   4.059   4.432  12.332 -0.0956 -0.1606  0.6142
  734MPD2    H710857   4.068   4.451  12.432  2.6548 -2.4375  0.7935
  735TMC3    C110858   3.835   4.384  12.371  0.1855 -0.1060  0.6014
  735TMC3    C210859   3.717   4.371  12.300 -0.4314  0.0159 -0.2508
  735TMC3    C310860   3.670   4.241  12.280 -0.5652 -0.3518 -0.0143
  735TMC3    C410861   3.888   4.282  12.445 -0.1393  0.4630 -0.2257
  735TMC3    C510862   3.829   4.156  12.436  0.4996  0.0522 -0.2156
  735TMC3    C610863   3.735   4.135  12.338 -0.0905 -0.0298 -0.4786
  735TMC3     C10864   3.930   4.427  12.281  0.4300  0.5071 -0.1069
  735TMC3     O10865   3.899   4.450  12.164  0.0277  0.1429 -0.0126
  735TMC3     H10866   3.671   4.454  12.248 -0.0697 -0.0223 -0.6332
  735TMC3    H110867   3.978   4.295  12.505 -0.5064 -0.5262  0.5388
  735TMC3    H210868   3.704   4.033  12.320 -0.3307 -0.1771  0.7575
  735TMC3    C710869   3.919   4.052  12.478 -0.1738 -0.9093 -0.3960
  735TMC3    C810870   3.628   4.211  12.147 -0.1002 -0.2673 -0.2269
  735TMC3    O110871   3.940   4.020  12.597 -0.2973 -0.2486 -0.0958
  735TMC3    O210872   3.553   4.113  12.126  0.2202  0.0187 -0.5455
  736MPD2     C10873   4.104   3.817  12.459 -0.1305 -0.3838 -0.2485
  736MPD2    C110874   4.093   3.917  12.360  0.7429  0.0065 -0.3791
  736MPD2    C210875   4.172   3.910  12.252  0.5986 -0.2772  0.0296
  736MPD2    C310876   4.271   3.812  12.242  0.6376 -0.0438  0.0210
  736MPD2    C410877   4.282   3.712  12.335  0.4335 -0.0840  0.2402
  736MPD2    C510878   4.203   3.721  12.446 -0.8202 -0.3203  0.1294
  736MPD2     H10879   4.161   3.985  12.175  1.0273 -1.6602 -1.4076
  736MPD2    H110880   4.358   3.635  12.339 -0.0076 -0.6407 -2.1201
  736MPD2    H210881   4.030   3.812  12.538  0.3425 -0.0039  0.2210
  736MPD2    H310882   4.224   3.652  12.528 -2.4672 -2.4778 -1.2606
  736MPD2     N10883   4.369   3.813  12.136  0.5696 -0.6041 -0.1229
  736MPD2    H510884   4.433   3.735  12.137 -0.2128 -1.2480 -0.1016
  736MPD2    N110885   3.991   4.015  12.367 -0.4308 -0.1133 -0.2386
  736MPD2    H710886   3.970   4.055  12.276  0.9283  1.4774  0.1532
  737TMC3    C110887   4.509   3.900  11.966 -1.1828 -0.0256  0.9711
  737TMC3    C210888   4.557   4.015  11.923 -0.3643  0.5357 -0.1031
  737TMC3    C310889   4.607   4.027  11.796 -0.9528  0.1636 -0.7793
  737TMC3    C410890   4.512   3.791  11.884  0.3043 -0.5267 -0.6875
  737TMC3    C510891   4.567   3.800  11.761 -0.4540 -0.0402  0.4905
  737TMC3    C610892   4.623   3.922  11.718 -0.4853 -0.2919 -0.5966
  737TMC3     C10893   4.391   3.916  12.046 -0.3225  0.0910  0.3529
  737TMC3     O10894   4.343   4.027  12.050 -0.4627  0.3169 -0.2965
  737TMC3     H10895   4.549   4.102  11.987 -4.1349  1.0566 -1.2799
  737TMC3    H110896   4.459   3.701  11.910  0.2040 -1.1695 -3.1742
  737TMC3    H210897   4.672   3.931  11.621 -2.0098  0.4432 -1.2928
  737TMC3    C710898   4.553   3.690  11.669 -0.4231 -0.3710  0.0702
  737TMC3    C810899   4.660   4.155  11.752 -0.2301 -0.0913 -0.5435
  737TMC3    O110900   4.499   3.589  11.716  0.3173 -0.5859 -0.3491
  737TMC3    O210901   4.689   4.240  11.830 -0.7828  0.4645 -0.5730
  738MPD2     C10902   0.779   3.171  15.272  0.4511  0.2169 -0.8011
  738MPD2    C110903   0.670   3.195  15.186  0.0523 -0.2919  1.1410
  738MPD2    C210904   0.699   3.238  15.061 -0.2919 -0.0133 -0.2752
  738MPD2    C310905   0.835   3.277  15.030  0.7060 -0.0243  0.4100
  738MPD2    C410906   0.931   3.264  15.127  0.1299 -0.0953 -0.4867
  738MPD2    C510907   0.899   3.216  15.248 -0.1462  0.2561 -0.6538
  738MPD2     H10908   0.628   3.260  14.982  0.3081  1.1203 -0.4908
  738MPD2    H110909   1.034   3.293  15.111  0.0415 -0.6916 -2.1028
  738MPD2    H210910   0.756   3.115  15.362  0.1047  2.4367  0.5209
  738MPD2    H310911   0.980   3.202  15.318  0.7256  2.6567 -1.2075
  738MPD2     N10912   0.882   3.347  14.918  0.5143  0.2838  0.4929
  738MPD2    H510913   0.979   3.373  14.922  1.1358 -2.0670  0.9956
  738MPD2    N110914   0.534   3.165  15.211  0.3208 -0.1466  0.6933
  738MPD2    H710915   0.467   3.190  15.140  1.0721  1.4343  0.5520
  739TMC3    C110916   0.887   3.477  14.716  0.0111  0.3841 -0.0196
  739TMC3    C210917   0.831   3.508  14.597 -0.2182  0.1861 -0.4409
  739TMC3    C310918   0.899   3.565  14.496  0.0309 -0.6791 -1.2486
  739TMC3    C410919   1.013   3.512  14.741 -0.0405 -0.3451 -0.6113
  739TMC3    C510920   1.083   3.580  14.648 -0.3226  0.5846  0.4858
  739TMC3    C610921   1.025   3.604  14.526  0.0850 -0.5570 -0.4464
  739TMC3     C10922   0.802   3.397  14.813 -0.0265  0.0372  0.3058
  739TMC3     O10923   0.684   3.398  14.789 -0.3465 -0.6091  0.2528
  739TMC3     H10924   0.728   3.483  14.574 -1.8276  3.4928  3.1126
  739TMC3    H110925   1.032   3.533  14.846  2.4836  0.0719 -1.1458
  739TMC3    H210926   1.082   3.649  14.446  0.1904  0.6854  0.3315
  739TMC3    C710927   1.228   3.592  14.683 -0.0661  0.2571 -0.0189
  739TMC3    C810928   0.825   3.620  14.377  0.4098 -0.1132  0.0084
  739TMC3    O110929   1.251   3.559  14.800 -0.0156 -0.3321 -0.1328
  739TMC3    O210930   0.708   3.589  14.362 -0.0647 -0.3728  0.0668
  740TMC3    C110931   1.050   4.607  14.543  0.5445 -0.4594  0.4297
  740TMC3    C210932   1.021   4.719  14.618 -0.1302  0.2902  0.1406
  740TMC3    C310933   0.981   0.099  14.546  0.1297 -0.6225 -0.1195
  740TMC3    C410934   1.067   4.590  14.411 -0.2858 -0.1313 -0.0684
  740TMC3    C510935   1.036   4.709  14.348  0.4717 -0.2626 -0.3455
  740TMC3    C610936   0.987   0.095  14.407  0.5719 -0.2134 -0.3242
  740TMC3     C10937   1.089   4.492  14.629  0.3363 -0.4450  0.3324
  740TMC3     O10938   1.187   4.426  14.602  0.2915 -0.3312  0.6537
  740TMC3     H10939   1.040   0.017  14.723 -0.2527 -2.2280  0.6900
  740TMC3    H110940   1.096   4.501  14.357  1.0297  1.3824 -1.8427
  740TMC3    H210941   0.950   0.181  14.352 -3.2256 -1.8031 -0.3020
  740TMC3    C710942   0.984   4.684  14.216  0.0682  0.9495 -0.4336
  740TMC3    C810943   0.951   0.229  14.609  0.5571  0.6956  0.0070
  740TMC3    O110944   0.871   0.000  14.206 -0.3208 -0.2297 -0.5039
  740TMC3    O210945   0.983   0.327  14.547  0.3848 -0.3394  0.3527
  741TMC3    C110946   0.378   4.059  13.957  0.1412  0.7165 -0.3643
  741TMC3    C210947   0.297   3.953  13.933  0.3253 -0.2400  0.1775
  741TMC3    C310948   0.251   3.887  14.042 -0.0939  0.2080  0.6168
  741TMC3    C410949   0.410   4.102  14.083  0.2928  0.2641  0.5898
  741TMC3    C510950   0.351   4.042  14.188  0.2256 -0.5271 -0.0469
  741TMC3    C610951   0.267   3.931  14.171 -0.2980  0.1614  0.3346
  741TMC3     C10952   0.451   4.113  13.841  0.4540 -0.4412 -0.3375
  741TMC3     O10953   0.471   4.039  13.745  0.0400  0.2476  0.0294
  741TMC3     H10954   0.276   3.922  13.831  1.9747 -0.3122 -0.1489
  741TMC3    H110955   0.496   4.169  14.089 -0.6085  1.4906 -0.1291
  741TMC3    H210956   0.208   3.876  14.244 -0.1824  1.3716  1.3416
  741TMC3    C710957   0.356   4.114  14.315 -0.3321 -0.1249 -0.1864
  741TMC3    C810958   0.163   3.781  14.018 -0.3765  0.7704 -0.0910
  741TMC3    O110959   0.317   4.045  14.410 -0.2081 -0.4035 -0.2553
  741TMC3    O210960   0.098   3.773  13.913 -0.0901  0.1751  0.8842
  742TMC3    C110961   0.169   2.260  15.501  0.2050  0.3051 -0.2409
  742TMC3    C210962   0.086   2.287  15.399  0.6526  0.6107  0.0674
  742TMC3    C310963   0.122   2.227  15.281 -0.5769 -0.0682 -0.2992
  742TMC3    C410964   0.273   2.168  15.494 -1.2376 -1.1319  0.3658
  742TMC3    C510965   0.297   2.106  15.376  0.3477 -0.1592 -1.3368
  742TMC3    C610966   0.225   2.144  15.263  0.4478 -0.3320  0.6328
  742TMC3     C10967   0.190   2.353  15.608 -0.2626 -0.4237  0.1896
  742TMC3     O10968   0.093   2.417  15.647  0.2201 -0.1894 -0.4952
  742TMC3     H10969   0.018   2.371  15.410 -0.8271 -0.6613  0.6599
  742TMC3    H110970   0.330   2.133  15.579 -0.9741 -0.3062  0.5220
  742TMC3    H210971   0.248   2.090  15.171 -0.6573  0.0579  0.1315
  742TMC3    C710972   0.398   2.003  15.353 -0.0936 -0.3555  0.2679
  742TMC3    C810973   0.027   2.227  15.171 -0.2287 -0.9961  0.0194
  742TMC3    O110974   0.445   1.996  15.242  0.1313  0.1362  0.0492
  742TMC3    O210975   0.059   2.158  15.073  0.4129 -0.4954  0.0473
  743MPD2     C10976   3.658   2.973   1.401  0.2777  0.2043 -0.3073
  743MPD2    C110977   3.633   3.110   1.405  0.3256  0.0467 -0.0245
  743MPD2    C210978   3.735   3.200   1.366 -0.1928  0.0065 -0.7254
  743MPD2    C310979   3.857   3.145   1.319 -0.0514  0.4839 -0.0200
  743MPD2    C410980   3.880   3.004   1.320  0.5337  0.1533 -0.0557
  743MPD2    C510981   3.777   2.920   1.362 -0.1239 -0.0222  0.2823
  743MPD2     H10982   3.719   3.307   1.367  0.3987  0.0976 -1.2938
  743MPD2    H110983   3.971   2.955   1.289 -0.5903 -1.3310 -1.0400
  743MPD2    H210984   3.573   2.909   1.423  1.1356 -1.3679 -1.5401
  743MPD2    H310985   3.797   2.814   1.364 -0.3914 -0.0929 -1.0210
  743MPD2     N10986   3.958   3.224   1.263  0.1888 -0.2752 -0.0645
  743MPD2    H510987   4.040   3.171   1.233  0.2693 -1.0451  1.4971
  743MPD2    N110988   3.497   3.137   1.457  0.9874  0.0209 -0.2261
  743MPD2    H710989   3.450   3.056   1.496  1.4257 -0.4354 -0.6459
  744TMC3    C110990   3.280   3.234   1.463  1.1965  0.2339  1.4896
  744TMC3    C210991   3.195   3.320   1.519  0.4064 -0.3318 -0.3444
  744TMC3    C310992   3.061   3.306   1.505 -0.5066 -0.0611 -0.9172
  744TMC3    C410993   3.236   3.131   1.385  0.3292  0.3980 -0.0238
  744TMC3    C510994   3.101   3.122   1.362  0.6207  0.3932  0.4472
  744TMC3    C610995   3.013   3.213   1.419 -0.1354 -0.3272 -0.3078
  744TMC3     C10996   3.429   3.258   1.459 -0.0751 -0.2764 -0.6631
  744TMC3     O10997   3.473   3.369   1.437  0.7312  0.4727  0.7490
  744TMC3     H10998   3.241   3.405   1.570 -0.2247 -0.4160  0.3570
  744TMC3    H110999   3.302   3.056   1.342  1.2543  0.7803  0.7190
  744TMC3    H211000   2.910   3.198   1.392  0.1097 -1.1405 -0.8143
  744TMC3    C711001   3.051   3.025   1.272 -0.0166 -0.0171 -0.1290
  744TMC3    C811002   2.976   3.425   1.529  0.0096  0.0548  0.4297
  744TMC3    O111003   3.106   2.915   1.262  0.2664 -0.1308  0.4991
  744TMC3    O211004   2.893   3.463   1.448  0.3017 -0.6273 -0.0753
  745TMC3    C111005   1.003   1.962  14.186 -0.1775  0.6812 -0.4048
  745TMC3    C211006   0.996   1.945  14.323  0.2438 -0.4358 -0.1331
  745TMC3    C311007   0.879   1.885  14.364  0.4640 -0.2167  0.2834
  745TMC3    C411008   0.911   1.930  14.093 -1.1040 -0.1441  0.1350
  745TMC3    C511009   0.802   1.857  14.145  0.0959  0.1315 -0.3308
  745TMC3    C611010   0.785   1.845  14.277  0.1855  0.0030  0.0018
  745TMC3     C11011   1.118   2.040  14.138 -0.2950 -0.3625 -0.7621
  745TMC3     O11012   1.216   2.038  14.211 -0.3335 -0.0788  0.1925
  745TMC3     H11013   1.074   1.978  14.392  1.6258 -2.1491 -0.8525
  745TMC3    H111014   0.914   1.961  13.990 -0.7528  1.1462  0.5300
  745TMC3    H211015   0.713   1.772  14.313  1.9227 -1.7858 -0.1524
  745TMC3    C711016   0.703   1.797  14.064  0.2978 -0.5150 -0.7277
  745TMC3    C811017   0.857   1.847  14.503 -0.1246  1.0306 -1.2355
  745TMC3    O111018   0.596   1.764  14.119  0.3822  0.0989 -0.3846
  745TMC3    O211019   0.742   1.833  14.543  0.2085  0.1740 -0.4983
  746TMC3    C111020   2.896   3.522  10.759  0.5786 -0.3585 -0.6979
  746TMC3    C211021   2.944   3.506  10.629 -0.0282  0.1595 -0.4994
  746TMC3    C311022   2.866   3.433  10.541  0.4054  0.0440  0.4551
  746TMC3    C411023   2.780   3.469  10.795  0.2380 -0.0507 -0.3778
  746TMC3    C511024   2.715   3.382  10.705 -0.9260  0.4835  0.6447
  746TMC3    C611025   2.764   3.358  10.583  0.0464 -0.3093 -0.7417
  746TMC3     C11026   2.966   3.612  10.852  0.1468 -0.0689  0.0095
  746TMC3     O11027   2.895   3.647  10.949 -0.0639  0.1334  0.5642
  746TMC3     H11028   3.044   3.540  10.606  0.1472  0.9399  1.4313
  746TMC3    H111029   2.730   3.493  10.888 -1.3136 -1.2875 -0.8871
  746TMC3    H211030   2.703   3.316  10.504  2.3348 -2.1619 -1.5027
  746TMC3    C711031   2.604   3.308  10.768  0.3697  0.1977  0.3422
  746TMC3    C811032   2.923   3.412  10.407 -0.0911 -0.0706 -0.1166
  746TMC3    O111033   2.508   3.286  10.702  0.1114  0.3650 -0.1167
  746TMC3    O211034   2.882   3.320  10.340  0.4870  0.0299  0.0108
  747TMC3    C111035   0.387   3.666  10.749  0.7639  0.7190  0.8959
  747TMC3    C211036   0.302   3.590  10.823  0.1144 -0.0505  0.6047
  747TMC3    C311037   0.251   3.642  10.939 -0.1068 -0.3162  0.3996
  747TMC3    C411038   0.413   3.795  10.783 -0.0597 -0.3825  0.5895
  747TMC3    C511039   0.375   3.841  10.903 -0.1356 -0.3105 -0.4365
  747TMC3    C611040   0.295   3.760  10.988 -0.2151 -0.5265 -0.5882
  747TMC3     C11041   0.405   3.647  10.607 -0.2639  0.6547 -0.1792
  747TMC3     O11042   0.395   3.740  10.525 -0.4136 -0.2004  0.3894
  747TMC3     H11043   0.259   3.501  10.779  3.1048 -0.4807 -1.4054
  747TMC3    H111044   0.460   3.859  10.710  2.2289  1.0853  3.3861
  747TMC3    H211045   0.263   3.804  11.082  2.4076 -1.4386  0.7265
  747TMC3    C711046   0.404   3.968  10.950 -0.0231 -0.3696 -0.1241
  747TMC3    C811047   0.173   3.554  11.025 -0.7125  0.1522 -0.3787
  747TMC3    O111048   0.403   3.975  11.073 -0.2226 -0.2117 -0.4721
  747TMC3    O211049   0.152   3.436  11.000  0.0551 -0.5557 -0.2120
  748MPD2     C11050   1.749   0.520   1.641  0.5258  0.1474 -0.0645
  748MPD2    C111051   1.767   0.549   1.506  0.1110 -0.5956 -0.2608
  748MPD2    C211052   1.888   0.512   1.444 -0.3248  0.1874  0.0425
  748MPD2    C311053   1.990   0.454   1.518  0.3620 -0.1946 -0.3276
  748MPD2    C411054   1.970   0.433   1.653 -0.3852 -0.4379  0.0528
  748MPD2    C511055   1.848   0.461   1.713 -0.2005 -0.0359  0.1513
  748MPD2     H11056   1.902   0.527   1.337 -0.3090 -0.6073 -0.0648
  748MPD2    H111057   2.050   0.400   1.719 -0.2138  1.5684  0.8414
  748MPD2    H211058   1.650   0.530   1.684  1.1240  0.8897  1.1084
  748MPD2    H311059   1.825   0.450   1.818  0.5566 -0.2110  0.2976
  748MPD2     N11060   2.108   0.415   1.447  0.1646 -0.0358 -0.3997
  748MPD2    H511061   2.115   0.459   1.356  0.0962 -0.4187 -0.5932
  748MPD2    N111062   1.658   0.611   1.443  0.1697  0.6488  0.7754
  748MPD2    H711063   1.580   0.628   1.505 -0.8505  0.5364 -0.4814
  749TMC3    C111064   2.295   0.293   1.379 -0.5690  0.0606  0.0253
  749TMC3    C211065   2.336   0.160   1.375  0.1225 -0.1539 -0.1888
  749TMC3    C311066   2.410   0.116   1.269 -0.2547  0.1311  0.7132
  749TMC3    C411067   2.318   0.375   1.274 -0.1626  0.2112 -0.4352
  749TMC3    C511068   2.381   0.324   1.165  0.2764 -0.3024  0.4036
  749TMC3    C611069   2.423   0.192   1.158 -0.4901  0.2852 -0.4025
  749TMC3     C11070   2.208   0.338   1.487  0.7707  0.0978  0.3964
  749TMC3     O11071   2.240   0.298   1.596  0.0092 -0.2188 -0.1772
  749TMC3     H11072   2.316   0.094   1.459 -1.4110 -0.5332 -0.8635
  749TMC3    H111073   2.278   0.476   1.277 -1.1036 -0.2165  1.9369
  749TMC3    H211074   2.477   0.147   1.075  0.5242  0.7936 -0.0199
  749TMC3    C711075   2.363   0.394   1.041  0.1993 -0.0679  0.9863
  749TMC3    C811076   2.499   0.009   1.280  0.2449  0.0254  1.0870
  749TMC3    O111077   2.328   0.509   1.049 -0.3014 -0.0758 -0.1617
  749TMC3    O211078   2.530   4.692   1.171 -0.6051 -0.3233 -0.0538
  750MPD2     C11079   3.456   0.678  11.446 -0.1328  0.1295  0.4204
  750MPD2    C111080   3.319   0.647  11.444 -0.2510 -0.1249  0.2387
  750MPD2    C211081   3.281   0.525  11.406 -0.3588 -0.4842 -0.2426
  750MPD2    C311082   3.375   0.442  11.348  0.0512  0.3519 -0.0512
  750MPD2    C411083   3.503   0.476  11.340  0.2611  0.4882  1.0609
  750MPD2    C511084   3.548   0.595  11.396 -0.3498  0.0957  0.4161
  750MPD2     H11085   3.175   0.503  11.405 -0.3350 -0.5750 -0.7574
  750MPD2    H111086   3.568   0.415  11.278 -1.9116  1.0340 -1.7625
  750MPD2    H211087   3.487   0.773  11.486  0.5109 -0.3668  1.1021
  750MPD2    H311088   3.649   0.633  11.385 -1.0125  1.8786  0.3775
  750MPD2     N11089   3.347   0.311  11.301  0.2992 -0.1118 -0.1280
  750MPD2    H511090   3.430   0.261  11.272  1.5831  1.6441  0.5094
  750MPD2    N111091   3.233   0.759  11.461  0.0881 -0.0860  0.4315
  750MPD2    H711092   3.280   0.847  11.480  0.3328  0.0949 -1.0622
  751TMC3    C111093   3.213   0.125  11.238  0.3935 -0.3391  0.1686
  751TMC3    C211094   3.096   0.063  11.239  0.0624 -0.2104 -0.1108
  751TMC3    C311095   3.093   4.654  11.208  0.9347 -0.6727 -0.2400
  751TMC3    C411096   3.331   0.055  11.206 -0.3060 -0.0043  0.3848
  751TMC3    C511097   3.322   4.651  11.166 -0.1873  0.3289  0.1665
  751TMC3    C611098   3.203   4.580  11.169 -0.2118 -0.2862 -0.1476
  751TMC3     C11099   3.221   0.254  11.297  0.2722 -0.0619  0.6683
  751TMC3     O11100   3.116   0.295  11.343 -0.3658 -0.5055  0.4422
  751TMC3     H11101   3.011   0.122  11.269 -0.4738 -0.4160 -1.2341
  751TMC3    H111102   3.430   0.097  11.223 -1.0501  2.0051 -0.2189
  751TMC3    H211103   3.204   4.480  11.128 -1.2168 -0.1863 -0.4162
  751TMC3    C711104   3.434   4.597  11.087  0.4485  0.2968 -0.2986
  751TMC3    C811105   2.964   4.586  11.178  0.1581 -0.5977  0.4954
  751TMC3    O111106   3.494   4.679  11.014 -0.0477  0.2381 -0.4658
  751TMC3    O211107   2.981   4.496  11.098 -0.0197  0.2870 -0.1616
  752TMC3    C111108   2.108   1.236  17.000  0.3845 -0.3011 -0.7318
  752TMC3    C211109   2.001   1.207  17.076  1.0369  0.3972 -0.8318
  752TMC3    C311110   1.998   1.254  17.208 -0.4849 -1.0336 -0.3500
  752TMC3    C411111   2.219   1.301  17.050 -0.5108  0.9200 -0.0388
  752TMC3    C511112   2.213   1.322  17.185  0.5432 -0.0653  0.1607
  752TMC3    C611113   2.108   1.297  17.270  0.4819  0.1437 -0.0100
  752TMC3     C11114   2.121   1.196  16.862  0.4402 -0.3985  0.2764
  752TMC3     O11115   2.232   1.210  16.815  0.5173  0.0007 -0.0465
  752TMC3     H11116   1.917   1.153  17.034  1.2951 -2.4249  2.2816
  752TMC3    H111117   2.307   1.324  16.990 -0.3973  0.6864  0.0385
  752TMC3    H211118   2.098   1.333  17.372 -1.0656 -0.7299  0.1423
  752TMC3    C711119   2.340   1.357  17.246  0.1913  0.3629 -0.2513
  752TMC3    C811120   1.866   1.269  17.263 -0.4408  0.5468  0.8566
  752TMC3    O111121   2.441   1.363  17.179 -0.5690 -0.0753 -0.2369
  752TMC3    O211122   1.774   1.261  17.180  0.3096 -0.1396  0.4903
  753TMC3    C111123   3.989   2.353  13.632  0.6774 -0.4397 -0.3184
  753TMC3    C211124   4.119   2.340  13.677 -0.4306  0.0967  0.1294
  753TMC3    C311125   4.182   2.221  13.644  0.2986  0.1528 -0.2966
  753TMC3    C411126   3.930   2.265  13.544  0.1339 -0.3604  0.3024
  753TMC3    C511127   3.999   2.147  13.510  0.2035  0.1145  0.1576
  753TMC3    C611128   4.122   2.129  13.557 -0.2067 -0.1700  0.7232
  753TMC3     C11129   3.902   2.472  13.661  0.2184  0.6145 -0.1648
  753TMC3     O11130   3.802   2.484  13.598  0.1241  0.5220  0.8506
  753TMC3     H11131   4.156   2.423  13.736  1.9586  0.4740 -1.9096
  753TMC3    H111132   3.826   2.284  13.521  0.1155 -0.8474  0.0000
  753TMC3    H211133   4.176   2.037  13.535 -0.2339  0.0070 -0.1046
  753TMC3    C711134   3.941   2.035  13.435 -0.1842 -0.1627  0.1599
  753TMC3    C811135   4.315   2.191  13.695 -0.1615 -0.2070  0.5401
  753TMC3    O111136   4.009   1.975  13.356 -0.1589  0.5269 -0.1236
  753TMC3    O211137   4.386   2.117  13.632 -0.4055 -0.3979 -0.2417
  754MPD2     C11138   2.846   0.537  12.673  0.6625 -0.1794 -1.3677
  754MPD2    C111139   2.814   0.406  12.721 -0.8000  0.8601  0.5595
  754MPD2    C211140   2.692   0.390  12.784 -0.5649 -0.3656 -0.2415
  754MPD2    C311141   2.613   0.498  12.815  0.2375 -0.7907  0.5096
  754MPD2    C411142   2.646   0.622  12.763  0.3694  0.1508  0.0017
  754MPD2    C511143   2.758   0.639  12.690  0.4262  0.7384 -0.6177
  754MPD2     H11144   2.649   0.291  12.795  1.0463 -0.8478  1.8050
  754MPD2    H111145   2.585   0.709  12.783 -0.0530 -0.2982  0.6919
  754MPD2    H211146   2.933   0.548  12.611  1.6751 -0.3385  0.0230
  754MPD2    H311147   2.785   0.739  12.656  1.2286 -0.0433 -2.2490
  754MPD2     N11148   2.488   0.482  12.887 -0.4091  0.3867  0.2090
  754MPD2    H511149   2.419   0.556  12.893 -0.9384 -0.0617 -0.4348
  754MPD2    N111150   2.906   0.299  12.701 -0.2437 -0.6809  0.3366
  754MPD2    H711151   2.973   0.325  12.630  2.2667 -0.7891  2.6416
  755MPD2     C11152   2.020   1.133  13.227 -0.1420 -0.3717 -0.3834
  755MPD2    C111153   2.011   1.046  13.333 -0.1050 -0.3178  0.5146
  755MPD2    C211154   2.066   0.917  13.323 -0.2415 -0.0826 -0.2704
  755MPD2    C311155   2.142   0.881  13.208  0.4089 -0.2859  0.5997
  755MPD2    C411156   2.138   0.966  13.111 -0.6417  0.1984 -0.2543
  755MPD2    C511157   2.078   1.087  13.115 -0.2481 -0.9112  0.7190
  755MPD2     H11158   2.059   0.848  13.407 -3.1347 -1.0161 -1.2812
  755MPD2    H111159   2.197   0.944  13.022 -0.0156  1.2010 -0.0919
  755MPD2    H211160   1.982   1.235  13.231  2.6102  0.7754 -2.5519
  755MPD2    H311161   2.075   1.145  13.023 -0.4775  0.6409  1.7087
  755MPD2     N11162   2.203   0.750  13.181 -0.5268  0.3542  0.2319
  755MPD2    H511163   2.246   0.732  13.091  2.3586 -2.3856  2.1459
  755MPD2    N111164   1.944   1.078  13.457 -0.0576 -1.1802  0.3374
  755MPD2    H711165   1.944   1.007  13.530 -1.7561 -2.2557 -0.7202
  756MPD2     C11166   3.177   1.680   9.860  0.5629 -0.3176 -0.3008
  756MPD2    C111167   3.101   1.582   9.914 -0.7696  1.1133 -0.0182
  756MPD2    C211168   3.020   1.506   9.840  0.4135 -0.1040  0.1720
  756MPD2    C311169   3.003   1.531   9.707 -0.1812 -0.4072  0.0141
  756MPD2    C411170   3.073   1.634   9.649  0.2196 -0.2310 -0.1036
  756MPD2    C511171   3.167   1.700   9.723  0.3477  0.0614  0.4183
  756MPD2     H11172   2.957   1.434   9.890  1.6263  0.3671  2.3487
  756MPD2    H111173   3.089   1.647   9.543 -2.0646 -1.4474 -0.5960
  756MPD2    H211174   3.252   1.736   9.915 -2.6707  3.0467  0.6921
  756MPD2    H311175   3.231   1.776   9.680 -0.7640 -0.0564 -1.4091
  756MPD2     N11176   2.912   1.456   9.633  0.2712 -0.5756  0.5917
  756MPD2    H511177   2.877   1.371   9.676 -1.1368 -1.5116 -2.3961
  756MPD2    N111178   3.105   1.549  10.049 -0.4278  0.1698  0.3987
  756MPD2    H711179   3.046   1.471  10.075 -1.2183  0.5787 -0.1229
  757MPD2     C11180   2.669   0.506   9.484 -0.2635 -0.2037  0.3490
  757MPD2    C111181   2.662   0.592   9.586 -0.1358 -0.1244  1.3296
  757MPD2    C211182   2.663   0.726   9.563  0.4904 -0.5727 -0.0481
  757MPD2    C311183   2.684   0.780   9.436  0.1309 -0.3938 -0.5861
  757MPD2    C411184   2.705   0.690   9.334 -0.1536  1.0800  0.1553
  757MPD2    C511185   2.696   0.554   9.356  0.4368 -0.2143 -0.1760
  757MPD2     H11186   2.655   0.795   9.646 -0.2739 -0.1502 -0.4752
  757MPD2    H111187   2.722   0.721   9.231  0.0002 -1.5202 -0.5928
  757MPD2    H211188   2.666   0.398   9.501 -0.3063 -0.3128 -0.3504
  757MPD2    H311189   2.707   0.478   9.279 -0.4478  1.5051 -2.0061
  757MPD2     N11190   2.710   0.913   9.398 -0.5346  0.1992 -0.4057
  757MPD2    H511191   2.721   0.924   9.298  2.0260 -0.7851 -0.2389
  757MPD2    N111192   2.643   0.534   9.719 -0.0307 -0.0198 -0.3736
  757MPD2    H711193   2.641   0.433   9.721  0.8232 -0.0445 -0.9205
  758MPD2     C11194   2.685   0.013  16.155  0.2214 -0.2852  0.2555
  758MPD2    C111195   2.754   0.120  16.104  0.2105  0.4283 -0.1678
  758MPD2    C211196   2.743   0.240  16.172 -0.0870 -0.1185  0.6280
  758MPD2    C311197   2.674   0.249  16.287  0.7550 -0.9320 -0.0304
  758MPD2    C411198   2.586   0.150  16.326 -0.4336 -0.7241 -0.1591
  758MPD2    C511199   2.594   0.037  16.258  0.5920 -0.6018  0.3068
  758MPD2     H11200   2.797   0.328  16.138 -0.0388 -0.2021  0.4869
  758MPD2    H111201   2.512   0.153  16.406  0.4387  1.4916  0.5705
  758MPD2    H211202   2.693   4.641  16.105 -1.6057 -2.3161  3.8874
  758MPD2    H311203   2.539   4.683  16.309 -0.2178 -0.6810 -0.6828
  758MPD2     N11204   2.700   0.364  16.359  0.4047 -0.9167  0.4986
  758MPD2    H511205   2.776   0.428  16.335  0.9884 -1.7759  0.0528
  758MPD2    N111206   2.843   0.092  15.999 -0.1679 -0.1378 -0.2104
  758MPD2    H711207   2.857   4.722  15.967  1.3614  0.3313 -0.9384
  759MPD2     C11208   1.501   3.612  10.770 -0.9612  0.1966 -0.8503
  759MPD2    C111209   1.460   3.523  10.676  0.2310 -0.6861  0.3892
  759MPD2    C211210   1.489   3.550  10.544  0.0024 -0.7909 -0.2410
  759MPD2    C311211   1.567   3.660  10.502  0.1429 -0.1098  0.3428
  759MPD2    C411212   1.611   3.752  10.592 -0.6259  0.2234  0.1408
  759MPD2    C511213   1.572   3.723  10.723  0.1372 -0.4297 -0.5407
  759MPD2     H11214   1.481   3.470  10.472  1.1680 -0.7628 -0.3923
  759MPD2    H111215   1.672   3.839  10.567 -0.7406  0.7718  1.8140
  759MPD2    H211216   1.470   3.617  10.873 -0.6133 -1.5737 -0.6610
  759MPD2    H311217   1.622   3.785  10.796 -0.2298 -0.9788  0.1758
  759MPD2     N11218   1.607   3.655  10.365  0.0040  0.0766 -0.0879
  759MPD2    H511219   1.576   3.575  10.312 -0.4085  0.6800 -0.7538
  759MPD2    N111220   1.386   3.411  10.709  0.3924 -0.0742  0.5691
  759MPD2    H711221   1.353   3.355  10.631  1.1687 -1.1513  0.9998
  760MPD2     C11222   1.315   0.931  12.071 -0.3826 -0.6769  0.0781
  760MPD2    C111223   1.396   0.969  11.971  0.1151 -0.7747  0.1679
  760MPD2    C211224   1.473   0.878  11.903  0.6877  0.5190 -0.2223
  760MPD2    C311225   1.470   0.745  11.943 -0.0987 -0.5923 -0.4350
  760MPD2    C411226   1.381   0.701  12.043  0.3835  0.2223 -0.2213
  760MPD2    C511227   1.304   0.798  12.110 -0.1959 -0.3326  0.5846
  760MPD2     H11228   1.534   0.916  11.822  0.5339 -0.2324 -0.6913
  760MPD2    H111229   1.367   0.597  12.068 -1.0377  0.6624  0.8017
  760MPD2    H211230   1.239   0.995  12.115  0.7140  0.4053  0.4050
  760MPD2    H311231   1.234   0.766  12.186 -0.2845 -1.2734  0.1140
  760MPD2     N11232   1.554   0.649  11.879  0.1806 -0.3832  0.0070
  760MPD2    H511233   1.548   0.551  11.906  0.7826  0.0821  1.8037
  760MPD2    N111234   1.426   1.102  11.939  0.2614  0.3762  0.2975
  760MPD2    H711235   1.500   1.119  11.872  0.0359 -0.1662 -0.0967
  761MPD2     C11236   2.521   4.420  11.360 -0.3625  0.4531 -0.4104
  761MPD2    C111237   2.600   4.370  11.257  0.4761  0.3682  0.2406
  761MPD2    C211238   2.720   4.432  11.231  0.6201 -0.1818 -0.3006
  761MPD2    C311239   2.754   4.549  11.297  0.3660  0.1648 -0.0710
  761MPD2    C411240   2.665   4.604  11.381  0.0494 -0.3715  0.5350
  761MPD2    C511241   2.549   4.538  11.419 -0.4276 -0.3333 -0.2140
  761MPD2     H11242   2.781   4.382  11.157 -0.6027 -0.1173 -1.3503
  761MPD2    H111243   2.698   4.698  11.423  0.6954  0.4182 -1.7514
  761MPD2    H211244   2.428   4.368  11.381  0.7165 -1.2269  0.2101
  761MPD2    H311245   2.491   4.584  11.498 -1.3484 -0.9035 -0.5652
  761MPD2     N11246   2.870   4.619  11.273  0.0483 -0.9055 -0.3988
  761MPD2    H511247   2.886   4.697  11.336 -1.9189  1.0438 -2.3448
  761MPD2    N111248   2.554   4.246  11.203  0.0563  0.7730 -0.0935
  761MPD2    H711249   2.454   4.229  11.201  0.3554 -0.9069 -0.8333
  762MPD2     C11250   3.000   4.278  10.880 -0.2637  0.1925  0.4690
  762MPD2    C111251   2.955   4.171  10.803  0.0667  0.6766  1.2031
  762MPD2    C211252   3.032   4.136  10.694  0.3905  0.6647 -0.0330
  762MPD2    C311253   3.150   4.206  10.660  0.5244 -0.4897  0.2307
  762MPD2    C411254   3.187   4.326  10.727  0.1775  0.2234 -0.4992
  762MPD2    C511255   3.108   4.358  10.843 -0.0351  0.1582 -0.2063
  762MPD2     H11256   3.028   4.043  10.639 -0.4020  1.3196 -1.0845
  762MPD2    H111257   3.274   4.387  10.707 -0.6769  1.4682 -0.4641
  762MPD2    H211258   2.947   4.313  10.968  1.6870  2.2304  0.8339
  762MPD2    H311259   3.144   4.428  10.917 -0.0545  0.1950 -0.2318
  762MPD2     N11260   3.225   4.157  10.551  0.8971 -0.4803  0.0483
  762MPD2    H511261   3.190   4.072  10.509  0.6736  0.6473 -2.0377
  762MPD2    N111262   2.837   4.107  10.843  0.3486 -0.0297  0.2025
  762MPD2    H711263   2.804   4.144  10.931 -2.1820 -2.2829  0.2044
  763MPD2     C11264   4.681   4.722  16.491 -0.8027 -0.5932 -0.0789
  763MPD2    C111265   4.606   0.086  16.419 -0.6177 -0.3688 -0.0180
  763MPD2    C211266   4.571   0.204  16.479 -0.1648 -0.0684  0.1905
  763MPD2    C311267   4.611   0.241  16.604 -0.5701  0.3687  0.2752
  763MPD2    C411268   4.680   0.143  16.679  0.4786  0.0491  0.0795
  763MPD2    C511269   4.710   0.019  16.623  0.0474  0.2686  0.0053
  763MPD2     H11270   4.514   0.275  16.421 -0.4461 -1.1454 -0.8583
  763MPD2    H111271   4.698   0.165  16.783 -1.6603 -0.2411  0.5173
  763MPD2    H211272   4.716   4.630  16.445 -1.1336  0.3811 -2.3122
  763MPD2    H311273   0.058   4.683  16.674  1.4017  1.3331 -0.6606
  763MPD2     N11274   4.578   0.369  16.649 -0.4857 -0.0090 -0.1180
  763MPD2    H511275   4.522   0.428  16.589  1.8776  1.3835 -0.9195
  763MPD2    N111276   4.575   0.071  16.286  0.0634 -0.7495  0.5006
  763MPD2    H711277   4.515   0.143  16.245  1.9548  0.0851 -0.7887
  764MPD2     C11278   2.862   2.393  17.242 -0.2796 -0.1548 -0.3063
  764MPD2    C111279   2.778   2.310  17.165 -0.0897 -0.1649  0.2664
  764MPD2    C211280   2.736   2.187  17.220  1.0132 -0.6083  0.2593
  764MPD2    C311281   2.770   2.153  17.352  0.2137 -0.1452 -1.4831
  764MPD2    C411282   2.847   2.237  17.435 -0.3248  0.9155  0.2569
  764MPD2    C511283   2.893   2.354  17.371  0.7201 -0.1494  1.5061
  764MPD2     H11284   2.674   2.112  17.171  1.6271 -0.9161 -0.0405
  764MPD2    H111285   2.871   2.219  17.539  0.7051  1.3808  0.0976
  764MPD2    H211286   2.905   2.486  17.209  0.6265 -0.4048  0.1861
  764MPD2    H311287   2.960   2.420  17.425  0.0765  2.6474 -1.1463
  764MPD2     N11288   2.702   2.041  17.407  0.2428 -0.6151  0.6416
  764MPD2    H511289   2.657   1.978  17.342 -1.2849 -0.8919  1.9832
  764MPD2    N111290   2.751   2.319  17.030 -0.0188 -0.0561  0.3886
  764MPD2    H711291   2.702   2.237  16.998 -0.8925  1.4590 -2.1473
  765MPD2     C11292   2.025   4.149  15.701 -0.0600  0.2979  0.8102
  765MPD2    C111293   2.095   4.270  15.706 -0.1699  0.1011 -0.3497
  765MPD2    C211294   2.229   4.271  15.659 -0.5993 -0.5956  0.3956
  765MPD2    C311295   2.281   4.164  15.583 -0.4867 -0.2983  0.7076
  765MPD2    C411296   2.210   4.046  15.574 -0.5907 -0.0010 -0.2793
  765MPD2    C511297   2.084   4.046  15.634 -0.0161 -0.0791 -0.2648
  765MPD2     H11298   2.281   4.366  15.653 -0.4302 -0.8561 -2.2032
  765MPD2    H111299   2.237   3.955  15.522  2.0521  1.1821 -0.9787
  765MPD2    H211300   1.934   4.126  15.755  0.3116 -1.1578  0.8089
  765MPD2    H311301   2.034   3.950  15.634 -0.1481 -0.0114  0.3559
  765MPD2     N11302   2.408   4.182  15.524 -0.3813 -0.4204 -0.5659
  765MPD2    H511303   2.438   4.278  15.534 -1.4368 -0.2061  0.5264
  765MPD2    N111304   2.021   4.380  15.761  0.8685  0.3653  0.3092
  765MPD2    H711305   1.922   4.364  15.779  0.5888  0.9729 -0.6816
  766MPD2     C11306   1.630   4.496  15.274 -0.2597  0.9189 -0.1881
  766MPD2    C111307   1.736   4.578  15.308  0.2756  0.7345 -0.0972
  766MPD2    C211308   1.841   4.600  15.218  0.2193 -0.3105  0.2023
  766MPD2    C311309   1.845   4.528  15.098  0.5185 -0.0641  0.1739
  766MPD2    C411310   1.734   4.455  15.066 -0.1895 -0.7335  0.2022
  766MPD2    C511311   1.627   4.441  15.148 -0.0365  0.2662 -0.4621
  766MPD2     H11312   1.931   4.656  15.239  1.4985 -1.6852 -1.6493
  766MPD2    H111313   1.733   4.395  14.976 -0.2506 -0.0930 -0.2218
  766MPD2    H211314   1.541   4.474  15.333 -0.9002  1.5999 -0.8835
  766MPD2    H311315   1.545   4.377  15.119 -1.1348  1.9503 -1.0230
  766MPD2     N11316   1.952   4.527  15.011 -0.2060  0.0614 -0.1584
  766MPD2    H511317   1.927   4.496  14.917  0.5020  1.2902 -0.7573
  766MPD2    N111318   1.741   4.634  15.439 -0.1620  0.4619 -0.5727
  766MPD2    H711319   1.675   4.593  15.504 -0.3595 -1.2481 -1.8771
  767MPD2     C11320   1.681   0.125  15.047  0.1509 -0.4885 -0.4415
  767MPD2    C111321   1.809   0.143  15.001 -0.1389 -0.7251  0.0662
  767MPD2    C211322   1.833   0.105  14.869  0.4072  0.2202  0.4887
  767MPD2    C311323   1.733   0.057  14.788  0.1966 -0.6886  0.0740
  767MPD2    C411324   1.616   0.017  14.847 -0.2263  0.1003  0.3345
  767MPD2    C511325   1.586   0.065  14.973 -0.3072 -0.1295 -0.6417
  767MPD2     H11326   1.932   0.116  14.827  0.5870  2.3766  1.4546
  767MPD2    H111327   1.541   4.685  14.793  1.4002 -0.4312 -1.3749
  767MPD2    H211328   1.661   0.148  15.151  0.7397  0.3561 -0.5121
  767MPD2    H311329   1.494   0.053  15.029  0.2071 -1.1714 -0.0282
  767MPD2     N11330   1.766   0.008  14.655 -0.4703  0.1125 -0.1830
  767MPD2    H511331   1.860   0.014  14.617 -0.5234  0.7378 -0.2071
  767MPD2    N111332   1.911   0.189  15.091  0.1621 -0.0770  0.1855
  767MPD2    H711333   1.877   0.191  15.186 -2.3715 -0.1859 -0.7115
  768MPD2     C11334   2.799   3.034  10.535  0.8965  0.0228  0.5210
  768MPD2    C111335   2.716   2.992  10.637 -0.0492  0.4870 -0.0397
  768MPD2    C211336   2.775   2.960  10.759 -0.0025  0.3102  0.4807
  768MPD2    C311337   2.905   2.982  10.785 -0.4970  0.2876  0.7014
  768MPD2    C411338   2.991   3.028  10.680  0.2093 -0.2613  0.1199
  768MPD2    C511339   2.936   3.057  10.556 -0.3247 -0.6859 -0.2319
  768MPD2     H11340   2.706   2.928  10.836  3.2419 -1.7504  2.4814
  768MPD2    H111341   3.096   3.046  10.700 -0.4123  0.8331  2.3675
  768MPD2    H211342   2.756   3.062  10.440 -2.8373 -0.1669  2.1524
  768MPD2    H311343   3.005   3.089  10.478  1.7032  0.2073  1.9361
  768MPD2     N11344   2.967   2.963  10.912  0.1059  0.3123  0.0683
  768MPD2    H511345   3.064   2.993  10.919  0.4474 -0.7621 -0.1471
  768MPD2    N111346   2.574   2.988  10.639 -0.4155  0.1792 -0.0782
  768MPD2    H711347   2.535   2.966  10.730  1.5690  0.3423  0.8219
  769MPD2     C11348   3.271   2.031  14.988  0.0270 -0.6316  0.1651
  769MPD2    C111349   3.292   1.916  15.064 -0.4846 -0.3827 -0.2939
  769MPD2    C211350   3.397   1.913  15.150  0.2674  0.0090  0.6169
  769MPD2    C311351   3.474   2.023  15.172  0.3418  0.4053  0.3308
  769MPD2    C411352   3.450   2.140  15.103  0.5304 -0.2465  0.4158
  769MPD2    C511353   3.357   2.141  15.009 -0.1052 -0.3971 -0.5661
  769MPD2     H11354   3.434   1.823  15.197 -1.9298 -0.9783  0.4822
  769MPD2    H111355   3.516   2.226  15.116  0.4792 -0.0305 -0.7779
  769MPD2    H211356   3.179   2.035  14.931  0.2166  1.7862  0.0249
  769MPD2    H311357   3.339   2.232  14.952 -3.8256 -1.3599 -0.9316
  769MPD2     N11358   3.564   2.004  15.279  0.9262  0.2857  0.0480
  769MPD2    H511359   3.551   1.925  15.341 -2.5807  2.3738  1.9689
  769MPD2    N111360   3.203   1.806  15.041 -0.1699 -0.0695 -0.4429
  769MPD2    H711361   3.134   1.829  14.970 -0.1614  1.8790  0.1787
  770MPD2     C11362   2.964   0.758  15.301 -0.1085  0.0036 -0.0053
  770MPD2    C111363   3.036   0.770  15.182 -0.0764  0.0555 -0.4112
  770MPD2    C211364   3.060   0.901  15.141 -0.6510  0.8431 -0.1719
  770MPD2    C311365   3.033   1.013  15.209 -0.1483 -0.1035 -0.3904
  770MPD2    C411366   2.966   0.997  15.329 -0.0757 -0.2802 -0.3898
  770MPD2    C511367   2.925   0.872  15.370 -0.0221  0.5417 -0.0707
  770MPD2     H11368   3.105   0.915  15.044  0.1210  3.9490  0.6402
  770MPD2    H111369   2.936   1.078  15.394 -1.6843 -1.2548  0.0972
  770MPD2    H211370   2.946   0.656  15.332  0.4948 -0.8123 -2.3430
  770MPD2    H311371   2.853   0.863  15.451 -1.7550  0.4612 -1.6281
  770MPD2     N11372   3.068   1.138  15.155  0.0233  0.3684  0.2389
  770MPD2    H511373   3.125   1.136  15.071  0.4550 -0.7845  0.5563
  770MPD2    N111374   3.084   0.658  15.117 -0.3255 -0.0392  0.0125
  770MPD2    H711375   3.067   0.572  15.168 -0.0563 -0.3816 -0.4753
  771MPD2     C11376   0.072   4.037  13.631 -0.3915  0.1825  0.1041
  771MPD2    C111377   4.664   4.049  13.662 -0.3048  0.5019 -0.4569
  771MPD2    C211378   4.566   3.988  13.594  0.1895 -0.4972 -0.8468
  771MPD2    C311379   4.600   3.904  13.488 -0.0969 -0.2577  0.2017
  771MPD2    C411380   0.000   3.904  13.438 -0.8595  0.0298 -0.0788
  771MPD2    C511381   0.101   3.968  13.516  0.3814 -0.5606  0.3153
  771MPD2     H11382   4.460   3.995  13.615  0.3659 -2.2431  0.6435
  771MPD2    H111383   0.034   3.854  13.348  2.0173 -2.3179  2.3064
  771MPD2    H211384   0.157   4.091  13.672  0.7456 -0.6830 -1.1359
  771MPD2    H311385   0.197   3.975  13.466  0.9724 -0.6037  1.4471
  771MPD2     N11386   4.499   3.824  13.431 -0.2894  0.0130 -0.2276
  771MPD2    H511387   4.412   3.848  13.478  0.4153  2.4713 -0.1832
  771MPD2    N111388   4.617   4.140  13.758 -0.6231 -0.1377 -0.5122
  771MPD2    H711389   4.516   4.138  13.768 -0.5968  1.4239 -0.0716
  772MPD2     C11390   3.996   4.262  13.666 -0.4866  0.3536 -0.1946
  772MPD2    C111391   4.023   4.362  13.760 -1.0259  0.4006 -0.9467
  772MPD2    C211392   3.919   4.443  13.807 -0.4321  0.0019 -0.3543
  772MPD2    C311393   3.785   4.432  13.771  0.3975  0.5154  0.3084
  772MPD2    C411394   3.759   4.331  13.680  0.1824 -0.0379  0.0072
  772MPD2    C511395   3.860   4.247  13.632  0.6706  0.7638 -0.4691
  772MPD2     H11396   3.941   4.514  13.886  0.3706 -0.0375 -0.5344
  772MPD2    H111397   3.655   4.303  13.671  0.1529 -0.7930  2.6083
  772MPD2    H211398   4.070   4.189  13.635 -1.9924 -1.2189 -0.0678
  772MPD2    H311399   3.830   4.165  13.568 -0.7378 -0.0768  1.2933
  772MPD2     N11400   3.680   4.512  13.806  0.1938  0.5623  0.1943
  772MPD2    H511401   3.589   4.490  13.768 -0.5189  1.3063  1.4734
  772MPD2    N111402   4.155   4.392  13.809 -0.3443 -0.2490  0.0680
  772MPD2    H711403   4.167   4.470  13.872 -0.6075 -1.9431  2.2463
  773MPD2     C11404   3.311   0.855   0.277 -0.1273 -0.1977  0.0775
  773MPD2    C111405   3.241   0.760   0.203  0.3697 -0.5706  0.9830
  773MPD2    C211406   3.246   0.631   0.250 -0.1648 -0.1046 -0.2409
  773MPD2    C311407   3.307   0.586   0.366 -0.0692  0.2325  0.6357
  773MPD2    C411408   3.361   0.686   0.444  0.2129  1.0035  0.3247
  773MPD2    C511409   3.371   0.812   0.391 -0.4027 -0.7051 -0.3250
  773MPD2     H11410   3.197   0.555   0.189 -3.2870  0.0910  2.0557
  773MPD2    H111411   3.405   0.656   0.539 -1.0587  2.1889  1.2891
  773MPD2    H211412   3.319   0.956   0.240 -0.9837 -0.2447 -0.2303
  773MPD2    H311413   3.414   0.894   0.447  0.2815 -0.3192 -1.4017
  773MPD2     N11414   3.301   0.450   0.396  0.0669  0.0506 -0.8207
  773MPD2    H511415   3.255   0.389   0.329  2.3577  2.6013 -4.7824
  773MPD2    N111416   3.194   0.782   0.072 -0.0425 -0.2720 -0.5661
  773MPD2    H711417   3.126   0.712   0.044 -2.1979  1.7821 -0.4978
  774MPD2     C11418   2.560   4.155  13.327  0.0369  0.0315 -0.3345
  774MPD2    C111419   2.514   4.277  13.373  0.5509  0.2411  0.0275
  774MPD2    C211420   2.542   4.385  13.284  0.0285  0.0353 -0.4403
  774MPD2    C311421   2.628   4.381  13.177  0.6688 -0.0016 -0.3310
  774MPD2    C411422   2.683   4.255  13.141 -0.0457 -0.2334  0.1096
  774MPD2    C511423   2.645   4.152  13.217 -0.1572  0.0450 -0.4195
  774MPD2     H11424   2.497   4.481  13.304 -1.1755 -0.1967 -2.0764
  774MPD2    H111425   2.751   4.242  13.058 -0.1659  2.8113 -0.4662
  774MPD2    H211426   2.525   4.070  13.384 -2.0817  2.5006  2.0754
  774MPD2    H311427   2.668   4.051  13.183 -0.3917  1.1620 -3.8669
  774MPD2     N11428   2.658   4.507  13.117  0.5002  0.3025  0.2359
  774MPD2    H511429   2.600   4.585  13.145 -0.6350  0.4911 -2.6546
  774MPD2    N111430   2.433   4.288  13.488  0.3929 -0.2475  0.2744
  774MPD2    H711431   2.428   4.209  13.551  0.3687  0.4339  1.1330
  775MPD2     C11432   4.016   1.619  16.064 -0.3758  0.2595 -0.5339
  775MPD2    C111433   4.049   1.707  16.168  0.6977 -0.1106 -0.9354
  775MPD2    C211434   4.123   1.823  16.141  1.1137  0.5573  0.4398
  775MPD2    C311435   4.155   1.849  16.009 -0.5729 -0.2310 -0.4104
  775MPD2    C411436   4.127   1.754  15.912  0.0745 -0.0524  0.8225
  775MPD2    C511437   4.044   1.644  15.932  1.2761  0.0676 -0.6116
  775MPD2     H11438   4.149   1.890  16.222 -1.4470  1.6058  0.3757
  775MPD2    H111439   4.182   1.757  15.818  0.0202  1.2360  0.8395
  775MPD2    H211440   3.972   1.522  16.087 -0.2277  0.9203  2.5509
  775MPD2    H311441   4.028   1.566  15.858  2.2700  1.2360 -2.0758
  775MPD2     N11442   4.241   1.958  15.968 -0.0358  0.3579 -0.1244
  775MPD2    H511443   4.260   1.967  15.869  1.2385  1.5839  0.2242
  775MPD2    N111444   4.007   1.667  16.295 -0.2928  0.6564 -0.2792
  775MPD2    H711445   3.944   1.588  16.292 -0.1231  0.5627 -1.6606
  776MPD2     C11446   3.481   1.305  11.585 -0.2754 -0.5874 -0.0810
  776MPD2    C111447   3.373   1.348  11.511  0.5875  0.3014  0.3823
  776MPD2    C211448   3.365   1.484  11.473 -0.3332  0.0621 -0.1848
  776MPD2    C311449   3.461   1.578  11.506  0.2145  0.0927 -0.2632
  776MPD2    C411450   3.564   1.539  11.584  0.5673 -0.0967  0.2652
  776MPD2    C511451   3.573   1.405  11.619  0.0072 -0.1994  0.7767
  776MPD2     H11452   3.273   1.516  11.425 -0.3430 -0.0289 -0.2270
  776MPD2    H111453   3.636   1.613  11.617 -0.2264  0.2559  1.1981
  776MPD2    H211454   3.501   1.206  11.624 -2.5756 -0.4249  1.5598
  776MPD2    H311455   3.650   1.375  11.690 -0.4325  0.2698  1.4540
  776MPD2     N11456   3.450   1.716  11.479  0.2725  0.1928  0.5420
  776MPD2    H511457   3.516   1.779  11.523 -2.0183  3.1031 -0.1761
  776MPD2    N111458   3.279   1.247  11.479  0.1872 -0.0115  0.5176
  776MPD2    H711459   3.304   1.155  11.514 -1.7819 -0.1813  1.4447
  777MPD2     C11460   2.856   4.117   0.517  0.2593  0.2009  0.4564
  777MPD2    C111461   2.892   4.039   0.627 -0.1873  0.0063 -0.4563
  777MPD2    C211462   2.887   3.905   0.620  0.1595 -0.3108  0.1724
  777MPD2    C311463   2.850   3.833   0.509 -0.0909  0.7112 -0.8464
  777MPD2    C411464   2.825   3.912   0.399  0.2615  0.1991 -0.0580
  777MPD2    C511465   2.824   4.050   0.404 -0.0406  0.4354 -0.4904
  777MPD2     H11466   2.901   3.839   0.705  0.6134  0.1639  0.4709
  777MPD2    H111467   2.804   3.863   0.304  0.4928  0.2227 -0.1201
  777MPD2    H211468   2.850   4.225   0.519  1.6762  0.2404  1.9161
  777MPD2    H311469   2.790   4.099   0.314 -2.1433 -0.8701 -0.4200
  777MPD2     N11470   2.843   3.692   0.504  0.3967 -0.4850  0.1153
  777MPD2    H511471   2.861   3.640   0.590  0.4799 -1.8902 -0.7484
  777MPD2    N111472   2.926   4.114   0.744 -0.0572  0.2702 -0.3662
  777MPD2    H711473   2.899   4.212   0.749 -1.4960 -0.0422 -1.8571
  778MPD2     C11474   4.166   3.789  15.244  0.2797  0.1136  0.3128
  778MPD2    C111475   4.163   3.688  15.148 -0.5038  0.2994  0.0325
  778MPD2    C211476   4.261   3.686  15.051 -0.2684 -0.1207 -0.5579
  778MPD2    C311477   4.366   3.778  15.060 -0.7903 -0.2164  0.6664
  778MPD2    C411478   4.364   3.879  15.151  0.1488  0.0505  0.1627
  778MPD2    C511479   4.267   3.882  15.246 -0.3016  0.6832 -0.1496
  778MPD2     H11480   4.266   3.605  14.979  0.7688 -0.8174  0.2812
  778MPD2    H111481   4.442   3.953  15.160 -0.1930  0.4653 -0.2629
  778MPD2    H211482   4.083   3.819  15.307  0.3981  2.2342 -0.5290
  778MPD2    H311483   4.262   3.967  15.313  2.5494 -0.4332  1.4795
  778MPD2     N11484   4.477   3.755  14.971  0.2158  0.2288 -1.0161
  778MPD2    H511485   4.460   3.681  14.904  0.1608  0.1712 -0.9370
  778MPD2    N111486   4.063   3.587  15.135  0.4443  0.0713  0.0011
  778MPD2    H711487   4.067   3.522  15.058  0.2820  0.3014 -0.2014
  779MPD2     C11488   4.098   2.905  14.539  0.0207 -0.8351 -0.5528
  779MPD2    C111489   4.213   2.873  14.472  0.1926  0.0880  0.1041
  779MPD2    C211490   4.244   2.943  14.359  0.7905 -0.1436  0.5214
  779MPD2    C311491   4.155   3.035  14.306  0.4655  0.4677 -0.2172
  779MPD2    C411492   4.037   3.069  14.377 -0.5726 -0.6794 -0.6307
  779MPD2    C511493   4.016   3.005  14.497  0.4283  0.3419 -0.0834
  779MPD2     H11494   4.342   2.928  14.315  0.6246  1.4813 -0.4441
  779MPD2    H111495   3.977   3.157  14.354 -1.0751 -0.9665 -0.4163
  779MPD2    H211496   4.064   2.854  14.629  0.1150  0.4142  0.1902
  779MPD2    H311497   3.933   3.034  14.560 -0.7778  0.7233 -1.8497
  779MPD2     N11498   4.183   3.092  14.181 -0.2619 -0.4557  0.2389
  779MPD2    H511499   4.273   3.071  14.140 -0.8212  1.0948 -1.7932
  779MPD2    N111500   4.305   2.774  14.517 -0.0282  0.6172 -0.2966
  779MPD2    H711501   4.372   2.740  14.449 -0.7501 -0.5074 -0.4395
  780MPD2     C11502   3.368   3.085   1.107 -0.3899 -0.8023 -0.0218
  780MPD2    C111503   3.450   2.974   1.130  0.1769 -0.1554 -0.0477
  780MPD2    C211504   3.584   2.974   1.093 -0.3390  0.2160  0.2294
  780MPD2    C311505   3.632   3.092   1.030  0.0710  0.7198 -0.6507
  780MPD2    C411506   3.549   3.205   1.029 -0.0266  0.1122  0.5599
  780MPD2    C511507   3.422   3.201   1.069  0.3792  0.5563 -0.6662
  780MPD2     H11508   3.650   2.892   1.118 -2.8584 -1.1653  2.2976
  780MPD2    H111509   3.587   3.304   1.005  0.3408 -0.1742 -0.0512
  780MPD2    H211510   3.263   3.078   1.131 -1.0531  1.4438 -2.2757
  780MPD2    H311511   3.354   3.285   1.071  0.9615  0.9933  0.7015
  780MPD2     N11512   3.758   3.091   0.972  0.0243 -0.1472  0.1375
  780MPD2    H511513   3.803   3.001   0.959  1.2217  0.0393  2.9049
  780MPD2    N111514   3.377   2.861   1.169 -0.1964  0.1980 -0.0692
  780MPD2    H711515   3.277   2.874   1.173  0.0306  2.3322 -1.0765
  781MPD2     C11516   0.731   0.098  12.039 -0.1987  0.0174 -0.4353
  781MPD2    C111517   0.766   4.688  12.050  0.6026  0.2248  0.1004
  781MPD2    C211518   0.763   4.608  11.937 -0.2167  0.0607 -0.0565
  781MPD2    C311519   0.734   4.653  11.811  0.7358  0.4217 -0.0365
  781MPD2    C411520   0.708   0.062  11.804 -0.1781  0.0326 -0.3246
  781MPD2    C511521   0.702   0.149  11.914  0.7053 -0.1067  0.3035
  781MPD2     H11522   0.787   4.503  11.950  0.1719  0.2684  0.9007
  781MPD2    H111523   0.692   0.113  11.710 -0.1252  0.1770 -0.2564
  781MPD2    H211524   0.723   0.163  12.125 -3.5899 -1.9704  0.7704
  781MPD2    H311525   0.673   0.253  11.902 -0.2915 -0.5172 -0.9338
  781MPD2     N11526   0.741   4.580  11.687  0.5427 -0.7600  0.2579
  781MPD2    H511527   0.714   4.630  11.602  1.3299  1.8140  1.5072
  781MPD2    N111528   0.804   4.633  12.174 -0.5346 -0.1473 -0.4043
  781MPD2    H711529   0.808   4.531  12.182 -0.1430  0.2323  4.0736
  782MPD2     C11530   3.316   0.218  10.334  0.3470 -0.0358  0.0512
  782MPD2    C111531   3.429   0.184  10.411  0.4728 -0.0961  0.5069
  782MPD2    C211532   3.482   0.275  10.501  0.7715  1.2994 -0.7299
  782MPD2    C311533   3.431   0.408  10.506  0.5267 -0.2861 -0.4743
  782MPD2    C411534   3.317   0.443  10.436 -1.0755 -0.4766  0.6016
  782MPD2    C511535   3.266   0.346  10.352 -1.3636  0.1366  0.2664
  782MPD2     H11536   3.575   0.243  10.548  0.3103  0.6674 -0.2547
  782MPD2    H111537   3.267   0.538  10.446 -1.3552 -0.4233 -1.3516
  782MPD2    H211538   3.276   0.151  10.258 -1.9128  0.4202  0.8407
  782MPD2    H311539   3.176   0.371  10.297 -0.9302 -0.9924 -0.9472
  782MPD2     N11540   3.507   0.497  10.590  0.1901 -0.0885 -0.0059
  782MPD2    H511541   3.589   0.459  10.636 -0.5596 -0.6743  0.8440
  782MPD2    N111542   3.495   0.066  10.398  0.5137  0.5283 -1.0344
  782MPD2    H711543   3.565   0.044  10.468 -0.2050  1.6770  0.0551
  783MPD2     C11544   3.527   4.248  10.996 -0.0063 -0.3140 -0.8174
  783MPD2    C111545   3.512   4.383  10.979  0.0650  0.7562  0.4436
  783MPD2    C211546   3.568   4.436  10.866  0.2627 -0.0630  0.1100
  783MPD2    C311547   3.642   4.359  10.779  0.4826 -0.1783  0.2074
  783MPD2    C411548   3.663   4.228  10.802 -0.6510  0.2451 -0.0822
  783MPD2    C511549   3.603   4.173  10.913  0.0367  0.4048 -0.1981
  783MPD2     H11550   3.557   4.540  10.834  1.5474 -0.1119 -0.4855
  783MPD2    H111551   3.732   4.170  10.742 -1.8053 -3.6565  2.3763
  783MPD2    H211552   3.472   4.196  11.074  0.7568  0.1419  0.0197
  783MPD2    H311553   3.616   4.067  10.931  2.0593  0.4593 -1.3805
  783MPD2     N11554   3.675   4.426  10.661 -0.4088  0.3958  0.3306
  783MPD2    H511555   3.666   4.527  10.660 -3.1478  0.1478  0.2614
  783MPD2    N111556   3.433   4.457  11.074 -0.4391  0.1736  0.4646
  783MPD2    H711557   3.393   4.397  11.146  1.1443 -2.9828 -1.3109
  784MPD2     C11558   0.776   0.982   1.083 -0.1226  0.5721  0.6951
  784MPD2    C111559   0.743   1.020   1.210 -0.4570  0.4008 -0.1012
  784MPD2    C211560   0.614   1.055   1.243  0.6816 -0.9105  0.9641
  784MPD2    C311561   0.517   1.045   1.148  0.3199 -0.4258 -0.1706
  784MPD2    C411562   0.553   1.008   1.020 -0.5190 -0.4979 -0.2819
  784MPD2    C511563   0.679   0.972   0.991  0.7036  0.4956  0.0360
  784MPD2     H11564   0.595   1.091   1.343  0.1415 -1.3193  1.0051
  784MPD2    H111565   0.479   1.003   0.941 -0.0962 -1.6638 -0.5941
  784MPD2    H211566   0.880   0.972   1.053 -0.2266 -0.7677  0.7997
  784MPD2    H311567   0.700   0.959   0.886 -1.8368  1.9588 -0.6765
  784MPD2     N11568   0.382   1.072   1.187 -0.3881 -0.2078  0.3758
  784MPD2    H511569   0.366   1.092   1.286 -0.6919  2.3970 -0.1909
  784MPD2    N111570   0.840   1.049   1.304 -0.1584  0.3193 -0.6910
  784MPD2    H711571   0.816   1.116   1.377 -2.2852 -0.7889 -0.3671
  785MPD2     C11572   1.174   3.653  10.405  0.9083 -0.0246 -0.9135
  785MPD2    C111573   1.106   3.744  10.493  0.7996  0.8206 -0.2054
  785MPD2    C211574   0.977   3.782  10.454  0.2585 -0.2901 -0.5711
  785MPD2    C311575   0.923   3.730  10.338  0.3217 -0.4749  0.8343
  785MPD2    C411576   0.991   3.638  10.259 -0.5113 -0.5691 -0.0581
  785MPD2    C511577   1.117   3.610  10.289 -1.0058 -0.2982  0.1837
  785MPD2     H11578   0.919   3.856  10.507  0.1390  1.4543 -3.1448
  785MPD2    H111579   0.956   3.577  10.176 -0.2528  1.1234 -1.3978
  785MPD2    H211580   1.274   3.617  10.424  2.0248  2.1565 -2.6984
  785MPD2    H311581   1.170   3.543  10.222 -0.3893  1.9435 -1.5784
  785MPD2     N11582   0.800   3.784  10.312 -0.4576  0.1968 -0.0313
  785MPD2    H511583   0.775   3.856  10.379  2.5205  0.8104  0.4130
  785MPD2    N111584   1.174   3.797  10.609  0.1285 -0.2325  0.0989
  785MPD2    H711585   1.271   3.769  10.620  0.6224  1.8813  1.0905
  786MPD2     C11586   4.308   2.291  14.905 -0.4795  0.6661 -0.1925
  786MPD2    C111587   4.423   2.212  14.894  0.0241 -0.0518  1.2848
  786MPD2    C211588   4.523   2.210  14.990 -0.0626 -0.0742 -0.6733
  786MPD2    C311589   4.514   2.277  15.109  0.4685 -0.0291  0.3434
  786MPD2    C411590   4.396   2.357  15.120 -0.2644  0.3732  0.7058
  786MPD2    C511591   4.302   2.364  15.022  0.1230  0.1364 -0.2633
  786MPD2     H11592   4.599   2.136  14.967 -0.9921 -1.3246  0.2665
  786MPD2    H111593   4.373   2.415  15.208 -1.9205 -0.1113  0.6035
  786MPD2    H211594   4.227   2.294  14.833 -0.2863 -0.1082 -0.4417
  786MPD2    H311595   4.214   2.422  15.046  0.0617 -0.3614  0.6978
  786MPD2     N11596   4.625   2.286  15.197  0.2959  0.0370 -0.1202
  786MPD2    H511597   4.614   2.325  15.290  1.7681 -1.1480  0.5443
  786MPD2    N111598   4.451   2.128  14.790  0.0233  0.6781  0.4648
  786MPD2    H711599   4.544   2.088  14.794 -0.9024 -1.5698 -0.4807
  787MPD2     C11600   0.187   1.791  15.008  0.0543  0.7091 -0.2936
  787MPD2    C111601   0.122   1.730  14.904 -0.2004  0.3455 -0.1254
  787MPD2    C211602   0.133   1.591  14.895 -0.1465  0.4860 -0.2795
  787MPD2    C311603   0.219   1.522  14.978 -0.1732  0.0510 -0.1366
  787MPD2    C411604   0.293   1.593  15.072 -0.4352  0.3902  0.0357
  787MPD2    C511605   0.263   1.722  15.099 -0.0949  0.5222 -0.7610
  787MPD2     H11606   0.078   1.539  14.818 -0.8773 -0.0214  0.5797
  787MPD2    H111607   0.363   1.542  15.138  1.1389 -0.4039 -2.2678
  787MPD2    H211608   0.170   1.896  15.027  2.1628  1.4552 -2.3795
  787MPD2    H311609   0.303   1.780  15.182  0.6709  1.2101 -1.6129
  787MPD2     N11610   0.239   1.391  14.939  1.0042  0.0552  0.0135
  787MPD2    H511611   0.200   1.360  14.850 -3.5354  0.1272  2.0019
  787MPD2    N111612   0.052   1.805  14.808  0.1209  0.2507 -0.0036
  787MPD2    H711613   0.057   1.906  14.814 -2.2728  0.3683 -0.0688
  788MPD2     C11614   1.938   0.811   0.623 -0.6158 -0.7921  0.2878
  788MPD2    C111615   1.827   0.738   0.658  0.2516 -0.5084  0.3582
  788MPD2    C211616   1.719   0.746   0.571 -0.0908 -0.0669  0.0141
  788MPD2    C311617   1.710   0.829   0.458 -0.3689  0.4861  0.6455
  788MPD2    C411618   1.818   0.913   0.434  0.0004  0.2352  0.4865
  788MPD2    C511619   1.930   0.898   0.514 -0.0468 -0.4443 -0.3013
  788MPD2     H11620   1.635   0.678   0.587  0.6954 -0.3885  2.7255
  788MPD2    H111621   1.806   0.987   0.355  1.3344 -0.3475 -0.2700
  788MPD2    H211622   2.025   0.817   0.688  0.5706 -1.4913 -1.2367
  788MPD2    H311623   2.019   0.954   0.486  0.3395 -0.8486  0.1115
  788MPD2     N11624   1.603   0.833   0.376 -0.5328 -0.1610 -0.1899
  788MPD2    H511625   1.630   0.883   0.291 -1.7278 -1.1203 -1.1334
  788MPD2    N111626   1.822   0.642   0.758  0.3118 -0.0771  0.5063
  788MPD2    H711627   1.730   0.598   0.765  0.9130 -1.9373 -3.1472
  789MPD2     C11628   2.309   4.613  16.076  0.6197  0.2216  0.2045
  789MPD2    C111629   2.220   4.510  16.096 -0.0209 -0.3769 -0.0815
  789MPD2    C211630   2.094   4.538  16.148 -0.2441  0.1245  0.6650
  789MPD2    C311631   2.060   4.672  16.178  0.8778 -0.3096  0.5733
  789MPD2    C411632   2.161   0.041  16.165 -1.2472  0.0386  0.1595
  789MPD2    C511633   2.286   0.011  16.124  0.2094 -0.4416  0.2106
  789MPD2     H11634   2.030   4.452  16.165 -0.3813 -0.2368 -1.6445
  789MPD2    H111635   2.146   0.142  16.202  0.5273  0.0258  0.9110
  789MPD2    H211636   2.403   4.606  16.022  0.6290 -0.0854  0.2645
  789MPD2    H311637   2.360   0.090  16.124 -0.6480  0.3568  0.2763
  789MPD2     N11638   1.947   4.716  16.244  0.2040 -0.1350 -1.2225
  789MPD2    H511639   1.944   0.089  16.273 -1.5117  0.1608 -2.3861
  789MPD2    N111640   2.239   4.376  16.038  0.0289 -0.5222 -0.7771
  789MPD2    H711641   2.160   4.313  16.047 -0.7744  0.3442 -1.8114
  790MPD2     C11642   2.873   2.086  13.927 -0.0585 -0.6537  0.0199
  790MPD2    C111643   2.950   1.989  13.889  0.2186 -0.4890  0.5384
  790MPD2    C211644   2.966   1.955  13.750  0.8759 -1.1049  0.2923
  790MPD2    C311645   2.905   2.029  13.650 -0.4852 -0.5722 -0.1588
  790MPD2    C411646   2.826   2.135  13.694 -0.0766 -0.1685 -0.3505
  790MPD2    C511647   2.814   2.165  13.828 -0.4826 -0.2434 -0.0056
  790MPD2     H11648   3.029   1.875  13.714 -0.9383 -2.4321  0.0470
  790MPD2    H111649   2.752   2.175  13.625 -4.0742  0.0583  4.0077
  790MPD2    H211650   2.854   2.094  14.033 -3.1663  1.1838 -0.6573
  790MPD2    H311651   2.742   2.243  13.848 -1.7814 -1.7467  1.2149
  790MPD2     N11652   2.921   1.996  13.517  0.5515 -0.2391  0.1229
  790MPD2    H511653   2.985   1.924  13.486 -0.0567 -0.6989 -0.0790
  790MPD2    N111654   3.021   1.920  13.988  0.9346 -0.2317  0.5504
  790MPD2    H711655   3.010   1.947  14.085 -2.5988 -1.0700  0.3883
  791MPD2     C11656   2.537   1.895  12.737  0.4786  0.0980  0.0664
  791MPD2    C111657   2.564   1.794  12.826  0.2941  0.5705 -0.1997
  791MPD2    C211658   2.499   1.672  12.813  1.2114 -0.0671  0.6522
  791MPD2    C311659   2.405   1.648  12.709  0.2909 -0.2178 -0.1420
  791MPD2    C411660   2.383   1.751  12.621 -0.1983  0.3038 -0.4245
  791MPD2    C511661   2.450   1.873  12.631  0.0179 -0.6366  0.3686
  791MPD2     H11662   2.522   1.588  12.878 -0.2056 -0.0493  1.1702
  791MPD2    H111663   2.307   1.733  12.545 -0.0669  0.8340 -0.6809
  791MPD2    H211664   2.588   1.990  12.753  0.8225 -0.0274 -0.2799
  791MPD2    H311665   2.424   1.947  12.556 -1.5519 -1.6206 -0.0498
  791MPD2     N11666   2.338   1.522  12.696  0.0835 -0.5319 -0.3809
  791MPD2    H511667   2.388   1.447  12.743  2.9187  0.8933 -1.1091
  791MPD2    N111668   2.654   1.802  12.930  0.1282  0.2061  0.7192
  791MPD2    H711669   2.679   1.720  12.985  0.3623 -0.8552 -0.9708
  792MPD2     C11670   3.740   1.096  11.206  0.1641 -0.2544 -0.0442
  792MPD2    C111671   3.626   1.162  11.161  0.6816 -0.0228 -0.2998
  792MPD2    C211672   3.518   1.083  11.141 -0.3226 -0.2831  0.5825
  792MPD2    C311673   3.521   0.946  11.153 -1.0054  0.6542 -0.2140
  792MPD2    C411674   3.633   0.885  11.192  0.1771  0.0535 -0.3033
  792MPD2    C511675   3.747   0.959  11.202  0.4658  0.2168 -0.3446
  792MPD2     H11676   3.424   1.125  11.108  1.0274  1.4687 -0.9960
  792MPD2    H111677   3.633   0.778  11.207  0.8157  0.3111  1.4946
  792MPD2    H211678   3.834   1.149  11.218 -0.0701 -0.0761  0.9764
  792MPD2    H311679   3.839   0.913  11.237  0.4715  0.1722 -0.4188
  792MPD2     N11680   3.410   0.854  11.146 -0.2100  0.6199  0.0487
  792MPD2    H511681   3.431   0.757  11.164 -1.0934  0.2588 -0.8634
  792MPD2    N111682   3.626   1.299  11.151 -0.3877  0.1035 -0.3356
  792MPD2    H711683   3.718   1.340  11.162 -0.3284 -0.5640  1.7357
  793MPD2     C11684   2.742   1.172  10.624 -0.4087 -0.1784  0.1724
  793MPD2    C111685   2.878   1.175  10.649 -0.8444  0.9056  0.3633
  793MPD2    C211686   2.938   1.093  10.741  0.3428  0.3482  0.0556
  793MPD2    C311687   2.866   0.985  10.795 -0.4395  0.1205 -0.8796
  793MPD2    C411688   2.734   0.971  10.761  0.2856 -0.3558  0.4026
  793MPD2    C511689   2.672   1.060  10.677  0.0425 -0.2809  0.1264
  793MPD2     H11690   3.044   1.098  10.762  1.2599 -1.0693 -4.1976
  793MPD2    H111691   2.673   0.886  10.792 -0.2080 -0.6316 -1.3124
  793MPD2    H211692   2.687   1.242  10.562 -1.5143 -0.0767  1.2649
  793MPD2    H311693   2.570   1.057  10.643  0.1846 -3.0688 -0.0507
  793MPD2     N11694   2.938   0.891  10.875 -0.3231 -0.2943  0.0770
  793MPD2    H511695   3.035   0.912  10.900 -0.1314 -0.7212 -0.3130
  793MPD2    N111696   2.968   1.261  10.583  0.8084  1.5408  0.0626
  793MPD2    H711697   3.068   1.252  10.599 -0.0004 -2.3418  2.7859
  794MPD2     C11698   3.333   0.980  16.938  0.1309  0.4985 -0.4350
  794MPD2    C111699   3.209   1.035  16.987 -0.6337 -0.5282  0.0131
  794MPD2    C211700   3.129   1.110  16.897  0.2687  0.4436  0.5761
  794MPD2    C311701   3.156   1.104  16.762 -0.3847  0.0501 -1.1906
  794MPD2    C411702   3.266   1.042  16.714 -0.1338  0.3348  0.6682
  794MPD2    C511703   3.356   0.981  16.800 -0.9172  0.2404 -0.2412
  794MPD2     H11704   3.050   1.170  16.939 -1.5737 -0.6931 -1.2646
  794MPD2    H111705   3.276   1.030  16.607 -0.5246 -0.1314  0.6809
  794MPD2    H211706   3.408   0.924  16.993  1.2117 -0.5884 -3.0539
  794MPD2    H311707   3.438   0.928  16.753 -1.1180 -2.2451  2.1931
  794MPD2     N11708   3.073   1.169  16.670  0.3456  0.2142 -0.0587
  794MPD2    H511709   3.094   1.143  16.574 -0.1783 -1.5685  0.3270
  794MPD2    N111710   3.167   1.021  17.125  0.0093  0.0184  0.6623
  794MPD2    H711711   3.072   1.050  17.142  0.1848  0.3027  1.1545
  795MPD2     C11712   0.595   3.333  13.444  0.3759 -0.2537 -0.3603
  795MPD2    C111713   0.580   3.208  13.386  0.6896  0.6221  0.1057
  795MPD2    C211714   0.669   3.106  13.408  0.1758 -0.2000 -0.1554
  795MPD2    C311715   0.774   3.125  13.492 -0.2212 -0.1513 -0.8675
  795MPD2    C411716   0.805   3.255  13.527 -0.1568  0.0805 -0.0487
  795MPD2    C511717   0.705   3.356  13.511 -1.0928  0.2206  0.6001
  795MPD2     H11718   0.637   3.010  13.370  0.3180 -0.7537  1.1230
  795MPD2    H111719   0.886   3.281  13.594 -0.5447  2.3728 -0.4856
  795MPD2    H211720   0.522   3.412  13.431  0.5798 -0.4791 -2.8092
  795MPD2    H311721   0.720   3.456  13.548  1.7381  0.6172 -1.6218
  795MPD2     N11722   0.869   3.024  13.522  0.2358  0.0229  0.8429
  795MPD2    H511723   0.964   3.055  13.540  0.5158 -0.9923  1.1215
  795MPD2    N111724   0.479   3.178  13.291 -0.2289  0.3487  0.4653
  795MPD2    H711725   0.476   3.084  13.254  1.9491  0.4480  0.0262
  796MPD2     C11726   0.154   0.088  15.856  0.1365 -0.2076 -0.6889
  796MPD2    C111727   0.180   0.175  15.961 -0.2285  0.6470  0.1880
  796MPD2    C211728   0.154   0.308  15.957  0.3051  0.7595  0.0228
  796MPD2    C311729   0.084   0.356  15.843 -1.0614 -0.7243  0.5028
  796MPD2    C411730   0.053   0.263  15.742 -0.4101 -0.4583  0.1849
  796MPD2    C511731   0.084   0.131  15.755  0.2731  0.2081 -0.7740
  796MPD2     H11732   0.164   0.376  16.042  0.2830  2.4554 -1.3382
  796MPD2    H111733   4.717   0.277  15.653 -1.8694 -0.5837  1.1600
  796MPD2    H211734   0.166   4.705  15.859  1.1962 -0.1281 -2.3562
  796MPD2    H311735   0.055   0.066  15.673 -1.8576  0.6635 -0.3736
  796MPD2     N11736   0.049   0.492  15.842 -0.3913  0.0887 -0.4283
  796MPD2    H511737   0.080   0.553  15.918 -1.3439 -1.1298  0.9363
  796MPD2    N111738   0.242   0.115  16.076  0.3967 -0.1641 -0.0321
  796MPD2    H711739   0.263   0.017  16.064 -1.2173 -0.5870  0.5472
  797MPD2     C11740   1.838   4.216  17.110  0.7021  0.1859 -0.3097
  797MPD2    C111741   1.724   4.177  17.168  0.2200 -0.1971 -0.1015
  797MPD2    C211742   1.606   4.194  17.105  0.3292  0.3643  0.1313
  797MPD2    C311743   1.602   4.243  16.974  0.2042  0.6849  0.5027
  797MPD2    C411744   1.721   4.266  16.907  0.1979  0.2161 -0.0879
  797MPD2    C511745   1.832   4.262  16.984  0.0207  0.2734  0.0207
  797MPD2     H11746   1.516   4.172  17.161  0.4485 -3.2586 -1.1358
  797MPD2    H111747   1.715   4.301  16.805 -1.5200  0.4046  0.0773
  797MPD2    H211748   1.929   4.212  17.169 -0.8396 -0.8115  1.9997
  797MPD2    H311749   1.919   4.296  16.930  0.0781  0.7796  0.4371
  797MPD2     N11750   1.484   4.275  16.902  0.3411 -0.9253  0.5597
  797MPD2    H511751   1.497   4.305  16.807 -2.7789  4.0562  1.7127
  797MPD2    N111752   1.715   4.138  17.304 -0.3247  0.0592  0.6589
  797MPD2    H711753   1.626   4.122  17.349 -1.9280 -0.6102 -2.8164
  798MPD2     C11754   1.132   4.592  17.374 -0.3187 -0.4107  0.0807
  798MPD2    C111755   1.187   4.479  17.309 -0.7978 -0.0168 -0.0601
  798MPD2    C211756   1.277   4.401  17.371 -0.2244  0.0465 -0.7994
  798MPD2    C311757   1.320   4.434  17.497  0.5428 -0.6476 -0.3432
  798MPD2    C411758   1.275   4.543  17.563  0.5014  0.6187 -0.5178
  798MPD2    C511759   1.177   4.628  17.499 -0.2192 -0.1771  0.7427
  798MPD2     H11760   1.315   4.309  17.329  1.8502 -0.4802  2.2109
  798MPD2    H111761   1.294   4.564  17.667  1.3520  1.2229 -0.7909
  798MPD2    H211762   1.053   4.648  17.326 -1.4448 -1.0628  1.1820
  798MPD2    H311763   1.121   4.709  17.543 -0.9451 -1.3289  1.9619
  798MPD2     N11764   1.418   4.349  17.549  0.2610  0.4122  0.5864
  798MPD2    H511765   1.438   4.262  17.502  3.3505  1.0033  0.7960
  798MPD2    N111766   1.150   4.437  17.175  0.2500 -0.3020 -0.0287
  798MPD2    H711767   1.201   4.362  17.130  0.7278 -0.1667  0.2900
  799MPD2     C11768   4.541   1.000  14.878  0.2069  0.3603 -0.0319
  799MPD2    C111769   4.489   0.940  14.765  0.0356  0.4004 -0.3790
  799MPD2    C211770   4.467   1.011  14.654  0.1813  0.3770 -0.6332
  799MPD2    C311771   4.505   1.147  14.645  0.4365 -0.6255 -0.1798
  799MPD2    C411772   4.557   1.208  14.756 -0.2732  0.0089  0.5542
  799MPD2    C511773   4.575   1.134  14.873 -0.1127 -0.2598  0.2151
  799MPD2     H11774   4.416   0.965  14.570  3.3884 -1.0774 -1.7708
  799MPD2    H111775   4.578   1.313  14.772 -2.7570  0.3368  1.6914
  799MPD2    H211776   4.569   0.946  14.967 -2.0422  1.3989  1.2941
  799MPD2    H311777   4.616   1.169  14.967 -0.2664  0.3721  0.0518
  799MPD2     N11778   4.491   1.216  14.523 -0.0665  0.1042 -0.7385
  799MPD2    H511779   4.520   1.314  14.523 -0.5261  0.2496  1.9325
  799MPD2    N111780   4.473   0.803  14.758  0.2291 -0.2078 -0.0392
  799MPD2    H711781   4.435   0.774  14.669 -2.8168  2.5072  0.3916
  800MPD2     C11782   0.953   1.987  14.980  1.0547 -0.2137 -0.5573
  800MPD2    C111783   1.059   2.009  14.900  0.0098 -0.9112  0.2455
  800MPD2    C211784   1.072   1.956  14.774  0.6666 -0.3755  0.3546
  800MPD2    C311785   0.967   1.891  14.720 -0.1655  0.4857  0.2594
  800MPD2    C411786   0.862   1.851  14.806 -0.3830 -0.1309 -0.4453
  800MPD2    C511787   0.856   1.897  14.935  0.2785 -0.6975 -0.6908
  800MPD2     H11788   1.159   1.983  14.714  0.5582  0.6496  0.6588
  800MPD2    H111789   0.777   1.794  14.768 -2.3507  1.7771  1.0837
  800MPD2    H211790   0.940   2.040  15.073 -3.3776  1.1652 -1.9848
  800MPD2    H311791   0.774   1.873  15.001  0.3137  0.9357 -0.0569
  800MPD2     N11792   0.967   1.874  14.578  0.9471  0.6701  0.0924
  800MPD2    H511793   1.047   1.892  14.518  0.8642 -0.0705 -0.2431
  800MPD2    N111794   1.144   2.107  14.951 -0.1926 -0.5573  0.8686
  800MPD2    H711795   1.113   2.156  15.034 -2.5356 -1.1005  0.3038
  801MPD2     C11796   1.014   2.726  14.604  0.1289  0.2299  0.9810
  801MPD2    C111797   0.974   2.645  14.703 -0.1116  0.4681  1.4057
  801MPD2    C211798   0.838   2.602  14.706 -0.1369 -0.5319 -0.4690
  801MPD2    C311799   0.746   2.659  14.614 -0.1412  0.0803  0.9530
  801MPD2    C411800   0.789   2.753  14.530  0.9365  0.3794  0.0255
  801MPD2    C511801   0.926   2.782  14.516 -0.8293 -0.1174 -0.5446
  801MPD2     H11802   0.815   2.532  14.785  1.8055 -1.8780 -1.1070
  801MPD2    H111803   0.722   2.797  14.457  0.7247  1.7047  1.0223
  801MPD2    H211804   1.119   2.750  14.597  0.1618 -0.3076 -0.2826
  801MPD2    H311805   0.961   2.849  14.438 -2.7197  0.2711 -1.0638
  801MPD2     N11806   0.610   2.619  14.605 -0.1320 -0.0744  0.3425
  801MPD2    H511807   0.553   2.666  14.535 -0.7202 -1.2932 -0.0025
  801MPD2    N111808   1.065   2.568  14.781  0.6363  0.7210 -0.3962
  801MPD2    H711809   1.028   2.496  14.842  2.2259  0.9489  0.8384
  802MPD2     C11810   0.677   2.835   0.440 -0.4592  0.0341  0.2466
  802MPD2    C111811   0.568   2.918   0.399  0.5243  0.1979  0.9085
  802MPD2    C211812   0.508   2.889   0.281 -0.3019 -0.1473  0.2287
  802MPD2    C311813   0.561   2.788   0.195 -0.0529  0.7908 -0.0395
  802MPD2    C411814   0.672   2.714   0.233  0.1679  0.1619 -0.0697
  802MPD2    C511815   0.729   2.745   0.356  0.1675  0.3563  0.0145
  802MPD2     H11816   0.419   2.942   0.251  0.6501  0.1293 -2.1233
  802MPD2    H111817   0.712   2.631   0.175 -1.6893  0.3436 -1.5856
  802MPD2    H211818   0.725   2.855   0.536  0.9443 -1.0083 -0.2380
  802MPD2    H311819   0.821   2.696   0.385 -0.1867  1.1806  2.5579
  802MPD2     N11820   0.499   2.764   0.073 -0.3592  0.2738  0.3612
  802MPD2    H511821   0.416   2.819   0.057  1.1099  2.2443 -0.5540
  802MPD2    N111822   0.511   3.017   0.483  0.1860 -0.3784 -0.2370
  802MPD2    H711823   0.419   3.047   0.452 -0.6042 -1.9896  0.5929
  803MPD2     C11824   1.192   1.655  11.964  0.3192  0.3603  0.1429
  803MPD2    C111825   1.290   1.640  12.063  0.0430 -0.4904  0.1378
  803MPD2    C211826   1.257   1.560  12.171 -0.7477 -0.3772 -0.4261
  803MPD2    C311827   1.131   1.497  12.180 -0.9629 -0.7382  0.1023
  803MPD2    C411828   1.041   1.516  12.075 -0.6514  0.2409 -0.0554
  803MPD2    C511829   1.071   1.594  11.973  0.1143  0.3014 -0.2739
  803MPD2     H11830   1.338   1.533  12.237 -0.0796 -0.2959 -1.2056
  803MPD2    H111831   0.942   1.472  12.085 -2.0423  2.7950 -2.5077
  803MPD2    H211832   1.197   1.725  11.881 -1.0606  1.1634  0.7420
  803MPD2    H311833   0.995   1.618  11.900  0.0670  0.9253 -0.0176
  803MPD2     N11834   1.095   1.413  12.284  0.1590  0.7614  0.3765
  803MPD2    H511835   0.998   1.383  12.284  0.0595  1.0967  0.8643
  803MPD2    N111836   1.407   1.713  12.066 -0.5286 -0.4187  0.1501
  803MPD2    H711837   1.459   1.720  12.153  1.8886  3.3384 -1.5644
  804MPD2     C11838   0.840   2.792  17.370 -0.0703 -0.3550  0.0978
  804MPD2    C111839   0.839   2.691  17.460  0.4817 -0.0264 -0.5132
  804MPD2    C211840   0.878   2.712  17.589 -0.8156  0.4541 -0.3403
  804MPD2    C311841   0.928   2.831  17.630  0.0794 -0.0791  0.6908
  804MPD2    C411842   0.923   2.937  17.544  0.5061  0.2462 -0.1564
  804MPD2    C511843   0.859   2.916  17.427  0.2430 -0.0941  0.1479
  804MPD2     H11844   0.872   2.632  17.663  2.1262  1.3505  0.8575
  804MPD2    H111845   0.936   3.036  17.586 -1.9691  0.4737  0.0691
  804MPD2    H211846   0.787   2.782  17.276 -0.7043  0.9739  0.3155
  804MPD2    H311847   0.843   3.006  17.368 -0.5348 -0.2380  0.1399
  804MPD2     N11848   0.979   2.836   0.064 -0.1571  0.3036  0.0829
  804MPD2    H511849   0.975   2.745   0.109  0.6653 -1.2270 -2.9543
  804MPD2    N111850   0.791   2.561  17.435  0.2702  0.0955  0.0217
  804MPD2    H711851   0.794   2.504  17.519  0.5660 -0.9458 -0.6952
  805MPD2     C11852   4.440   1.613  15.917 -1.2634  0.0691 -0.3667
  805MPD2    C111853   4.565   1.647  15.864 -1.0521  1.0390  0.1284
  805MPD2    C211854   4.664   1.693  15.945  0.2682  0.3780  0.5086
  805MPD2    C311855   4.654   1.720  16.075 -0.2659  0.1732 -0.2732
  805MPD2    C411856   4.526   1.697  16.127 -0.0713 -0.2633 -0.0467
  805MPD2    C511857   4.420   1.639  16.052 -0.0390 -0.3328  0.7408
  805MPD2     H11858   0.035   1.715  15.899  0.0287  0.4968  0.0651
  805MPD2    H111859   4.504   1.709  16.232  0.1298  0.4976 -0.0889
  805MPD2    H211860   4.356   1.575  15.859 -1.9656 -1.4548  1.6584
  805MPD2    H311861   4.321   1.627  16.095 -0.0275 -1.3555  0.4647
  805MPD2     N11862   0.046   1.755  16.145 -0.2325  0.0025 -0.4216
  805MPD2    H511863   0.129   1.752  16.087  2.4109 -0.4625  3.3898
  805MPD2    N111864   4.588   1.639  15.722  0.2665 -0.4003  0.1611
  805MPD2    H711865   4.680   1.674  15.696  0.3293 -0.4466  0.3218
  806MPD2     C11866   0.278   0.105   0.266 -0.1907 -0.0261 -0.3380
  806MPD2    C111867   0.261   0.204   0.358 -0.3171  0.4507 -0.7091
  806MPD2    C211868   0.326   0.327   0.333  0.5050  0.0749 -0.1162
  806MPD2    C311869   0.413   0.341   0.226  0.1708 -0.3604  0.4023
  806MPD2    C411870   0.430   0.240   0.138 -0.3095 -0.2295 -0.1545
  806MPD2    C511871   0.356   0.122   0.152  0.6155  0.3800 -0.1745
  806MPD2     H11872   0.313   0.403   0.410 -0.8999  0.3761 -0.6407
  806MPD2    H111873   0.468   0.249   0.037 -1.1985  0.7067 -0.4056
  806MPD2    H211874   0.223   0.012   0.270 -1.3092  0.6174 -0.9090
  806MPD2    H311875   0.356   0.050   0.071 -2.4306 -0.1961  0.3244
  806MPD2     N11876   0.479   0.463   0.212  0.1111 -0.2012 -0.1234
  806MPD2    H511877   0.472   0.537   0.281 -0.0818  0.0150 -0.3727
  806MPD2    N111878   0.166   0.177   0.465 -0.6307 -0.7464 -0.4602
  806MPD2    H711879   0.131   0.082   0.471  1.7689 -1.5543  0.6961
  807MPD2     C11880   0.127   4.530   1.137  0.1143  0.6139 -0.2880
  807MPD2    C111881   4.723   4.586   1.126  0.2010 -1.3724  0.0599
  807MPD2    C211882   4.629   4.541   1.212  0.8646  1.0594  0.3216
  807MPD2    C311883   4.640   4.431   1.299  0.3518  0.4279 -0.3066
  807MPD2    C411884   0.044   4.377   1.302 -0.4276  0.2838 -0.1985
  807MPD2    C511885   0.141   4.430   1.222  0.0491 -0.0708 -0.7952
  807MPD2     H11886   4.529   4.583   1.205  0.9868  1.3713  0.4288
  807MPD2    H111887   0.073   4.295   1.367  0.3827 -0.2183 -1.1837
  807MPD2    H211888   0.207   4.557   1.069  0.5406  2.1470  0.8314
  807MPD2    H311889   0.238   4.387   1.244 -0.8067 -0.0612  2.9771
  807MPD2     N11890   4.535   4.386   1.380  0.3254 -0.2588 -1.0272
  807MPD2    H511891   4.451   4.443   1.371  1.0007  0.6246 -1.7216
  807MPD2    N111892   4.687   4.678   1.020  0.3772  0.3925  0.4230
  807MPD2    H711893   4.596   4.722   1.020 -0.7780 -1.9565 -0.5864
  808MPD2     C11894   1.030   1.828   9.781  0.1572  0.8808 -0.7125
  808MPD2    C111895   0.936   1.912   9.847  0.0917 -0.0375  0.4686
  808MPD2    C211896   0.974   2.033   9.883 -0.3605  0.3220 -0.0490
  808MPD2    C311897   1.100   2.089   9.849 -0.8221 -0.4099 -0.3686
  808MPD2    C411898   1.190   2.001   9.786  1.1676 -0.5080  0.5148
  808MPD2    C511899   1.158   1.872   9.750  0.4792 -0.0374 -0.1790
  808MPD2     H11900   0.903   2.099   9.932  0.3739  2.1647 -1.4589
  808MPD2    H111901   1.290   2.028   9.756  0.7510 -1.3141 -1.6304
  808MPD2    H211902   1.006   1.724   9.759 -0.0941  0.6153  0.7831
  808MPD2    H311903   1.227   1.811   9.692  0.9686 -2.0676  2.5416
  808MPD2     N11904   1.153   2.218   9.880  0.9113  0.3556 -0.3178
  808MPD2    H511905   1.244   2.240   9.842 -0.7279  2.6039 -2.9316
  808MPD2    N111906   0.804   1.876   9.876 -0.2848  0.1064  0.5631
  808MPD2    H711907   0.741   1.951   9.901  0.6194  1.0100  0.1365
  809MPD2     C11908   1.954   2.738   9.997  0.7059 -0.2884  0.3484
  809MPD2    C111909   1.905   2.616   9.949 -0.4677 -0.1438  0.2057
  809MPD2    C211910   1.775   2.594   9.928 -0.0746 -0.1821 -0.0058
  809MPD2    C311911   1.688   2.698   9.955  0.6355 -0.4026 -0.0223
  809MPD2    C411912   1.737   2.819  10.005 -0.4341  0.0483  0.2405
  809MPD2    C511913   1.870   2.839  10.015 -0.5346 -0.1008  0.1850
  809MPD2     H11914   1.742   2.494   9.901  1.6902 -0.3721 -1.4410
  809MPD2    H111915   1.677   2.906  10.029 -0.5938 -0.4551  1.7088
  809MPD2    H211916   2.061   2.753  10.006  0.3684  1.7213  1.0749
  809MPD2    H311917   1.911   2.931  10.055 -2.5836  1.4080 -1.1525
  809MPD2     N11918   1.541   2.688   9.941  0.2129  0.0523 -0.2820
  809MPD2    H511919   1.479   2.763   9.971 -0.5854 -0.3227 -1.0138
  809MPD2    N111920   1.988   2.509   9.920  0.1551 -0.7928  0.4134
  809MPD2    H711921   1.943   2.424   9.890  0.6208 -0.3362 -1.5468
  810MPD2     C11922   0.519   1.500  10.200 -0.1547  0.4484 -0.4631
  810MPD2    C111923   0.392   1.540  10.171  0.9588  0.2665  0.1418
  810MPD2    C211924   0.360   1.674  10.156  0.0515  0.3145 -0.1659
  810MPD2    C311925   0.450   1.776  10.186  0.9435 -0.1944  0.5212
  810MPD2    C411926   0.574   1.731  10.227 -0.3439 -0.8641 -0.5633
  810MPD2    C511927   0.610   1.600  10.232 -0.0337 -0.3964  0.0508
  810MPD2     H11928   0.256   1.702  10.143 -0.8610 -1.6660  2.7219
  810MPD2    H111929   0.642   1.809  10.257 -0.7559 -0.8028  0.2061
  810MPD2    H211930   0.549   1.396  10.204 -1.3128  0.2214  2.1726
  810MPD2    H311931   0.716   1.585  10.247  0.2709  2.4151  0.6567
  810MPD2     N11932   0.406   1.910  10.167 -0.6115  0.3207 -0.0141
  810MPD2    H511933   0.316   1.925  10.122 -0.3646  0.0079 -0.6154
  810MPD2    N111934   0.286   1.449  10.170 -0.7201  0.4045 -0.0487
  810MPD2    H711935   0.195   1.478  10.137  0.7998  1.2945 -3.3781
  811MPD2     C11936   4.325   1.359   9.769  0.1378 -0.3318  0.3528
  811MPD2    C111937   4.428   1.405   9.853 -0.1243  0.8442 -0.1860
  811MPD2    C211938   4.457   1.539   9.866 -0.1879 -0.6573  0.0910
  811MPD2    C311939   4.392   1.628   9.787 -0.1080 -0.2226  0.4886
  811MPD2    C411940   4.286   1.581   9.713 -0.1738  0.3205  0.2480
  811MPD2    C511941   4.257   1.449   9.705 -0.2270  0.3965  0.6958
  811MPD2     H11942   4.525   1.576   9.942  0.9782 -0.7554 -0.9031
  811MPD2    H111943   4.219   1.652   9.667 -1.5892 -0.2347  1.4622
  811MPD2    H211944   4.281   1.260   9.767 -1.3632  0.3565 -1.2426
  811MPD2    H311945   4.169   1.413   9.653 -0.2442 -1.2284  1.8539
  811MPD2     N11946   4.425   1.769   9.790  0.2231 -0.5792  0.2882
  811MPD2    H511947   4.520   1.801   9.807 -0.1648  0.7917 -0.1426
  811MPD2    N111948   4.495   1.310   9.940 -0.0297  0.6996  0.1916
  811MPD2    H711949   4.468   1.212   9.942  0.1525  0.6677  0.9585
  812MPD2     C11950   3.970   1.483  12.325 -0.3000  0.0402 -0.2807
  812MPD2    C111951   3.850   1.522  12.371  0.4579  0.2511 -0.6697
  812MPD2    C211952   3.786   1.455  12.478 -0.6006  0.3965 -0.2088
  812MPD2    C311953   3.854   1.355  12.540 -0.3016  0.2072 -0.2717
  812MPD2    C411954   3.981   1.323  12.499  0.0452 -0.0579 -0.2234
  812MPD2    C511955   4.037   1.377  12.384  0.1501 -0.6107 -0.2381
  812MPD2     H11956   3.685   1.462  12.517  0.3071  3.7107  1.4916
  812MPD2    H111957   4.036   1.242  12.545 -0.1041  0.3264  0.6203
  812MPD2    H211958   4.025   1.536  12.248  0.2708 -1.0240 -0.6036
  812MPD2    H311959   4.127   1.337  12.337 -1.2409 -1.3357 -2.2769
  812MPD2     N11960   3.792   1.296  12.648  0.3277  0.2424  0.8045
  812MPD2    H511961   3.692   1.312  12.650  0.3275  0.1102  2.3966
  812MPD2    N111962   3.796   1.634  12.308 -0.5502  0.6335 -0.0514
  812MPD2    H711963   3.855   1.665  12.231 -0.9697 -1.1830 -1.1208
  813MPD2     C11964   2.590   3.104  12.997 -0.3559  0.1697 -1.0343
  813MPD2    C111965   2.619   3.238  12.986 -0.0510  0.2896  0.2707
  813MPD2    C211966   2.527   3.331  13.029 -0.0485  0.2656  0.2538
  813MPD2    C311967   2.405   3.287  13.078  0.0844  0.3529 -0.5237
  813MPD2    C411968   2.376   3.150  13.080 -0.1572 -0.3848 -0.2917
  813MPD2    C511969   2.468   3.060  13.039  0.4126 -0.1172  0.4195
  813MPD2     H11970   2.548   3.437  13.034  1.8520 -0.2014  2.1001
  813MPD2    H111971   2.283   3.115  13.124 -0.0433 -1.7461 -1.1329
  813MPD2    H211972   2.662   3.031  12.962  2.5283  2.5398 -0.0269
  813MPD2    H311973   2.456   2.952  13.040  0.6695 -0.1509 -0.2032
  813MPD2     N11974   2.312   3.386  13.111 -0.8068 -0.0609  0.4644
  813MPD2    H511975   2.341   3.483  13.101  0.4505 -0.5205 -0.2633
  813MPD2    N111976   2.752   3.278  12.939 -0.0248  0.0206  0.1858
  813MPD2    H711977   2.820   3.203  12.929  1.8257  1.5346  1.3458
  814MPD2     C11978   3.298   0.077  12.079  0.1336 -0.3835 -0.4278
  814MPD2    C111979   3.413   0.054  11.999  0.2124  0.6414 -0.3133
  814MPD2    C211980   3.516   0.141  12.002  0.0999 -0.8905 -0.0152
  814MPD2    C311981   3.523   0.247  12.093 -0.3835  0.4288 -0.7341
  814MPD2    C411982   3.415   0.270  12.171  0.2785 -0.5419  0.0790
  814MPD2    C511983   3.303   0.190  12.154  0.0294  0.6263 -0.3031
  814MPD2     H11984   3.591   0.104  11.933 -0.6892 -1.8321 -0.3656
  814MPD2    H111985   3.418   0.355  12.238  1.5745  0.4010 -1.1801
  814MPD2    H211986   3.203   0.025  12.072 -1.9100  3.0983  1.2061
  814MPD2    H311987   3.214   0.224  12.208 -1.5639 -1.0920 -1.8527
  814MPD2     N11988   3.639   0.321  12.105 -0.0023 -0.4686  0.1929
  814MPD2    H511989   3.630   0.392  12.177 -2.5290  0.7636 -1.3567
  814MPD2    N111990   3.422   4.667  11.908  0.5073  0.1549  0.2190
  814MPD2    H711991   3.499   4.657  11.842 -0.0063  2.3178 -0.6933
  815MPD2     C11992   3.731   3.388  11.822 -0.7277 -0.1419 -0.0268
  815MPD2    C111993   3.717   3.251  11.836  0.5016  0.1482 -0.2222
  815MPD2    C211994   3.608   3.207  11.909 -0.1571 -0.1993 -0.7154
  815MPD2    C311995   3.511   3.296  11.965 -0.2649  0.1183  0.0436
  815MPD2    C411996   3.534   3.433  11.953  0.3758  0.1596  0.0168
  815MPD2    C511997   3.652   3.479  11.888 -0.6669 -0.4538  0.4226
  815MPD2     H11998   3.598   3.102  11.933 -1.3719  0.2303  0.6315
  815MPD2    H111999   3.469   3.501  12.007 -0.4057  0.3416 -1.1478
  815MPD2    H212000   3.811   3.437  11.769 -0.8375  0.0227 -0.0421
  815MPD2    H312001   3.659   3.585  11.866 -0.2415 -0.4351  0.6473
  815MPD2     N12002   3.406   3.236  12.037 -0.4707  0.1295  0.3193
  815MPD2    H512003   3.399   3.135  12.023 -0.3879  0.2617 -0.6735
  815MPD2    N112004   3.807   3.165  11.767  0.3338 -0.0735 -0.0995
  815MPD2    H712005   3.864   3.210  11.697  0.8849  2.3582  1.8659
  816MPD2     C12006   3.849   2.189   0.099 -0.0616  0.3235 -0.0835
  816MPD2    C112007   3.915   2.306   0.071 -0.1169 -0.4208 -0.0686
  816MPD2    C212008   4.027   2.284  17.689 -0.3223  0.0377 -0.1956
  816MPD2    C312009   4.071   2.160  17.646  0.4101  0.0153 -0.6413
  816MPD2    C412010   3.987   2.048  17.664  0.9557  0.3873 -0.2800
  816MPD2    C512011   3.877   2.066   0.045  0.6478 -0.5281  0.1793
  816MPD2     H12012   4.090   2.366  17.656 -3.0152  2.6607  1.0840
  816MPD2    H112013   4.009   1.952  17.619  0.5982  0.4702 -0.6360
  816MPD2    H212014   3.763   2.197   0.164 -1.6431 -1.0264 -2.0386
  816MPD2    H312015   3.812   1.984   0.072  2.5124 -1.9882  0.2925
  816MPD2     N12016   4.185   2.150  17.564 -0.0204  0.6850  0.2140
  816MPD2    H512017   4.236   2.236  17.542 -0.2496  0.0412 -2.8147
  816MPD2    N112018   3.863   2.431   0.112 -0.1872 -0.5224  0.0975
  816MPD2    H712019   3.766   2.444   0.142 -0.0074  0.3051  0.3220
  817MPD2     C12020   3.218   3.970  10.006 -0.1716 -0.2783 -0.5201
  817MPD2    C112021   3.209   3.909   9.886  0.3831  0.1062  0.6179
  817MPD2    C212022   3.096   3.936   9.818 -0.0752  0.5505 -0.0908
  817MPD2    C312023   2.990   4.024   9.853  0.1443 -1.2299 -0.1987
  817MPD2    C412024   3.011   4.097   9.965  0.2221 -0.3406  0.1657
  817MPD2    C512025   3.121   4.063  10.041  0.3523  0.0981 -0.3067
  817MPD2     H12026   3.086   3.883   9.724 -0.7819  1.4782 -0.5345
  817MPD2    H112027   2.947   4.172  10.012  1.7307  1.2919 -0.3849
  817MPD2    H212028   3.294   3.958  10.081 -1.0428 -0.3265  0.3518
  817MPD2    H312029   3.136   4.117  10.134 -0.2280  1.7476 -1.1858
  817MPD2     N12030   2.885   4.042   9.762 -0.4711  0.7939 -0.4310
  817MPD2    H512031   2.873   3.974   9.687 -1.5416 -0.9341  1.3190
  817MPD2    N112032   3.304   3.819   9.833  0.0162 -0.2851  0.9017
  817MPD2    H712033   3.290   3.776   9.742  0.9123  2.8824 -0.7303
  818MPD2     C12034   2.760   3.856  10.096  0.3586  0.0051 -0.6770
  818MPD2    C112035   2.631   3.811  10.122  0.2582  0.6908 -0.3205
  818MPD2    C212036   2.600   3.679  10.124  0.9150 -0.0712  0.0946
  818MPD2    C312037   2.696   3.584  10.109 -0.9862 -0.2475 -0.5981
  818MPD2    C412038   2.824   3.625  10.083 -0.1087  0.0055  0.4051
  818MPD2    C512039   2.861   3.762  10.078  0.4781 -0.1945  0.0058
  818MPD2     H12040   2.495   3.656  10.138  1.6040 -3.2562  0.0769
  818MPD2    H112041   2.902   3.552  10.063 -2.2676 -2.1030 -0.3989
  818MPD2    H212042   2.778   3.962  10.087 -2.6691  0.5284 -0.6561
  818MPD2    H312043   2.962   3.793  10.053  0.3171 -0.0393 -0.4533
  818MPD2     N12044   2.666   3.446  10.099 -0.1637  0.0058  0.5778
  818MPD2    H512045   2.733   3.390  10.048 -0.4348  0.8634 -0.7049
  818MPD2    N112046   2.520   3.892  10.156  0.3289  0.5490  0.1198
  818MPD2    H712047   2.429   3.847  10.154  0.7027 -0.1313 -2.0373
  819MPD2     C12048   0.596   1.160  15.979  0.4118  0.1625 -0.1243
  819MPD2    C112049   0.611   1.047  15.897  0.2550  0.5095 -0.0079
  819MPD2    C212050   0.743   1.006  15.868 -0.4990 -0.8074  0.5177
  819MPD2    C312051   0.853   1.074  15.920 -0.5591  0.5309 -0.7857
  819MPD2    C412052   0.832   1.190  15.983  0.6009 -0.0310  0.2326
  819MPD2    C512053   0.706   1.234  16.012 -0.2863  0.2622  0.5052
  819MPD2     H12054   0.753   0.913  15.812  0.1295 -0.9026  0.7862
  819MPD2    H112055   0.921   1.239  16.022  0.8352 -0.3878  0.1459
  819MPD2    H212056   0.498   1.196  16.010 -0.3784 -2.2025  0.1791
  819MPD2    H312057   0.689   1.327  16.065 -0.7821  0.0804  0.6681
  819MPD2     N12058   0.981   1.004  15.915  1.2218  0.1833 -0.2845
  819MPD2    H512059   0.982   0.918  15.862 -0.1620 -0.5890  0.9517
  819MPD2    N112060   0.503   0.986  15.841 -0.5962 -0.0381 -0.0077
  819MPD2    H712061   0.415   1.036  15.830  1.2442  3.7576  2.8284
  820MPD2     C12062   4.520   1.125  15.198  0.2889 -0.3186 -0.1190
  820MPD2    C112063   4.628   1.185  15.247  0.1655  0.0353  0.0064
  820MPD2    C212064   0.004   1.103  15.296 -0.2607 -0.4077 -0.5417
  820MPD2    C312065   4.707   0.971  15.326  0.5482  0.2779 -0.2341
  820MPD2    C412066   4.584   0.914  15.289 -0.3458  0.4172  0.2417
  820MPD2    C512067   4.496   0.996  15.227 -0.8211 -0.9165 -0.1708
  820MPD2     H12068   0.098   1.150  15.321  0.1346 -0.5072 -1.8572
  820MPD2    H112069   4.552   0.814  15.314 -0.4828  0.1112 -1.1569
  820MPD2    H212070   4.429   1.177  15.171  1.2787  1.2934 -0.4038
  820MPD2    H312071   4.403   0.948  15.199 -0.0185 -3.0441  0.7894
  820MPD2     N12072   0.074   0.888  15.390  0.3985 -0.3278  0.5056
  820MPD2    H512073   0.040   0.795  15.413 -3.2890  0.8366 -0.2007
  820MPD2    N112074   4.641   1.327  15.241 -0.0305  0.2433 -0.0085
  820MPD2    H712075   4.574   1.378  15.184 -0.8874  1.4444  2.0736
  821MPD2     C12076   0.521   1.748  13.837 -0.0294 -0.6067  0.2100
  821MPD2    C112077   0.662   1.773  13.821 -0.7819  0.8064 -0.2087
  821MPD2    C212078   0.724   1.781  13.697  1.4664 -1.0950 -0.5039
  821MPD2    C312079   0.647   1.752  13.590  0.3935  0.4843 -0.6142
  821MPD2    C412080   0.509   1.728  13.601  0.4214  0.3881 -0.4257
  821MPD2    C512081   0.453   1.719  13.725  0.4094  0.6464  0.5029
  821MPD2     H12082   0.831   1.794  13.686  0.9211  1.0540 -3.1578
  821MPD2    H112083   0.449   1.710  13.512 -0.8786  1.0505  0.3291
  821MPD2    H212084   0.467   1.738  13.930  1.0978  3.1830  1.2821
  821MPD2    H312085   0.347   1.699  13.733  0.6312 -0.6872  0.1961
  821MPD2     N12086   0.701   1.770  13.460  0.2516  0.0057 -0.0746
  821MPD2    H512087   0.627   1.787  13.393  1.7900  0.3330 -1.6790
  821MPD2    N112088   0.740   1.803  13.932 -0.1170 -0.1606 -0.2056
  821MPD2    H712089   0.834   1.826  13.902 -0.2968 -3.2314 -3.1532
  822MPD2     C12090   1.456   2.413  15.792  0.3565  0.5550  0.7422
  822MPD2    C112091   1.407   2.365  15.912 -0.1816 -0.2936  0.0758
  822MPD2    C212092   1.330   2.451  15.988  0.3744  0.6054 -0.1601
  822MPD2    C312093   1.306   2.582  15.957 -0.4133  0.8044 -0.1939
  822MPD2    C412094   1.349   2.625  15.833  0.4287  0.0727  0.9714
  822MPD2    C512095   1.430   2.544  15.756  0.2702  0.0794  0.3742
  822MPD2     H12096   1.307   2.411  16.087 -0.3968  0.4886 -0.3815
  822MPD2    H112097   1.331   2.726  15.797  0.4673 -0.1904  0.2145
  822MPD2    H212098   1.508   2.346  15.724 -2.2365 -1.7189  0.9918
  822MPD2    H312099   1.473   2.581  15.664  0.4028  1.3876  0.9591
  822MPD2     N12100   1.237   2.662  16.054 -0.4634  0.3031  0.3065
  822MPD2    H512101   1.208   2.609  16.136 -0.8682  0.2638  0.1383
  822MPD2    N112102   1.439   2.236  15.961  0.0055 -0.7270  0.6555
  822MPD2    H712103   1.406   2.212  16.054 -2.0933 -0.9369 -0.1308
  823MPD2     C12104   0.912   2.792  16.829 -0.6054 -0.7917  0.2088
  823MPD2    C112105   0.934   2.721  16.709  0.0302  1.2139  0.1516
  823MPD2    C212106   0.959   2.584  16.713 -0.4442  0.8693 -0.2987
  823MPD2    C312107   0.973   2.518  16.834  0.2296  0.7837  0.4655
  823MPD2    C412108   0.955   2.591  16.949 -0.2109  0.2078 -1.0754
  823MPD2    C512109   0.914   2.724  16.945 -0.8851 -0.7723  0.2419
  823MPD2     H12110   0.971   2.523  16.624  0.8999 -1.9734  1.8182
  823MPD2    H112111   0.970   2.551  17.048 -2.6845 -0.3153 -0.9149
  823MPD2    H212112   0.903   2.900  16.825 -1.7145 -0.8738  0.4698
  823MPD2    H312113   0.892   2.773  17.039  0.2190 -1.7427  0.9979
  823MPD2     N12114   1.016   2.386  16.842 -0.0348 -0.0136 -0.2765
  823MPD2    H512115   1.047   2.360  16.934  1.4130 -1.9457 -1.3149
  823MPD2    N112116   0.953   2.796  16.588 -0.4301  0.1337 -0.1590
  823MPD2    H712117   0.955   2.897  16.596 -0.6613 -0.0512  2.3093
  824MPD2     C12118   1.620   1.396  15.875 -0.2932  0.1943  0.4417
  824MPD2    C112119   1.728   1.461  15.933 -0.0606  1.5553  0.4930
  824MPD2    C212120   1.856   1.404  15.930  0.6823  0.3563  0.3016
  824MPD2    C312121   1.876   1.275  15.890  0.6000 -1.2262  0.5587
  824MPD2    C412122   1.764   1.206  15.847 -0.0778 -0.8079 -0.5804
  824MPD2    C512123   1.637   1.266  15.832  0.4608 -0.5302  0.3749
  824MPD2     H12124   1.945   1.461  15.954 -0.8854  3.0128 -0.2035
  824MPD2    H112125   1.767   1.100  15.825 -0.1779 -1.3492  2.0179
  824MPD2    H212126   1.522   1.442  15.864 -0.5142 -0.6112 -0.9836
  824MPD2    H312127   1.549   1.209  15.803  0.6316 -1.2275  1.2327
  824MPD2     N12128   2.002   1.218  15.899 -0.6337 -0.7111  0.5844
  824MPD2    H512129   2.073   1.286  15.924 -0.7833 -0.0528 -0.7831
  824MPD2    N112130   1.719   1.599  15.970 -0.2836  0.4251  0.0183
  824MPD2    H712131   1.803   1.648  16.000  1.4178 -1.9293 -0.8859
  825MPD2     C12132   2.812   1.330  15.910 -0.2025  0.3442  0.4651
  825MPD2    C112133   2.712   1.330  15.816  0.3352  0.9662  0.2100
  825MPD2    C212134   2.706   1.438  15.727 -0.1273  0.3648 -0.1824
  825MPD2    C312135   2.809   1.536  15.719  0.0455 -0.8253  0.5069
  825MPD2    C412136   2.913   1.527  15.813 -0.0601 -0.0944  0.8797
  825MPD2    C512137   2.912   1.426  15.906  0.0347 -0.1255  0.1521
  825MPD2     H12138   2.622   1.450  15.659  0.5108 -1.3288 -1.2693
  825MPD2    H112139   2.994   1.598  15.805 -0.0678 -0.1756  0.0867
  825MPD2    H212140   2.811   1.250  15.983  1.3322  1.3145  1.5641
  825MPD2    H312141   2.991   1.426  15.980 -0.0464 -0.0306  0.2384
  825MPD2     N12142   2.826   1.624  15.614  0.6839 -0.2701  0.2920
  825MPD2    H512143   2.907   1.684  15.611 -0.3508  1.0714 -0.7428
  825MPD2    N112144   2.619   1.225  15.824 -0.6581  0.0747  0.1684
  825MPD2    H712145   2.645   1.148  15.885  0.9430  1.2711  0.9867
  826MPD2     C12146   2.231   1.337  13.702 -0.4331 -0.3417  0.4340
  826MPD2    C112147   2.177   1.358  13.574  0.0263 -0.6406 -0.7697
  826MPD2    C212148   2.066   1.446  13.571  0.4318 -0.2414  0.2659
  826MPD2    C312149   2.012   1.500  13.685  0.4328 -0.5386  0.3032
  826MPD2    C412150   2.072   1.485  13.804  0.0637  0.2351  0.1078
  826MPD2    C512151   2.177   1.401  13.809  0.4783 -0.7881 -0.0144
  826MPD2     H12152   2.021   1.464  13.474  0.2811 -1.7704  0.0437
  826MPD2    H112153   2.024   1.526  13.893  0.6317  0.3020  0.3796
  826MPD2    H212154   2.325   1.287  13.722 -0.3363 -0.5336 -0.4658
  826MPD2    H312155   2.222   1.377  13.904  1.1999  0.5374 -0.0261
  826MPD2     N12156   1.895   1.579  13.680 -1.0812 -0.0697  0.3711
  826MPD2    H512157   1.860   1.621  13.765  0.7111  0.7163  0.7087
  826MPD2    N112158   2.234   1.313  13.451  0.2031  0.2931 -0.4907
  826MPD2    H712159   2.208   1.354  13.362  1.1003 -2.2709 -1.9433
  827MPD2     C12160   2.746   2.524  10.175 -0.3628  0.0990  0.4027
  827MPD2    C112161   2.783   2.392  10.207  0.4226  1.0729 -0.6739
  827MPD2    C212162   2.734   2.289  10.124 -0.3970  0.3391  0.0211
  827MPD2    C312163   2.646   2.320  10.023 -0.4874 -0.4177  0.0925
  827MPD2    C412164   2.610   2.456   9.997  0.4068  0.2757 -1.1049
  827MPD2    C512165   2.654   2.557  10.079  0.1585  0.6285 -0.8080
  827MPD2     H12166   2.761   2.186  10.141  0.3017  1.1440  3.6703
  827MPD2    H112167   2.536   2.481   9.922 -1.3214 -4.5032 -1.0332
  827MPD2    H212168   2.780   2.605  10.238 -1.1011 -0.1260  1.0898
  827MPD2    H312169   2.633   2.661  10.059 -2.4939 -0.1347 -2.0642
  827MPD2     N12170   2.601   2.216   9.939  0.0765  0.4287 -0.0726
  827MPD2    H512171   2.630   2.121   9.962 -1.4855 -0.2333 -0.8232
  827MPD2    N112172   2.858   2.361  10.325  0.4475 -0.2394 -0.0573
  827MPD2    H712173   2.896   2.440  10.376  2.7931 -1.2698 -0.2157
  828MPD2     C12174   1.203   2.688  12.613  0.4139 -0.7488 -0.4988
  828MPD2    C112175   1.214   2.694  12.474  0.0453 -0.4372  0.7324
  828MPD2    C212176   1.329   2.670  12.407 -0.2695 -1.2520  0.0613
  828MPD2    C312177   1.449   2.683  12.482  0.7569  0.2420  0.0506
  828MPD2    C412178   1.439   2.708  12.617  0.7919  0.4774  1.3346
  828MPD2    C512179   1.318   2.705  12.686 -0.2732  0.1820  0.6382
  828MPD2     H12180   1.324   2.650  12.300 -0.9855 -1.7112  0.1808
  828MPD2    H112181   1.535   2.715  12.668  2.4135 -0.3234 -1.5560
  828MPD2    H212182   1.109   2.705  12.664  0.6960 -0.5610 -0.0347
  828MPD2    H312183   1.310   2.726  12.792  2.9996 -0.6167  1.0263
  828MPD2     N12184   1.572   2.659  12.422 -0.2557 -0.0463  0.4183
  828MPD2    H512185   1.650   2.679  12.483  0.7718 -1.2992 -0.4953
  828MPD2    N112186   1.095   2.680  12.400  0.2333 -0.6141  0.0989
  828MPD2    H712187   1.112   2.662  12.301  2.0907  0.6424  0.1813
  829MPD2     C12188   1.170   2.387  11.580  0.6752  0.8617 -0.1316
  829MPD2    C112189   1.052   2.451  11.566  0.8430  0.1722  0.0397
  829MPD2    C212190   1.001   2.501  11.680 -0.2097 -0.5140  0.2456
  829MPD2    C312191   1.061   2.486  11.805 -0.5152 -0.6793 -0.4253
  829MPD2    C412192   1.177   2.414  11.813  0.5828  0.7364  0.5895
  829MPD2    C512193   1.233   2.369  11.698 -0.3909  0.4868  0.3238
  829MPD2     H12194   0.903   2.544  11.666 -0.5510 -1.6174 -0.7888
  829MPD2    H112195   1.220   2.396  11.910 -1.0775  0.2329  1.2248
  829MPD2    H212196   1.222   2.348  11.493 -0.0131  2.1184 -1.1230
  829MPD2    H312197   1.327   2.315  11.695 -1.2746 -1.0385 -0.1892
  829MPD2     N12198   1.007   2.529  11.926  0.7627  0.2921  0.1681
  829MPD2    H512199   1.057   2.489  12.005  0.5673  0.9513  0.6299
  829MPD2    N112200   0.993   2.453  11.440 -0.8295 -0.6099  0.2731
  829MPD2    H712201   1.041   2.400  11.368 -2.1613 -0.4326 -0.7618
  830MPD2     C12202   1.057   0.606  15.506  0.2176 -0.7794 -0.2478
  830MPD2    C112203   1.193   0.632  15.529 -0.0822 -0.5428  0.0754
  830MPD2    C212204   1.288   0.589  15.439 -0.0829 -0.0291  0.5448
  830MPD2    C312205   1.247   0.522  15.326  0.2949 -0.1476 -0.3292
  830MPD2    C412206   1.112   0.478  15.310  0.1899 -0.4765 -0.0305
  830MPD2    C512207   1.017   0.530  15.397 -0.1638  0.1366 -0.2033
  830MPD2     H12208   1.393   0.613  15.449 -0.0481 -0.7425  1.8656
  830MPD2    H112209   1.078   0.410  15.233 -0.6323  2.1541 -2.0029
  830MPD2    H212210   0.975   0.635  15.571 -0.6547 -0.0481 -1.6786
  830MPD2    H312211   0.921   0.482  15.385 -0.6213  1.2334 -0.9651
  830MPD2     N12212   1.353   0.499  15.227  0.1843 -0.4681  0.2732
  830MPD2    H512213   1.441   0.543  15.252  1.4441 -2.2630 -0.9897
  830MPD2    N112214   1.222   0.692  15.650 -0.9442 -0.4178  0.2414
  830MPD2    H712215   1.152   0.725  15.716  0.0127  1.6817  0.1939
  831MPD2     C12216   1.470   2.648  16.444 -0.6072 -0.7921 -0.2281
  831MPD2    C112217   1.495   2.555  16.351 -0.0602 -0.2742 -0.1509
  831MPD2    C212218   1.409   2.456  16.319  0.0664 -0.0041  0.1376
  831MPD2    C312219   1.295   2.446  16.401  0.2845  0.4232  0.0327
  831MPD2    C412220   1.275   2.528  16.507  0.0281  0.3110 -0.2348
  831MPD2    C512221   1.354   2.637  16.520 -0.7041 -0.9588  0.3546
  831MPD2     H12222   1.432   2.393  16.233 -1.4923 -0.8637  0.3396
  831MPD2    H112223   1.189   2.524  16.573 -0.2769  0.0157 -0.6548
  831MPD2    H212224   1.536   2.734  16.451 -0.5510 -0.7737 -1.0336
  831MPD2    H312225   1.329   2.714  16.593 -0.0230  0.9106 -1.3977
  831MPD2     N12226   1.191   2.354  16.379 -0.6172 -0.1166  0.1719
  831MPD2    H512227   1.116   2.368  16.446 -0.0070  0.4367  0.7273
  831MPD2    N112228   1.607   2.580  16.270  0.1575  0.0168  0.4876
  831MPD2    H712229   1.647   2.672  16.260 -1.0772  0.6675  1.5491
  832MPD2     C12230   4.594   4.013  17.276  0.1544  0.0850 -0.0301
  832MPD2    C112231   4.631   3.884  17.297  0.5355 -0.0651  0.3492
  832MPD2    C212232   4.544   3.779  17.265  0.2488  0.6529 -0.1669
  832MPD2    C312233   4.428   3.809  17.193  0.1540  0.1630 -0.3519
  832MPD2    C412234   4.396   3.941  17.156  0.3216  0.1599 -0.4578
  832MPD2    C512235   4.477   4.040  17.207  0.3836  0.2864  0.5772
  832MPD2     H12236   4.572   3.676  17.283  2.1354  1.4459  1.4607
  832MPD2    H112237   4.302   3.961  17.106  0.3543  1.9455  0.2034
  832MPD2    H212238   4.656   4.098  17.301  0.1067 -0.1375  0.8501
  832MPD2    H312239   4.456   4.145  17.189  1.8176  0.3979 -0.3787
  832MPD2     N12240   4.331   3.714  17.152  0.2485  0.3819  0.0779
  832MPD2    H512241   4.260   3.755  17.091  0.0860 -1.9239 -1.2746
  832MPD2    N112242   0.036   3.869  17.348 -0.3689  0.1241  0.0745
  832MPD2    H712243   0.083   3.951  17.384  0.5891 -0.6672  0.6361
  833MPD2     C12244   1.738   0.401  12.697  0.6261  0.0759 -0.1893
  833MPD2    C112245   1.823   0.471  12.619 -0.2149  0.7894  0.4499
  833MPD2    C212246   1.924   0.403  12.544 -0.5008  0.0786  0.3140
  833MPD2    C312247   1.929   0.263  12.543  0.5157  0.5032  0.0110
  833MPD2    C412248   1.837   0.199  12.628  0.8807  0.4341  0.4748
  833MPD2    C512249   1.747   0.261  12.706  0.0950  0.0826 -0.2403
  833MPD2     H12250   1.998   0.464  12.495  0.9104 -0.8883  1.2111
  833MPD2    H112251   1.823   0.092  12.639 -0.3249  0.4683 -0.7058
  833MPD2    H212252   1.659   0.461  12.740  0.0985  0.3720 -1.5723
  833MPD2    H312253   1.686   0.202  12.773  0.6154 -0.4198 -0.2087
  833MPD2     N12254   2.017   0.181  12.465  0.8015 -0.5551 -0.1981
  833MPD2    H512255   2.019   0.082  12.485 -1.0251 -0.0370  2.5953
  833MPD2    N112256   1.803   0.611  12.625  0.0845 -0.1808 -0.0097
  833MPD2    H712257   1.724   0.638  12.682  0.6046  1.8565 -0.2783
  834MPD2     C12258   1.782   4.187  11.892  0.5716  0.2015  0.0860
  834MPD2    C112259   1.845   4.274  11.805  0.5486 -0.8702 -0.0289
  834MPD2    C212260   1.912   4.384  11.852  0.4821 -0.0221  0.7989
  834MPD2    C312261   1.927   4.397  11.988  0.4549 -0.5449  0.6335
  834MPD2    C412262   1.878   4.306  12.075 -0.3459 -0.2062 -0.4573
  834MPD2    C512263   1.798   4.200  12.028  0.7353  0.4985 -0.3416
  834MPD2     H12264   1.957   4.459  11.788 -0.7748  1.1572  1.3126
  834MPD2    H112265   1.899   4.314  12.181  1.9564 -3.2096 -0.6784
  834MPD2    H212266   1.718   4.107  11.858  0.1307  0.2366  0.8331
  834MPD2    H312267   1.754   4.122  12.089 -0.0523  1.6412  0.5437
  834MPD2     N12268   1.978   4.522  12.030 -0.4524  0.1222  0.2835
  834MPD2    H512269   2.004   4.588  11.957  2.1682  0.3174  1.4088
  834MPD2    N112270   1.815   4.256  11.667 -0.8450 -0.2290 -0.8636
  834MPD2    H712271   1.762   4.173  11.642  2.3701 -3.5455  3.1766
  835MPD2     C12272   1.524   2.487  11.499 -0.8605  0.1910 -0.0938
  835MPD2    C112273   1.427   2.565  11.438 -0.2262 -0.3616 -0.1557
  835MPD2    C212274   1.364   2.669  11.505  0.1857  0.3411  0.4560
  835MPD2    C312275   1.389   2.681  11.638 -0.7823 -0.2407  0.1023
  835MPD2    C412276   1.483   2.596  11.697 -0.2768  0.8419 -0.8779
  835MPD2    C512277   1.551   2.501  11.630 -0.0012  0.4992 -0.2029
  835MPD2     H12278   1.286   2.732  11.464 -1.0403 -3.2633 -2.7294
  835MPD2    H112279   1.503   2.609  11.802 -0.2471 -0.2480 -0.7444
  835MPD2    H212280   1.583   2.413  11.446 -1.6378  0.2187 -1.0093
  835MPD2    H312281   1.627   2.442  11.681 -2.2303 -2.3200 -0.1137
  835MPD2     N12282   1.328   2.767  11.724  0.1061 -0.9292 -0.1467
  835MPD2    H512283   1.362   2.751  11.818 -0.7430 -3.1555 -0.2280
  835MPD2    N112284   1.400   2.526  11.306 -0.3176 -0.6605  0.4907
  835MPD2    H712285   1.470   2.471  11.257 -1.5485 -0.6704 -1.2942
  836MPD2     C12286   0.548   3.039  12.061 -0.0219  0.1023  0.2586
  836MPD2    C112287   0.656   2.986  12.141 -0.7465 -0.2701 -0.9284
  836MPD2    C212288   0.624   2.959  12.271 -0.2129 -0.3719 -0.5488
  836MPD2    C312289   0.496   2.954  12.318  0.8902 -0.2427  0.4303
  836MPD2    C412290   0.396   2.980  12.232  0.2431  0.2376  0.5451
  836MPD2    C512291   0.421   3.023  12.104  0.2435 -0.3257  0.6714
  836MPD2     H12292   0.692   2.913  12.341  1.0293  0.9062 -0.9166
  836MPD2    H112293   0.290   2.969  12.252  0.1252 -0.2606 -0.3288
  836MPD2    H212294   0.571   3.082  11.964 -0.4870 -0.1725  0.0247
  836MPD2    H312295   0.338   3.059  12.044  0.8108 -0.8548 -0.4104
  836MPD2     N12296   0.461   2.914  12.446  0.3541 -0.6039 -0.0356
  836MPD2    H512297   0.362   2.902  12.463  0.0219  0.0142 -1.5668
  836MPD2    N112298   0.791   2.962  12.098  0.5705  0.1867 -0.2316
  836MPD2    H712299   0.864   2.944  12.166 -1.0638  1.2916  1.7937
  837MPD2     C12300   0.105   2.385   9.534 -0.2179  0.2362  0.2318
  837MPD2    C112301   0.092   2.389   9.676  0.5087  0.3088 -0.8590
  837MPD2    C212302   0.105   2.513   9.737  0.2424 -0.1657 -0.2484
  837MPD2    C312303   0.137   2.627   9.668  0.3955 -1.3076 -0.5650
  837MPD2    C412304   0.177   2.619   9.537  0.3036  0.4793  0.2223
  837MPD2    C512305   0.152   2.500   9.472  0.6289  0.5252 -0.1071
  837MPD2     H12306   0.073   2.523   9.840 -1.1767  0.7509 -0.7709
  837MPD2    H112307   0.203   2.700   9.470 -0.4950  1.0556  0.6013
  837MPD2    H212308   0.087   2.297   9.474 -4.2295  1.5329 -0.4182
  837MPD2    H312309   0.186   2.490   9.370 -2.8559  0.1220 -1.2032
  837MPD2     N12310   0.148   2.751   9.733 -0.0081  0.2786  0.7296
  837MPD2    H512311   0.121   2.745   9.831 -0.7714  0.2077  0.5172
  837MPD2    N112312   0.025   2.297   9.757  0.7857  0.3333  0.3711
  837MPD2    H712313   0.021   2.323   9.854 -1.9493 -1.6861  0.8168
  838MPD2     C12314   3.522   0.747  11.983  0.3632 -0.0314  0.1267
  838MPD2    C112315   3.440   0.636  11.954  0.1077  0.0000 -0.3627
  838MPD2    C212316   3.318   0.631  12.019 -0.1602 -0.2999  0.0293
  838MPD2    C312317   3.281   0.725  12.114 -0.0008 -0.5950  0.1692
  838MPD2    C412318   3.371   0.824  12.142 -0.4423  0.7260  0.1552
  838MPD2    C512319   3.489   0.835  12.080 -0.2113  0.1735  0.1270
  838MPD2     H12320   3.257   0.546  11.991  0.2565 -0.8729  0.8641
  838MPD2    H112321   3.356   0.888  12.228  2.2136 -0.3231  1.3932
  838MPD2    H212322   3.615   0.761  11.930 -0.4680 -1.9516 -1.8788
  838MPD2    H312323   3.564   0.906  12.115 -0.6428  0.8234 -0.2561
  838MPD2     N12324   3.158   0.704  12.185  0.4659 -0.9042  0.4064
  838MPD2    H512325   3.113   0.614  12.173  0.9815 -1.3085  1.5433
  838MPD2    N112326   3.464   0.533  11.854 -0.4414 -0.5222  0.1022
  838MPD2    H712327   3.395   0.465  11.824  0.0220  0.5573 -3.3105
  839MPD2     C12328   2.979   4.644  11.722 -0.2557  0.4802  0.4510
  839MPD2    C112329   3.063   4.603  11.625  0.0454 -0.3959 -0.6710
  839MPD2    C212330   3.174   4.681  11.578 -0.0291  0.2285 -0.3529
  839MPD2    C312331   3.201   0.067  11.656 -0.3427 -0.0368  0.2135
  839MPD2    C412332   3.120   0.101  11.765 -0.4151 -0.0806  0.2678
  839MPD2    C512333   3.010   0.024  11.799 -0.2049  0.2648 -0.1035
  839MPD2     H12334   3.238   4.636  11.503 -1.2816  0.6941 -1.6979
  839MPD2    H112335   3.137   0.194  11.818 -0.6679  0.7557 -1.1455
  839MPD2    H212336   2.887   4.590  11.742 -0.5906  0.7776 -0.2719
  839MPD2    H312337   2.950   0.064  11.880 -0.6327  2.0161 -1.2857
  839MPD2     N12338   3.310   0.150  11.640  0.1072 -0.3599  0.4441
  839MPD2    H512339   3.309   0.230  11.701  1.2719  0.2959 -0.3953
  839MPD2    N112340   3.043   4.479  11.557  0.1863 -0.5987  0.6179
  839MPD2    H712341   3.097   4.459  11.474  1.0837 -0.9966  1.2902
  840MPD2     C12342   3.398   2.549  10.288  0.5513 -0.2577  0.7017
  840MPD2    C112343   3.387   2.542  10.426  0.5620 -1.0505 -0.1114
  840MPD2    C212344   3.457   2.637  10.499  0.3228  0.8935  0.4303
  840MPD2    C312345   3.524   2.746  10.438 -0.0492 -0.5322 -0.4190
  840MPD2    C412346   3.532   2.752  10.302  0.5969  0.2170  0.4426
  840MPD2    C512347   3.465   2.654  10.227 -0.1987 -0.6562 -0.4723
  840MPD2     H12348   3.445   2.624  10.606  1.8156  0.0381  0.4834
  840MPD2    H112349   3.575   2.829  10.240 -0.1491  1.0926  0.9897
  840MPD2    H212350   3.338   2.473  10.240  0.6989 -0.4213  0.7774
  840MPD2    H312351   3.468   2.668  10.119 -1.7697  2.2301 -0.1447
  840MPD2     N12352   3.593   2.848  10.514 -0.6077 -0.3845  0.2482
  840MPD2    H512353   3.638   2.925  10.467 -1.7810 -0.2352 -0.6234
  840MPD2    N112354   3.300   2.441  10.471  0.5621  0.1761 -0.1177
  840MPD2    H712355   3.245   2.393  10.400 -1.3090  0.5497  1.0829
  841MPD2     C12356   2.732   2.760  14.874 -0.4598  0.2943 -0.1142
  841MPD2    C112357   2.774   2.747  14.749  0.6524 -0.3925  0.3497
  841MPD2    C212358   2.804   2.860  14.681 -0.5188 -0.1651  0.0960
  841MPD2    C312359   2.795   2.987  14.729  0.3086 -0.0065  0.3898
  841MPD2    C412360   2.748   3.004  14.858 -0.6252  0.2611  0.4517
  841MPD2    C512361   2.718   2.890  14.925 -0.3408 -1.2414  0.4418
  841MPD2     H12362   2.836   2.843  14.578  0.2661  1.0064  0.1501
  841MPD2    H112363   2.733   3.101  14.904  0.9938  1.1462 -0.8691
  841MPD2    H212364   2.713   2.672  14.934  2.1180 -0.5261 -0.4781
  841MPD2    H312365   2.671   2.892  15.022  0.8965 -0.6562  1.0250
  841MPD2     N12366   2.833   3.099  14.649 -0.8447 -0.1270 -0.0840
  841MPD2    H512367   2.866   3.080  14.555  1.3259  1.1500  0.4023
  841MPD2    N112368   2.799   2.618  14.695  0.1444 -0.0056 -0.4655
  841MPD2    H712369   2.865   2.617  14.618 -0.0970  1.9930 -0.7029
  842MPD2     C12370   3.923   4.013  17.096 -0.4715  0.0143  0.8620
  842MPD2    C112371   3.852   3.891  17.113 -0.6458  0.3753 -0.0681
  842MPD2    C212372   3.880   3.818  17.224 -0.2514 -0.8785 -0.2947
  842MPD2    C312373   3.985   3.845  17.315  0.2549  0.3911 -0.0610
  842MPD2    C412374   4.055   3.960  17.292  0.2956 -0.6784  0.1746
  842MPD2    C512375   4.019   4.044  17.190  0.3180  0.0792 -0.3030
  842MPD2     H12376   3.834   3.719  17.221 -1.0601 -0.5715  1.8282
  842MPD2    H112377   4.136   3.981  17.362 -0.4746 -0.0247  0.8600
  842MPD2    H212378   3.908   4.078  17.011 -0.8518  1.0864  1.7625
  842MPD2    H312379   4.067   4.141  17.187  0.1158  0.2157  0.8295
  842MPD2     N12380   4.005   3.771  17.439 -0.0440 -0.1984  0.4949
  842MPD2    H512381   4.099   3.784  17.475 -0.2358  1.0198  0.5505
  842MPD2    N112382   3.767   3.853  17.011 -0.4079  0.0929 -0.5013
  842MPD2    H712383   3.769   3.915  16.930 -0.3146  0.6672 -0.0664
  843MPD2     C12384   0.636   4.161   1.219 -0.8478 -0.0076 -0.3184
  843MPD2    C112385   0.758   4.144   1.162  0.0075  0.1378 -0.3296
  843MPD2    C212386   0.844   4.259   1.157  0.5226 -0.0102 -0.3540
  843MPD2    C312387   0.806   4.379   1.220  0.1993  0.0568 -0.0686
  843MPD2    C412388   0.681   4.385   1.270  0.3878  0.1127  0.6679
  843MPD2    C512389   0.603   4.279   1.274 -0.0644  0.3632  0.3366
  843MPD2     H12390   0.935   4.266   1.098  0.3458 -1.4619 -0.7804
  843MPD2    H112391   0.643   4.468   1.328  0.8134  3.1001 -3.3508
  843MPD2    H212392   0.567   4.078   1.225  0.5463 -1.1867 -0.6013
  843MPD2    H312393   0.508   4.277   1.327  0.1454 -2.1844  0.6521
  843MPD2     N12394   0.888   4.490   1.211  0.1100 -0.0734  0.6162
  843MPD2    H512395   0.837   4.574   1.236  0.6818  0.2448  0.7077
  843MPD2    N112396   0.797   4.024   1.111  0.5508 -0.1223 -1.3025
  843MPD2    H712397   0.722   3.956   1.105 -0.6522  1.0532  0.2768
  844MPD2     C12398   4.254   3.088  17.018 -0.6047  0.4836  0.3911
  844MPD2    C112399   4.300   3.124  16.896  0.0031 -0.0126 -0.2909
  844MPD2    C212400   4.387   3.231  16.884  0.6502 -0.8020 -0.1084
  844MPD2    C312401   4.427   3.290  17.003 -0.6509  0.7398 -0.9593
  844MPD2    C412402   4.382   3.255  17.128  0.3448  0.5033  0.3153
  844MPD2    C512403   4.286   3.158  17.128 -0.1766  0.0932  0.4249
  844MPD2     H12404   4.421   3.263  16.786  0.5066 -0.5142 -0.0641
  844MPD2    H112405   4.407   3.317  17.213 -0.6039  0.1262  0.8732
  844MPD2    H212406   4.180   3.009  17.021 -0.8678  0.8247  3.2170
  844MPD2    H312407   4.228   3.144  17.218  0.0808  1.7362  0.8522
  844MPD2     N12408   4.521   3.393  17.006 -0.2028  0.2337 -1.3424
  844MPD2    H512409   4.581   3.394  17.088 -0.5092 -0.7029 -1.1140
  844MPD2    N112410   4.268   3.050  16.781 -0.0724  0.3772 -0.2513
  844MPD2    H712411   4.307   3.079  16.691 -0.5180  1.9061  0.0540
  845MPD2     C12412   0.304   4.283  17.168  0.1918  0.7080 -0.0512
  845MPD2    C112413   0.173   4.260  17.155  0.4748 -0.7008  0.1722
  845MPD2    C212414   0.134   4.149  17.085  0.1675  0.1361 -0.4960
  845MPD2    C312415   0.227   4.062  17.037 -0.0910 -0.2588  0.1247
  845MPD2    C412416   0.360   4.096  17.033  0.2302  0.4858 -0.1283
  845MPD2    C512417   0.397   4.202  17.107  0.2629 -0.2499  0.4623
  845MPD2     H12418   0.030   4.117  17.083 -0.4060  2.0140 -1.0496
  845MPD2    H112419   0.438   4.027  17.000 -0.4380  0.7009 -2.1116
  845MPD2    H212420   0.330   4.378  17.212  2.6936  0.4001 -0.9046
  845MPD2    H312421   0.500   4.210  17.139 -0.2427  1.6451  1.6576
  845MPD2     N12422   0.199   3.926  16.998  0.2640  0.2186 -0.3023
  845MPD2    H512423   0.282   3.875  16.971  0.9178  0.1775  1.7323
  845MPD2    N112424   0.067   4.337  17.215 -0.5574 -0.1046 -0.3065
  845MPD2    H712425   0.096   4.410  17.279 -0.7917 -0.0717 -0.2364
  846MPD2     C12426   1.034   4.686  13.713 -0.6658  0.2335  0.1462
  846MPD2    C112427   1.162   4.690  13.762 -0.0695 -0.3330  0.3163
  846MPD2    C212428   1.176   4.685  13.902  0.9340  0.2112  0.4575
  846MPD2    C312429   1.066   4.687  13.987 -0.5516  0.2096 -0.3647
  846MPD2    C412430   0.947   4.663  13.929  0.3805  0.4931 -0.0511
  846MPD2    C512431   0.929   4.661  13.791  0.0559 -0.1574  0.3485
  846MPD2     H12432   1.276   4.699  13.942  1.1214 -1.5728  0.6040
  846MPD2    H112433   0.860   4.642  13.991 -0.6050  1.4914 -1.1025
  846MPD2    H212434   1.020   4.706  13.608  0.1270 -0.8725 -0.1632
  846MPD2    H312435   0.831   4.659  13.744 -0.8413  2.3142  2.0991
  846MPD2     N12436   1.088   4.678  14.126  0.5134  0.2393 -0.2429
  846MPD2    H512437   1.185   4.687  14.155  0.7812 -0.4531 -0.9008
  846MPD2    N112438   1.274   4.711  13.681  0.3516 -0.3184 -0.2806
  846MPD2    H712439   1.354   0.005  13.740  1.2773  1.6332 -2.1267
  847MPD2     C12440   0.987   0.671  13.611  0.5629  0.4556  0.4152
  847MPD2    C112441   1.041   0.682  13.739  0.3531 -0.4798 -0.4312
  847MPD2    C212442   1.180   0.688  13.757 -0.5056  0.3071  0.7118
  847MPD2    C312443   1.264   0.673  13.655 -0.3832 -0.6178  0.0455
  847MPD2    C412444   1.209   0.659  13.529  0.8955 -0.5643 -0.5640
  847MPD2    C512445   1.073   0.662  13.504  0.0023 -0.4264 -0.5736
  847MPD2     H12446   1.213   0.690  13.861  1.0313 -0.1719  0.2396
  847MPD2    H112447   1.274   0.633  13.447 -0.5900  3.0337 -2.8748
  847MPD2    H212448   0.881   0.668  13.587  0.7065  2.6154 -0.4938
  847MPD2    H312449   1.045   0.650  13.400 -3.1620 -0.4102  0.2742
  847MPD2     N12450   1.407   0.674  13.671  0.4810  0.1016  0.5250
  847MPD2    H512451   1.458   0.665  13.584  1.1682  1.4384  0.7888
  847MPD2    N112452   0.962   0.671  13.855 -0.0109  0.1613 -0.3725
  847MPD2    H712453   1.012   0.678  13.943 -1.0585  0.4462  0.2085
  848MPD2     C12454   3.839   3.615  16.627 -0.2003  0.8420 -0.3931
  848MPD2    C112455   3.948   3.671  16.688  0.3989  0.1146 -0.3680
  848MPD2    C212456   4.014   3.768  16.618  0.4252  0.0383 -0.5082
  848MPD2    C312457   3.985   3.804  16.488  0.3349  0.3714  0.4344
  848MPD2    C412458   3.877   3.741  16.426 -0.0773  0.1988  0.0120
  848MPD2    C512459   3.817   3.641  16.489  0.0153  0.0503 -0.2509
  848MPD2     H12460   4.093   3.819  16.672  0.0773  0.7192 -0.6434
  848MPD2    H112461   3.860   3.762  16.321  0.1600  2.0198  0.3321
  848MPD2    H212462   3.767   3.554  16.681  0.3708 -0.3602 -0.9893
  848MPD2    H312463   3.732   3.587  16.448 -0.6559  1.4999 -0.7302
  848MPD2     N12464   4.043   3.915  16.416  0.3095 -0.7043 -0.0710
  848MPD2    H512465   3.997   3.936  16.328 -0.1640 -0.2296  0.2918
  848MPD2    N112466   3.995   3.635  16.816 -0.0566 -0.1065  0.2129
  848MPD2    H712467   4.076   3.688  16.846 -0.0946 -0.9676  1.8106
  849MPD2     C12468   3.096   3.949  14.401  0.9000  0.0332  0.5170
  849MPD2    C112469   3.208   3.940  14.323  0.2448  0.3226  0.0000
  849MPD2    C212470   3.322   3.883  14.373 -0.1349 -0.3530  0.2890
  849MPD2    C312471   3.326   3.826  14.495 -0.0708  0.4850 -0.6202
  849MPD2    C412472   3.223   3.852  14.582 -0.7904  0.2046 -0.0454
  849MPD2    C512473   3.109   3.918  14.537  0.0516  0.4343  0.5958
  849MPD2     H12474   3.405   3.878  14.303 -0.0527  0.2259  0.3409
  849MPD2    H112475   3.226   3.832  14.688  2.5212  0.1433 -0.1755
  849MPD2    H212476   3.006   3.989  14.356  1.5632  0.7428 -0.1714
  849MPD2    H312477   3.023   3.946  14.596 -1.9424  1.0424 -2.5825
  849MPD2     N12478   3.449   3.755  14.524  0.5231  0.7533  0.1515
  849MPD2    H512479   3.509   3.727  14.446 -0.0119  0.6274 -0.2194
  849MPD2    N112480   3.221   3.988  14.193 -0.2415 -0.6583  0.7691
  849MPD2    H712481   3.313   3.973  14.152 -1.0872  0.0747 -1.3840
  850MPD2     C12482   1.368   1.613  14.655 -0.0418  0.1852  0.2143
  850MPD2    C112483   1.332   1.680  14.776 -0.9799  0.3968 -0.1596
  850MPD2    C212484   1.419   1.761  14.846 -0.4131  0.5115  0.2244
  850MPD2    C312485   1.550   1.777  14.796  0.2842  0.0058 -0.1479
  850MPD2    C412486   1.578   1.720  14.676 -0.5017 -0.0604  0.5211
  850MPD2    C512487   1.494   1.630  14.609 -0.2478  0.6391  0.2797
  850MPD2     H12488   1.392   1.822  14.931 -1.4474  2.4888 -1.5111
  850MPD2    H112489   1.675   1.738  14.630 -0.3538 -0.5370  0.6450
  850MPD2    H212490   1.307   1.547  14.594 -0.4597  1.4004 -0.6904
  850MPD2    H312491   1.518   1.588  14.513 -0.3677 -1.0687  0.9948
  850MPD2     N12492   1.646   1.864  14.853 -0.5703 -0.2681  0.2498
  850MPD2    H512493   1.727   1.873  14.792  1.2493  1.8412  2.9183
  850MPD2    N112494   1.209   1.628  14.831 -0.0285 -0.2441  0.0212
  850MPD2    H712495   1.161   1.565  14.768 -0.2807  1.0394 -1.0691
  851MPD2     C12496   1.319   1.103  15.426 -0.3629 -0.2369  0.5891
  851MPD2    C112497   1.295   1.115  15.297  0.8060  0.6056 -1.0678
  851MPD2    C212498   1.352   1.017  15.218 -0.1474 -0.6951  0.3443
  851MPD2    C312499   1.441   0.924  15.259 -0.0522  0.0324 -0.0349
  851MPD2    C412500   1.473   0.923  15.388  0.2525 -0.6536 -0.2460
  851MPD2    C512501   1.416   1.015  15.468  0.1184  0.1517  0.3483
  851MPD2     H12502   1.315   1.020  15.116 -2.4622 -2.9099  1.1262
  851MPD2    H112503   1.544   0.851  15.428  0.5448 -0.0005  0.3955
  851MPD2    H212504   1.278   1.175  15.496 -4.0836 -0.5053 -1.2969
  851MPD2    H312505   1.450   1.017  15.570 -2.1347  0.3710  1.1043
  851MPD2     N12506   1.501   0.834  15.166  0.6928 -0.0295  0.1854
  851MPD2    H512507   1.478   0.835  15.067 -1.0513  0.3124  0.5959
  851MPD2    N112508   1.211   1.224  15.242  0.3411 -0.1310 -0.2511
  851MPD2    H712509   1.181   1.295  15.309  3.2587 -0.1300  1.0556
  852MPD2     C12510   0.908   4.361   9.853  0.0040  0.3038 -0.3215
  852MPD2    C112511   0.935   4.330   9.981  1.1208 -0.5555 -0.6096
  852MPD2    C212512   1.058   4.359  10.033  0.6790 -0.2072 -0.4606
  852MPD2    C312513   1.153   4.414   9.948 -0.2956 -0.1127 -0.3420
  852MPD2    C412514   1.116   4.463   9.832  0.5478  0.0236 -0.0793
  852MPD2    C512515   0.994   4.438   9.780 -0.2029  0.7257  0.0586
  852MPD2     H12516   1.085   4.320  10.130  0.8852  1.1447  0.0170
  852MPD2    H112517   1.188   4.512   9.767  1.6269  1.3771  2.1405
  852MPD2    H212518   0.825   4.319   9.798 -0.2051  0.9251 -0.4762
  852MPD2    H312519   0.972   4.474   9.680 -1.2230 -0.1590 -0.0373
  852MPD2     N12520   1.286   4.422   9.994 -0.0587  0.4228  0.3195
  852MPD2    H512521   1.305   4.391  10.089 -1.4253  1.5463  0.9608
  852MPD2    N112522   0.842   4.256  10.058 -0.1272  0.2168 -0.3683
  852MPD2    H712523   0.876   4.234  10.151  2.5019  2.4213 -0.7896
  853MPD2     C12524   3.121   4.008  12.389  0.3273 -0.3059 -0.0147
  853MPD2    C112525   2.992   4.014  12.354  0.3680  0.7088  0.1515
  853MPD2    C212526   2.931   3.923  12.263  0.5126 -0.4010  0.3969
  853MPD2    C312527   3.013   3.827  12.203  0.0482 -0.8895 -0.4121
  853MPD2    C412528   3.139   3.815  12.237 -0.4235  0.4027 -0.2100
  853MPD2    C512529   3.198   3.904  12.328 -0.2394 -0.5162 -0.1961
  853MPD2     H12530   2.823   3.924  12.255  0.6492  1.2364 -1.3114
  853MPD2    H112531   3.202   3.733  12.203  0.7345  0.1796  2.4206
  853MPD2    H212532   3.170   4.082  12.451 -1.3101  0.3417  0.5070
  853MPD2    H312533   3.307   3.906  12.327 -0.2500  1.2927  1.3397
  853MPD2     N12534   2.969   3.734  12.111 -0.0043  0.3666  0.5723
  853MPD2    H512535   3.036   3.669  12.072  0.4411  1.8141 -1.0607
  853MPD2    N112536   2.926   4.119  12.418 -0.7514 -0.0726  0.0822
  853MPD2    H712537   2.978   4.187  12.472  0.6131 -1.8851  1.0207
  854MPD2     C12538   3.802   3.625  12.941 -0.0992 -0.5468 -0.4173
  854MPD2    C112539   3.891   3.719  12.969  0.3633  0.2192  0.4252
  854MPD2    C212540   4.018   3.698  12.919 -0.4369  0.5941  0.5980
  854MPD2    C312541   4.053   3.595  12.831  0.6801  0.2089 -0.6461
  854MPD2    C412542   3.951   3.514  12.794  0.8581  0.0232  0.0372
  854MPD2    C512543   3.827   3.520  12.850 -0.7895  0.3284  0.4536
  854MPD2     H12544   4.086   3.781  12.935  0.4861 -0.0451 -0.0340
  854MPD2    H112545   3.969   3.435  12.723 -1.0253  1.5673 -2.1497
  854MPD2    H212546   3.707   3.627  12.992  0.8711  1.0991  1.3201
  854MPD2    H312547   3.755   3.445  12.819 -1.1505  0.3220  1.2907
  854MPD2     N12548   4.184   3.576  12.785  0.0358  0.0796  0.1996
  854MPD2    H512549   4.190   3.489  12.734  0.8270  1.2739 -1.7336
  854MPD2    N112550   3.845   3.830  13.043  0.1582  0.0056 -0.0467
  854MPD2    H712551   3.756   3.816  13.089  0.6830  1.8066  1.5092
  855MPD2     C12552   0.389   3.839  13.160  0.7955 -0.4129  0.0987
  855MPD2    C112553   0.295   3.759  13.220 -0.2569 -0.3945 -0.6221
  855MPD2    C212554   0.189   3.713  13.143  0.1889  0.2071  0.7288
  855MPD2    C312555   0.165   3.745  13.011  0.1132 -0.2909 -0.0492
  855MPD2    C412556   0.255   3.829  12.955 -0.2113 -0.1295 -0.6060
  855MPD2    C512557   0.367   3.876  13.027  0.6072 -0.0242 -0.2742
  855MPD2     H12558   0.133   3.630  13.186 -0.3861 -0.5077 -1.4204
  855MPD2    H112559   0.250   3.864  12.852 -0.6789 -0.0664 -0.5617
  855MPD2    H212560   0.475   3.883  13.209  2.0824 -2.1715 -0.5783
  855MPD2    H312561   0.430   3.946  12.973 -1.0188  1.5055 -0.1764
  855MPD2     N12562   0.055   3.673  12.948 -0.5058 -0.4836 -0.0844
  855MPD2    H512563   4.724   3.616  13.011  1.2379 -0.5737  1.3688
  855MPD2    N112564   0.321   3.701  13.353  0.5875 -0.7781  1.1195
  855MPD2    H712565   0.262   3.622  13.375 -2.3107  1.7245  2.3264
  856MPD2     C12566   2.312   0.130  14.235  0.6632  0.0509 -0.4344
  856MPD2    C112567   2.375   0.250  14.249 -0.4649  0.3346 -0.1472
  856MPD2    C212568   2.321   0.362  14.191 -0.6809 -1.2378 -0.1799
  856MPD2    C312569   2.208   0.357  14.113  0.1764  0.6767  0.1318
  856MPD2    C412570   2.155   0.234  14.082 -0.4192 -0.4703  0.1052
  856MPD2    C512571   2.206   0.127  14.144  0.6455  0.2788  0.8582
  856MPD2     H12572   2.383   0.450  14.180  0.3068 -1.9157 -0.0690
  856MPD2    H112573   2.084   0.216  14.002  0.8969  0.2211 -1.2216
  856MPD2    H212574   2.351   0.041  14.283  3.5276  1.0391 -0.9739
  856MPD2    H312575   2.174   0.028  14.116  1.4670  0.2932 -0.1224
  856MPD2     N12576   2.162   0.482  14.051  0.0005 -0.1693 -0.5526
  856MPD2    H512577   2.094   0.478  13.975 -1.3120  0.8869  0.5696
  856MPD2    N112578   2.492   0.261  14.326  0.1716  0.5093  0.4206
  856MPD2    H712579   2.548   0.345  14.328  0.6155  0.2331 -0.1691
  857MPD2     C12580   3.764   2.444  12.685 -0.2388  0.0216  0.4675
  857MPD2    C112581   3.796   2.341  12.768  0.5371  0.2789 -0.1485
  857MPD2    C212582   3.819   2.370  12.907  0.2478 -0.9569 -0.6141
  857MPD2    C312583   3.811   2.497  12.957 -0.4694  0.4332 -0.5063
  857MPD2    C412584   3.779   2.598  12.872 -0.1917 -0.8884 -0.1429
  857MPD2    C512585   3.749   2.573  12.738 -0.3250 -0.1846  0.0994
  857MPD2     H12586   3.855   2.292  12.973  1.2994 -1.8216 -2.2314
  857MPD2    H112587   3.789   2.700  12.905 -3.7546  0.1253 -2.2619
  857MPD2    H212588   3.769   2.443  12.577 -1.4569  2.4482  0.3842
  857MPD2    H312589   3.735   2.657  12.670 -1.3753  0.6075  1.2984
  857MPD2     N12590   3.851   2.518  13.088  0.2582  0.1581 -0.4894
  857MPD2    H512591   3.872   2.436  13.144 -0.9133 -0.3093 -0.7267
  857MPD2    N112592   3.796   2.205  12.729  0.4684 -0.5253 -0.1762
  857MPD2    H712593   3.830   2.141  12.800 -0.1400 -0.9539 -0.2689
  858MPD2     C12594   4.421   1.156  16.916 -0.0454 -0.7004 -0.1389
  858MPD2    C112595   4.544   1.098  16.956  0.4754 -0.1872  0.2572
  858MPD2    C212596   4.620   1.159  17.050 -0.1423  0.6868 -0.2772
  858MPD2    C312597   4.577   1.277  17.114  0.0805 -0.3416 -0.1455
  858MPD2    C412598   4.457   1.330  17.073  0.2217  0.7705  0.1960
  858MPD2    C512599   4.377   1.265  16.985 -0.5166  0.4071 -0.4715
  858MPD2     H12600   4.712   1.114  17.086  1.2836  2.1940 -2.0358
  858MPD2    H112601   4.427   1.421  17.124 -0.8867  0.6531 -0.2483
  858MPD2    H212602   4.357   1.104  16.846 -1.5592  0.8818  0.0920
  858MPD2    H312603   4.277   1.300  16.961 -1.7567 -2.8243  0.0940
  858MPD2     N12604   4.652   1.345  17.213  0.1852  0.1734  0.1698
  858MPD2    H512605   4.591   1.403  17.269 -1.6487 -2.0232  0.4252
  858MPD2    N112606   4.578   0.971  16.899 -0.3562 -0.7540  0.2319
  858MPD2    H712607   4.529   0.936  16.817 -0.4918  1.0109 -0.4441
  859MPD2     C12608   3.126   3.389  15.073 -0.1845 -0.5581 -0.3872
  859MPD2    C112609   3.267   3.389  15.094  0.0649  0.2347 -0.0051
  859MPD2    C212610   3.331   3.270  15.068  0.1829 -0.3846  0.9233
  859MPD2    C312611   3.249   3.159  15.021  0.3456  0.2492  0.0786
  859MPD2    C412612   3.108   3.166  15.002  0.6198 -0.1930  0.0493
  859MPD2    C512613   3.047   3.285  15.024 -0.3026  0.2276 -1.0025
  859MPD2     H12614   3.438   3.253  15.061  0.0850 -1.4090  2.0499
  859MPD2    H112615   3.056   3.073  14.980 -0.6714  0.8273 -1.2641
  859MPD2    H212616   3.081   3.487  15.089 -1.3861 -1.4221  1.4829
  859MPD2    H312617   2.941   3.305  15.016 -0.3056  0.7026  0.2945
  859MPD2     N12618   3.309   3.040  14.973 -0.2476  0.4332  0.2922
  859MPD2    H512619   3.259   2.971  14.918  2.7001 -2.6993  1.5147
  859MPD2    N112620   3.332   3.510  15.140  0.2176 -0.8368 -0.0222
  859MPD2    H712621   3.273   3.592  15.150  0.0250 -0.8682 -0.8545
  860MPD2     C12622   0.739   3.931  11.399  0.0722  0.0928  0.5713
  860MPD2    C112623   0.744   3.960  11.530 -0.3123  0.0687  0.9373
  860MPD2    C212624   0.642   4.017  11.609  0.4292 -0.2912  0.0014
  860MPD2    C312625   0.522   4.032  11.539 -0.1372 -0.1940  0.5997
  860MPD2    C412626   0.510   4.000  11.404 -0.4119  0.5132 -0.1216
  860MPD2    C512627   0.615   3.947  11.336  0.1191 -0.1287 -0.3180
  860MPD2     H12628   0.657   4.042  11.713 -0.3380  2.4612 -0.5405
  860MPD2    H112629   0.415   4.004  11.352 -0.4526 -2.4935 -0.2709
  860MPD2    H212630   0.824   3.892  11.345 -1.1118 -0.0177 -1.2554
  860MPD2    H312631   0.612   3.922  11.231 -2.7014  0.3539 -0.3373
  860MPD2     N12632   0.403   4.061  11.601 -0.2511  0.3297  0.2489
  860MPD2    H512633   0.321   4.031  11.550 -1.7935  2.7494  1.3214
  860MPD2    N112634   0.873   3.942  11.598  0.3721 -0.4668  0.1342
  860MPD2    H712635   0.866   3.990  11.687 -1.4188  3.2251 -1.9983
  861MPD2     C12636   4.477   1.949  11.093  0.6547 -0.2068 -0.0172
  861MPD2    C112637   4.373   2.003  11.174 -0.2327  0.0318  0.1417
  861MPD2    C212638   4.284   2.084  11.102  0.6695  0.2008 -0.0429
  861MPD2    C312639   4.282   2.089  10.964  0.6126 -0.2583  0.0197
  861MPD2    C412640   4.384   2.032  10.892  0.0827 -0.3192  0.1390
  861MPD2    C512641   4.480   1.967  10.959  0.1418 -0.1848  0.0976
  861MPD2     H12642   4.208   2.129  11.163 -0.7012  1.0118 -2.3350
  861MPD2    H112643   4.383   2.034  10.784  0.3168  1.5576  0.1669
  861MPD2    H212644   4.560   1.888  11.128  1.4627 -0.7254 -2.7633
  861MPD2    H312645   4.562   1.929  10.899 -0.8145 -1.5620 -0.3267
  861MPD2     N12646   4.178   2.156  10.897 -0.1791  0.0258  0.3140
  861MPD2    H512647   4.184   2.156  10.795 -0.4346  3.0015  0.2814
  861MPD2    N112648   4.369   1.989  11.318 -0.2862  0.6072 -0.5465
  861MPD2    H712649   4.296   2.042  11.364 -0.4826 -1.0903  1.1039
  862MPD2     C12650   3.855   2.012  10.352 -0.9061 -0.7559  0.3607
  862MPD2    C112651   3.974   2.011  10.423  0.0629  0.2011 -0.6183
  862MPD2    C212652   4.058   1.902  10.437 -0.1829  0.3686  0.2407
  862MPD2    C312653   4.012   1.784  10.388 -0.8003 -0.0379  0.3516
  862MPD2    C412654   3.905   1.791  10.294 -0.2931  0.4152 -1.1888
  862MPD2    C512655   3.825   1.905  10.272 -0.1647  0.2341  0.6484
  862MPD2     H12656   4.155   1.903  10.485  0.9903  1.7556 -2.1588
  862MPD2    H112657   3.895   1.705  10.228 -1.1298 -1.2493  1.0961
  862MPD2    H212658   3.791   2.099  10.340 -0.3054 -0.0864  1.9517
  862MPD2    H312659   3.739   1.907  10.206  0.2172  1.1954  0.1815
  862MPD2     N12660   4.077   1.664  10.408  0.0260  0.4026  0.0910
  862MPD2    H512661   4.028   1.579  10.384 -1.9736  0.7604  2.8634
  862MPD2    N112662   4.022   2.138  10.475  0.4261  0.0108 -0.5330
  862MPD2    H712663   4.114   2.142  10.518 -0.1492 -0.1086  0.7214
  863MPD2     C12664   3.308   0.576  16.577 -0.0361  0.3381 -0.7718
  863MPD2    C112665   3.204   0.541  16.667  0.9866  0.4603 -0.4593
  863MPD2    C212666   3.239   0.480  16.785 -0.1974  0.7195  0.4905
  863MPD2    C312667   3.368   0.444  16.818  0.1080 -0.3313 -0.5396
  863MPD2    C412668   3.469   0.491  16.730  0.9861  0.5217 -0.0851
  863MPD2    C512669   3.438   0.551  16.611  0.2092  0.0702  0.6314
  863MPD2     H12670   3.153   0.470  16.852 -0.7996 -1.1643 -0.5681
  863MPD2    H112671   3.575   0.477  16.752  0.5711 -0.0244  1.5655
  863MPD2    H212672   3.279   0.617  16.481  2.2346  1.6921 -0.8854
  863MPD2    H312673   3.520   0.584  16.547  0.8704 -1.5930  0.6249
  863MPD2     N12674   3.406   0.391  16.948 -0.6522  0.6345 -0.3145
  863MPD2    H512675   3.504   0.398  16.973  0.0024 -0.5498 -2.5558
  863MPD2    N112676   3.069   0.559  16.633 -0.3286  0.1402 -0.1408
  863MPD2    H712677   2.994   0.517  16.687  0.2793  2.5512  2.5765
  864MPD2     C12678   3.572   1.231  17.582 -0.4793  0.1174  0.4933
  864MPD2    C112679   3.656   1.180  17.487  0.3259 -0.1720  1.0496
  864MPD2    C212680   3.756   1.266  17.443 -0.2313 -0.0888 -0.0746
  864MPD2    C312681   3.771   1.400  17.489  0.6001 -0.5325 -0.3963
  864MPD2    C412682   3.675   1.446  17.575 -0.1220  0.4255  0.0767
  864MPD2    C512683   3.571   1.362  17.616  0.0580 -0.2136  0.5140
  864MPD2     H12684   3.832   1.225  17.376  1.2073  1.0533  0.8631
  864MPD2    H112685   3.676   1.546  17.616  1.5382 -0.5804  2.4607
  864MPD2    H212686   3.496   1.162  17.618 -1.6718  1.0137 -0.2848
  864MPD2    H312687   3.508   1.392  17.698 -1.8177  2.7388 -1.9996
  864MPD2     N12688   3.878   1.485  17.451  0.8189 -0.1284  0.0807
  864MPD2    H512689   3.885   1.570  17.505  0.1440  0.4876 -0.8129
  864MPD2    N112690   3.642   1.045  17.441  0.3310 -0.0922  0.1824
  864MPD2    H712691   3.578   0.982  17.488 -0.3533  0.9780  0.6751
  865MPD2     C12692   3.576   1.652  17.124 -0.3060 -0.2237  0.2015
  865MPD2    C112693   3.686   1.711  17.066  0.7331 -0.2236 -0.4577
  865MPD2    C212694   3.777   1.788  17.147 -0.0521  0.6780 -0.2139
  865MPD2    C312695   3.756   1.790  17.281 -0.0877 -0.6108 -0.3029
  865MPD2    C412696   3.644   1.721  17.331  0.1590 -0.3377 -0.0313
  865MPD2    C512697   3.551   1.651  17.257  0.1436  0.3204 -1.5535
  865MPD2     H12698   3.872   1.826  17.113 -0.3795  1.5004 -0.2147
  865MPD2    H112699   3.631   1.727  17.439  1.4080  1.5762  0.0095
  865MPD2    H212700   3.495   1.596  17.079 -0.4368 -0.7373  1.0688
  865MPD2    H312701   3.461   1.611  17.301 -0.4481 -0.4752 -3.4761
  865MPD2     N12702   3.856   1.832  17.373 -0.0143  0.3536  0.2326
  865MPD2    H512703   3.849   1.802  17.469 -2.6031  1.7472  0.4729
  865MPD2    N112704   3.705   1.688  16.926 -0.4455  0.5034 -0.9507
  865MPD2    H712705   3.647   1.619  16.880 -0.5858  0.7387 -1.1273
  866MPD2     C12706   0.287   2.577  11.628  0.1189  0.5874  0.3128
  866MPD2    C112707   0.257   2.467  11.556  0.0547  0.9886  0.7683
  866MPD2    C212708   0.128   2.455  11.504 -0.2512 -0.4818  0.3076
  866MPD2    C312709   0.034   2.556  11.524 -0.5531  0.2541  0.7109
  866MPD2    C412710   0.064   2.661  11.607  0.6607 -0.8721  0.7069
  866MPD2    C512711   0.192   2.666  11.660 -1.0479  0.3756  0.3949
  866MPD2     H12712   0.091   2.362  11.465 -0.7828 -0.0544 -0.2102
  866MPD2    H112713   4.722   2.746  11.617 -0.7052 -1.6901 -1.3629
  866MPD2    H212714   0.378   2.581  11.687  0.3415 -2.3598  0.1487
  866MPD2    H312715   0.214   2.760  11.709  1.5360  0.9299 -1.8254
  866MPD2     N12716   4.629   2.538  11.465 -1.0782  0.2034 -0.1704
  866MPD2    H512717   4.618   2.447  11.422  1.1650  2.5135 -5.7213
  866MPD2    N112718   0.359   2.376  11.536 -0.6138 -0.4372 -0.2352
  866MPD2    H712719   0.447   2.387  11.586  0.4609  1.0597 -2.4306
  867MPD2     C12720   2.415   1.752  16.309  0.3085  0.0740 -1.1142
  867MPD2    C112721   2.528   1.740  16.394  0.1076 -0.1459 -0.3645
  867MPD2    C212722   2.567   1.855  16.471 -0.3659 -0.1897 -0.1028
  867MPD2    C312723   2.495   1.976  16.455 -0.2457 -0.2183 -0.0158
  867MPD2    C412724   2.397   1.979  16.364  0.3853  0.2035  0.2585
  867MPD2    C512725   2.354   1.872  16.295 -0.2397 -0.3875  1.1412
  867MPD2     H12726   2.653   1.856  16.537  0.1227  1.0175 -0.7663
  867MPD2    H112727   2.331   2.063  16.347  1.3652  0.4612 -2.2145
  867MPD2    H212728   2.383   1.667  16.249 -0.4203 -0.8526  0.6130
  867MPD2    H312729   2.281   1.887  16.215 -0.4462 -0.9447  1.2281
  867MPD2     N12730   2.524   2.094  16.526 -0.0452  0.5761  0.8186
  867MPD2    H512731   2.475   2.177  16.494 -0.9605 -0.3923 -0.3150
  867MPD2    N112732   2.578   1.606  16.409  0.4284  0.0579  0.4347
  867MPD2    H712733   2.556   1.537  16.339 -0.0203 -0.8221  1.4460
  868MPD2     C12734   4.095   0.687  13.774  0.5110  0.0342  0.5176
  868MPD2    C112735   4.027   0.753  13.671  0.4890 -0.3052 -0.2178
  868MPD2    C212736   3.969   0.872  13.694  0.4363  0.3934 -0.7699
  868MPD2    C312737   3.977   0.936  13.818 -0.2543 -0.5105 -0.0244
  868MPD2    C412738   4.049   0.877  13.926  0.7087  0.6723 -0.0988
  868MPD2    C512739   4.103   0.750  13.897  0.5151  0.2267 -1.0723
  868MPD2     H12740   3.915   0.924  13.616 -0.4442  0.6246 -0.0109
  868MPD2    H112741   4.060   0.927  14.022 -3.6998  0.7036  0.4074
  868MPD2    H212742   4.148   0.595  13.753 -0.1189  0.1123 -1.4595
  868MPD2    H312743   4.150   0.693  13.977  2.9626 -0.5772 -3.0941
  868MPD2     N12744   3.929   1.074  13.837 -0.9565 -0.5800 -0.2853
  868MPD2    H512745   3.938   1.113  13.930  2.3864 -0.5170 -0.6237
  868MPD2    N112746   4.040   0.696  13.542  0.0475 -0.1211  0.2181
  868MPD2    H712747   4.087   0.606  13.547  2.2710  1.0367 -0.0261
  869MPD2     C12748   0.584   2.958   1.947 -0.4967 -0.2298 -0.6297
  869MPD2    C112749   0.450   2.946   1.962  0.1824 -0.2831 -0.5453
  869MPD2    C212750   0.368   2.991   1.862  0.5460 -0.7220 -0.6949
  869MPD2    C312751   0.425   3.046   1.744  0.5869  0.3001 -1.3560
  869MPD2    C412752   0.559   3.062   1.742  0.1322  0.7242 -0.1667
  869MPD2    C512753   0.642   3.025   1.845  0.3085  0.0716 -0.8094
  869MPD2     H12754   0.261   2.971   1.860  0.4449 -0.1760 -0.6345
  869MPD2    H112755   0.596   3.117   1.657  1.9176 -0.0662  0.0983
  869MPD2    H212756   0.648   2.909   2.020  0.1751 -0.7932 -1.5989
  869MPD2    H312757   0.749   3.041   1.843  0.2157  1.0456  1.8443
  869MPD2     N12758   0.353   3.099   1.637 -0.7775  0.6142  0.1643
  869MPD2    H512759   0.413   3.133   1.562  0.8935 -1.4432  0.5711
  869MPD2    N112760   0.404   2.875   2.080 -0.0112 -0.6514 -0.6738
  869MPD2    H712761   0.473   2.826   2.136  2.2027  0.2288 -2.6649
  870MPD2     C12762   4.121   2.617   1.514 -0.4837 -0.2646  0.7565
  870MPD2    C112763   4.256   2.629   1.539 -0.7489 -0.0246  0.0151
  870MPD2    C212764   4.336   2.655   1.426  0.1225 -0.1216  0.2544
  870MPD2    C312765   4.287   2.681   1.299  0.0530  0.0129  0.2131
  870MPD2    C412766   4.150   2.685   1.289  0.3863  0.5557 -0.6525
  870MPD2    C512767   4.077   2.642   1.393 -0.4687 -0.6413 -0.6588
  870MPD2     H12768   4.443   2.649   1.444  0.2865  1.0687 -0.3180
  870MPD2    H112769   4.105   2.676   1.191 -0.9810 -1.0031  0.1362
  870MPD2    H212770   4.047   2.592   1.590  0.4343 -0.7549  1.5000
  870MPD2    H312771   3.971   2.632   1.374 -0.1292 -1.6875 -2.0746
  870MPD2     N12772   4.374   2.712   1.197 -0.2762 -0.2828 -0.3265
  870MPD2    H512773   4.473   2.719   1.221 -0.1436  0.9526 -1.2064
  870MPD2    N112774   4.301   2.612   1.673 -0.0016  0.0182  0.3487
  870MPD2    H712775   4.230   2.571   1.733  2.0948 -0.3086  2.5946
  871MPD2     C12776   1.273   1.898  16.309 -0.1791  0.0816  0.3494
  871MPD2    C112777   1.247   1.818  16.423  0.6360  0.5393  0.0380
  871MPD2    C212778   1.263   1.679  16.413 -0.0389 -0.1951  0.2869
  871MPD2    C312779   1.299   1.614  16.294 -0.2185  0.0703 -0.2328
  871MPD2    C412780   1.310   1.700  16.182  1.0116 -0.6638 -0.5538
  871MPD2    C512781   1.292   1.835  16.189 -0.1412 -1.0953  0.0501
  871MPD2     H12782   1.247   1.618  16.502  0.0629 -1.3713 -0.5076
  871MPD2    H112783   1.324   1.664  16.081  1.7429  0.4750 -0.8607
  871MPD2    H212784   1.261   2.006  16.313  1.2282  0.2879 -0.9056
  871MPD2    H312785   1.303   1.891  16.097 -1.6313 -0.0988  0.4822
  871MPD2     N12786   1.323   1.475  16.299  0.3589 -1.0341  0.0004
  871MPD2    H512787   1.325   1.422  16.385 -0.0801  0.2532  0.7963
  871MPD2    N112788   1.216   1.896  16.539 -0.0305 -0.0581 -0.6585
  871MPD2    H712789   1.237   1.995  16.538  0.7382 -0.2262 -1.4277
  872MPD2     C12790   2.501   4.097  14.280 -0.0446 -0.1895  0.5379
  872MPD2    C112791   2.399   4.124  14.190  0.2484  0.4119  0.6396
  872MPD2    C212792   2.272   4.095  14.216 -0.2720  0.5325 -0.3292
  872MPD2    C312793   2.247   4.027  14.336 -0.0258  0.0887  0.0416
  872MPD2    C412794   2.347   3.981  14.416 -0.4541  0.2406 -0.1640
  872MPD2    C512795   2.479   4.011  14.386  0.2117  0.8320  0.0066
  872MPD2     H12796   2.192   4.130  14.152 -1.6737 -1.6883  0.2091
  872MPD2    H112797   2.334   3.916  14.502  2.8145 -0.5166 -0.2309
  872MPD2    H212798   2.602   4.130  14.257 -0.4293  0.3655 -0.3600
  872MPD2    H312799   2.558   3.975  14.450 -0.1281 -0.5177 -0.3274
  872MPD2     N12800   2.121   3.997  14.383  0.0243 -0.5819 -0.3025
  872MPD2    H512801   2.109   3.950  14.472 -1.5825  1.9401  0.8104
  872MPD2    N112802   2.440   4.197  14.075 -1.1136  0.3773 -0.4400
  872MPD2    H712803   2.530   4.242  14.077 -1.1971  0.5127  0.2530
  873MPD2     C12804   3.139   4.335   0.579  0.6619  0.9322 -0.4912
  873MPD2    C112805   3.231   4.395   0.659  0.6720 -1.0320 -0.2214
  873MPD2    C212806   3.360   4.392   0.611 -0.0739 -0.7628 -0.2981
  873MPD2    C312807   3.399   4.334   0.492 -0.2853 -0.1063  0.5709
  873MPD2    C412808   3.298   4.285   0.410  0.1991 -0.0212 -0.0319
  873MPD2    C512809   3.167   4.293   0.452 -0.2529 -0.0015 -0.4964
  873MPD2     H12810   3.440   4.435   0.670  0.8925 -1.1110 -1.3631
  873MPD2    H112811   3.310   4.237   0.313 -1.0918 -0.8038  0.2017
  873MPD2    H212812   3.034   4.345   0.603  0.3248 -1.4241 -0.9993
  873MPD2    H312813   3.092   4.252   0.386 -0.3431 -0.6280 -0.0126
  873MPD2     N12814   3.534   4.322   0.451  0.9538  0.3040 -0.2563
  873MPD2    H512815   3.554   4.289   0.357  1.7426 -2.0793  0.7543
  873MPD2    N112816   3.189   4.457   0.781  0.0022 -0.4235 -0.8058
  873MPD2    H712817   3.092   4.449   0.811  0.0941  0.0897 -0.3688
  874MPD2     C12818   3.346   4.088  16.318  0.7920 -0.0876 -0.2769
  874MPD2    C112819   3.456   4.040  16.381  1.2358 -0.5072  0.0707
  874MPD2    C212820   3.581   4.070  16.330 -0.1000  0.3062 -0.0493
  874MPD2    C312821   3.591   4.164  16.230 -0.2690 -0.5065 -0.0235
  874MPD2    C412822   3.477   4.228  16.188  0.1893  0.5338 -0.0744
  874MPD2    C512823   3.363   4.177  16.221  0.4939  0.3880  0.4046
  874MPD2     H12824   3.669   4.025  16.374  0.9359 -0.1185 -2.5402
  874MPD2    H112825   3.492   4.304  16.112 -0.5998 -0.1029 -0.8624
  874MPD2    H212826   3.247   4.057  16.352  0.4539 -0.6002 -1.7196
  874MPD2    H312827   3.279   4.225  16.171  2.0425  1.0521 -1.5326
  874MPD2     N12828   3.719   4.212  16.195  0.5286 -0.1642 -0.4774
  874MPD2    H512829   3.731   4.310  16.171  1.2994 -0.3955 -1.0246
  874MPD2    N112830   3.445   3.968  16.503  0.6682 -0.5525 -0.3226
  874MPD2    H712831   3.350   3.948  16.532  0.7330  0.9433  0.9571
  875MPD2     C12832   0.179   2.402  14.876  0.9284  0.0166 -0.2695
  875MPD2    C112833   0.073   2.484  14.895 -0.2483  0.6343  0.1928
  875MPD2    C212834   0.084   2.594  14.974  0.0325  0.3392  0.6590
  875MPD2    C312835   0.210   2.633  15.030  0.0612 -0.4336 -0.1591
  875MPD2    C412836   0.322   2.553  15.005  0.1737 -0.1816 -0.1670
  875MPD2    C512837   0.299   2.449  14.927  0.5915  0.2875 -0.3307
  875MPD2     H12838   4.724   2.658  14.996  0.4429  1.2247 -0.3630
  875MPD2    H112839   0.416   2.568  15.058  1.5087 -0.2618 -2.5116
  875MPD2    H212840   0.179   2.319  14.806  0.3161 -0.8586  0.7514
  875MPD2    H312841   0.382   2.379  14.918  0.2291 -0.3079  1.0740
  875MPD2     N12842   0.222   2.748  15.111 -0.4609 -0.8227 -0.7348
  875MPD2    H512843   0.311   2.774  15.153 -0.0874 -0.7212 -1.5977
  875MPD2    N112844   4.678   2.461  14.826  0.3451 -0.0935  0.8333
  875MPD2    H712845   4.599   2.520  14.849  0.7903  0.5583  0.6730
  876MPD2     C12846   3.196   3.945  16.058 -0.3469 -0.2744  0.5612
  876MPD2    C112847   3.319   3.927  16.017  0.3495 -0.2307  0.1031
  876MPD2    C212848   3.385   3.819  16.059 -0.4146  0.0883 -0.8625
  876MPD2    C312849   3.325   3.724  16.140 -0.1459 -0.9076  0.3772
  876MPD2    C412850   3.186   3.726  16.167 -0.1690 -0.2330 -0.1246
  876MPD2    C512851   3.127   3.843  16.131  0.4634 -0.0521 -0.0490
  876MPD2     H12852   3.487   3.791  16.036 -1.1895 -2.8113 -0.8166
  876MPD2    H112853   3.135   3.647  16.219 -0.0082 -0.3276 -0.1102
  876MPD2    H212854   3.139   4.034  16.035  0.1498 -0.5671 -1.8884
  876MPD2    H312855   3.023   3.858  16.158  0.1503  0.5311 -1.5449
  876MPD2     N12856   3.398   3.612  16.180  0.1791 -0.7840 -1.0493
  876MPD2    H512857   3.487   3.601  16.133  0.1293  0.5647 -1.4487
  876MPD2    N112858   3.374   4.017  15.927 -0.8809  0.6055 -0.0325
  876MPD2    H712859   3.320   4.102  15.912  0.9824  1.7384 -0.4182
  877MPD2     C12860   3.397   4.311  15.183 -0.0510  0.3732  0.5542
  877MPD2    C112861   3.523   4.312  15.230  0.5231  0.1173  0.1380
  877MPD2    C212862   3.625   4.339  15.146 -0.7496 -0.2377 -0.5994
  877MPD2    C312863   3.604   4.362  15.006 -0.3790  0.3933 -0.0493
  877MPD2    C412864   3.473   4.355  14.957 -0.6394  0.5796 -0.0366
  877MPD2    C512865   3.375   4.338  15.051  0.3608 -0.9760 -0.2425
  877MPD2     H12866   3.728   4.344  15.181  0.2143 -0.2660 -3.4798
  877MPD2    H112867   3.436   4.375  14.857  0.4689 -0.1721 -0.5966
  877MPD2    H212868   3.309   4.299  15.245 -0.8656 -0.2125 -0.6963
  877MPD2    H312869   3.273   4.339  15.013 -0.3408  0.0542  1.6433
  877MPD2     N12870   3.701   4.396  14.911 -0.2410 -0.4102  0.4881
  877MPD2    H512871   3.677   4.393  14.812 -2.8699  1.4971  1.0380
  877MPD2    N112872   3.555   4.289  15.366 -0.7106 -0.5251  0.2448
  877MPD2    H712873   3.650   4.316  15.393 -1.4803  0.4691  2.0012
  878MPD2     C12874   3.032   3.317  13.523 -0.1800 -0.4683 -0.3563
  878MPD2    C112875   3.064   3.414  13.436 -0.2712  0.4005  0.2313
  878MPD2    C212876   3.089   3.535  13.494 -0.1837 -0.5692  0.7275
  878MPD2    C312877   3.060   3.561  13.625 -0.6478 -0.0294 -0.1118
  878MPD2    C412878   3.018   3.465  13.710 -0.0043  0.1906 -0.4895
  878MPD2    C512879   3.012   3.338  13.658 -0.6409  0.1000 -0.5413
  878MPD2     H12880   3.097   3.620  13.427 -0.2206 -0.8037  0.4253
  878MPD2    H112881   3.005   3.486  13.815  1.6511 -1.6812  0.0831
  878MPD2    H212882   3.017   3.219  13.480 -0.8695 -0.1658 -0.8150
  878MPD2    H312883   2.977   3.259  13.723  3.5005 -1.9013 -0.7512
  878MPD2     N12884   3.081   3.699  13.662 -0.2870 -0.0765  0.7827
  878MPD2    H512885   3.118   3.760  13.590  0.0845  0.7242  1.6398
  878MPD2    N112886   3.067   3.384  13.299 -0.2305  0.4597  0.1446
  878MPD2    H712887   3.043   3.291  13.266  0.2291  0.5989 -0.5864
  879MPD2     C12888   3.839   0.344  17.054 -0.4125  0.1045 -0.0531
  879MPD2    C112889   3.823   0.229  17.135  0.4120 -0.0694 -0.1902
  879MPD2    C212890   3.740   0.121  17.094 -0.4041 -0.7430  0.3435
  879MPD2    C312891   3.684   0.120  16.969 -0.4952  0.0695 -0.0163
  879MPD2    C412892   3.700   0.232  16.893  0.3534 -0.0957  0.6820
  879MPD2    C512893   3.782   0.330  16.925  0.1077  0.0968  0.0061
  879MPD2     H12894   3.729   0.039  17.164  0.1291 -0.7257  0.4504
  879MPD2    H112895   3.662   0.230  16.792 -0.1901  0.9073  0.8752
  879MPD2    H212896   3.890   0.435  17.080  0.2637 -0.5054  0.7263
  879MPD2    H312897   3.799   0.405  16.849 -1.6218 -0.7208 -1.1774
  879MPD2     N12898   3.615   0.017  16.910 -0.9154 -0.3069 -0.6437
  879MPD2    H512899   3.586   0.041  16.816 -2.6226 -2.8012 -0.7369
  879MPD2    N112900   3.917   0.224  17.246  0.3091 -0.5688 -0.1682
  879MPD2    H712901   3.986   0.295  17.267 -1.2358  0.8249  0.1809
  880MPD2     C12902   4.694   1.858   1.045 -0.8062 -0.2711 -0.0995
  880MPD2    C112903   0.077   1.791   1.001  0.6261  0.4011  0.2506
  880MPD2    C212904   0.101   1.657   1.035  0.3636 -0.2515  1.0011
  880MPD2    C312905   0.012   1.599   1.121  0.4723  0.5299  0.3732
  880MPD2    C412906   4.629   1.666   1.175  0.6714  0.3613 -0.0352
  880MPD2    C512907   4.610   1.798   1.137 -0.4141 -0.7585  0.6526
  880MPD2     H12908   0.187   1.604   0.997  0.7185  0.5351  0.7158
  880MPD2    H112909   4.572   1.629   1.260  1.2196 -0.6727 -0.1205
  880MPD2    H212910   4.685   1.965   1.035 -0.0865 -0.2067 -0.0854
  880MPD2    H312911   4.526   1.848   1.184 -1.2297 -2.1535  0.7100
  880MPD2     N12912   0.023   1.462   1.163 -0.2223 -0.4494 -0.3586
  880MPD2    H512913   0.113   1.423   1.137  0.6479  0.9575  0.5392
  880MPD2    N112914   0.162   1.864   0.909  0.6050  0.2719 -0.1707
  880MPD2    H712915   0.123   1.955   0.885  0.5018  0.0719 -0.7721
  881MPD2     C12916   0.451   1.809  17.631 -0.2808 -0.5538  0.3016
  881MPD2    C112917   0.496   1.928  17.681  0.8847  0.1319  0.3443
  881MPD2    C212918   0.467   1.961   0.115 -0.6733  0.0032 -0.4589
  881MPD2    C312919   0.436   1.857   0.207  0.2684  0.9989  0.0759
  881MPD2    C412920   0.414   1.732   0.157  0.0526  0.9800 -0.4357
  881MPD2    C512921   0.420   1.712   0.023 -0.1347 -0.3213  0.1073
  881MPD2     H12922   0.493   2.062   0.144  0.1641 -0.7263  1.3072
  881MPD2    H112923   0.395   1.649   0.225 -1.3763  1.5008 -0.2073
  881MPD2    H212924   0.471   1.782  17.527 -3.7771 -0.7371 -0.3064
  881MPD2    H312925   0.402   1.610  17.692  1.4473 -0.6555  0.2869
  881MPD2     N12926   0.425   1.883   0.353  0.6618 -0.5064  0.6144
  881MPD2    H512927   0.400   1.796   0.400  1.4402 -1.0859 -0.0528
  881MPD2    N112928   0.542   2.012  17.575  0.2597 -0.5177  0.1001
  881MPD2    H712929   0.541   1.967  17.484 -0.3086 -1.4921  0.5827
  882MPD2     C12930   3.785   4.159  14.197 -0.7229 -1.1073 -0.1345
  882MPD2    C112931   3.749   4.253  14.290 -0.2469 -0.0993 -0.0609
  882MPD2    C212932   3.634   4.334  14.277  0.0077  0.8965  0.0220
  882MPD2    C312933   3.565   4.336  14.155  0.4677 -0.5771 -0.0657
  882MPD2    C412934   3.600   4.239  14.063 -0.6804  0.1284 -0.1611
  882MPD2    C512935   3.700   4.145  14.089  0.4817  0.8040  0.6182
  882MPD2     H12936   3.601   4.405  14.352  1.0942 -0.0135  1.3334
  882MPD2    H112937   3.549   4.239  13.968 -0.7955  0.3596 -0.0979
  882MPD2    H212938   3.870   4.093  14.213  0.5999  0.2108 -1.7729
  882MPD2    H312939   3.714   4.068  14.013 -0.4657 -2.0376  3.3345
  882MPD2     N12940   3.453   4.420  14.118 -0.0278 -0.0052  0.2916
  882MPD2    H512941   3.401   4.405  14.032  1.7521  0.8004 -0.9366
  882MPD2    N112942   3.835   4.264  14.403  0.5742  0.2702  0.2070
  882MPD2    H712943   3.895   4.184  14.420  0.0911 -0.2817 -0.6680
  883MPD2     C12944   0.549   4.363  16.210  0.5243  0.9665  0.3066
  883MPD2    C112945   0.603   4.258  16.130 -0.3211 -0.0672 -0.0591
  883MPD2    C212946   0.735   4.227  16.143 -0.5085  0.7811 -0.4506
  883MPD2    C312947   0.821   4.293  16.230  0.4554 -0.1709 -0.3453
  883MPD2    C412948   0.773   4.405  16.297  0.1128 -0.1672 -0.1418
  883MPD2    C512949   0.641   4.437  16.284 -0.3135  0.4776  0.1583
  883MPD2     H12950   0.786   4.149  16.087 -0.3507  0.4927  0.0968
  883MPD2    H112951   0.833   4.466  16.363  2.6239  1.0533 -3.5332
  883MPD2    H212952   0.447   4.400  16.206  0.4035  0.4774 -1.1336
  883MPD2    H312953   0.609   4.522  16.343  0.0431  1.1610 -0.6430
  883MPD2     N12954   0.955   4.240  16.248 -0.0651 -0.1155  0.2421
  883MPD2    H512955   0.987   4.178  16.175 -1.4474  0.3967 -0.8154
  883MPD2    N112956   0.528   4.190  16.029 -0.5463  0.5274  0.1720
  883MPD2    H712957   0.578   4.113  15.986 -0.2925  1.6532 -1.5472
  884MPD2     C12958   2.919   0.054  15.292  0.0927  0.4387  0.2381
  884MPD2    C112959   2.868   0.109  15.180 -0.2088  1.0210 -0.8638
  884MPD2    C212960   2.729   0.131  15.169 -0.5300  0.3173 -0.3127
  884MPD2    C312961   2.649   0.108  15.281 -1.1361  0.1339  0.6004
  884MPD2    C412962   2.704   0.050  15.392 -0.1883  0.4249  0.2285
  884MPD2    C512963   2.834   0.018  15.392  0.0751 -0.2358  0.4477
  884MPD2     H12964   2.686   0.165  15.076 -1.6172 -0.8951 -0.2521
  884MPD2    H112965   2.648   0.034  15.484  0.2309  1.2703  0.6332
  884MPD2    H212966   3.022   0.025  15.309 -0.3105 -0.6560  0.7761
  884MPD2    H312967   2.857   4.692  15.485  0.1671  3.1927  2.2779
  884MPD2     N12968   2.510   0.139  15.278  1.2159 -0.3231  0.0738
  884MPD2    H512969   2.469   0.192  15.202 -2.0095 -0.4961  1.6936
  884MPD2    N112970   2.944   0.185  15.087  0.0193  0.1320  0.2924
  884MPD2    H712971   2.899   0.241  15.015  0.5556 -0.6410 -0.6593
  885MPD2     C12972   0.772   0.288   0.313 -0.2119 -0.4621 -0.2291
  885MPD2    C112973   0.844   0.402   0.316 -0.5403 -0.3474 -0.0621
  885MPD2    C212974   0.913   0.437   0.198  0.0024 -0.1803 -0.1852
  885MPD2    C312975   0.924   0.350   0.095  0.7453  0.6697 -0.3962
  885MPD2    C412976   0.854   0.233   0.096  0.1619  0.1550 -0.2460
  885MPD2    C512977   0.773   0.206   0.201 -0.6427  0.0819 -0.2598
  885MPD2     H12978   0.973   0.527   0.189 -3.5283  2.1783 -0.1629
  885MPD2    H112979   0.848   0.163   0.014  0.2084 -2.8939  2.3422
  885MPD2    H212980   0.715   0.260   0.401  1.2316 -2.5514  0.0246
  885MPD2    H312981   0.720   0.111   0.199 -0.6524  0.1489 -3.2401
  885MPD2     N12982   0.993   0.398  17.681  0.3893  0.0636 -0.5020
  885MPD2    H512983   1.041   0.487  17.682 -0.4095  0.5316 -3.8315
  885MPD2    N112984   0.828   0.480   0.430  0.2361  0.0759  0.1383
  885MPD2    H712985   0.787   0.433   0.509 -2.8060  1.0174 -0.8594
  886MPD2     C12986   2.073   3.469  15.224  0.4938  0.2833  0.2023
  886MPD2    C112987   2.178   3.527  15.288 -0.4858 -0.6627 -0.0517
  886MPD2    C212988   2.239   3.636  15.239 -0.2064  0.0168 -0.1254
  886MPD2    C312989   2.200   3.691  15.115 -0.1385 -0.3734 -0.0900
  886MPD2    C412990   2.084   3.641  15.062  0.3667  0.0419 -0.1001
  886MPD2    C512991   2.020   3.533  15.118 -0.1697 -0.3562  0.0594
  886MPD2     H12992   2.329   3.659  15.294 -0.5127  0.0774  0.3536
  886MPD2    H112993   2.040   3.678  14.970 -0.6558  1.0487  0.7891
  886MPD2    H212994   2.025   3.384  15.271  1.6601 -0.5945 -0.2006
  886MPD2    H312995   1.931   3.490  15.075 -0.3760 -1.1325  1.2697
  886MPD2     N12996   2.282   3.783  15.052 -0.0171 -0.4246  0.5092
  886MPD2    H512997   2.249   3.815  14.961 -1.4751 -0.6398  0.9726
  886MPD2    N112998   2.238   3.457  15.402  0.3732 -0.5500 -0.2254
  886MPD2    H712999   2.334   3.485  15.419  0.2470 -0.5174  0.4377
  887MPD2     C13000   2.885   3.498  15.535  0.4970  0.5965 -0.6191
  887MPD2    C113001   2.754   3.545  15.520 -0.0739  0.1549 -1.2288
  887MPD2    C213002   2.726   3.658  15.447 -0.4197  0.4996 -0.2456
  887MPD2    C313003   2.833   3.734  15.411  1.4160  0.0660 -0.0457
  887MPD2    C413004   2.959   3.693  15.436  0.1144 -0.3504 -0.4355
  887MPD2    C513005   2.989   3.573  15.489  0.2854  0.4008 -0.6292
  887MPD2     H13006   2.624   3.694  15.445 -0.5505  0.2606  1.5691
  887MPD2    H113007   3.047   3.751  15.411  0.5755 -0.4914  0.8674
  887MPD2    H213008   2.905   3.419  15.606 -0.8871 -0.8560 -1.8495
  887MPD2    H313009   3.085   3.540  15.525 -0.5506 -1.4045 -0.0848
  887MPD2     N13010   2.787   3.857  15.366 -0.0410 -0.2772 -0.4528
  887MPD2    H513011   2.686   3.867  15.365 -0.0804 -0.8535 -1.7516
  887MPD2    N113012   2.643   3.481  15.578  0.2354 -0.5041 -0.3774
  887MPD2    H713013   2.550   3.511  15.551 -0.6158 -1.5651  1.3748
  888MPD2     C13014   0.146   3.512  15.145 -0.1871 -0.1864  1.1456
  888MPD2    C113015   0.064   3.616  15.184 -0.1192  0.2840 -0.0340
  888MPD2    C213016   0.118   3.744  15.192  1.5155 -0.4833  0.1284
  888MPD2    C313017   0.251   3.771  15.154  0.8132 -0.1219 -0.4289
  888MPD2    C413018   0.324   3.669  15.100 -0.8588  0.3256 -0.3007
  888MPD2    C513019   0.268   3.543  15.101 -1.1508  0.6740 -0.3540
  888MPD2     H13020   0.048   3.817  15.232 -0.9239 -1.8693 -1.5903
  888MPD2    H113021   0.428   3.679  15.074 -1.0006  1.1101 -0.5526
  888MPD2    H213022   0.111   3.414  15.116  1.2614 -0.5590  0.6467
  888MPD2    H313023   0.324   3.465  15.051 -1.4521  1.1240 -1.4138
  888MPD2     N13024   0.293   3.906  15.167 -0.0859  0.0878 -0.3416
  888MPD2    H513025   0.223   3.977  15.187 -0.9533 -0.2763 -2.1062
  888MPD2    N113026   4.652   3.602  15.224 -0.1430  0.4985 -0.1581
  888MPD2    H713027   4.598   3.679  15.263 -1.2883 -0.0758 -0.5809
  889MPD2     C13028   4.332   2.979  13.738 -0.1596  0.7881 -0.3185
  889MPD2    C113029   4.244   2.989  13.636 -0.0820  0.0278 -0.1935
  889MPD2    C213030   4.257   3.093  13.548 -0.5293  0.1498 -0.3595
  889MPD2    C313031   4.328   3.208  13.576  0.4080 -0.0113 -0.0639
  889MPD2    C413032   4.418   3.199  13.684 -0.5460 -0.2661 -0.2326
  889MPD2    C513033   4.421   3.083  13.760 -0.1675 -0.4714  0.2055
  889MPD2     H13034   4.197   3.083  13.458 -0.4964  3.8151 -0.7902
  889MPD2    H113035   4.488   3.280  13.704 -1.2005 -0.0800  1.3091
  889MPD2    H213036   4.329   2.900  13.812  1.7716  1.2702  0.2812
  889MPD2    H313037   4.496   3.094  13.838  0.2265 -1.4480 -0.0369
  889MPD2     N13038   4.324   3.332  13.504 -0.1580  0.1095 -0.1781
  889MPD2    H513039   4.391   3.403  13.531 -1.0166  0.5457  0.7904
  889MPD2    N113040   4.186   2.868  13.596 -0.0477 -0.2223 -0.1949
  889MPD2    H713041   4.217   2.785  13.645 -1.4460 -2.0858 -2.5178
  890MPD2     C13042   3.824   0.257  14.621 -0.0227  0.2842 -0.1236
  890MPD2    C113043   3.882   0.332  14.721  0.8072 -0.1207  0.0664
  890MPD2    C213044   3.875   0.267  14.848  0.4223 -0.4229  0.3798
  890MPD2    C313045   3.815   0.144  14.866  0.6090  0.1176  0.5209
  890MPD2    C413046   3.774   0.062  14.760  0.2592  0.0823  0.3239
  890MPD2    C513047   3.781   0.129  14.635  0.2534 -0.0652  0.6050
  890MPD2     H13048   3.910   0.320  14.936 -0.7905  1.3899 -0.2382
  890MPD2    H113049   3.725   4.691  14.776 -0.1894  0.1046 -0.9344
  890MPD2    H213050   3.833   0.294  14.519 -0.9480  1.6513  0.2898
  890MPD2    H313051   3.732   0.081  14.551  2.6023 -1.7900  0.2179
  890MPD2     N13052   3.808   0.095  14.997  0.1585  0.3676  0.5752
  890MPD2    H513053   3.870   0.134  15.066  2.7800 -1.4217 -0.7652
  890MPD2    N113054   3.924   0.465  14.694  0.3066  0.2491  0.5203
  890MPD2    H713055   3.926   0.495  14.597  1.5760 -1.5640  0.0086
  891MPD2     C13056   1.847   3.494  16.769 -0.4963  0.9134 -0.5368
  891MPD2    C113057   1.758   3.481  16.868  0.2472  0.6043  0.2811
  891MPD2    C213058   1.790   3.429  16.989 -0.4001 -0.0103 -0.3890
  891MPD2    C313059   1.920   3.401  17.018 -0.2331  0.3905  0.8619
  891MPD2    C413060   2.022   3.419  16.918  0.5240  0.0684 -0.1306
  891MPD2    C513061   1.985   3.467  16.791 -0.2534 -0.2397 -0.5472
  891MPD2     H13062   1.718   3.421  17.069 -2.1389 -0.3282 -1.9887
  891MPD2    H113063   2.130   3.406  16.927  0.6042  0.9582  0.2157
  891MPD2    H213064   1.819   3.529  16.671  0.2593  1.1746 -0.6621
  891MPD2    H313065   2.050   3.478  16.705 -1.0756 -0.1517 -1.1587
  891MPD2     N13066   1.956   3.347  17.143  0.3047 -0.0545 -0.0581
  891MPD2    H513067   1.880   3.343  17.211 -1.8252  1.2143 -2.3601
  891MPD2    N113068   1.626   3.527  16.841 -0.0027  0.7975 -0.3927
  891MPD2    H713069   1.625   3.569  16.749 -1.6041  2.1563  0.2547
  892MPD2     C13070   2.815   4.601  14.821  0.0989 -0.6317  0.0632
  892MPD2    C113071   2.732   4.608  14.712 -0.5614  0.0797  0.1539
  892MPD2    C213072   2.784   4.605  14.588  0.6311 -0.5412  0.3376
  892MPD2    C313073   2.919   4.595  14.563  0.6256 -0.2919  0.1000
  892MPD2    C413074   3.003   4.595  14.672 -0.2606  0.5377 -0.5478
  892MPD2    C513075   2.953   4.606  14.796 -0.6656  0.0736 -0.5319
  892MPD2     H13076   2.713   4.590  14.508 -0.1967  0.9147  0.7785
  892MPD2    H113077   3.109   4.608  14.657  0.0994 -0.1250  1.4326
  892MPD2    H213078   2.783   4.610  14.924 -1.4536 -1.8038 -0.3183
  892MPD2    H313079   3.016   4.647  14.875  0.2750  0.7522 -1.6333
  892MPD2     N13080   2.975   4.579  14.436  0.5377 -0.0811  0.0915
  892MPD2    H513081   3.076   4.567  14.439  0.3047 -2.4634 -1.0458
  892MPD2    N113082   2.595   4.609  14.722 -0.0971 -0.3012  0.1004
  892MPD2    H713083   2.536   4.637  14.644  2.1716  2.0281 -0.7841
  893MPD2     C13084   3.609   3.073   1.900 -0.6836 -1.2233 -0.1913
  893MPD2    C113085   3.657   2.982   1.815 -0.1207  0.5509  1.0631
  893MPD2    C213086   3.573   2.897   1.743 -0.6497  0.0000  0.9911
  893MPD2    C313087   3.438   2.925   1.752  0.1973 -0.1830  0.4813
  893MPD2    C413088   3.394   3.023   1.829 -0.1233 -0.3416  0.0681
  893MPD2    C513089   3.475   3.100   1.911  0.3425 -0.5858  0.0548
  893MPD2     H13090   3.607   2.823   1.671 -3.0495  1.4412 -1.5821
  893MPD2    H113091   3.288   3.045   1.831 -0.3815 -1.3911 -3.0466
  893MPD2    H213092   3.689   3.129   1.949 -0.8079 -0.6964 -0.5944
  893MPD2    H313093   3.445   3.179   1.979  0.4039 -0.0056 -0.5910
  893MPD2     N13094   3.339   2.847   1.679  0.2532  0.3018  0.6213
  893MPD2    H513095   3.242   2.866   1.703 -0.1294 -2.4572  1.1866
  893MPD2    N113096   3.798   2.984   1.792  0.6511 -0.0118  0.2785
  893MPD2    H713097   3.851   3.051   1.846  0.5321  0.3132 -0.0091
  894MPD2     C13098   2.041   1.022   1.001  0.0028 -0.3795  0.8082
  894MPD2    C113099   2.150   1.043   1.086 -0.1512  0.1160  0.0484
  894MPD2    C213100   2.232   1.151   1.066 -0.6919 -0.0524 -0.3860
  894MPD2    C313101   2.204   1.244   0.969 -0.5263  0.6359 -0.8010
  894MPD2    C413102   2.099   1.222   0.878  0.6092  0.1973  0.2919
  894MPD2    C513103   2.020   1.114   0.898  0.1393  0.8912 -0.2737
  894MPD2     H13104   2.310   1.163   1.140  0.7628 -0.4079 -1.8656
  894MPD2    H113105   2.066   1.295   0.804  2.6557  0.9152  0.0848
  894MPD2    H213106   1.983   0.931   1.010 -0.7192  0.0257  0.2439
  894MPD2    H313107   1.931   1.097   0.838 -0.2573 -0.6859  0.7462
  894MPD2     N13108   2.268   1.362   0.986  0.6216  0.0985 -0.2980
  894MPD2    H513109   2.335   1.362   1.061 -1.9564  3.5745  2.0281
  894MPD2    N113110   2.185   0.954   1.188  0.1168 -0.5282  0.2485
  894MPD2    H713111   2.252   0.990   1.256  0.4820 -1.0010  0.1422
  895MPD2     C13112   1.518   3.995  12.720 -0.1130 -0.2904  0.2474
  895MPD2    C113113   1.421   3.924  12.776 -0.3412  0.0548 -0.4015
  895MPD2    C213114   1.430   3.790  12.785 -0.1736  0.0869 -0.8322
  895MPD2    C313115   1.548   3.724  12.751  0.1475 -0.6495  0.1552
  895MPD2    C413116   1.653   3.797  12.701 -0.3089 -0.7070 -0.3106
  895MPD2    C513117   1.634   3.932  12.681  1.1755 -1.0446  0.4091
  895MPD2     H13118   1.357   3.732  12.840 -0.1149 -0.3683 -1.2455
  895MPD2    H113119   1.752   3.757  12.683 -0.0527 -0.5105  0.6802
  895MPD2    H213120   1.517   4.103  12.708 -0.7758 -0.5234 -1.7070
  895MPD2    H313121   1.716   3.991  12.643  0.6564 -0.4611  0.1973
  895MPD2     N13122   1.545   3.583  12.760 -0.6880 -0.1868  0.3545
  895MPD2    H513123   1.451   3.548  12.776 -0.4396 -1.2017 -0.4198
  895MPD2    N113124   1.293   3.973  12.791 -0.1261 -0.4873 -0.3706
  895MPD2    H713125   1.225   3.906  12.828 -1.1012 -0.3779 -1.9765
  896MPD2     C13126   3.799   1.394   1.313  0.4218 -0.1542 -0.2382
  896MPD2    C113127   3.710   1.497   1.316  0.2491  0.1497 -0.7809
  896MPD2    C213128   3.582   1.482   1.359 -0.2438 -0.0455  0.1262
  896MPD2    C313129   3.531   1.351   1.396  0.2012  0.5223  0.6115
  896MPD2    C413130   3.620   1.246   1.384 -0.1383 -0.3027  0.8463
  896MPD2    C513131   3.751   1.269   1.342  0.0169 -0.0795  1.0652
  896MPD2     H13132   3.510   1.561   1.376 -0.2107 -0.3706  1.7570
  896MPD2    H113133   3.579   1.146   1.395  1.8584 -1.3285 -1.1158
  896MPD2    H213134   3.895   1.409   1.265  1.4734 -1.1442  1.5426
  896MPD2    H313135   3.804   1.181   1.311  1.1255  1.1468 -0.5119
  896MPD2     N13136   3.391   1.341   1.428 -0.2156 -0.1822  0.0407
  896MPD2    H513137   3.352   1.435   1.428 -1.6060 -0.7475 -1.9758
  896MPD2    N113138   3.764   1.629   1.290  0.2154 -0.0996 -0.3859
  896MPD2    H713139   3.864   1.633   1.271  0.2693 -1.3966 -0.4217
  897MPD2     C13140   0.495   2.332  10.409  0.0304  0.2461  0.2629
  897MPD2    C113141   0.462   2.462  10.376  0.1329  0.7969 -0.0206
  897MPD2    C213142   0.329   2.496  10.387  0.0236  0.2122  0.0662
  897MPD2    C313143   0.233   2.414  10.434 -0.8802 -0.2373  0.1693
  897MPD2    C413144   0.272   2.289  10.477 -0.2039 -0.5622  0.2863
  897MPD2    C513145   0.401   2.245  10.456 -1.1222  0.2600  0.2361
  897MPD2     H13146   0.301   2.587  10.335  3.6705  0.3513 -1.6518
  897MPD2    H113147   0.214   2.226  10.543  0.1786 -1.4065 -0.1871
  897MPD2    H213148   0.595   2.295  10.389  0.5128  1.2934  0.7460
  897MPD2    H313149   0.431   2.144  10.481  1.0332  0.5165 -1.4227
  897MPD2     N13150   0.103   2.458  10.462 -0.1916 -0.0219  0.3760
  897MPD2    H513151   0.039   2.403  10.517  2.5706 -1.5053  2.1193
  897MPD2    N113152   0.556   2.547  10.312  0.2417  0.5028 -0.5584
  897MPD2    H713153   0.641   2.506  10.275  0.2506  0.2707 -0.2791
  898MPD2     C13154   1.572   0.037  17.568  0.6249 -0.2955 -0.2955
  898MPD2    C113155   1.682   0.070  17.488 -0.2374 -0.7617 -0.3115
  898MPD2    C213156   1.690   0.193  17.427 -0.1157 -0.8719 -0.0679
  898MPD2    C313157   1.593   0.286  17.451 -0.0963 -0.0030  0.4058
  898MPD2    C413158   1.488   0.261  17.532  0.1678  0.3192 -0.5583
  898MPD2    C513159   1.472   0.137  17.581 -0.0933  0.1222 -0.0294
  898MPD2     H13160   1.776   0.217  17.366  0.5041 -0.8780  0.8033
  898MPD2    H113161   1.416   0.339  17.558  1.8975  1.4069  0.9922
  898MPD2    H213162   1.554   4.661  17.606  1.5843  0.0488  1.0863
  898MPD2    H313163   1.383   0.115  17.639  2.9928 -1.1036  4.2196
  898MPD2     N13164   1.604   0.405  17.374 -0.4831  0.1163  0.0147
  898MPD2    H513165   1.678   0.389  17.307 -0.3845 -0.5634  0.2913
  898MPD2    N113166   1.775   4.696  17.447 -0.0961 -0.1842  0.0825
  898MPD2    H713167   1.837   0.006  17.375  0.8947  1.7333  1.8473
  899MPD2     C13168   2.965   4.566  17.326  0.3378 -0.3650  0.7276
  899MPD2    C113169   3.029   4.656  17.416 -0.5841  0.3072 -0.3225
  899MPD2    C213170   2.977   4.676  17.544 -0.1462  0.7011 -0.2874
  899MPD2    C313171   2.852   4.626  17.570  0.0624 -1.0902 -0.4359
  899MPD2    C413172   2.794   4.543  17.482 -0.1539 -0.6152  0.1892
  899MPD2    C513173   2.860   4.493  17.374 -0.4508  0.1679  0.3633
  899MPD2     H13174   3.026   0.024  17.608  0.0477 -0.5340  0.9391
  899MPD2    H113175   2.698   4.500  17.507  0.3615 -2.0843 -0.3314
  899MPD2    H213176   3.008   4.556  17.227 -1.4026 -2.4134  0.1850
  899MPD2    H313177   2.815   4.413  17.317  0.8945  0.1683 -0.6879
  899MPD2     N13178   2.766   4.658  17.684 -0.2421 -0.4105  0.1144
  899MPD2    H513179   2.680   4.606  17.700 -0.3661 -0.2736 -0.1274
  899MPD2    N113180   3.146   4.718  17.363  0.4454 -0.2126  0.2428
  899MPD2    H713181   3.168   4.702  17.266 -0.6261  0.8421 -0.1642
  900MPD2     C13182   3.125   1.362  12.751 -0.3772 -0.3037  0.3138
  900MPD2    C113183   3.037   1.269  12.702 -0.7048 -0.2353 -0.3637
  900MPD2    C213184   2.935   1.315  12.624 -0.6296 -0.8320  0.3021
  900MPD2    C313185   2.896   1.455  12.627  0.3859  0.0864 -0.3319
  900MPD2    C413186   2.986   1.541  12.670 -0.3533 -0.4184 -0.3181
  900MPD2    C513187   3.103   1.499  12.730  0.2045  0.5357  0.3551
  900MPD2     H13188   2.880   1.242  12.566 -0.5845  0.8869 -1.8800
  900MPD2    H113189   2.974   1.648  12.658  3.0045  0.0893  0.8062
  900MPD2    H213190   3.216   1.331  12.800 -0.4939 -0.6970  0.2807
  900MPD2    H313191   3.177   1.565  12.775  0.3926  0.2161  0.5188
  900MPD2     N13192   2.780   1.490  12.550  0.1721 -0.2540  0.0960
  900MPD2    H513193   2.745   1.419  12.486 -0.1704  2.7096 -3.0198
  900MPD2    N113194   3.079   1.135  12.710 -0.3337 -0.4743 -0.3574
  900MPD2    H713195   3.178   1.118  12.726 -0.1117  2.2777  1.2071
  901MPD2     C13196   3.148   0.140  13.107  0.8655 -0.2233  0.7200
  901MPD2    C113197   3.185   0.148  12.971  0.5028 -0.0289  0.1045
  901MPD2    C213198   3.186   0.271  12.911  0.8024  0.0276 -0.6142
  901MPD2    C313199   3.151   0.384  12.981 -0.3666  0.2402  0.3677
  901MPD2    C413200   3.120   0.376  13.114 -0.1627  1.0613 -0.1312
  901MPD2    C513201   3.125   0.255  13.177  0.1473 -0.0914  0.2627
  901MPD2     H13202   3.210   0.275  12.806 -1.4012  0.7990 -1.0940
  901MPD2    H113203   3.095   0.470  13.162 -0.9575  0.7664  0.0322
  901MPD2    H213204   3.147   0.047  13.163  1.5281 -0.6091  0.0903
  901MPD2    H313205   3.096   0.249  13.281 -1.5356 -0.2785 -0.2109
  901MPD2     N13206   3.143   0.502  12.905  0.2763  0.0108 -0.0886
  901MPD2    H513207   3.161   0.484  12.807 -0.0988  1.9152 -0.5008
  901MPD2    N113208   3.238   0.045  12.892 -0.1828  1.3646  0.2233
  901MPD2    H713209   3.262   0.059  12.795  1.1652  0.1434  0.3903
  902MPD2     C13210   1.472   3.974  12.288  0.2296  0.1133 -0.4059
  902MPD2    C113211   1.597   3.985  12.342  0.1741 -0.2934  0.0086
  902MPD2    C213212   1.670   3.870  12.372  0.1283 -0.5856  0.4940
  902MPD2    C313213   1.624   3.742  12.340 -0.3755 -0.4970 -0.0727
  902MPD2    C413214   1.493   3.733  12.298  0.3397  0.6148 -0.5617
  902MPD2    C513215   1.423   3.852  12.265 -0.0172  0.0397 -0.6786
  902MPD2     H13216   1.770   3.891  12.408 -1.0014  2.1637  1.9579
  902MPD2    H113217   1.445   3.637  12.279  0.1528  0.7307 -0.6791
  902MPD2    H213218   1.407   4.060  12.275 -0.1501 -0.3242 -1.3636
  902MPD2    H313219   1.323   3.852  12.224 -0.0555  1.6319 -0.5786
  902MPD2     N13220   1.696   3.618  12.374 -0.1146 -0.0150 -0.2365
  902MPD2    H513221   1.655   3.533  12.337  3.4183 -1.8752  0.1770
  902MPD2    N113222   1.645   4.116  12.374  0.1199  0.2252 -0.0214
  902MPD2    H713223   1.567   4.181  12.372 -1.1260 -1.2429 -0.1461
  903MPD2     C13224   1.811   3.388  11.722  0.4808  0.0141  0.6353
  903MPD2    C113225   1.792   3.448  11.842  1.2571  0.0746 -0.1307
  903MPD2    C213226   1.686   3.540  11.860  0.0997 -0.0443 -0.4662
  903MPD2    C313227   1.601   3.565  11.755  0.7881  0.0145  0.0376
  903MPD2    C413228   1.619   3.490  11.639 -0.6416  0.4855 -0.6963
  903MPD2    C513229   1.725   3.414  11.621 -0.2556 -0.1388  0.3158
  903MPD2     H13230   1.677   3.588  11.956  0.0780 -0.9812 -0.0018
  903MPD2    H113231   1.558   3.498  11.550 -3.6028  0.7479  1.3666
  903MPD2    H213232   1.902   3.333  11.701  1.0576  1.8904 -1.7509
  903MPD2    H313233   1.737   3.361  11.527 -1.3404  1.7241 -0.8975
  903MPD2     N13234   1.486   3.651  11.776 -0.1093 -0.5293 -0.0030
  903MPD2    H513235   1.493   3.715  11.855  2.2080  1.2745 -1.6855
  903MPD2    N113236   1.893   3.422  11.936  0.0453  0.1522  0.1206
  903MPD2    H713237   1.943   3.336  11.919 -0.9970 -0.6934  1.3279
  904MPD2     C13238   1.437   3.246  13.886 -0.2850  0.0380  0.1287
  904MPD2    C113239   1.532   3.333  13.844  0.0938 -0.1901  0.4777
  904MPD2    C213240   1.663   3.319  13.878  0.3771  0.6765  0.0747
  904MPD2    C313241   1.701   3.222  13.974  0.5457  0.4882  0.0913
  904MPD2    C413242   1.601   3.126  14.010  0.2306 -0.3317 -0.2077
  904MPD2    C513243   1.472   3.144  13.977 -0.0367  0.3018  1.1993
  904MPD2     H13244   1.740   3.386  13.843  0.0715  0.8946 -0.1712
  904MPD2    H113245   1.628   3.040  14.070 -0.3561 -0.2948  0.1120
  904MPD2    H213246   1.340   3.250  13.838 -0.4965 -1.4806  0.4273
  904MPD2    H313247   1.392   3.071  13.986 -0.7523  0.7288 -1.5897
  904MPD2     N13248   1.828   3.221  14.031 -0.1242 -0.5266  0.1918
  904MPD2    H513249   1.896   3.286  13.994 -1.8540  0.3721 -1.4654
  904MPD2    N113250   1.508   3.433  13.743 -0.0427 -0.2552 -0.5560
  904MPD2    H713251   1.584   3.497  13.721 -0.2899 -0.3357 -1.6615
  905MPD2     C13252   1.013   3.381  13.255 -0.6236  0.0608  0.1027
  905MPD2    C113253   1.108   3.458  13.201  0.7404 -0.3167  0.0275
  905MPD2    C213254   1.156   3.424  13.074  0.3381 -0.4038 -0.5738
  905MPD2    C313255   1.123   3.309  13.013  0.5476 -0.4820 -1.1288
  905MPD2    C413256   1.033   3.222  13.066 -0.5258  0.1597 -0.0052
  905MPD2    C513257   0.975   3.270  13.182 -0.2152  0.3460 -0.0902
  905MPD2     H13258   1.237   3.485  13.034  1.2386 -1.1202  0.1390
  905MPD2    H113259   1.005   3.126  13.024  1.3798 -1.7278  3.0326
  905MPD2    H213260   0.961   3.392  13.350 -1.0757 -1.1497 -0.0085
  905MPD2    H313261   0.906   3.208  13.239 -2.1353  0.6463 -2.0964
  905MPD2     N13262   1.191   3.262  12.899 -0.0468 -0.1496 -0.2820
  905MPD2    H513263   1.176   3.166  12.872  0.6285  0.0715 -1.4677
  905MPD2    N113264   1.156   3.566  13.286  0.6253 -0.2683  0.8262
  905MPD2    H713265   1.108   3.573  13.375 -0.6462 -0.2726  0.1429
  906MPD2     C13266   3.675   3.177  11.294  0.3698 -0.5836 -0.5325
  906MPD2    C113267   3.652   3.064  11.217 -0.7775  0.0177  0.1442
  906MPD2    C213268   3.595   2.950  11.274  0.0856 -0.1246 -0.0975
  906MPD2    C313269   3.574   2.950  11.413  0.4522 -0.3197 -0.3422
  906MPD2    C413270   3.595   3.064  11.487  0.3657 -0.1491  0.6202
  906MPD2    C513271   3.652   3.171  11.429  0.5915  0.3147  0.3473
  906MPD2     H13272   3.563   2.868  11.211  0.8390  0.4838 -1.2752
  906MPD2    H113273   3.579   3.075  11.594 -1.1875 -2.0778  0.6006
  906MPD2    H213274   3.730   3.257  11.246  1.4032 -0.9718 -0.0014
  906MPD2    H313275   3.650   3.258  11.494 -1.7431  1.1532 -0.8374
  906MPD2     N13276   3.527   2.837  11.487  0.2890 -0.7149  0.2151
  906MPD2    H513277   3.502   2.859  11.583 -0.4828 -1.4410  0.1844
  906MPD2    N113278   3.668   3.058  11.081 -0.2558 -0.2858 -0.1564
  906MPD2    H713279   3.624   2.981  11.032  1.7514 -1.4704 -0.1065
  907MPD2     C13280   3.253   2.179  15.400  0.6472 -0.2262 -0.6971
  907MPD2    C113281   3.220   2.063  15.469  0.5121 -0.3318 -1.0540
  907MPD2    C213282   3.295   2.036  15.584  0.1021 -0.6436  0.7848
  907MPD2    C313283   3.401   2.117  15.629  0.4984 -0.3343  0.0344
  907MPD2    C413284   3.429   2.233  15.551 -0.0211 -0.2347 -0.0949
  907MPD2    C513285   3.356   2.259  15.443 -0.1369 -0.1112  0.3292
  907MPD2     H13286   3.255   1.955  15.645 -0.8829 -0.6834  0.0726
  907MPD2    H113287   3.519   2.290  15.565  0.3235 -1.1213  1.2736
  907MPD2    H213288   3.209   2.203  15.304 -0.5379 -2.7751 -0.7789
  907MPD2    H313289   3.387   2.344  15.383 -2.9494  1.3570  0.9748
  907MPD2     N13290   3.466   2.092  15.760 -0.2843  0.2201 -0.4248
  907MPD2    H513291   3.420   2.019  15.812 -0.6441 -0.4482 -1.6665
  907MPD2    N113292   3.122   1.972  15.421 -0.5810  0.8064  0.3454
  907MPD2    H713293   3.111   1.886  15.475  1.2903 -0.7090 -1.6867
  908MPD2     C13294   0.984   2.406   9.564 -0.2066 -0.0520 -0.5797
  908MPD2    C113295   0.876   2.343   9.628 -0.2314 -0.4306 -0.3742
  908MPD2    C213296   0.818   2.407   9.738  0.3914  0.1274  0.8932
  908MPD2    C313297   0.858   2.535   9.777  0.1261  0.3354 -0.7579
  908MPD2    C413298   0.970   2.583   9.719  0.3304 -0.1470 -0.2628
  908MPD2    C513299   1.031   2.526   9.612  0.7021 -0.2723 -0.1700
  908MPD2     H13300   0.745   2.354   9.798 -2.3411  0.3221 -2.2681
  908MPD2    H113301   1.031   2.667   9.752  0.9270 -0.8548  0.4228
  908MPD2    H213302   1.039   2.357   9.485  0.4861  0.1368 -0.2115
  908MPD2    H313303   1.117   2.578   9.573 -1.3326  2.3551 -1.1508
  908MPD2     N13304   0.796   2.601   9.892 -0.0737  0.3057 -0.7659
  908MPD2    H513305   0.709   2.558   9.924 -1.4547  0.8151 -3.8198
  908MPD2    N113306   0.846   2.210   9.597  0.0875 -0.1317 -0.5317
  908MPD2    H713307   0.896   2.160   9.525  1.2298  2.0912 -1.3036
  909MPD2     C13308   0.818   0.626  12.119  0.0047  0.0242  0.8716
  909MPD2    C113309   0.866   0.752  12.079 -0.5689 -0.3390  0.2789
  909MPD2    C213310   0.795   0.867  12.114  0.7713 -0.4330  0.2493
  909MPD2    C313311   0.688   0.859  12.198  0.8160  0.0694  0.2754
  909MPD2    C413312   0.656   0.738  12.250  0.0127 -0.6780 -0.2545
  909MPD2    C513313   0.716   0.623  12.210 -0.0612  0.2576 -0.3940
  909MPD2     H13314   0.816   0.965  12.072  0.2273 -0.0386  0.8875
  909MPD2    H113315   0.570   0.711  12.309  1.2512  1.0274  2.3335
  909MPD2    H213316   0.872   0.542  12.077 -0.2635 -0.1399  0.8627
  909MPD2    H313317   0.674   0.529  12.244 -2.4891  0.6907 -2.1466
  909MPD2     N13318   0.612   0.979  12.235 -1.1858 -1.0203  0.0857
  909MPD2    H513319   0.626   1.069  12.190 -2.2342 -1.3575 -0.9208
  909MPD2    N113320   0.963   0.778  11.980 -1.0687  0.0782 -0.2035
  909MPD2    H713321   0.987   0.877  11.974 -2.5400  0.4140 -0.5983
  910MPD2     C13322   2.622   3.046  15.510 -0.2344 -0.2021 -0.0944
  910MPD2    C113323   2.496   2.992  15.510  0.4564 -0.0768  0.9816
  910MPD2    C213324   2.412   3.033  15.404  0.3692  0.1611 -0.9123
  910MPD2    C313325   2.456   3.121  15.306 -0.6662  0.7237 -1.1569
  910MPD2    C413326   2.586   3.158  15.313 -0.0195  0.8570 -0.0020
  910MPD2    C513327   2.677   3.122  15.411 -0.4121  0.1277  0.1582
  910MPD2     H13328   2.312   2.993  15.395  0.0102  1.4692 -2.7202
  910MPD2    H113329   2.621   3.211  15.225  1.3037  0.6242  0.3847
  910MPD2    H213330   2.684   3.037  15.598  1.6213  3.3222 -1.0422
  910MPD2    H313331   2.769   3.178  15.415 -0.1398 -0.1312 -2.2722
  910MPD2     N13332   2.378   3.173  15.198  0.4223  0.2311 -0.1609
  910MPD2    H513333   2.424   3.229  15.127 -1.3308  1.1355 -0.5698
  910MPD2    N113334   2.446   2.900  15.612  0.3096 -0.1319 -0.1222
  910MPD2    H713335   2.349   2.870  15.609  0.8039 -1.5730 -1.9820
  911MPD2     C13336   0.078   3.895  16.596 -0.1654 -0.2623  0.0738
  911MPD2    C113337   0.053   3.774  16.540  0.1073  0.2779  0.3657
  911MPD2    C213338   4.663   3.766  16.461  0.6138 -0.2556  0.6843
  911MPD2    C313339   4.586   3.873  16.424 -0.1565  0.3103  0.5940
  911MPD2    C413340   4.615   3.991  16.490 -0.2287  0.0024  0.2429
  911MPD2    C513341   4.719   4.002  16.579 -0.0261  1.1400 -0.1249
  911MPD2     H13342   4.643   3.670  16.414  3.5991 -0.0336 -1.0384
  911MPD2    H113343   4.557   4.081  16.476  2.3538  1.6975  0.4625
  911MPD2    H213344   0.163   3.906  16.662 -0.0752  3.1076 -0.5695
  911MPD2    H313345   0.021   4.100  16.618 -0.4238  0.4726  1.8187
  911MPD2     N13346   4.490   3.856  16.324 -0.0598 -0.1095 -0.2843
  911MPD2    H513347   4.475   3.760  16.294  0.6351  0.0798 -1.2279
  911MPD2    N113348   0.135   3.664  16.571 -0.1277 -0.0967 -0.5183
  911MPD2    H713349   0.194   3.673  16.653 -1.1761 -0.9159  0.3044
  912MPD2     C13350   4.479   3.227  15.961  0.5296  0.1320 -0.6958
  912MPD2    C113351   4.408   3.300  16.052  0.7927  0.4579  0.6228
  912MPD2    C213352   4.358   3.235  16.161  0.0721 -0.3258 -0.5698
  912MPD2    C313353   4.386   3.099  16.185  0.0902  0.9297  0.9295
  912MPD2    C413354   4.465   3.029  16.094  0.3024 -0.1762  0.4449
  912MPD2    C513355   4.511   3.098  15.983 -0.1442 -0.3392  0.2892
  912MPD2     H13356   4.298   3.280  16.239  0.8790 -0.9113  0.3837
  912MPD2    H113357   4.494   2.925  16.098  0.6052 -0.1435 -0.9789
  912MPD2    H213358   4.521   3.278  15.875 -2.7028 -0.0368 -2.3553
  912MPD2    H313359   4.576   3.044  15.914  0.8418  1.4727 -0.1999
  912MPD2     N13360   4.342   3.045  16.301  0.3753 -0.6951  0.1239
  912MPD2    H513361   4.274   3.092  16.360  0.2937  0.5902 -0.9932
  912MPD2    N113362   4.390   3.432  16.020 -0.4389  0.0789  0.1527
  912MPD2    H713363   4.439   3.478  15.944 -0.4491  0.7057  0.5202
  913MPD2     C13364   4.708   4.247  10.387 -0.1091 -0.3510 -0.2124
  913MPD2    C113365   0.054   4.322  10.478 -0.3812  0.1049  0.1801
  913MPD2    C213366   0.113   4.437  10.432  0.2839  0.1008  0.7385
  913MPD2    C313367   0.115   4.466  10.302  0.1000  0.6124 -0.4698
  913MPD2    C413368   0.041   4.397  10.211 -0.4400  0.2229 -0.5216
  913MPD2    C513369   4.704   4.282  10.253  0.3508  0.2264 -0.0471
  913MPD2     H13370   0.156   4.511  10.499  2.9177 -1.2094  0.5173
  913MPD2    H113371   0.024   4.429  10.109 -1.0728  0.7364 -0.2540
  913MPD2    H213372   4.657   4.158  10.420 -0.3731  0.2305  0.9327
  913MPD2    H313373   4.640   4.223  10.190  0.2518  1.0365 -0.7105
  913MPD2     N13374   0.177   4.583  10.252 -0.3012  0.5277  0.7540
  913MPD2    H513375   0.152   4.598  10.155 -0.7430 -0.9519  0.6368
  913MPD2    N113376   0.061   4.275  10.607 -0.4046 -0.3322  0.2037
  913MPD2    H713377   4.722   4.199  10.628 -0.8724  0.1131  0.3899
  914MPD2     C13378   2.884   0.034  12.149 -0.5331 -0.2610  0.0610
  914MPD2    C113379   2.923   0.115  12.247  0.1664 -0.1629  0.9524
  914MPD2    C213380   2.985   0.060  12.352 -0.3156  0.8449  0.3025
  914MPD2    C313381   3.006   4.648  12.366  0.1485 -0.4068 -0.0560
  914MPD2    C413382   2.964   4.562  12.262 -0.7901  0.0336 -0.4844
  914MPD2    C513383   2.902   4.622  12.157 -0.3713 -0.1686  0.2613
  914MPD2     H13384   3.023   0.121  12.434  0.0600 -0.1818  0.8981
  914MPD2    H113385   2.987   4.456  12.257 -1.1350 -0.0515 -0.2470
  914MPD2    H213386   2.824   0.073  12.068  0.2198 -0.9198 -0.8154
  914MPD2    H313387   2.859   4.550  12.088 -2.2496  0.2379  1.0328
  914MPD2     N13388   3.070   4.602  12.481  0.2973 -0.5427  0.5122
  914MPD2    H513389   3.102   4.673  12.546 -2.6358  2.5754 -1.4633
  914MPD2    N113390   2.896   0.252  12.245  0.3249 -0.0597 -0.4079
  914MPD2    H713391   2.851   0.280  12.159  4.0236 -0.7049 -2.5803
  915MPD2     C13392   1.013   0.405  15.774  0.1480  0.4730 -0.0003
  915MPD2    C113393   0.890   0.449  15.728 -1.0652 -0.1414 -0.2353
  915MPD2    C213394   0.837   0.559  15.796  1.0163  0.3465  0.0289
  915MPD2    C313395   0.893   0.602  15.908 -0.5878 -0.0282 -0.2753
  915MPD2    C413396   1.016   0.558  15.954 -0.7535  0.4360  0.1547
  915MPD2    C513397   1.079   0.458  15.883 -0.1510 -0.2835  0.2158
  915MPD2     H13398   0.749   0.610  15.761  0.5169 -0.5731 -0.0533
  915MPD2    H113399   1.066   0.597  16.042  0.2042  0.2702 -0.3137
  915MPD2    H213400   1.064   0.328  15.717 -0.5458  0.3881 -0.5013
  915MPD2    H313401   1.172   0.414  15.919 -0.3047 -0.5806  0.2556
  915MPD2     N13402   0.814   0.689  15.980 -0.3593  0.6635  0.3153
  915MPD2    H513403   0.723   0.711  15.941 -1.1099 -1.8281  0.6826
  915MPD2    N113404   0.822   0.374  15.633  0.2793 -0.1395  0.0280
  915MPD2    H713405   0.853   0.280  15.610 -0.5591 -0.7876  1.5140
  916MPD2     C13406   3.946   3.513  15.947 -0.0306 -0.3920 -0.3010
  916MPD2    C113407   3.919   3.393  16.012 -0.0412 -0.0625  0.7043
  916MPD2    C213408   3.999   3.288  15.978  0.2239  0.3116  0.8044
  916MPD2    C313409   4.093   3.291  15.876 -0.3501  0.0210  0.4950
  916MPD2    C413410   4.107   3.410  15.804  0.2650 -0.3084 -0.5415
  916MPD2    C513411   4.034   3.515  15.845 -0.0274  0.2386  0.5106
  916MPD2     H13412   3.996   3.196  16.036  2.4209  0.8252  1.7166
  916MPD2    H113413   4.184   3.434  15.731  1.0353 -2.0602 -0.3023
  916MPD2    H213414   3.879   3.595  15.974  0.3857 -1.0475  2.6544
  916MPD2    H313415   4.068   3.609  15.805  0.6729  0.0455  0.6565
  916MPD2     N13416   4.159   3.171  15.839 -0.4390 -0.1250 -0.0790
  916MPD2    H513417   4.142   3.084  15.890 -1.8624  0.8560  1.1053
  916MPD2    N113418   3.816   3.395  16.112 -0.2146  0.1738  0.5804
  916MPD2    H713419   3.756   3.474  16.134  2.2452  2.4270 -0.8770
  917MPD2     C13420   4.247   0.477  11.019  0.1743 -0.7840 -0.1967
  917MPD2    C113421   4.353   0.457  11.113  0.1184 -0.4941  0.2435
  917MPD2    C213422   4.485   0.496  11.080 -0.0417  0.6230  0.4377
  917MPD2    C313423   4.508   0.553  10.953  0.1996 -0.5222 -0.0729
  917MPD2    C413424   4.402   0.568  10.866 -0.2867  0.4552  1.0098
  917MPD2    C513425   4.277   0.531  10.897 -0.8949 -0.0429 -0.6056
  917MPD2     H13426   4.568   0.483  11.149  0.3538 -2.1621 -0.5923
  917MPD2    H113427   4.422   0.610  10.768 -0.4801  0.0199  0.7818
  917MPD2    H213428   4.144   0.452  11.042  0.1457 -2.3865 -2.1118
  917MPD2    H313429   4.199   0.549  10.824 -0.4080 -0.3617 -1.2056
  917MPD2     N13430   4.630   0.603  10.903  0.1484 -0.3755 -0.0265
  917MPD2    H513431   4.627   0.640  10.809  3.6301 -1.1576 -0.4564
  917MPD2    N113432   4.314   0.403  11.242  0.0166  0.1251 -0.1907
  917MPD2    H713433   4.224   0.359  11.256  0.2814 -0.7997 -1.3354
  918MPD2     C13434   4.010   0.917  11.946 -1.5350 -0.0708 -0.3111
  918MPD2    C113435   4.143   0.891  11.978  0.5363 -0.1893 -0.2503
  918MPD2    C213436   4.202   0.783  11.918 -0.2766 -0.2088  0.0874
  918MPD2    C313437   4.130   0.695  11.840 -1.0535  0.2569  0.3154
  918MPD2    C413438   3.996   0.714  11.820  0.1983 -0.2016 -0.2182
  918MPD2    C513439   3.936   0.827  11.868 -0.0749  0.5140 -0.1632
  918MPD2     H13440   4.305   0.761  11.943 -0.3180  2.5746  2.6876
  918MPD2    H113441   3.938   0.640  11.767 -0.1796  0.3397 -0.5605
  918MPD2    H213442   3.957   1.004  11.984 -0.3216  0.9366 -0.9076
  918MPD2    H313443   3.829   0.842  11.855 -0.2799 -1.2520 -0.4704
  918MPD2     N13444   4.200   0.586  11.783 -0.0819  0.6756 -0.1809
  918MPD2    H513445   4.299   0.581  11.803  0.2501 -0.8931 -2.3117
  918MPD2    N113446   4.229   0.961  12.065  0.2471 -0.3812  0.1819
  918MPD2    H713447   4.321   0.924  12.087  0.1084  0.8600  2.7379
  919MPD2     C13448   4.714   4.395  11.596 -0.4350 -0.2032  0.1608
  919MPD2    C113449   4.665   4.282  11.543  0.1293 -0.3957  0.2427
  919MPD2    C213450   4.620   4.280  11.416  0.1758  0.0989  0.3642
  919MPD2    C313451   4.633   4.388  11.332  0.6414  0.1785  1.0899
  919MPD2    C413452   4.695   4.497  11.383  0.9530 -0.1330  0.0568
  919MPD2    C513453   0.009   4.502  11.512 -0.1282 -0.0361  0.9032
  919MPD2     H13454   4.586   4.181  11.389 -0.4646  0.2634  0.5816
  919MPD2    H113455   4.712   4.587  11.324  1.0470  0.5670  1.1532
  919MPD2    H213456   0.017   4.420  11.698 -0.3307  0.1636  0.0452
  919MPD2    H313457   0.052   4.593  11.551  1.6770 -0.7976  0.7180
  919MPD2     N13458   4.582   4.389  11.197  0.0851  0.3765 -0.1546
  919MPD2    H513459   4.597   4.473  11.141  0.3506 -0.4696 -1.3452
  919MPD2    N113460   4.641   4.166  11.617 -0.7463  1.0800  0.2219
  919MPD2    H713461   4.613   4.086  11.561 -1.3192  0.3519  1.5517
  920MPD2     C13462   4.576   0.026  10.253 -0.1879  0.7588  0.7689
  920MPD2    C113463   4.482   4.657  10.239 -0.6753  0.7892  0.3612
  920MPD2    C213464   4.459   4.572  10.349  0.1633  0.1521 -0.0428
  920MPD2    C313465   4.519   4.587  10.472  0.5793  0.1455  0.3264
  920MPD2    C413466   4.614   4.685  10.488  0.4756  0.4490 -0.0105
  920MPD2    C513467   4.647   0.030  10.372  0.5074  0.1092  0.4359
  920MPD2     H13468   4.385   4.494  10.338 -1.2270  1.6082 -0.9446
  920MPD2    H113469   4.669   4.712  10.578  1.1184  1.4948 -0.7186
  920MPD2    H213470   4.612   0.083  10.168  1.6625  1.0142  1.7257
  920MPD2    H313471   0.010   0.092  10.384 -1.0297  2.4719 -0.6541
  920MPD2     N13472   4.482   4.500  10.575  0.5032 -0.4387  0.1000
  920MPD2    H513473   4.403   4.439  10.556 -0.7378  0.8911  1.0665
  920MPD2    N113474   4.416   4.623  10.117  0.0697  0.3543 -0.4619
  920MPD2    H713475   4.353   4.544  10.115  1.0174 -0.3611 -2.1788
  921MPD2     C13476   0.907   3.192  17.016  0.4507  0.0633 -0.8758
  921MPD2    C113477   0.905   3.316  16.955  0.0607 -0.1666  0.2056
  921MPD2    C213478   0.777   3.360  16.905  0.0821 -1.0372 -0.6587
  921MPD2    C313479   0.671   3.276  16.917 -0.0251 -0.6563 -0.2519
  921MPD2    C413480   0.667   3.161  16.987  0.1600 -0.1639 -0.4695
  921MPD2    C513481   0.786   3.126  17.042  0.2489 -0.7407 -0.0974
  921MPD2     H13482   0.765   3.447  16.842 -0.7538 -1.7391 -1.4868
  921MPD2    H113483   0.583   3.094  16.994  0.4263 -0.3013  1.3449
  921MPD2    H213484   0.999   3.140  17.041  0.9299  0.7328 -1.2328
  921MPD2    H313485   0.787   3.029  17.089  1.7626 -0.5644  0.2346
  921MPD2     N13486   0.551   3.297  16.852  0.0523 -0.0192 -0.4189
  921MPD2    H513487   0.485   3.220  16.851 -0.2180  0.2320 -1.8712
  921MPD2    N113488   1.027   3.376  16.933 -0.0602  0.3011 -0.3496
  921MPD2    H713489   1.113   3.323  16.945 -1.3770 -1.5731  0.8178
  922MPD2     C13490   1.529   1.163  16.802 -0.5543  0.2723 -0.1667
  922MPD2    C113491   1.540   1.268  16.896 -0.2360 -0.0408  0.1842
  922MPD2    C213492   1.478   1.255  17.020 -0.2160 -0.1512  0.2231
  922MPD2    C313493   1.421   1.134  17.053  0.7680  0.2555 -0.0857
  922MPD2    C413494   1.401   1.043  16.954 -0.1769  0.2676  0.4764
  922MPD2    C513495   1.455   1.055  16.831 -0.4622  0.2457 -0.6914
  922MPD2     H13496   1.476   1.335  17.092 -0.1534 -2.5893  2.9182
  922MPD2    H113497   1.322   0.971  16.973 -1.5999  1.0679 -2.3829
  922MPD2    H213498   1.573   1.170  16.703  2.0429 -0.6813  0.9083
  922MPD2    H313499   1.430   0.983  16.754  0.0222  0.7203 -1.2968
  922MPD2     N13500   1.354   1.135  17.173 -0.9065  0.1678 -0.1516
  922MPD2    H513501   1.331   1.223  17.217  0.1020  0.6144 -0.5373
  922MPD2    N113502   1.617   1.386  16.874 -0.2798 -0.1949  0.5699
  922MPD2    H713503   1.629   1.448  16.953 -1.0510  0.8351 -0.1052
  923MPD2     C13504   2.722   2.698   9.234  0.1381  1.0882 -0.2147
  923MPD2    C113505   2.709   2.802   9.310  0.2653 -0.2923 -0.1075
  923MPD2    C213506   2.826   2.849   9.378  0.1798 -0.1093 -0.0996
  923MPD2    C313507   2.950   2.790   9.361 -0.4374 -0.4616 -0.3704
  923MPD2    C413508   2.955   2.684   9.275  0.6735  1.0224 -0.2479
  923MPD2    C513509   2.845   2.637   9.213 -0.1805 -0.1653 -0.1135
  923MPD2     H13510   2.828   2.934   9.445 -0.7780 -0.5538  0.4880
  923MPD2    H113511   3.049   2.632   9.258 -0.6712 -1.4351 -0.2022
  923MPD2    H213512   2.635   2.651   9.189 -0.4513  2.8338 -0.9379
  923MPD2    H313513   2.852   2.543   9.161  0.1109  0.6265 -1.5130
  923MPD2     N13514   3.061   2.815   9.450 -0.5596 -0.1366 -0.4041
  923MPD2    H513515   3.149   2.769   9.427  0.8479  1.6937  1.2613
  923MPD2    N113516   2.579   2.852   9.338 -0.3821  0.4232  0.4964
  923MPD2    H713517   2.504   2.817   9.280  2.5760  0.2094 -3.1513
  924MPD2     C13518   3.304   1.441  16.015  0.3065  0.1974 -0.3429
  924MPD2    C113519   3.319   1.525  16.122  0.0688 -0.3316 -0.3817
  924MPD2    C213520   3.424   1.614  16.110 -0.5276 -0.0928 -0.3183
  924MPD2    C313521   3.517   1.619  16.005  0.2995 -0.1307  0.6465
  924MPD2    C413522   3.499   1.523  15.906 -0.4290 -0.5455  0.0053
  924MPD2    C513523   3.398   1.436  15.919  0.2136  0.1796 -1.0772
  924MPD2     H13524   3.432   1.687  16.191  1.2802 -0.5304 -0.0991
  924MPD2    H113525   3.568   1.499  15.825  0.3052 -1.1546  0.8047
  924MPD2    H213526   3.225   1.367  16.016 -0.1109  0.6468 -1.0071
  924MPD2    H313527   3.390   1.368  15.835 -0.3368 -0.0029 -0.8768
  924MPD2     N13528   3.622   1.715  15.993  0.0859 -0.5544 -0.1902
  924MPD2    H513529   3.653   1.736  15.899 -3.3307  3.0566 -0.5137
  924MPD2    N113530   3.231   1.537  16.233 -0.0001  0.2578 -0.0004
  924MPD2    H713531   3.249   1.609  16.302  0.1211 -0.7677  1.0344
  925MPD2     C13532   1.793   3.809  15.025 -0.1956  0.6851 -0.9371
  925MPD2    C113533   1.681   3.839  14.946  0.0110 -0.1974 -0.2494
  925MPD2    C213534   1.557   3.802  14.983  0.9196 -0.1338 -0.0571
  925MPD2    C313535   1.542   3.727  15.095  0.3536  0.5666  0.0630
  925MPD2    C413536   1.652   3.696  15.175 -0.0169  0.2609 -0.2619
  925MPD2    C513537   1.776   3.740  15.136 -0.4158  0.8195 -0.1536
  925MPD2     H13538   1.481   3.817  14.908  1.5622 -0.3271 -0.7413
  925MPD2    H113539   1.653   3.632  15.263  0.6782  0.8002  0.1254
  925MPD2    H213540   1.892   3.844  15.000 -0.3578  1.9354  0.1281
  925MPD2    H313541   1.863   3.722  15.198 -1.4666 -0.6900  0.9027
  925MPD2     N13542   1.422   3.682  15.147  0.5389  0.1442 -0.0434
  925MPD2    H513543   1.418   3.625  15.230  0.2814 -0.5961 -0.5674
  925MPD2    N113544   1.688   3.896  14.819  0.0753  0.0278  0.2911
  925MPD2    H713545   1.598   3.911  14.775 -0.5209 -0.3196  1.3909
  926MPD2     C13546   0.726   2.812  13.181  0.6141  0.1738 -0.0934
  926MPD2    C113547   0.589   2.800  13.150 -0.1677  0.0566  0.4475
  926MPD2    C213548   0.545   2.881  13.046  0.0366  0.2958  0.3216
  926MPD2    C313549   0.625   2.974  12.978 -0.0187 -0.2062 -0.3247
  926MPD2    C413550   0.756   2.989  13.017  0.1382  0.3093  0.0082
  926MPD2    C513551   0.809   2.897  13.107 -0.1789 -0.2668  0.0151
  926MPD2     H13552   0.443   2.874  13.009  0.1729  0.2572 -0.0471
  926MPD2    H113553   0.831   3.050  12.967 -0.2385 -0.0688 -1.0366
  926MPD2    H213554   0.773   2.753  13.259 -0.2429 -1.0881 -0.5253
  926MPD2    H313555   0.909   2.914  13.144 -0.7435 -0.7565  1.7476
  926MPD2     N13556   0.582   3.066  12.875  0.0399 -0.4360 -0.0613
  926MPD2    H513557   0.656   3.125  12.839  0.2707 -0.7663 -0.1350
  926MPD2    N113558   0.500   2.711  13.215  0.0855 -0.7896  0.9076
  926MPD2    H713559   0.402   2.726  13.192  0.7583  2.3807 -0.0263
  927MPD2     C13560   0.082   4.386   0.199  0.5500  0.3547  0.1036
  927MPD2    C113561   0.015   4.505   0.199  0.2624 -0.0033 -0.4787
  927MPD2    C213562   0.028   4.593   0.096  0.1377  0.8023  0.0729
  927MPD2    C313563   0.095   4.552  17.680  0.3805  0.1830  0.7758
  927MPD2    C413564   0.162   4.431  17.685 -0.2092 -0.2253 -0.2484
  927MPD2    C513565   0.157   4.355   0.091 -0.0392  0.1969 -0.1311
  927MPD2     H13566   4.701   4.688   0.093 -0.9883  0.1817 -0.0091
  927MPD2    H113567   0.239   4.409  17.613  0.0933 -0.1643  0.0553
  927MPD2    H213568   0.087   4.322   0.286 -0.7495 -1.8910 -1.4732
  927MPD2    H313569   0.229   4.274   0.092  0.6929  0.8540  1.2140
  927MPD2     N13570   0.113   4.650  17.576  1.1446  0.1747  0.1700
  927MPD2    H513571   0.060   0.011  17.584  0.0297 -0.2489 -2.7499
  927MPD2    N113572   4.668   4.538   0.322  0.0493 -0.0613  0.0255
  927MPD2    H713573   4.671   4.471   0.399 -0.9480  1.3733  1.3214
  928MPD2     C13574   2.934   2.880   1.033  0.0546  0.1703  0.2955
  928MPD2    C113575   2.939   3.021   1.047 -0.2750  0.2369 -0.5007
  928MPD2    C213576   2.890   3.097   0.945  0.0337 -0.5209 -0.0323
  928MPD2    C313577   2.825   3.040   0.835 -0.4782  0.6117 -0.3027
  928MPD2    C413578   2.809   2.906   0.826  0.4211  0.0928  0.0472
  928MPD2    C513579   2.866   2.832   0.924  0.3223 -0.0009 -0.3903
  928MPD2     H13580   2.889   3.205   0.953  0.2531 -0.4481 -1.1213
  928MPD2    H113581   2.759   2.857   0.743 -0.3385 -0.0782  0.6069
  928MPD2    H213582   2.961   2.817   1.116 -1.3658 -1.4682 -0.4942
  928MPD2    H313583   2.834   2.729   0.915  1.6259 -0.6958  2.7350
  928MPD2     N13584   2.787   3.117   0.724 -0.5190 -0.0349  0.7366
  928MPD2    H513585   2.760   3.063   0.642 -2.4469  0.8186  0.7914
  928MPD2    N113586   2.982   3.083   1.168 -0.1096  0.2194  0.1909
  928MPD2    H713587   2.944   3.177   1.174 -1.3721 -0.2392 -0.3516
  929MPD2     C13588   3.211   2.942  10.242  0.6631 -0.1316 -0.3838
  929MPD2    C113589   3.106   2.875  10.305 -0.0743 -0.5537  1.0540
  929MPD2    C213590   2.973   2.887  10.255 -0.5352  0.7191 -0.2490
  929MPD2    C313591   2.951   2.965  10.144 -0.2280 -0.0454  0.4814
  929MPD2    C413592   3.055   3.040  10.088  0.4087 -0.1679 -0.0069
  929MPD2    C513593   3.186   3.043  10.147  0.3455 -0.5999 -0.1165
  929MPD2     H13594   2.898   2.824  10.300 -0.1007 -0.6461 -1.4198
  929MPD2    H113595   3.047   3.112  10.007  1.8404  0.0770  0.0578
  929MPD2    H213596   3.307   2.920  10.290  0.9087  0.5897 -0.5480
  929MPD2    H313597   3.262   3.113  10.115  0.9889 -0.9484  0.6460
  929MPD2     N13598   2.825   2.995  10.098  0.1366  0.3090 -0.3881
  929MPD2    H513599   2.815   3.078  10.040 -2.3029  0.5198  0.3377
  929MPD2    N113600   3.138   2.797  10.417  0.1294  0.1419 -0.8180
  929MPD2    H713601   3.221   2.819  10.471  0.6650  0.2456 -1.6678
  930MPD2     C13602   4.268   0.566  14.274  0.3619  0.0812  0.0886
  930MPD2    C113603   4.389   0.595  14.214 -0.7103 -0.1302 -0.4836
  930MPD2    C213604   4.422   0.534  14.094  0.4097  0.7034 -0.1557
  930MPD2    C313605   4.327   0.465  14.022  0.6779  0.0737 -0.4621
  930MPD2    C413606   4.198   0.475  14.069  0.2792 -0.0257 -0.5620
  930MPD2    C513607   4.166   0.513  14.203  0.1636 -0.1460  0.8024
  930MPD2     H13608   4.519   0.546  14.047  0.7564 -2.3154 -0.2524
  930MPD2    H113609   4.119   0.432  14.008 -1.7525  1.8217  0.7596
  930MPD2    H213610   4.242   0.603  14.373  1.9781 -0.8391  0.8436
  930MPD2    H313611   4.064   0.523  14.237  0.1434  1.5226  0.2344
  930MPD2     N13612   4.354   0.417  13.893  0.5958  0.2242 -0.3106
  930MPD2    H513613   4.281   0.403  13.824 -1.8917  0.1743  2.3603
  930MPD2    N113614   4.499   0.665  14.270 -0.1177 -0.3732  0.4619
  930MPD2    H713615   4.585   0.670  14.217  0.5112 -2.1432  1.3397
  931MPD2     C13616   4.634   4.283   0.877  0.0401  0.7957  0.3729
  931MPD2    C113617   4.509   4.334   0.874  0.6248 -0.0032 -0.2294
  931MPD2    C213618   4.409   4.299   0.968  1.1521 -0.2032 -0.7903
  931MPD2    C313619   4.436   4.215   1.066  0.0955  0.0959  0.2126
  931MPD2    C413620   4.568   4.158   1.065  0.1375 -0.5806 -0.5876
  931MPD2    C513621   4.663   4.191   0.978  0.6211 -0.1235  0.3915
  931MPD2     H13622   4.310   4.344   0.971  1.3401  0.2514 -1.4512
  931MPD2    H113623   4.598   4.088   1.142  0.6474 -0.8920 -1.0716
  931MPD2    H213624   4.702   4.303   0.795 -1.5803  1.7038 -0.7438
  931MPD2    H313625   0.041   4.158   0.986  0.3845 -1.3068 -1.6481
  931MPD2     N13626   4.346   4.160   1.163 -0.2145  0.7326  0.1437
  931MPD2    H513627   4.392   4.093   1.224 -0.1647  1.0841  0.4860
  931MPD2    N113628   4.482   4.416   0.769  0.1767  0.0614  0.0639
  931MPD2    H713629   4.562   4.438   0.710  0.3923  0.6212  0.5712
  932MPD2     C13630   1.296   3.924  11.233 -0.0620 -0.3892 -0.1812
  932MPD2    C113631   1.422   3.873  11.219 -0.3552 -0.1588  0.5693
  932MPD2    C213632   1.451   3.735  11.215 -0.6097  0.2517 -0.7756
  932MPD2    C313633   1.338   3.642  11.214 -0.0757 -0.7669 -0.5542
  932MPD2    C413634   1.210   3.694  11.223  0.1432  0.2545  0.4714
  932MPD2    C513635   1.193   3.829  11.227  0.1917  0.3525 -1.1050
  932MPD2     H13636   1.551   3.695  11.208 -1.0166 -1.1764  1.4435
  932MPD2    H113637   1.118   3.636  11.222  0.5265 -0.3276 -0.3744
  932MPD2    H213638   1.272   4.029  11.245 -2.8840 -1.1523  1.0830
  932MPD2    H313639   1.090   3.856  11.248  0.0125 -2.1647  1.2044
  932MPD2     N13640   1.374   3.507  11.210  0.0285 -0.2415  0.5248
  932MPD2    H513641   1.474   3.493  11.211 -0.1562 -1.5426  0.7581
  932MPD2    N113642   1.531   3.963  11.228 -0.3470  0.5684  0.1115
  932MPD2    H713643   1.622   3.922  11.210  0.6128  2.4750  0.5825
  933MPD2     C13644   2.966   3.640   1.833 -0.3081  0.6377 -0.1245
  933MPD2    C113645   2.935   3.612   1.702 -0.5984  0.4360  0.1866
  933MPD2    C213646   2.856   3.693   1.629  0.3082  0.0563 -0.0052
  933MPD2    C313647   2.812   3.814   1.687  0.1788  0.2210  1.5534
  933MPD2    C413648   2.834   3.840   1.822 -0.4364  0.1352 -0.3874
  933MPD2    C513649   2.904   3.745   1.892 -0.4810  0.4736 -0.1667
  933MPD2     H13650   2.841   3.675   1.523 -1.0015 -1.7212  0.4776
  933MPD2    H113651   2.791   3.925   1.873 -1.8998 -2.0825  2.0543
  933MPD2    H213652   3.024   3.576   1.899 -0.5851 -0.0177 -0.5125
  933MPD2    H313653   2.902   3.762   1.999  1.2469  2.1609 -0.4179
  933MPD2     N13654   2.733   3.896   1.598  0.6985 -0.3410  0.4235
  933MPD2    H513655   2.724   3.863   1.503  0.3684 -0.8816  0.6413
  933MPD2    N113656   3.000   3.494   1.648  0.1209  0.0369 -0.1819
  933MPD2    H713657   3.053   3.442   1.717  2.0863  0.8573 -1.0599
  934MPD2     C13658   3.558   1.011   1.977 -0.4461  0.5099 -0.1021
  934MPD2    C113659   3.493   1.097   1.889 -0.5299 -0.2721  0.1715
  934MPD2    C213660   3.356   1.079   1.870 -0.1135 -0.5583 -0.9626
  934MPD2    C313661   3.282   0.975   1.921  0.5326  0.7065 -0.0771
  934MPD2    C413662   3.349   0.897   2.009 -0.0508 -0.2113  0.2609
  934MPD2    C513663   3.479   0.918   2.038  0.9660  0.1717 -0.0344
  934MPD2     H13664   3.311   1.149   1.801  1.6300  1.3016 -0.2050
  934MPD2    H113665   3.295   0.809   2.043 -0.8501 -0.0320 -0.5464
  934MPD2    H213666   3.664   1.024   1.995 -0.5399 -1.1396  1.5995
  934MPD2    H313667   3.538   0.854   2.103 -1.1603  0.1808  1.9230
  934MPD2     N13668   3.147   0.951   1.898 -0.6503  0.0383  0.7356
  934MPD2    H513669   3.101   0.872   1.942 -0.4988 -0.7970 -0.6209
  934MPD2    N113670   3.562   1.209   1.830 -0.4728  0.0604 -0.1265
  934MPD2    H713671   3.663   1.204   1.834 -0.4771  0.8395  0.7936
  935MPD2     C13672   3.086   0.226   1.583  0.4251 -0.1214 -0.3151
  935MPD2    C113673   3.063   0.319   1.484 -0.8470  0.2325 -0.4787
  935MPD2    C213674   3.000   0.440   1.511 -0.5192  0.2318 -0.2739
  935MPD2    C313675   2.966   0.483   1.639  0.9816 -0.0051  0.0439
  935MPD2    C413676   3.001   0.402   1.746 -0.1086 -0.7610 -0.5321
  935MPD2    C513677   3.049   0.270   1.712  0.1607  0.4846 -0.0299
  935MPD2     H13678   2.977   0.507   1.428  1.3611  1.2027 -0.0169
  935MPD2    H113679   2.968   0.428   1.846  0.5505 -1.6717 -0.0832
  935MPD2    H213680   3.135   0.130   1.573 -0.0314 -0.4387  0.5034
  935MPD2    H313681   3.065   0.200   1.793 -1.4735  1.1151  0.8454
  935MPD2     N13682   2.916   0.611   1.676 -0.4876 -0.1054 -0.2773
  935MPD2    H513683   2.910   0.630   1.776 -0.0108 -0.8867 -0.1030
  935MPD2    N113684   3.121   0.305   1.350 -0.0126 -0.4579 -0.1702
  935MPD2    H713685   3.100   0.376   1.281  1.6600  1.3053  1.1356
  936MPD2     C13686   2.121   2.035  12.434  0.1305  0.0464  0.1810
  936MPD2    C113687   2.134   2.097  12.551  0.5724  0.2331 -0.0313
  936MPD2    C213688   2.248   2.176  12.579  0.5766  0.7036  0.1896
  936MPD2    C313689   2.345   2.195  12.482  1.3212 -0.6242 -0.8773
  936MPD2    C413690   2.316   2.150  12.359  0.8055  0.5512 -0.1528
  936MPD2    C513691   2.210   2.075  12.335  0.9657 -0.4179 -0.1365
  936MPD2     H13692   2.266   2.223  12.674 -0.9042  0.7864  0.4260
  936MPD2    H113693   2.384   2.162  12.276  1.8796 -1.5265  0.4110
  936MPD2    H213694   2.036   1.973  12.408  0.6872  0.1516 -1.9117
  936MPD2    H313695   2.186   2.042  12.235  1.1107  0.4403 -0.4560
  936MPD2     N13696   2.463   2.274  12.502 -1.0336 -0.9209 -0.4168
  936MPD2    H513697   2.516   2.295  12.418  0.3912 -1.5150  0.3165
  936MPD2    N113698   2.050   2.068  12.659 -0.1697 -0.2416 -1.0193
  936MPD2    H713699   2.067   2.117  12.746 -1.7180 -1.2804 -0.1217
  937MPD2     C13700   4.637   3.475  11.476  0.1681  0.3750  0.1897
  937MPD2    C113701   4.639   3.611  11.448  0.1394  0.3130 -0.1618
  937MPD2    C213702   4.719   3.653  11.341  0.2385  0.4134 -0.1774
  937MPD2    C313703   0.047   3.564  11.251  0.0525 -0.1132 -0.0417
  937MPD2    C413704   0.033   3.430  11.272 -0.6517 -0.0870 -0.1146
  937MPD2    C513705   4.696   3.388  11.385 -0.6576 -0.4889 -0.5290
  937MPD2     H13706   0.013   3.758  11.326 -1.4844  0.6459 -0.6608
  937MPD2    H113707   0.073   3.354  11.206 -0.5653  0.5278 -0.7729
  937MPD2    H213708   4.586   3.429  11.561 -1.4771  1.0673 -0.4159
  937MPD2    H313709   4.688   3.280  11.392  1.5390 -0.5729  0.7330
  937MPD2     N13710   0.117   3.620  11.134 -0.8507  0.1849  0.1585
  937MPD2    H513711   0.139   3.719  11.142 -0.7089  0.1976 -0.3315
  937MPD2    N113712   4.613   3.709  11.546  0.0841  0.6047 -0.1224
  937MPD2    H713713   4.628   3.803  11.510 -4.7005  0.2666 -2.9852
  938MPD2     C13714   2.345   0.446   0.527  0.5224 -0.5867  0.3429
  938MPD2    C113715   2.310   0.535   0.628 -0.6259  0.1339 -0.2459
  938MPD2    C213716   2.319   0.487   0.758  0.1895 -0.1974  0.1351
  938MPD2    C313717   2.371   0.363   0.788  0.5837  0.1013  0.2746
  938MPD2    C413718   2.389   0.267   0.683  0.8537  0.2271 -0.3621
  938MPD2    C513719   2.375   0.316   0.557  0.3619  0.8087  0.0880
  938MPD2     H13720   2.303   0.559   0.837  1.3660 -0.8220  0.9379
  938MPD2    H113721   2.405   0.161   0.699  2.1817  0.6423  1.1113
  938MPD2    H213722   2.334   0.470   0.422 -0.4825 -0.8170  0.3947
  938MPD2    H313723   2.386   0.247   0.474 -3.5777 -0.1006  0.2912
  938MPD2     N13724   2.385   0.319   0.930 -0.3683  0.1739 -0.0825
  938MPD2    H513725   2.415   0.223   0.942 -1.2197 -0.2915 -1.6483
  938MPD2    N113726   2.289   0.676   0.611  0.0897  0.0054 -0.1204
  938MPD2    H713727   2.296   0.729   0.697 -0.1175 -1.4000  0.7748
  939MPD2     C13728   3.775   0.971   1.037 -0.1463  0.0562 -0.1515
  939MPD2    C113729   3.773   1.102   0.988 -0.2737 -0.3363  0.0120
  939MPD2    C213730   3.881   1.132   0.906 -0.4328  0.6077 -0.1576
  939MPD2    C313731   3.986   1.047   0.876  0.0572  0.6760 -0.8622
  939MPD2    C413732   3.989   0.923   0.939  0.6094 -0.4781  0.3513
  939MPD2    C513733   3.877   0.882   1.014 -0.1252  0.6992 -0.5215
  939MPD2     H13734   3.898   1.231   0.866 -0.1647  0.7744  0.3749
  939MPD2    H113735   4.076   0.859   0.933  0.5986 -0.2366 -2.6317
  939MPD2    H213736   3.695   0.940   1.104 -0.4362 -1.4398 -1.1942
  939MPD2    H313737   3.881   0.781   1.053 -0.5853  0.3801 -1.2868
  939MPD2     N13738   4.093   1.107   0.809 -0.0981  0.7381 -0.4391
  939MPD2    H513739   4.085   1.206   0.788  0.1513  1.0614  0.9919
  939MPD2    N113740   3.664   1.189   1.020  0.3145  0.0223  0.3523
  939MPD2    H713741   3.589   1.154   1.078 -1.9840  2.0561 -1.4067
  940MPD2     C13742   3.093   2.194  13.017  0.3224 -0.4405 -0.0372
  940MPD2    C113743   3.106   2.323  13.066 -0.5188 -0.3176 -0.2449
  940MPD2    C213744   3.099   2.424  12.973 -0.4994  0.3132 -0.4574
  940MPD2    C313745   3.095   2.399  12.838 -0.5921 -0.3913 -0.3661
  940MPD2    C413746   3.068   2.267  12.793  0.6021  0.1284 -0.5776
  940MPD2    C513747   3.080   2.166  12.882  0.5787  0.2260  0.0709
  940MPD2     H13748   3.103   2.529  13.002 -0.1460  0.5632 -1.4018
  940MPD2    H113749   3.047   2.237  12.690  1.0772 -0.7814 -0.4082
  940MPD2    H213750   3.100   2.107  13.082  2.7185  0.1588  0.5214
  940MPD2    H313751   3.070   2.065  12.844  1.6392 -0.3662  1.3958
  940MPD2     N13752   3.114   2.494  12.741  0.3286  0.0106 -0.1930
  940MPD2    H513753   3.111   2.455  12.648 -0.5610  0.2776 -0.2838
  940MPD2    N113754   3.104   2.353  13.204  0.2689  0.1888 -0.2211
  940MPD2    H713755   3.110   2.452  13.226  0.8873 -0.1907  1.3896
  941MPD2     C13756   2.328   1.258   9.354  0.5014 -0.1613 -0.2602
  941MPD2    C113757   2.387   1.224   9.470 -0.0338  0.0777 -0.0213
  941MPD2    C213758   2.382   1.089   9.501  0.0889  0.2576  0.4888
  941MPD2    C313759   2.324   0.993   9.414  0.1931 -0.1690 -0.3670
  941MPD2    C413760   2.272   1.033   9.292  0.2321  0.6577  0.1717
  941MPD2    C513761   2.269   1.170   9.271 -0.3651 -0.0898 -0.3439
  941MPD2     H13762   2.441   1.056   9.586  3.4335 -1.0556 -2.3187
  941MPD2    H113763   2.231   0.965   9.219  0.6700  1.3226 -0.6922
  941MPD2    H213764   2.320   1.355   9.308 -2.3051 -0.4123 -0.3178
  941MPD2    H313765   2.229   1.193   9.172 -2.7316 -1.3059  0.3365
  941MPD2     N13766   2.307   0.855   9.434  0.3620 -1.1788 -0.1521
  941MPD2    H513767   2.252   0.802   9.367 -1.0742  2.2651 -1.6517
  941MPD2    N113768   2.436   1.319   9.561  0.1085  0.3589 -0.1940
  941MPD2    H713769   2.460   1.281   9.652  1.3662  2.2549  0.2680
  942MPD2     C13770   1.011   3.225   9.685 -0.7315  0.1788 -0.2833
  942MPD2    C113771   0.993   3.090   9.679 -0.2252 -0.7428 -0.2798
  942MPD2    C213772   1.108   3.008   9.692  0.3451  0.0375 -0.0764
  942MPD2    C313773   1.233   3.063   9.686 -0.1099  0.1936 -0.0294
  942MPD2    C413774   1.242   3.200   9.686 -0.2289 -0.1190 -0.8137
  942MPD2    C513775   1.135   3.286   9.691 -0.6522  0.3269 -0.1999
  942MPD2     H13776   1.093   2.901   9.700  0.0434  0.1026  0.2727
  942MPD2    H113777   1.340   3.245   9.690  0.0730 -1.1600  2.8804
  942MPD2    H213778   0.924   3.290   9.678 -1.8726 -1.3171 -0.1345
  942MPD2    H313779   1.140   3.395   9.695 -1.2311  0.4423 -2.3797
  942MPD2     N13780   1.356   2.986   9.671  0.5192  0.4260  0.0845
  942MPD2    H513781   1.444   3.035   9.663 -0.3452  1.7486 -1.3730
  942MPD2    N113782   0.868   3.020   9.677  0.2958 -0.4895  0.1037
  942MPD2    H713783   0.863   2.919   9.681 -1.8542 -0.4628 -1.6998
  943MPD2     C13784   1.831   0.600   9.782  0.2059  0.7630  0.0066
  943MPD2    C113785   1.691   0.610   9.773  0.5824 -0.5087  0.1898
  943MPD2    C213786   1.631   0.650   9.657  0.2688 -0.8076 -0.3741
  943MPD2    C313787   1.705   0.685   9.549  0.0190 -0.4396 -0.6524
  943MPD2    C413788   1.839   0.687   9.563 -0.3224  0.3742  0.0152
  943MPD2    C513789   1.905   0.648   9.677  0.2672  0.8010  0.4907
  943MPD2     H13790   1.524   0.663   9.646  0.2162  0.0545  1.2163
  943MPD2    H113791   1.894   0.706   9.471  0.7199 -3.1860 -0.1012
  943MPD2    H213792   1.887   0.590   9.874 -2.8039  0.3049  1.8021
  943MPD2    H313793   2.012   0.644   9.686  0.4692  1.2987 -1.8340
  943MPD2     N13794   1.656   0.722   9.418  0.0136 -0.0616  0.2625
  943MPD2    H513795   1.724   0.746   9.346  0.3472  2.2576  1.3720
  943MPD2    N113796   1.624   0.576   9.893  0.5020  0.8269  0.5273
  943MPD2    H713797   1.681   0.527   9.961  0.0595  0.0943  0.3655
  944MPD2     C13798   0.537   0.220  11.248  0.3540  0.8359  0.2792
  944MPD2    C113799   0.634   0.210  11.342 -0.2325  0.0843 -0.3573
  944MPD2    C213800   0.638   0.303  11.445 -0.4736 -0.3714 -0.8996
  944MPD2    C313801   0.534   0.391  11.458  0.2337 -1.0133 -0.2616
  944MPD2    C413802   0.433   0.399  11.357  0.3926  0.6287  1.0065
  944MPD2    C513803   0.438   0.314  11.248 -0.2843  0.5958  0.5060
  944MPD2     H13804   0.722   0.296  11.514  1.4810  2.2790 -3.0072
  944MPD2    H113805   0.345   0.460  11.371  0.5465  0.8189  1.1390
  944MPD2    H213806   0.531   0.151  11.164  0.1889  0.4971  0.5684
  944MPD2    H313807   0.365   0.321  11.168 -0.1303  1.4181  0.4351
  944MPD2     N13808   0.522   0.463  11.580 -0.3417  0.0352  0.5122
  944MPD2    H513809   0.581   0.429  11.655  0.1925  1.5438  0.7744
  944MPD2    N113810   0.736   0.114  11.331 -0.5613  0.1568  0.3666
  944MPD2    H713811   0.735   0.057  11.247  1.9768  0.2632  0.2576
    1TCq1    O113812   3.055   1.486  14.393  0.5036  0.3101 -0.2324
    1TCq1    C113813   3.043   1.361  14.441  0.7540 -0.9950  0.3591
    1TCq1    O213814   2.967   1.277  14.400 -0.2974  0.1169  0.0300
    1TCq1    C213815   3.147   1.333  14.537 -0.1058  0.4034  0.2396
    1TCq1    C313816   3.132   1.225  14.617  0.2810 -0.0344 -0.4154
    1TCq1    C413817   3.209   1.223  14.730 -0.2038 -0.3756  0.2444
    1TCq1    C513818   3.311   1.311  14.752 -0.1625  0.0202 -0.0737
    1TCq1    C613819   3.329   1.408  14.659 -0.8032  0.0548 -1.0166
    1TCq1    C713820   3.246   1.427  14.555 -0.2142 -0.0836 -0.0975
    1TCq1    C813821   3.442   1.506  14.673 -0.6257  0.2120  0.2994
    1TCq1    O413822   3.544   1.462  14.729  0.4967  1.0055  0.4055
    1TCq1    C913823   3.189   1.116  14.821 -0.3934 -0.1920  0.6590
    1TCq1    O513824   3.227   1.137  14.942  0.5740  0.1537  0.0382
    1TCq1    O613825   3.112   1.032  14.781  0.9851  0.1618  0.1170
    1TCq1    H113826   3.123   1.542  14.436 -1.4787  0.7971  2.3231
    1TCq1    H213827   3.054   1.150  14.605 -0.4247  0.9809 -2.0668
    1TCq1    H313828   3.383   1.314  14.833  1.4167 -1.7760 -1.4175
    1TCq1    H413829   3.263   1.508  14.486 -0.6745  1.3290  1.4407
    2MPD2     C13830   3.643   1.983  14.765 -0.0563  0.7161 -0.2452
    2MPD2    C113831   3.518   1.999  14.705  0.1957 -0.5513  0.1991
    2MPD2    C213832   3.446   1.880  14.665  0.2193  0.0469 -0.6748
    2MPD2    C313833   3.496   1.754  14.683 -0.8618  0.0895 -0.0074
    2MPD2    C413834   3.625   1.744  14.734 -0.1028 -0.4159 -0.5562
    2MPD2    C513835   3.698   1.853  14.774 -0.3175 -0.7262 -0.3938
    2MPD2     H13836   3.347   1.890  14.621 -0.3919  2.6502  1.2744
    2MPD2    H113837   3.680   1.650  14.732  0.9421  0.2502 -2.7218
    2MPD2    H213838   3.693   2.069  14.806 -0.3045  1.2615 -1.0777
    2MPD2    H313839   3.793   1.845  14.826 -0.6971  2.0605  0.6997
    2MPD2     N13840   3.411   1.641  14.652 -0.1486 -0.0684  0.6342
    2MPD2    H513841   3.318   1.665  14.619 -0.5544 -0.9089  1.1673
    2MPD2    N113842   3.481   2.125  14.684  0.2312 -0.0319 -0.6429
    2MPD2    H713843   3.552   2.192  14.710 -0.0312  0.5881 -1.5472
    3TMC2    C113844   3.363   2.310  14.595 -0.1863  0.1125 -0.5424
    3TMC2    C213845   3.238   2.374  14.599 -0.1185 -1.0954 -0.0304
    3TMC2    C313846   3.209   2.470  14.505  0.5488 -1.0143  0.2714
    3TMC2    C413847   3.461   2.347  14.507 -0.7617 -0.6130 -0.4027
    3TMC2    C513848   3.428   2.440  14.417  1.0281 -0.5887  0.8229
    3TMC2    C613849   3.313   2.510  14.423  0.1077 -0.5572 -0.9859
    3TMC2     C13850   3.357   2.172  14.646 -0.0184  0.2380  0.2194
    3TMC2     O13851   3.265   2.113  14.599  0.3617  0.1733  0.3512
    3TMC2     H13852   3.160   2.340  14.667  0.2658 -0.1382  0.8884
    3TMC2    H113853   3.553   2.292  14.492 -1.2015 -0.9515 -1.7858
    3TMC2    H213854   3.299   2.612  14.392  1.6463  0.1025  0.4238
    3TMC2    C713855   3.496   2.435  14.289 -0.1794 -0.7747 -0.2912
    3TMC2    C813856   3.126   2.576  14.554 -0.0552  0.4531 -0.3347
    3TMC2    O113857   3.595   2.374  14.281  0.3715 -0.2346  0.4855
    3TMC2    O213858   3.120   2.594  14.677 -0.7582  0.1576 -0.2794
    3TMC2    O513859   3.027   2.593  14.466 -0.4040  0.3040 -0.5539
    3TMC2    H513860   3.057   2.585  14.373  0.2839 -1.6896 -0.1579
    4MPD2     C13861   2.340   3.168  13.574  0.2655 -0.4182  0.8979
    4MPD2    C113862   2.355   3.059  13.496  0.3384 -0.0895  0.4468
    4MPD2    C213863   2.480   2.996  13.482  0.6014 -0.0098  0.2336
    4MPD2    C313864   2.585   3.032  13.559 -0.1099 -0.0987  0.1750
    4MPD2    C413865   2.567   3.141  13.650  0.3100 -0.4228 -0.3245
    4MPD2    C513866   2.447   3.209  13.647  0.2902  0.2838  0.1521
    4MPD2     H13867   2.472   2.910  13.416  1.1424  0.7753 -0.8460
    4MPD2    H113868   2.647   3.165  13.720  0.5020 -1.7078 -0.0935
    4MPD2    H213869   2.243   3.216  13.585  0.7891  1.0359 -0.8948
    4MPD2    H313870   2.434   3.286  13.721 -1.2907 -0.1168  0.3011
    4MPD2     N13871   2.711   2.965  13.545 -0.0055  0.3638 -0.0841
    4MPD2    H513872   2.717   2.907  13.462  1.6406  0.3437  0.0477
    4MPD2    N113873   2.251   3.009  13.417 -0.3281 -0.4798  0.4258
    4MPD2    H713874   2.270   2.930  13.356  1.4347  0.7255 -0.6029
    5TCq2    C113875   2.820   2.980  13.624  0.5100 -0.2107  0.3145
    5TCq2    O213876   2.822   3.023  13.738 -0.1006 -0.3233 -0.1765
    5TCq2    C213877   2.944   2.903  13.577  0.4788 -0.3317  0.0558
    5TCq2    C313878   2.966   2.871  13.444  0.1451  0.0425 -0.0417
    5TCq2    C413879   3.070   2.792  13.420 -0.0728  0.1772 -0.3952
    5TCq2    C513880   3.156   2.747  13.519 -0.0380 -0.3443  0.3619
    5TCq2    C613881   3.134   2.788  13.646 -0.6160 -0.2980 -0.4280
    5TCq2    C713882   3.032   2.864  13.680 -0.2105 -0.2673 -0.0963
    5TCq2    C813883   3.209   2.743  13.764  0.1673 -0.2050  0.0866
    5TCq2    O413884   3.144   2.745  13.865 -0.3992 -0.4780  0.1335
    5TCq2    C913885   3.082   2.730  13.281  0.7442  0.1987 -0.2475
    5TCq2    O513886   3.054   2.808  13.184  0.1355  0.6749 -0.2570
    5TCq2    O613887   3.158   2.629  13.276  0.0423  0.1832  0.8736
    5TCq2    H213888   2.903   2.899  13.361 -2.1870 -1.4269  1.2444
    5TCq2    H313889   3.242   2.685  13.497  1.6476  2.8979 -2.0707
    5TCq2    H413890   3.032   2.911  13.778 -0.9679  0.6923 -0.5607
    6MPD1     C13891   2.356   4.408  12.487 -0.9266  0.4949 -0.1778
    6MPD1    C113892   2.267   4.431  12.589 -0.3848  0.0757 -0.7356
    6MPD1    C213893   2.210   4.328  12.652  0.3480 -0.2539  0.1926
    6MPD1    C313894   2.240   4.195  12.615  0.8053 -0.0336  0.1677
    6MPD1    C413895   2.340   4.184  12.521  0.0840  0.8305 -0.0471
    6MPD1    C513896   2.397   4.288  12.462 -0.5176 -0.5251  0.2909
    6MPD1     H13897   2.137   4.348  12.729  1.6302 -1.9856  1.8510
    6MPD1    H113898   2.394   4.091  12.507  1.6867  1.7061  0.3625
    6MPD1    H213899   2.401   4.496  12.441  0.3603 -0.0440  0.0319
    6MPD1    H313900   2.476   4.275  12.389  0.1173  2.5000  0.4389
    6MPD1     N13901   2.179   4.082  12.665 -0.2048 -0.1073  0.4297
    6MPD1    H513902   2.214   3.995  12.627 -0.5928 -1.4109  3.0809
    6MPD1    N113903   2.267   4.558  12.640 -0.5563 -0.0992  0.5217
    6MPD1    H613904   2.177   4.581  12.682 -1.6937 -0.8518 -1.5653
    6MPD1    H713905   2.282   4.626  12.566 -1.0292 -1.2775 -0.6495
    7MPD2     C13906   1.716   3.620  13.282 -1.1699 -0.5843 -0.0834
    7MPD2    C113907   1.742   3.566  13.153  0.2817  0.6090  0.3947
    7MPD2    C213908   1.744   3.427  13.135 -0.1037  0.5982  0.4738
    7MPD2    C313909   1.722   3.346  13.245 -0.2748 -0.0359  0.1057
    7MPD2    C413910   1.677   3.399  13.365 -0.2255  0.2120  0.4919
    7MPD2    C513911   1.670   3.535  13.387  0.6812  0.6525  0.2744
    7MPD2     H13912   1.769   3.383  13.039 -1.0262  0.9433  0.0760
    7MPD2    H113913   1.658   3.340  13.454  0.3263 -0.8379 -0.0925
    7MPD2    H213914   1.698   3.727  13.285  0.0455 -0.3369 -1.7087
    7MPD2    H313915   1.654   3.574  13.487  0.7275 -1.7224  1.2072
    7MPD2     N13916   1.744   3.203  13.246 -0.2273  0.0446 -0.2934
    7MPD2    H513917   1.729   3.147  13.329 -0.8768  0.5324 -0.0849
    7MPD2    N113918   1.784   3.639  13.037 -0.2415 -0.0644 -0.5156
    7MPD2    H713919   1.785   3.591  12.947  0.1088 -0.3157 -0.3763
    8TMC3    C113920   1.850   3.004  13.182 -0.0755  0.2417  0.2915
    8TMC3    C213921   1.914   3.018  13.302 -0.2229 -0.2996  0.6581
    8TMC3    C313922   2.048   2.980  13.309 -0.0347 -0.0064  0.0139
    8TMC3    C413923   1.910   2.949  13.073  0.2600  0.2098 -0.0109
    8TMC3    C513924   2.042   2.913  13.087  0.0277 -0.2745  0.3096
    8TMC3    C613925   2.116   2.928  13.198  0.5405 -0.4064 -0.4372
    8TMC3     C13926   1.792   3.129  13.137  0.3036 -0.0584  0.0293
    8TMC3     O13927   1.840   3.172  13.032  0.0081 -0.1093  0.1955
    8TMC3     H13928   1.861   3.042  13.394 -0.5705  1.2606  0.0330
    8TMC3    H113929   1.858   2.943  12.978  2.6635  0.5798 -1.3548
    8TMC3    H213930   2.220   2.900  13.195  1.0173  1.5037 -1.3968
    8TMC3    C713931   2.118   2.948  12.968 -0.0070  0.2303 -0.6088
    8TMC3    C813932   2.120   3.039  13.422  0.0296 -0.3824  0.3579
    8TMC3    O113933   2.223   2.890  12.957  0.2384 -0.0201  0.0311
    8TMC3    O213934   2.053   3.110  13.496 -0.5397 -0.7700  0.0021
    9TMC3    C113935   2.018   3.947  12.778 -0.4714 -0.1296 -0.6220
    9TMC3    C213936   2.077   3.849  12.708  0.8045  0.4775 -0.4785
    9TMC3    C313937   2.046   3.722  12.750  0.0813  0.4675  0.6754
    9TMC3    C413938   1.930   3.922  12.881 -0.0994  0.3551 -0.0685
    9TMC3    C513939   1.896   3.797  12.917 -0.4417  0.0477 -0.7035
    9TMC3    C613940   1.963   3.691  12.854 -0.0424 -0.0349 -0.4686
    9TMC3     C13941   2.070   4.079  12.755  0.1134  0.0302 -0.7936
    9TMC3     O13942   1.995   4.171  12.787 -0.0333  0.1193  0.2471
    9TMC3     H13943   2.139   3.860  12.620  2.0468  0.8653  0.4427
    9TMC3    H113944   1.893   4.004  12.942  0.0401 -0.0018  0.4972
    9TMC3    H213945   1.956   3.592  12.896  0.3574  0.1578  0.0507
    9TMC3    C713946   1.830   3.770  13.039  0.7588  0.5694 -0.7159
    9TMC3    C813947   2.117   3.608  12.686 -0.2689 -0.1373 -0.3550
    9TMC3    O113948   1.831   3.857  13.129  0.1941 -0.3169 -0.6074
    9TMC3    O213949   2.231   3.634  12.653 -0.1087 -0.3740 -0.5818
   10MPD2     C13950   2.254   3.117  12.756 -0.2505  0.8808  0.0990
   10MPD2    C113951   2.134   3.147  12.814  0.4545 -0.7477  0.1522
   10MPD2    C213952   2.061   3.259  12.785 -0.3192 -0.1190  0.4607
   10MPD2    C313953   2.122   3.359  12.712  0.1979 -0.3098 -0.1535
   10MPD2    C413954   2.248   3.339  12.657 -0.6308  0.2728  0.9082
   10MPD2    C513955   2.306   3.217  12.682 -0.0670 -0.0973 -0.2526
   10MPD2     H13956   1.964   3.278  12.831 -1.6679 -2.8652 -1.2288
   10MPD2    H113957   2.306   3.401  12.590  0.3068 -0.8996  0.6559
   10MPD2    H213958   2.311   3.026  12.772 -0.4922  0.6360 -0.4497
   10MPD2    H313959   2.410   3.216  12.652  0.7416 -1.6052  2.6342
   10MPD2     N13960   2.062   3.488  12.722 -0.1249  0.3664 -0.0689
   10MPD2    H513961   1.969   3.502  12.762  0.0041 -0.0994  0.3994
   10MPD2    N113962   2.073   3.064  12.910  0.5519 -0.2935  0.7502
   10MPD2    H713963   1.994   3.100  12.963  0.0360 -0.1089 -0.1410
   11MPD2     C13964   3.575   2.455  13.998 -0.2361 -0.1480 -0.2647
   11MPD2    C113965   3.461   2.515  14.053  0.0558 -0.2299 -0.0343
   11MPD2    C213966   3.376   2.593  13.970  0.9367  0.3247  0.6945
   11MPD2    C313967   3.416   2.620  13.839 -0.1570 -0.0523 -0.2119
   11MPD2    C413968   3.539   2.572  13.794 -0.3970 -0.0990 -0.3333
   11MPD2    C513969   3.615   2.488  13.868  0.3963 -0.2818 -0.1368
   11MPD2     H13970   3.286   2.635  14.014  1.8348  1.6610  1.2491
   11MPD2    H113971   3.573   2.597  13.695 -1.2194  0.2706 -0.5267
   11MPD2    H213972   3.638   2.387  14.055 -0.1999  0.1110 -0.0008
   11MPD2    H313973   3.699   2.436  13.821 -0.6651 -2.2503  0.1257
   11MPD2     N13974   3.341   2.699  13.747 -0.6626  0.0586 -0.2996
   11MPD2    H513975   3.383   2.727  13.659 -2.3573  0.9020 -0.8410
   11MPD2    N113976   3.426   2.503  14.188 -0.0065  0.3394  0.2356
   11MPD2    H713977   3.339   2.545  14.218 -1.5274 -3.1664  0.7280
    1MPD1     C13978   1.194   3.814  17.126  0.4755  0.2188  0.0676
    1MPD1    C113979   1.279   3.728  17.191 -0.3271 -0.2136 -0.4986
    1MPD1    C213980   1.414   3.750  17.163  0.2178 -0.1570  0.7128
    1MPD1    C313981   1.462   3.836  17.062  0.3252  0.2832  0.0077
    1MPD1    C413982   1.368   3.905  16.993  0.2155 -0.5748 -0.2891
    1MPD1    C513983   1.236   3.902  17.031  0.5123  0.7172 -0.3040
    1MPD1     H13984   1.484   3.685  17.214 -1.1399 -3.0595 -1.1533
    1MPD1    H113985   1.398   3.976  16.916 -0.0223  0.3240  0.4541
    1MPD1    H213986   1.091   3.826  17.157 -0.3219  0.7526 -2.7345
    1MPD1    H313987   1.164   3.962  16.975 -0.3718  0.1272  0.2045
    1MPD1     N13988   1.599   3.855  17.025  0.2121 -0.2992 -1.0957
    1MPD1    H513989   1.621   3.917  16.949 -0.1998  0.0117 -0.9616
    1MPD1    N113990   1.238   3.650  17.304  0.6121  0.4131  0.3252
    1MPD1    H613991   1.301   3.573  17.326  0.0691 -0.7745 -2.2274
    1MPD1    H713992   1.145   3.608  17.302  0.5387  0.5472  0.8198
    2MPD1     C13993   2.381   3.405  17.450 -0.3592  0.6377  0.5121
    2MPD1    C113994   2.265   3.458  17.496 -0.4778  0.1357  0.6118
    2MPD1    C213995   2.210   3.567  17.423 -0.3574 -0.0734 -0.8762
    2MPD1    C313996   2.244   3.590  17.289 -0.1348 -0.4050  0.1552
    2MPD1    C413997   2.361   3.530  17.247  0.3111  0.3311  0.3707
    2MPD1    C513998   2.427   3.447  17.328  0.3606 -0.4315 -0.2716
    2MPD1     H13999   2.119   3.617  17.456 -0.0816  1.5322 -2.5186
    2MPD1    H114000   2.401   3.548  17.148 -2.3588  1.8711 -0.4254
    2MPD1    H214001   2.437   3.325  17.496  1.2227  0.6325 -1.4365
    2MPD1    H314002   2.515   3.395  17.293 -0.9359 -0.5757 -3.2465
    2MPD1     N14003   2.169   3.685  17.217  0.2509 -0.3476 -0.2882
    2MPD1    H514004   2.111   3.751  17.269 -1.1785 -1.3390 -0.6309
    2MPD1    N114005   2.232   3.433  17.633  0.3859  0.0910  0.4407
    2MPD1    H614006   2.134   3.444  17.655 -0.3890 -0.4251 -2.7940
    2MPD1    H714007   2.254   3.341  17.672  0.8002  0.0835  0.1932
    3TMC3    C114008   2.065   3.790  17.026  0.1422 -0.2837 -0.2447
    3TMC3    C214009   2.073   3.825  16.896  0.3600 -0.0186  0.2506
    3TMC3    C314010   1.959   3.881  16.836 -0.6641 -0.0862 -0.2893
    3TMC3    C414011   1.951   3.808  17.098 -0.0242 -0.5208  0.0866
    3TMC3    C514012   1.836   3.849  17.030  0.3943 -0.3901 -0.0744
    3TMC3    C614013   1.837   3.883  16.898 -0.3386 -0.4918 -0.2425
    3TMC3     C14014   2.172   3.704  17.077  0.2460  0.3986  0.2638
    3TMC3     O14015   2.258   3.657  17.001  0.4404 -0.0576 -0.0323
    3TMC3     H14016   2.156   3.797  16.831 -1.7086 -0.5860 -2.1294
    3TMC3    H114017   1.947   3.789  17.204 -2.8316 -1.3770 -0.1928
    3TMC3    H214018   1.754   3.930  16.845 -1.8143 -0.2591  2.3003
    3TMC3    C714019   1.710   3.804  17.091  0.1049 -1.2923  0.3105
    3TMC3    C814020   1.949   3.869  16.690  0.4987  0.0057 -0.3282
    3TMC3    O114021   1.712   3.740  17.193 -0.0945 -0.8936 -0.1009
    3TMC3    O214022   1.839   3.852  16.633  0.2484  0.0682 -0.4226
    4MPD1     C14023   2.187   3.768  16.248  0.0790  0.3860 -0.2123
    4MPD1    C114024   2.278   3.845  16.325  0.7557 -0.4917  0.6355
    4MPD1    C214025   2.231   3.885  16.451 -0.1425 -0.4994 -0.2232
    4MPD1    C314026   2.107   3.839  16.497  0.3526 -0.5674  0.0727
    4MPD1    C414027   2.025   3.760  16.417  0.1777 -0.0953 -0.1731
    4MPD1    C514028   2.066   3.722  16.295 -0.1886  0.2741 -0.0208
    4MPD1     H14029   2.288   3.944  16.522 -2.3987 -0.7041  1.7592
    4MPD1    H114030   1.924   3.735  16.449 -0.4869  0.9536 -1.4544
    4MPD1    H214031   2.230   3.731  16.155 -0.5251  1.6251 -0.9734
    4MPD1    H314032   2.010   3.661  16.225 -3.2477  2.8932  0.1897
    4MPD1     N14033   2.070   3.879  16.627  0.2736  0.0567  0.0151
    4MPD1    H514034   2.142   3.913  16.690  1.3442 -0.4648 -0.9255
    4MPD1    N114035   2.387   3.895  16.259  0.5731 -0.7540 -0.0635
    4MPD1    H614036   2.465   3.914  16.322  1.2352  3.1404 -2.0591
    4MPD1    H714037   2.423   3.824  16.196 -0.5923 -0.0385 -1.5504
    1TCq1    O114038   2.138   4.039  11.366 -0.5018 -0.0864 -0.0132
    1TCq1    C114039   2.210   4.041  11.256  0.1559  0.3657 -0.1452
    1TCq1    O214040   2.292   4.131  11.226  0.2207  0.0075  0.3382
    1TCq1    C214041   2.168   3.942  11.164 -0.5538  0.3258 -0.0093
    1TCq1    C314042   2.139   3.824  11.219 -0.1710 -0.2811  0.0183
    1TCq1    C414043   2.140   3.719  11.134  0.0327 -0.4654  0.0005
    1TCq1    C514044   2.158   3.728  11.001  0.1506  0.3266 -0.8261
    1TCq1    C614045   2.193   3.850  10.950  0.6090 -0.1408 -0.6761
    1TCq1    C714046   2.193   3.957  11.029  0.4754 -0.0344 -0.1501
    1TCq1    C814047   2.256   3.863  10.824  0.1437 -0.4671  0.3253
    1TCq1    O414048   2.285   3.977  10.790  0.1503  0.3507  0.5436
    1TCq1    C914049   2.092   3.593  11.178 -0.4307 -0.1331  0.2267
    1TCq1    O514050   2.052   3.580  11.295 -0.8299 -0.0590 -0.2726
    1TCq1    O614051   2.048   3.516  11.093 -0.5680  0.2427 -0.8465
    1TCq1    H114052   2.053   3.992  11.354 -0.1194 -0.0905 -2.5273
    1TCq1    H214053   2.150   3.807  11.325 -4.0493  0.3616  0.5136
    1TCq1    H314054   2.156   3.638  10.942  1.1368  0.6714 -1.3908
    1TCq1    H414055   2.226   4.053  10.992  1.9862 -0.4172  0.2166
    2MPD1     C14056   2.559   3.670  10.447  0.1311 -0.2360 -0.8574
    2MPD1    C114057   2.494   3.570  10.508 -0.3796 -0.8509  0.6640
    2MPD1    C214058   2.407   3.598  10.612 -0.2087  0.9209 -0.0229
    2MPD1    C314059   2.376   3.725  10.658 -0.2982 -0.0223 -0.0726
    2MPD1    C414060   2.453   3.828  10.596 -0.1792  0.3994  0.0949
    2MPD1    C514061   2.528   3.797  10.486 -0.2038  0.0475  0.4024
    2MPD1     H14062   2.340   3.522  10.649 -2.6718  3.1670  0.1365
    2MPD1    H114063   2.449   3.932  10.625 -0.0704  0.6154 -0.6651
    2MPD1    H214064   2.632   3.652  10.369  2.1604 -0.6444  1.1145
    2MPD1    H314065   2.570   3.886  10.442  1.0777 -0.8180 -0.1510
    2MPD1     N14066   2.296   3.740  10.770 -0.2976 -0.1330  0.8974
    2MPD1    H514067   2.271   3.661  10.828 -0.7192  0.5322  1.6160
    2MPD1    N114068   2.483   3.443  10.452  0.3799 -0.4006 -0.1283
    2MPD1    H614069   2.566   3.414  10.401 -0.3909 -1.8709 -0.5516
    2MPD1    H714070   2.467   3.377  10.529  0.9015  0.4615  0.7179
    1TCq1    O114071   2.438   0.144   9.609 -0.2487  0.1620  0.5023
    1TCq1    C114072   2.567   0.107   9.602 -0.4226  0.1164 -0.2158
    1TCq1    O214073   2.668   0.169   9.642 -0.1754 -0.1979 -1.0350
    1TCq1    C214074   2.564   4.692   9.576 -0.2305 -0.1915 -0.0051
    1TCq1    C314075   2.486   4.657   9.466  0.1452 -0.5080  0.6277
    1TCq1    C414076   2.521   4.542   9.403 -0.0167 -0.8606  0.2480
    1TCq1    C514077   2.629   4.465   9.443 -0.2095 -0.2849  0.5743
    1TCq1    C614078   2.701   4.499   9.554 -0.3065 -0.1248  0.1694
    1TCq1    C714079   2.669   4.613   9.623 -0.2460  0.2540  0.1395
    1TCq1    C814080   2.837   4.451   9.567 -0.0908  0.0345 -0.7090
    1TCq1    O414081   2.901   4.482   9.669 -0.3638 -0.0869  0.1618
    1TCq1    C914082   2.465   4.520   9.275  0.4339  0.0859 -0.2220
    1TCq1    O514083   2.504   4.421   9.205 -0.0455  0.2174  0.4900
    1TCq1    O614084   2.386   4.606   9.235 -0.0334 -0.3528  0.0266
    1TCq1    H114085   2.369   0.083   9.573 -1.0429  0.8041  0.9403
    1TCq1    H214086   2.424   0.004   9.414 -0.9747 -1.0133  1.2602
    1TCq1    H314087   2.651   4.372   9.393 -2.1074  0.2635 -1.2504
    1TCq1    H414088   2.714   4.634   9.719 -0.6515  1.5944  0.0285
    2MPD1     C14089   3.200   4.123   9.445 -0.1465  0.0554 -0.1218
    2MPD1    C114090   3.130   4.154   9.335  0.1542 -0.3041  0.2074
    2MPD1    C214091   3.021   4.235   9.334  0.3625 -0.5258  0.2121
    2MPD1    C314092   2.986   4.294   9.454  0.2430 -0.3603 -0.2692
    2MPD1    C414093   3.056   4.268   9.573 -0.1163 -0.3927  0.0544
    2MPD1    C514094   3.156   4.173   9.567 -0.1267  0.1484  0.7169
    2MPD1     H14095   2.964   4.253   9.243  2.7962 -0.6106 -1.3248
    2MPD1    H114096   3.037   4.309   9.671 -0.5802  1.3406 -0.7739
    2MPD1    H214097   3.282   4.055   9.425  0.3794  1.0429 -1.3025
    2MPD1    H314098   3.223   4.152   9.649 -0.9442  1.0670  1.6144
    2MPD1     N14099   2.874   4.383   9.453 -0.2098  0.3994 -0.4544
    2MPD1    H514100   2.815   4.378   9.370 -0.7252  0.8998 -0.1166
    2MPD1    N114101   3.159   4.069   9.223  0.6063 -0.2877  0.1053
    2MPD1    H614102   3.139   4.121   9.137  1.9753 -1.2976 -0.8214
    2MPD1    H714103   3.255   4.037   9.220  0.7648  0.2303 -0.5150
    1MPD1     C14104   2.849   3.186  12.667 -0.1825  0.2324 -0.5439
    1MPD1    C114105   2.971   3.144  12.722  0.0369  0.7016  0.2421
    1MPD1    C214106   3.086   3.212  12.688 -0.4519 -0.3044  0.3831
    1MPD1    C314107   3.081   3.307  12.588 -0.3105 -0.7143  0.4064
    1MPD1    C414108   2.963   3.330  12.524  0.0554  0.2845  0.5160
    1MPD1    C514109   2.839   3.290  12.570 -0.3615 -0.6013 -0.7168
    1MPD1     H14110   3.175   3.195  12.748  1.0723 -0.7971 -2.0436
    1MPD1    H114111   2.960   3.410  12.450  3.1409 -1.3443 -1.3548
    1MPD1    H214112   2.760   3.147  12.716  1.1969 -1.5562  0.5337
    1MPD1    H314113   2.746   3.324  12.526 -0.9822  2.3497  2.8762
    1MPD1     N14114   3.203   3.357  12.548  0.0846 -0.0116 -0.0498
    1MPD1    H514115   3.284   3.320  12.597 -0.4651 -1.4043 -0.1900
    1MPD1    N114116   2.957   3.050  12.828  0.2147 -0.0237  0.0337
    1MPD1    H614117   3.045   3.010  12.860  1.5469  1.9511 -1.1359
    1MPD1    H714118   2.900   2.971  12.800 -1.1357  0.5606  1.1780
    2MPD1     C14119   2.890   3.675  11.428 -0.0872  0.2987 -0.4990
    2MPD1    C114120   2.906   3.662  11.290 -0.3606 -0.0095 -0.3179
    2MPD1    C214121   3.034   3.640  11.246  0.2446 -0.0494 -0.2467
    2MPD1    C314122   3.140   3.639  11.336  0.0963 -0.1432  0.1217
    2MPD1    C414123   3.126   3.671  11.464  0.3885 -0.0255 -0.1393
    2MPD1    C514124   2.999   3.679  11.512  0.4674 -0.8582  0.4276
    2MPD1     H14125   3.053   3.616  11.142 -0.6671 -1.5259 -0.0770
    2MPD1    H114126   3.201   3.647  11.538  0.2445  3.1127  1.0248
    2MPD1    H214127   2.791   3.670  11.472 -0.8692 -1.1501 -2.4200
    2MPD1    H314128   2.983   3.690  11.618  3.4995 -1.7565  1.0029
    2MPD1     N14129   3.271   3.610  11.292  0.1467  0.3392 -0.1969
    2MPD1    H514130   3.344   3.633  11.359  1.4296  0.6998 -1.7120
    2MPD1    N114131   2.794   3.634  11.206 -0.0393 -0.4668  0.3456
    2MPD1    H614132   2.712   3.692  11.216  0.3189 -0.4075  2.9033
    2MPD1    H714133   2.813   3.619  11.106 -0.2125  0.3613  0.1918
    3MPD1     C14134   3.569   3.328  10.383  0.2305 -0.7287 -0.5537
    3MPD1    C114135   3.502   3.248  10.470 -0.4916  0.2021  0.2735
    3MPD1    C214136   3.501   3.288  10.601  0.6894  0.3997  0.2289
    3MPD1    C314137   3.579   3.391  10.646  0.4353  0.5382 -0.6484
    3MPD1    C414138   3.650   3.466  10.557 -0.2860  0.2434  0.0460
    3MPD1    C514139   3.644   3.434  10.418  0.1657 -0.0225  0.9744
    3MPD1     H14140   3.439   3.227  10.666  4.3370 -2.5257  1.0068
    3MPD1    H114141   3.704   3.556  10.585 -1.2350  1.3260 -1.5840
    3MPD1    H214142   3.566   3.302  10.278  0.4988 -1.2878 -0.4218
    3MPD1    H314143   3.695   3.501  10.350 -0.1324 -0.7282  0.0636
    3MPD1     N14144   3.578   3.423  10.786 -0.3584 -0.6486  0.1733
    3MPD1    H514145   3.526   3.360  10.846 -2.0622  1.9375  1.4472
    3MPD1    N114146   3.435   3.134  10.419 -0.6679 -0.5124 -0.4840
    3MPD1    H614147   3.448   3.116  10.320 -1.5919 -0.8426 -0.5478
    3MPD1    H714148   3.340   3.122  10.453 -0.7225 -0.2201 -0.5352
    4MPD2     C14149   3.736   3.828  12.101 -0.2264  0.2932 -0.0233
    4MPD2    C114150   3.768   3.714  12.177 -0.5787  0.4163 -1.0546
    4MPD2    C214151   3.884   3.654  12.147  0.3955 -0.1376 -0.0379
    4MPD2    C314152   3.956   3.691  12.040  0.4829  0.5670  0.0138
    4MPD2    C414153   3.915   3.794  11.960  0.4998 -0.1246 -0.8077
    4MPD2    C514154   3.808   3.873  11.990  0.6537  0.4251  0.9125
    4MPD2     H14155   3.914   3.568  12.206  0.1828  0.8971  1.5905
    4MPD2    H114156   3.974   3.817  11.873  1.9839  3.7074  1.2241
    4MPD2    H214157   3.639   3.876  12.112 -0.9568 -1.2965  0.3960
    4MPD2    H314158   3.768   3.951  11.926 -0.3072 -0.4008  0.5096
    4MPD2     N14159   4.077   3.627  12.001  0.1846 -0.6652  0.8399
    4MPD2    H514160   4.121   3.676  11.924 -2.1859 -0.9664 -0.7091
    4MPD2    N114161   3.690   3.664  12.287 -0.6389  0.0752 -0.2100
    4MPD2    H714162   3.731   3.581  12.329  0.7291  0.4831 -0.7552
    5TMC3    C114163   3.510   3.652  12.440 -0.6323  0.1804  0.1627
    5TMC3    C214164   3.385   3.611  12.412  0.4262  0.4118  0.3378
    5TMC3    C314165   3.358   3.482  12.428  0.3873 -0.9805 -0.0592
    5TMC3    C414166   3.597   3.562  12.498 -0.7723 -0.2422 -0.0411
    5TMC3    C514167   3.565   3.428  12.499  0.3420  0.3074  0.9028
    5TMC3    C614168   3.444   3.383  12.468 -0.6068 -0.3451 -0.1260
    5TMC3     C14169   3.570   3.722  12.334 -0.4549 -0.1517 -0.2006
    5TMC3     O14170   3.502   3.812  12.283  0.2914 -0.1341 -0.1372
    5TMC3     H14171   3.309   3.680  12.376 -2.0405 -1.7502  1.3481
    5TMC3    H114172   3.690   3.602  12.537 -0.6492 -0.1138 -0.4638
    5TMC3    H214173   3.409   3.280  12.468 -1.9336  0.1068  0.5544
    5TMC3    C714174   3.670   3.363  12.427  0.6335  0.2618 -0.9109
    5TMC3    C814175   3.218   3.455  12.451  0.0634  0.2510  0.5478
    5TMC3    O114176   3.768   3.435  12.407 -0.3250 -0.2702 -0.1040
    5TMC3    O214177   3.135   3.527  12.392  0.8198  0.1969  0.5368
    6TMC3    C114178   3.445   3.521  11.146 -0.0048 -0.5807  0.5561
    6TMC3    C214179   3.478   3.496  11.013 -0.3571  1.0890 -0.3290
    6TMC3    C314180   3.609   3.539  10.987  0.1640 -0.3196 -0.0674
    6TMC3    C414181   3.531   3.552  11.246  0.1817  0.7338 -0.3284
    6TMC3    C514182   3.659   3.578  11.212 -0.0806 -0.3516  0.1138
    6TMC3    C614183   3.702   3.574  11.081 -0.1819 -0.1017 -0.3155
    6TMC3     C14184   3.303   3.544  11.174  0.1902 -0.1828  0.5421
    6TMC3     O14185   3.226   3.487  11.099  0.2955  0.4008 -0.5150
    6TMC3     H14186   3.400   3.493  10.938  0.4501  2.2018 -1.2283
    6TMC3    H114187   3.503   3.565  11.350  1.6022  0.9296  0.0308
    6TMC3    H214188   3.805   3.598  11.060 -0.2962  0.5001 -0.1921
    6TMC3    C714189   3.758   3.569  11.315  1.4009  0.0383  0.2551
    6TMC3    C814190   3.652   3.517  10.848  0.0446  0.7603 -0.5630
    6TMC3    O114191   3.734   3.517  11.422 -0.1002  0.2248 -0.0830
    6TMC3    O214192   3.757   3.560  10.803  0.1395 -0.1284  0.3628
    7MPD2     C14193   3.869   3.003  12.113 -0.7185  0.0487 -0.5085
    7MPD2    C114194   3.911   3.132  12.141  0.2068 -0.1431  0.3572
    7MPD2    C214195   3.830   3.217  12.225  0.3377  0.7614 -0.9393
    7MPD2    C314196   3.717   3.167  12.281 -0.1803 -0.8520 -0.3737
    7MPD2    C414197   3.676   3.037  12.253  0.2273 -0.3993 -0.3902
    7MPD2    C514198   3.763   2.953  12.183  0.7975  0.7315 -0.3190
    7MPD2     H14199   3.867   3.316  12.247  0.7251  0.3826  0.1197
    7MPD2    H114200   3.597   2.991  12.311  0.3167 -1.5140 -1.1426
    7MPD2    H214201   3.918   2.938  12.042  2.8144 -0.2067  2.1451
    7MPD2    H314202   3.748   2.846  12.185  3.2530  0.3833 -0.9242
    7MPD2     N14203   3.631   3.250  12.358  0.0145 -0.0721 -0.1832
    7MPD2    H514204   3.540   3.212  12.380 -0.6897  1.4129 -0.5600
    7MPD2    N114205   4.035   3.187  12.107  0.0849  0.6258 -0.2979
    7MPD2    H714206   4.073   3.268  12.155 -0.9580  1.1377 -0.3253
    8TMC3    C114207   4.217   3.220  11.955 -0.4136  0.7810  0.4268
    8TMC3    C214208   4.196   3.246  11.828 -0.5691  0.3738  0.0144
    8TMC3    C314209   4.212   3.378  11.783 -0.2211 -0.5338  0.0565
    8TMC3    C414210   4.243   3.324  12.039  0.3404  0.2054  0.8114
    8TMC3    C514211   4.237   3.455  11.995  0.3896 -0.3591  0.3150
    8TMC3    C614212   4.224   3.482  11.863  0.0735  0.1933 -0.3313
    8TMC3     C14213   4.110   3.131  12.004  0.6951  0.0206  0.1567
    8TMC3     O14214   4.077   3.042  11.928  0.3780 -0.2784  0.2708
    8TMC3     H14215   4.167   3.170  11.756 -0.8548  0.8186 -0.3417
    8TMC3    H114216   4.260   3.306  12.145 -1.1662 -0.6563  0.9103
    8TMC3    H214217   4.217   3.581  11.819 -2.0238 -0.2273 -0.9492
    8TMC3    C714218   4.143   3.524  12.075  0.0442  0.1410 -0.1384
    8TMC3    C814219   4.157   3.411  11.661 -0.2413 -0.5749 -0.2555
    8TMC3    O114220   4.111   3.462  12.176 -0.3001  0.3572 -0.2340
    8TMC3    O214221   4.064   3.335  11.625  0.2021 -0.1086 -0.0783
    9MPD2     C14222   4.247   3.679  11.430 -0.3030  0.6820 -0.8483
    9MPD2    C114223   4.166   3.586  11.483 -0.8062  0.4831 -0.5336
    9MPD2    C214224   4.040   3.575  11.434 -0.7058  0.8362  0.2382
    9MPD2    C314225   3.997   3.659  11.335 -0.2678 -0.5752  0.2323
    9MPD2    C414226   4.086   3.738  11.269  0.0136 -0.5538 -0.2593
    9MPD2    C514227   4.207   3.752  11.323  0.7888 -0.3048 -0.6455
    9MPD2     H14228   3.965   3.508  11.475 -0.1493  0.4936  0.6983
    9MPD2    H114229   4.052   3.809  11.195  1.8899 -1.7462 -2.2680
    9MPD2    H214230   4.346   3.689  11.473 -0.6270 -1.4747  0.4300
    9MPD2    H314231   4.281   3.805  11.264 -0.3060  1.1562 -0.6985
    9MPD2     N14232   3.867   3.654  11.281  0.4406 -0.2630 -0.1865
    9MPD2    H514233   3.851   3.716  11.202  1.2543 -0.0172 -0.1654
    9MPD2    N114234   4.221   3.521  11.593  0.0253 -0.0865 -0.0679
    9MPD2    H714235   4.307   3.561  11.631 -1.8679  3.4369  0.4905
    1MPD1     C14236   4.659   2.025  16.831 -0.4344 -0.2939 -0.1490
    1MPD1    C114237   4.619   2.154  16.814  0.3978 -0.3747  0.6849
    1MPD1    C214238   4.631   2.248  16.916  0.0850  0.5027  0.1023
    1MPD1    C314239   4.678   2.215  17.036  0.0049  0.5759  0.6483
    1MPD1    C414240   0.010   2.091  17.049 -0.2058  0.2971  0.1991
    1MPD1    C514241   4.719   1.996  16.949  0.3923 -0.2836 -0.4238
    1MPD1     H14242   4.620   2.348  16.876  1.7401  0.9733  0.8509
    1MPD1    H114243   0.066   2.053  17.133  1.0616 -0.7146 -1.0998
    1MPD1    H214244   4.655   1.946  16.758 -1.6155  1.2148 -1.7142
    1MPD1    H314245   0.032   1.897  16.970  1.2088  0.5413  1.9677
    1MPD1     N14246   4.691   2.307  17.142 -0.4893 -0.0992 -0.4652
    1MPD1    H514247   4.723   2.263  17.228  0.6021 -1.8548 -1.7822
    1MPD1    N114248   4.582   2.191  16.681 -0.1363 -0.7555 -0.3972
    1MPD1    H614249   4.557   2.112  16.623  1.5406 -0.7441 -1.1583
    1MPD1    H714250   4.503   2.255  16.676  0.4065 -0.0283  0.3745
    2MPD1     C14251   0.393   2.481   0.329 -0.0148 -0.3189 -0.6916
    2MPD1    C114252   0.282   2.566   0.337  0.1454  0.3978  0.5225
    2MPD1    C214253   0.196   2.575   0.228 -0.0921 -0.3647  0.2897
    2MPD1    C314254   0.218   2.511   0.109  0.6996 -0.1669  0.3999
    2MPD1    C414255   0.332   2.435   0.099 -0.2376 -0.6541  0.6055
    2MPD1    C514256   0.410   2.419   0.211  0.3449  1.0333  0.5048
    2MPD1     H14257   0.107   2.636   0.242  0.2546 -0.0076  0.9453
    2MPD1    H114258   0.362   2.379   0.011 -1.7580  0.7701 -0.8126
    2MPD1    H214259   0.465   2.461   0.407 -0.9290 -0.0199  0.2388
    2MPD1    H314260   0.497   2.355   0.198 -0.1504  0.2975  0.7821
    2MPD1     N14261   0.126   2.535   0.003  0.7889  0.2608  0.1631
    2MPD1    H514262   0.052   2.602   0.021 -0.5819 -1.4630  0.9770
    2MPD1    N114263   0.241   2.609   0.462 -0.2181  0.2713 -0.2017
    2MPD1    H614264   0.318   2.625   0.527 -0.1500 -0.1093 -0.1887
    2MPD1    H714265   0.189   2.696   0.453 -0.2867  0.3826  1.1952
    3TCq2    C114266   0.138   2.481  17.577 -0.2238  0.2673  0.2326
    3TCq2    O214267   0.217   2.388  17.542  0.3366  0.0510 -0.0649
    3TCq2    C214268   0.036   2.522  17.486  0.5845  0.6250 -0.1113
    3TCq2    C314269   4.677   2.628  17.521  1.0968  0.1205 -0.2388
    3TCq2    C414270   4.571   2.650  17.438 -0.4380  0.1560  0.4981
    3TCq2    C514271   4.554   2.588  17.324 -0.8149 -1.0292  0.1116
    3TCq2    C614272   4.649   2.491  17.283 -0.6660  0.3624  0.8528
    3TCq2    C714273   0.025   2.453  17.369 -0.2690 -0.4054  0.3235
    3TCq2    C814274   4.639   2.437  17.141  0.9396 -0.6818 -0.2184
    3TCq2    O414275   4.582   2.498  17.056  0.4845 -0.0545 -0.1810
    3TCq2    C914276   4.492   2.772  17.452 -0.4255  0.2827  0.8326
    3TCq2    O514277   4.509   2.844  17.552  0.2797 -0.4710 -0.0070
    3TCq2    O614278   4.394   2.783  17.372  0.3460  0.5285 -0.2878
    3TCq2    H214279   4.694   2.688  17.609  0.0695 -0.3265  0.2682
    3TCq2    H314280   4.478   2.615  17.252 -0.5517 -0.9594 -0.1410
    3TCq2    H414281   0.089   2.371  17.339  1.6098  1.3638 -0.5200
    1TCq1    O114282   1.229   1.469  12.799  0.3579 -0.6134  0.3810
    1TCq1    C114283   1.217   1.443  12.932  0.9858 -0.0475 -0.3164
    1TCq1    O214284   1.108   1.428  12.992  0.2158  0.7437 -0.1320
    1TCq1    C214285   1.339   1.378  12.985  0.5520  0.0955  0.0474
    1TCq1    C314286   1.325   1.299  13.094 -0.2870 -0.1763 -0.2047
    1TCq1    C414287   1.435   1.247  13.155  0.4435  0.4567 -0.3750
    1TCq1    C514288   1.560   1.273  13.103  0.2664  0.9722 -0.0948
    1TCq1    C614289   1.572   1.353  12.994  0.5749  0.1386 -0.0842
    1TCq1    C714290   1.463   1.415  12.941 -0.0694  0.6058  0.3723
    1TCq1    C814291   1.702   1.419  12.964  0.0437 -0.1123  0.7876
    1TCq1    O414292   1.708   1.493  12.868 -0.1335  0.2947  0.3276
    1TCq1    C914293   1.418   1.152  13.259  0.0648 -0.3184 -0.4868
    1TCq1    O514294   1.309   1.086  13.266 -0.4690  0.1487  0.0147
    1TCq1    O614295   1.519   1.125  13.328  0.0033  0.3925 -0.3672
    1TCq1    H114296   1.322   1.454  12.773  0.7908 -0.8108  2.0437
    1TCq1    H214297   1.230   1.277  13.142 -0.2460 -1.2224 -0.6023
    1TCq1    H314298   1.648   1.223  13.142 -1.9550 -2.8052  0.1299
    1TCq1    H414299   1.484   1.496  12.871 -0.5435  0.2292 -0.2058
    2MPD2     C14300   1.977   1.507  12.951  0.0669 -0.6551  0.2035
    2MPD2    C114301   1.915   1.474  13.069 -0.5178  0.1512 -0.9004
    2MPD2    C214302   1.985   1.490  13.187 -0.2826  0.2072 -0.5551
    2MPD2    C314303   2.103   1.561  13.188  0.3217  0.5198 -0.5076
    2MPD2    C414304   2.165   1.592  13.077 -0.1254  0.4380  0.4557
    2MPD2    C514305   2.100   1.561  12.960 -0.1816  0.3851  0.0026
    2MPD2     H14306   1.949   1.457  13.284 -0.1748  0.7099 -0.3405
    2MPD2    H114307   2.262   1.641  13.071 -0.1995  1.0377  3.9754
    2MPD2    H214308   1.930   1.507  12.853 -1.4219 -1.0471  0.9124
    2MPD2    H314309   2.142   1.597  12.866  0.3834  0.0083  0.1112
    2MPD2     N14310   2.145   1.601  13.315 -0.1281 -0.1073 -0.4820
    2MPD2    H514311   2.077   1.596  13.391  1.0754 -0.3665  0.5772
    2MPD2    N114312   1.790   1.411  13.068  0.0079  0.0948  0.8724
    2MPD2    H714313   1.746   1.377  13.153 -2.7624 -1.1836 -1.0588
    3TCq1    O114314   2.599   1.675  13.834 -0.1037 -0.1214  0.0476
    3TCq1    C114315   2.538   1.598  13.747 -0.3560  0.4313  0.5980
    3TCq1    O214316   2.576   1.492  13.710 -0.4620  0.6467  0.6854
    3TCq1    C214317   2.436   1.675  13.678 -0.7759  0.0429  0.1017
    3TCq1    C314318   2.343   1.736  13.759 -0.3232 -0.4426  0.5122
    3TCq1    C414319   2.227   1.776  13.697  0.8095 -0.0772  0.0682
    3TCq1    C514320   2.192   1.747  13.566  0.4558 -0.6213  0.1947
    3TCq1    C614321   2.283   1.674  13.488 -0.7387 -0.5512  0.0363
    3TCq1    C714322   2.403   1.641  13.550 -0.3117 -0.0803  0.1122
    3TCq1    C814323   2.269   1.650  13.342 -0.0611 -0.2530 -0.2567
    3TCq1    O414324   2.371   1.642  13.274  0.4907  0.2066  0.5159
    3TCq1    C914325   2.134   1.856  13.773 -0.1779 -0.1151 -0.6821
    3TCq1    O514326   2.181   1.889  13.884  0.1774 -0.2430 -1.3510
    3TCq1    O614327   2.064   1.939  13.705  0.1682 -0.1715  0.4586
    3TCq1    H114328   2.566   1.767  13.829  0.2442 -0.0734 -1.5510
    3TCq1    H214329   2.358   1.764  13.863 -0.2334 -0.6517  0.5554
    3TCq1    H314330   2.097   1.780  13.524 -0.2015 -1.4890  1.0053
    3TCq1    H414331   2.483   1.583  13.507 -0.5315 -1.0092  0.9717
    1MPD2     C14332   1.453   2.840  15.217  0.7305 -0.0028 -0.5999
    1MPD2    C114333   1.331   2.790  15.190  0.4261  0.4764  0.1175
    1MPD2    C214334   1.301   2.664  15.243 -0.1410  0.0357 -0.0033
    1MPD2    C314335   1.402   2.586  15.303 -0.2579  0.6296 -0.2392
    1MPD2    C414336   1.521   2.649  15.339 -0.2350 -0.4239  0.1072
    1MPD2    C514337   1.539   2.775  15.296 -0.6304 -0.1897  0.4474
    1MPD2     H14338   1.198   2.632  15.236 -0.2262 -0.0815  1.7757
    1MPD2    H114339   1.607   2.601  15.384  2.7216  2.4999 -2.3684
    1MPD2    H214340   1.486   2.939  15.190 -2.5590  1.4204  0.5766
    1MPD2    H314341   1.637   2.819  15.316 -0.4139 -0.7235  0.5666
    1MPD2     N14342   1.385   2.455  15.348 -0.3345  0.5790 -0.2371
    1MPD2    H514343   1.445   2.415  15.420 -0.1687  0.8395 -0.2281
    1MPD2    N114344   1.237   2.871  15.120  0.1546 -0.2805  0.0944
    1MPD2    H714345   1.259   2.970  15.108 -1.1969 -0.0273 -0.3259
    2TMC3    C114346   1.005   2.940  15.075 -0.0646  0.5167  0.9135
    2TMC3    C214347   0.890   2.886  15.126  0.1637 -0.0132 -0.2377
    2TMC3    C314348   0.774   2.880  15.056 -0.3913 -0.1085  0.6526
    2TMC3    C414349   1.008   2.985  14.947 -0.1889 -0.0643  0.2908
    2TMC3    C514350   0.887   2.987  14.881 -0.4050  0.2242  0.7867
    2TMC3    C614351   0.776   2.927  14.924 -0.6710  0.7841  0.1198
    2TMC3     C14352   1.108   2.833  15.110 -0.2658  0.2147  1.0338
    2TMC3     O14353   1.051   2.730  15.132 -0.1115  0.2752 -0.8846
    2TMC3     H14354   0.895   2.864  15.232 -0.6692 -1.8104 -0.5637
    2TMC3    H114355   1.096   3.038  14.914  0.5915 -1.3796  0.2803
    2TMC3    H214356   0.698   2.913  14.850 -0.0106 -2.0534 -0.0102
    2TMC3    C714357   0.867   3.046  14.745 -0.0180 -0.3778 -0.5493
    2TMC3    C814358   0.706   2.751  15.049 -0.0101  0.9391 -0.0158
    2TMC3    O114359   0.751   3.073  14.717  0.3506  0.0037 -0.4445
    2TMC3    O214360   0.597   2.748  14.992  0.0636  0.2550 -0.4079
    3TCq1    O114361   1.668   3.644  13.941 -0.5718  0.5204  0.1340
    3TCq1    C114362   1.541   3.677  13.988 -0.5934 -0.4111  0.8034
    3TCq1    O214363   1.445   3.702  13.921  0.0529  0.1186 -0.1179
    3TCq1    C214364   1.518   3.585  14.104 -0.4321  0.0875 -0.0821
    3TCq1    C314365   1.635   3.531  14.169  0.0699  0.2916 -0.1678
    3TCq1    C414366   1.617   3.439  14.269  0.4091 -0.3822  0.0939
    3TCq1    C514367   1.492   3.417  14.318 -0.4973 -0.2646 -0.0320
    3TCq1    C614368   1.388   3.482  14.260 -0.2662 -0.0896  0.1946
    3TCq1    C714369   1.395   3.561  14.145  0.2234 -0.4229  0.3429
    3TCq1    C814370   1.252   3.447  14.290  0.5116  0.1909 -0.2519
    3TCq1    O414371   1.171   3.500  14.221  0.4177 -0.1053 -0.0427
    3TCq1    C914372   1.725   3.373  14.348  0.3351  0.1647  0.1847
    3TCq1    O514373   1.688   3.289  14.436 -0.5807  0.3265  0.1403
    3TCq1    O614374   1.843   3.421  14.343  0.8012  0.0256 -0.1088
    3TCq1    H114375   1.726   3.606  14.011  1.9640  0.2553 -2.0655
    3TCq1    H214376   1.734   3.568  14.145  0.2208  2.4937  3.9248
    3TCq1    H314377   1.476   3.345  14.397  0.7548 -0.0672  0.3917
    3TCq1    H414378   1.316   3.628  14.112 -0.0955 -1.1771 -0.4253
    4MPD2     C14379   0.997   3.288  14.323  0.4520  0.8051 -0.5685
    4MPD2    C114380   1.117   3.271  14.401  0.3013 -0.2467 -0.3452
    4MPD2    C214381   1.113   3.183  14.503  0.2570  0.2891 -0.3471
    4MPD2    C314382   0.989   3.130  14.545 -0.1087 -0.5206  0.1606
    4MPD2    C414383   0.881   3.145  14.466  0.2622 -0.5115  0.1411
    4MPD2    C514384   0.876   3.232  14.358 -0.4372 -0.4752 -0.3660
    4MPD2     H14385   1.205   3.171  14.560 -0.4046 -0.8923  0.4742
    4MPD2    H114386   0.790   3.092  14.492  0.5427 -0.9374  0.2607
    4MPD2    H214387   0.991   3.357  14.240  0.5033  1.0297 -0.3866
    4MPD2    H314388   0.786   3.256  14.302  0.0949  1.8574 -0.1948
    4MPD2     N14389   0.983   3.072  14.671  0.0231 -0.3049  0.4306
    4MPD2    H514390   1.073   3.054  14.716 -0.1742  0.0709  0.9879
    4MPD2    N114391   1.244   3.335  14.369 -0.2455 -0.1334 -0.0266
    4MPD2    H714392   1.332   3.306  14.412  0.2008  1.2477 -0.0120
    5TMC2    C114393   1.076   2.123  15.394  0.2092  0.2720  0.5554
    5TMC2    C214394   1.066   2.138  15.528  0.4521  0.1870  0.4752
    5TMC2    C314395   1.161   2.214  15.595  0.0686 -0.7167  0.4267
    5TMC2    C414396   1.184   2.168  15.327  0.2732 -0.2212  0.1430
    5TMC2    C514397   1.274   2.246  15.391  0.7159  0.3381  0.4497
    5TMC2    C614398   1.263   2.269  15.527 -0.1272 -0.2643  0.2602
    5TMC2     C14399   0.951   2.142  15.325 -0.0101  0.4642 -1.0606
    5TMC2     O14400   0.854   2.105  15.385  0.7856 -0.1071 -0.3571
    5TMC2     H14401   0.977   2.116  15.585  0.2485 -0.1770  0.0110
    5TMC2    H114402   1.183   2.153  15.220  1.6639  0.6725  0.0086
    5TMC2    H214403   1.340   2.330  15.574 -0.0023 -0.2560  0.0434
    5TMC2    C714404   1.289   2.364  15.301 -0.8432  0.1774 -0.1657
    5TMC2    C814405   1.121   2.276  15.715 -0.0831 -0.0181  0.1647
    5TMC2    O114406   1.205   2.379  15.212  0.1170  0.1968 -0.8757
    5TMC2    O214407   1.060   2.383  15.705 -0.2983  0.2246  0.1577
    5TMC2    O514408   1.074   2.166  15.779 -0.3993  0.3478  0.9433
    5TMC2    H514409   1.112   2.081  15.748 -0.0152  1.5021 -1.8125
    6MPD2     C14410   0.668   2.443  15.019 -0.2138 -0.2345 -0.0619
    6MPD2    C114411   0.778   2.511  15.078 -0.1585  0.2924 -0.6437
    6MPD2    C214412   0.867   2.445  15.156  0.3729  0.0494  0.0511
    6MPD2    C314413   0.857   2.311  15.174  0.0455  0.5589 -0.6463
    6MPD2    C414414   0.749   2.243  15.128 -0.1644 -0.4727  0.2281
    6MPD2    C514415   0.656   2.309  15.053 -0.6343 -0.4358 -0.4515
    6MPD2     H14416   0.961   2.495  15.176  1.0300 -1.7000  1.3525
    6MPD2    H114417   0.740   2.135  15.133  2.0703 -0.7728 -2.6866
    6MPD2    H214418   0.586   2.495  14.972  2.2926  0.5605 -3.5550
    6MPD2    H314419   0.578   2.248  15.009 -0.9575  0.0326 -0.5277
    6MPD2     N14420   0.963   2.244  15.241  0.3722  0.2595  0.9785
    6MPD2    H514421   1.047   2.300  15.238  1.1448 -1.0258 -1.7140
    6MPD2    N114422   0.797   2.650  15.079  0.3280 -0.8685  0.0629
    6MPD2    H714423   0.887   2.686  15.110  1.7032 -0.5545 -4.2626
  945NH4     N114424   0.400   2.257   9.706  0.3101  0.1764  0.1683
  945NH4     H214425   0.369   2.234   9.609 -1.1094  0.6147  0.5264
  945NH4     H314426   0.361   2.195   9.780 -0.1106  0.9746  0.6116
  945NH4     H414427   0.388   2.358   9.728  0.1478 -0.0111  0.9329
  945NH4     H514428   0.503   2.241   9.704  0.7242  2.6613  0.7530
  946SOD     NA14429   2.249   1.783  11.959  0.0768 -0.1111 -0.4288
  947SOD     NA14430   3.587   2.818  13.118 -0.2987 -0.7427  0.2115
  948SOD     NA14431   0.710   0.737  11.109 -0.0123  0.6759  0.1094
  949SOD     NA14432   1.709   0.472  10.619 -0.2066  0.0528 -0.1131
  950SOD     NA14433   2.532   1.873  11.869  0.0373  0.3339  0.2670
  951SOD     NA14434   3.241   2.769  13.054  0.2202  0.1024  0.0414
  952SOD     NA14435   3.146   4.157  17.666 -0.1379 -0.1902 -0.2864
  953SOD     NA14436   2.188   3.927  11.895 -0.1681 -0.1320 -0.4252
  954SOD     NA14437   3.654   2.723   7.863  0.4135  0.6099 -0.6379
  955SOD     NA14438   3.385   3.679   4.682  0.4141  0.1782 -0.5817
  956SOD     NA14439   3.116   1.053  13.222 -0.0820  0.2383  0.0780
  957SOD     NA14440   3.775   2.348  15.136 -0.1312 -0.2020 -0.2046
  958SOD     NA14441   3.128   0.822  14.700 -0.3895  0.3599  0.2509
  959SOD     NA14442   0.192   0.951  12.754 -0.1102  0.2881 -0.6739
  960SOD     NA14443   3.026   1.419  11.184  0.2812 -0.3270  0.0271
  961SOD     NA14444   2.970   4.679  16.447 -0.1473 -0.1723  0.0549
  962SOD     NA14445   1.872   4.697   7.232  0.4351  0.4122  0.1594
  963SOD     NA14446   2.491   0.513  11.095 -0.2255 -0.8320 -0.4110
  964SOD     NA14447   2.015   1.566  11.837 -0.3177 -0.6986  0.7302
  965SOD     NA14448   2.290   3.519  10.326 -0.1129  0.0043  0.2702
  966SOD     NA14449   3.182   1.047   0.853 -0.4324  0.2408  0.1617
  967SOD     NA14450   0.499   1.246  11.239  0.3032 -0.2980  0.2604
  968SOD     NA14451   3.470   2.526  16.601 -0.5644 -0.4938 -0.3144
  969SOD     NA14452   0.896   1.391  13.046 -0.3188  0.1736 -0.3607
  970SOD     NA14453   1.390   2.489  10.321  0.5789 -0.0344  0.4608
  971SOD     NA14454   1.175   1.964   1.745  0.3684 -0.1251 -0.2521
  972SOD     NA14455   1.035   4.317   8.678  0.1307 -0.2294  0.4222
  973SOD     NA14456   2.195   0.466   9.029  0.2562 -0.0437 -0.1708
  974SOD     NA14457   3.116   4.521   1.942 -0.2208  0.2346  0.0707
  975SOD     NA14458   1.311   4.255  11.501  0.0077  0.2082 -0.4323
  976SOD     NA14459   2.546   2.348  14.183  0.2787  0.0713  0.1480
  977SOD     NA14460   0.563   3.936   5.274 -0.0007 -0.1008 -0.0884
  978SOD     NA14461   1.495   1.992   7.366  0.0162  0.2278 -0.3409
  979SOD     NA14462   0.470   0.640  15.110 -0.4104 -0.6585 -0.2724
  980SOD     NA14463   2.960   1.788  14.649  0.0685  0.6079  0.2274
  981SOD     NA14464   0.610   1.026  11.012  0.0079  0.3107 -0.6315
  982SOD     NA14465   3.989   1.381   9.295  1.0058  0.3014 -0.1649
  983SOD     NA14466   2.062   3.554   2.091  0.5719  0.2567  0.1821
  984SOD     NA14467   0.426   4.313  13.332  0.1706  0.2277  0.4058
  985SOD     NA14468   2.424   3.715  12.552  0.2426  0.0211  0.4021
  986SOD     NA14469   2.797   2.503  15.378 -0.4559  0.3503  0.3829
  987SOD     NA14470   4.706   2.424  16.315 -0.1584  0.0786 -0.4061
  988SOD     NA14471   1.494   3.207   8.696  0.2127 -0.3904 -0.1190
  989SOD     NA14472   0.661   0.850  10.736 -0.2109  0.0918  0.5362
  990SOD     NA14473   3.547   2.041   1.827 -0.4371 -0.2562  0.1431
  991SOD     NA14474   4.199   2.743  17.331 -0.2149 -0.1261  0.0512
  992SOD     NA14475   1.659   3.071  14.411  0.4310 -0.2790 -0.0511
  993SOD     NA14476   1.796   0.580  15.388  0.1644 -0.0202  0.2999
  994SOD     NA14477   1.741   3.371  14.635  0.1848 -0.1830  0.0555
  995SOD     NA14478   4.501   3.540   3.490  0.0883  0.3465 -0.2233
  996SOD     NA14479   4.155   1.772  13.949  0.1520  0.3603  0.0634
  997SOD     NA14480   3.085   3.505  16.487 -0.0320  0.1436  0.4242
  998SOD     NA14481   4.559   3.109  11.181 -0.2479 -0.0388  0.3445
  999SOD     NA14482   2.520   1.051  13.668  0.1645 -0.1000  0.2942
 1000SOD     NA14483   3.813   0.583   0.562  0.2401  0.2310  0.3336
 1001SOD     NA14484   4.499   2.879  15.128  0.1187 -0.0899 -0.1442
 1002SOD     NA14485   0.194   1.015   0.785  0.0095  0.1028 -0.3413
 1003SOD     NA14486   2.545   1.283  10.170 -0.3121 -0.1666  0.5671
 1004SOD     NA14487   1.372   1.561  15.429 -0.4468  0.3102 -0.0665
 1005SOD     NA14488   3.657   0.645   0.924 -0.6485 -0.1335 -0.1159
 1006SOD     NA14489   1.961   3.297  11.211 -0.5312  0.1113  0.2520
 1007SOD     NA14490   2.430   1.497   0.343  0.4209 -0.1002 -0.1046
 1008SOD     NA14491   3.194   2.083   1.372  0.4245  0.2155  0.0263
 1009SOD     NA14492   3.508   2.351  10.797  0.0488  0.3900  0.2389
 1010SOD     NA14493   1.792   4.410   0.608 -0.2426 -0.2621 -0.0886
 1011SOL     OW14494   3.407   4.341  13.762 -0.0496  0.2078 -0.4045
 1011SOL    HW114495   3.445   4.314  13.679  0.5653  1.0001 -0.3853
 1011SOL    HW214496   3.314   4.327  13.743  0.3239 -0.3379 -1.8204
 1012SOL     OW14497   0.493   1.394   2.222  0.0904 -0.1918 -0.1087
 1012SOL    HW114498   0.510   1.300   2.215 -1.7630 -0.9464  5.0262
 1012SOL    HW214499   0.435   1.400   2.298 -0.8117 -1.0198 -0.7517
 1013SOL     OW14500   2.871   0.199  10.829 -0.0912 -0.1800  0.0197
 1013SOL    HW114501   2.955   0.217  10.787  0.6114 -2.2950  0.4719
 1013SOL    HW214502   2.814   0.245  10.767  1.5222  0.5734 -0.8929
 1014SOL     OW14503   2.798   0.368   3.064 -0.2934 -0.0319 -0.3381
 1014SOL    HW114504   2.801   0.346   2.971 -1.7758  0.4253 -0.4839
 1014SOL    HW214505   2.709   0.340   3.085  1.0236 -2.1342  2.5529
 1015SOL     OW14506   3.293   4.395  17.178 -0.1714 -0.0685  0.1067
 1015SOL    HW114507   3.334   4.340  17.245 -0.8812  2.5652  2.6616
 1015SOL    HW214508   3.250   4.328  17.124 -0.4599  0.0279  0.2165
 1016SOL     OW14509   2.628   0.914  11.081 -0.7789 -0.2256  0.0897
 1016SOL    HW114510   2.550   0.861  11.066 -2.4734  2.0823  0.7349
 1016SOL    HW214511   2.631   0.956  10.995 -0.3720 -0.6469 -0.1046
 1017SOL     OW14512   3.151   4.500  10.408  0.5701 -0.2419 -0.4741
 1017SOL    HW114513   3.118   4.441  10.341 -0.0863  0.6372 -0.9192
 1017SOL    HW214514   3.212   4.442  10.453 -0.2851 -1.5761 -1.0199
 1018SOL     OW14515   3.835   0.620   4.976  0.1392  0.0601 -0.4414
 1018SOL    HW114516   3.917   0.595   4.933 -0.7512  0.1636 -2.2058
 1018SOL    HW214517   3.815   0.541   5.026  0.0937  1.0806  1.1740
 1019SOL     OW14518   4.081   1.640  11.932 -0.2254 -0.0290  0.5712
 1019SOL    HW114519   4.114   1.556  11.963  4.5900  2.2676  1.7648
 1019SOL    HW214520   4.107   1.703  12.000 -0.6359  2.4527 -1.5711
 1020SOL     OW14521   2.429   0.601   7.317 -0.4244 -0.2834 -0.2684
 1020SOL    HW114522   2.401   0.690   7.337  0.3149  0.1393 -1.0969
 1020SOL    HW214523   2.350   0.558   7.349 -0.4258  0.2046  0.3847
 1021SOL     OW14524   3.891   1.540  10.779 -0.3779 -0.2560 -0.0484
 1021SOL    HW114525   3.837   1.598  10.726  0.7128 -0.5823 -1.4903
 1021SOL    HW214526   3.829   1.467  10.787 -2.8055  1.8040 -0.1755
 1022SOL     OW14527   1.249   3.015   9.349 -0.0614  0.1442  0.8668
 1022SOL    HW114528   1.244   3.060   9.433 -0.2352 -0.5950  1.2545
 1022SOL    HW214529   1.330   3.047   9.310 -1.5404  2.9577  0.1135
 1023SOL     OW14530   2.893   2.056   4.126  0.0024 -0.4292 -0.1924
 1023SOL    HW114531   2.909   2.103   4.208  0.5417  1.4624 -1.4084
 1023SOL    HW214532   2.977   2.051   4.082 -0.4543  1.7272 -1.2692
 1024SOL     OW14533   0.485   2.610   4.676  0.3862 -0.0775 -0.0887
 1024SOL    HW114534   0.391   2.610   4.659  0.5477 -2.0769 -0.9067
 1024SOL    HW214535   0.484   2.533   4.733 -0.3245  1.3906  1.9057
 1025SOL     OW14536   3.034   0.444   2.369  0.1069 -0.2059  0.2894
 1025SOL    HW114537   2.979   0.493   2.430 -0.9373 -1.0418  0.0285
 1025SOL    HW214538   2.969   0.427   2.300 -1.2967  0.1817  1.5057
 1026SOL     OW14539   4.487   3.445  10.070 -0.8680 -0.3771  0.1560
 1026SOL    HW114540   4.428   3.486  10.132  0.8453  3.5192 -0.7997
 1026SOL    HW214541   4.555   3.417  10.132  0.7364  1.2766 -0.8673
 1027SOL     OW14542   3.840   2.745  11.392  0.0652 -0.7635  0.3732
 1027SOL    HW114543   3.828   2.654  11.421  0.6102 -0.9329  0.0698
 1027SOL    HW214544   3.753   2.762  11.357 -0.4485 -0.2834  1.8631
 1028SOL     OW14545   3.355   2.830   8.562 -0.5659  0.8558 -0.6244
 1028SOL    HW114546   3.260   2.825   8.572 -0.6751 -0.7241 -2.3786
 1028SOL    HW214547   3.352   2.893   8.490 -2.0486  1.4483 -0.0384
 1029SOL     OW14548   4.075   0.900   5.203  0.4533 -0.3978 -0.1794
 1029SOL    HW114549   4.098   0.896   5.110 -0.6480 -2.3568 -0.3946
 1029SOL    HW214550   4.158   0.884   5.247  0.3528 -0.4449 -0.0051
 1030SOL     OW14551   3.224   0.831   7.127 -0.8765 -0.6089 -0.2593
 1030SOL    HW114552   3.171   0.809   7.204  0.3148  1.1176  1.0641
 1030SOL    HW214553   3.289   0.760   7.126  0.7308  0.8167  1.4378
 1031SOL     OW14554   1.204   0.175  15.205  0.0205 -0.2498 -0.1117
 1031SOL    HW114555   1.199   0.255  15.153  2.9529 -1.1884 -1.7998
 1031SOL    HW214556   1.221   0.204  15.295 -0.6603 -0.7336  0.1709
 1032SOL     OW14557   1.390   0.910   2.469  0.3153  0.3048 -0.6887
 1032SOL    HW114558   1.305   0.950   2.489  0.0426 -1.0884  0.9494
 1032SOL    HW214559   1.402   0.846   2.539 -2.3401  1.1630  0.5604
 1033SOL     OW14560   3.170   0.897   0.665 -0.1275  0.4755  0.6190
 1033SOL    HW114561   3.089   0.848   0.673  0.7375 -1.1227 -0.3893
 1033SOL    HW214562   3.219   0.839   0.607 -3.3655 -1.6609  0.0189
 1034SOL     OW14563   1.021   3.101   1.112 -0.3161  0.1874  0.4533
 1034SOL    HW114564   1.018   3.010   1.141  1.2716  0.0156  0.0656
 1034SOL    HW214565   0.992   3.076   1.024 -0.2100  0.4936  0.3311
 1035SOL     OW14566   1.638   0.513   5.689  0.0133 -0.0010 -0.2246
 1035SOL    HW114567   1.573   0.576   5.721  1.0378  0.4161  1.0782
 1035SOL    HW214568   1.646   0.454   5.764 -2.1111 -0.8440 -0.6689
 1036SOL     OW14569   2.702   1.744   2.928 -0.9965  0.4636 -0.1810
 1036SOL    HW114570   2.708   1.829   2.885  1.2225  1.0114  1.1688
 1036SOL    HW214571   2.782   1.697   2.906 -1.1923 -0.6271  1.4132
 1037SOL     OW14572   2.742   1.594   8.964 -0.3496  0.3491 -0.1680
 1037SOL    HW114573   2.744   1.689   8.956 -1.6983  0.3457 -0.5931
 1037SOL    HW214574   2.686   1.590   9.042 -1.7361  1.4368 -1.0961
 1038SOL     OW14575   2.076   0.182   0.380  0.5071  0.4667 -0.1575
 1038SOL    HW114576   2.057   0.272   0.353 -0.0573 -0.2355 -2.1181
 1038SOL    HW214577   2.011   0.138   0.325  2.4744  0.1009 -2.2026
 1039SOL     OW14578   0.208   3.051   0.913 -0.2485  0.0636  0.6768
 1039SOL    HW114579   0.257   3.106   0.974 -0.3224  0.6405  0.2164
 1039SOL    HW214580   0.133   3.107   0.893 -0.9030 -1.3711 -1.0022
 1040SOL     OW14581   2.458   3.556  12.384 -0.3058  0.0367 -0.4180
 1040SOL    HW114582   2.552   3.550  12.397 -0.4859 -2.7945 -0.3057
 1040SOL    HW214583   2.427   3.465  12.390 -1.8501  0.6519  1.1110
 1041SOL     OW14584   0.979   3.180   3.012  0.0307 -0.4097 -0.8611
 1041SOL    HW114585   0.927   3.209   2.937 -1.4576 -1.6073 -0.2947
 1041SOL    HW214586   0.940   3.099   3.045  0.1839 -0.9798 -2.0867
 1042SOL     OW14587   4.296   2.859   0.337  0.2959 -0.2779 -0.2959
 1042SOL    HW114588   4.225   2.895   0.284  0.7350 -0.4277 -0.9871
 1042SOL    HW214589   4.248   2.833   0.416  1.0561 -1.2002 -0.1392
 1043SOL     OW14590   2.995   3.772   0.087  0.6518  0.4297 -0.0805
 1043SOL    HW114591   3.049   3.760   0.165 -2.0660 -0.0647  1.7198
 1043SOL    HW214592   2.918   3.738   0.132 -0.0916  1.8606 -0.2818
 1044SOL     OW14593   0.873   1.236   5.550 -0.3214 -0.2351  0.3725
 1044SOL    HW114594   0.935   1.175   5.509  2.4452  1.9220  1.3540
 1044SOL    HW214595   0.806   1.178   5.588  0.0118 -0.7600  0.1544
 1045SOL     OW14596   0.948   2.336   6.567  0.5870  0.0002  0.2726
 1045SOL    HW114597   0.960   2.378   6.652 -1.9142 -1.5185  1.3688
 1045SOL    HW214598   0.892   2.267   6.602 -0.6366  1.4633  1.1821
 1046SOL     OW14599   3.002   4.364   3.953  0.2327 -0.1565 -0.2476
 1046SOL    HW114600   2.978   4.372   3.861  0.6892 -1.4015 -0.4813
 1046SOL    HW214601   3.034   4.274   3.959 -2.6791 -1.0786  1.5353
 1047SOL     OW14602   3.623   4.202   6.165  0.0316 -0.2452 -0.9279
 1047SOL    HW114603   3.658   4.238   6.084 -0.4257  3.0146  0.3157
 1047SOL    HW214604   3.565   4.273   6.191  4.2910  2.9730 -0.2160
 1048SOL     OW14605   1.661   4.170  13.309 -0.0098 -0.1674 -0.3040
 1048SOL    HW114606   1.614   4.105  13.361  0.7338 -0.4661  0.0033
 1048SOL    HW214607   1.614   4.252  13.325 -0.3839 -0.3327 -0.5706
 1049SOL     OW14608   0.709   0.483   2.187  1.0101  0.3518  0.2347
 1049SOL    HW114609   0.736   0.393   2.206 -0.1096  0.0686  0.4754
 1049SOL    HW214610   0.634   0.470   2.129  0.2780 -1.1988  1.5203
 1050SOL     OW14611   3.669   1.915   9.223 -0.3052  0.4107 -0.3614
 1050SOL    HW114612   3.749   1.884   9.267 -1.2114 -2.3439 -0.6711
 1050SOL    HW214613   3.605   1.896   9.291 -0.2716 -2.6987 -1.1852
 1051SOL     OW14614   0.125   2.262  16.221  0.0308 -0.1721 -0.2707
 1051SOL    HW114615   0.208   2.306  16.204 -1.0987  1.1469 -2.4574
 1051SOL    HW214616   0.136   2.183  16.167  0.5103  1.0236 -1.9086
 1052SOL     OW14617   1.237   2.920   3.111  0.0002 -0.6612 -0.5414
 1052SOL    HW114618   1.243   2.917   3.207  0.1297  3.5921 -0.4109
 1052SOL    HW214619   1.177   2.846   3.105  1.4874 -1.9312  0.1418
 1053SOL     OW14620   2.320   3.336   3.940  0.2567  0.2011 -0.3548
 1053SOL    HW114621   2.303   3.407   4.003 -0.0406 -4.1122  4.3905
 1053SOL    HW214622   2.284   3.263   3.990  0.4544 -0.1370 -0.7152
 1054SOL     OW14623   2.158   3.802  14.773  0.6993  0.3067 -0.7418
 1054SOL    HW114624   2.171   3.724  14.720 -1.7227  0.1339 -1.0732
 1054SOL    HW214625   2.065   3.814  14.755  0.9207  0.4640 -1.7539
 1055SOL     OW14626   0.596   0.204   1.988  0.5540 -0.5831  0.0109
 1055SOL    HW114627   0.577   0.137   1.922 -1.9388  0.7340 -0.5989
 1055SOL    HW214628   0.607   0.151   2.068  0.2854  0.1308  0.5148
 1056SOL     OW14629   2.115   2.533  11.321 -0.0949  0.2295  0.1708
 1056SOL    HW114630   2.035   2.502  11.277 -1.0445  0.3730  1.7637
 1056SOL    HW214631   2.131   2.459  11.380  0.9552 -0.6491 -1.2066
 1057SOL     OW14632   2.033   2.644   4.589  0.0288 -0.3326 -0.0560
 1057SOL    HW114633   1.982   2.566   4.567  2.6172 -2.1371  0.3137
 1057SOL    HW214634   1.982   2.682   4.660 -0.4969 -1.0396 -0.0529
 1058SOL     OW14635   3.681   3.190   4.774  0.5500  1.0098 -0.2875
 1058SOL    HW114636   3.713   3.279   4.794 -0.9001  1.6003 -0.5845
 1058SOL    HW214637   3.668   3.202   4.680  2.5911  2.7314 -0.3713
 1059SOL     OW14638   3.851   1.905   3.604 -0.2223 -0.0892 -0.3362
 1059SOL    HW114639   3.809   1.849   3.539 -3.8431  2.0961  0.0838
 1059SOL    HW214640   3.902   1.956   3.541 -0.5259  0.1178 -0.4118
 1060SOL     OW14641   4.063   3.660   7.967  0.1339 -0.4062  0.3209
 1060SOL    HW114642   3.997   3.728   7.955  0.9268  0.0262 -1.5670
 1060SOL    HW214643   4.024   3.596   7.907  0.2590  1.4312 -1.7159
 1061SOL     OW14644   2.706   0.729  15.668 -0.2706  0.9273 -0.0333
 1061SOL    HW114645   2.642   0.757  15.733  0.9423  0.4927  1.3476
 1061SOL    HW214646   2.709   0.633  15.673 -1.1073  0.8001 -1.9461
 1062SOL     OW14647   0.906   3.488  13.793  0.5383  0.6069  0.0638
 1062SOL    HW114648   0.827   3.454  13.834  0.8728  0.6331  0.7224
 1062SOL    HW214649   0.941   3.545  13.862 -1.4335 -0.1024  1.6251
 1063SOL     OW14650   0.955   1.263  14.456 -0.0342 -0.5591 -0.1995
 1063SOL    HW114651   0.906   1.250  14.538 -0.2945  3.0836  0.2571
 1063SOL    HW214652   0.915   1.202  14.394 -0.4053 -0.6223  0.0974
 1064SOL     OW14653   3.890   0.607   3.663  0.8807 -0.2076 -0.0721
 1064SOL    HW114654   3.951   0.657   3.717  1.7906 -0.4760 -0.8406
 1064SOL    HW214655   3.917   0.602   3.571 -1.3757 -0.1484 -0.7261
 1065SOL     OW14656   1.952   0.482   8.978 -0.5812 -0.3714 -0.0889
 1065SOL    HW114657   1.875   0.425   8.984 -1.4514  1.0462  2.4839
 1065SOL    HW214658   1.915   0.570   8.965  1.5180  0.2282 -1.8917
 1066SOL     OW14659   3.453   3.591   3.921  0.0939  0.3154  0.5981
 1066SOL    HW114660   3.439   3.534   3.845  0.5011 -1.3764  1.7947
 1066SOL    HW214661   3.414   3.675   3.898  1.3419  1.1563  1.5591
 1067SOL     OW14662   3.129   1.532   3.493  0.2352 -0.0220 -0.0698
 1067SOL    HW114663   3.220   1.557   3.481  1.2668 -2.6541  2.4124
 1067SOL    HW214664   3.115   1.584   3.572  0.3443 -1.8064  1.1173
 1068SOL     OW14665   4.285   4.396   7.990 -0.4783 -0.4410 -0.5298
 1068SOL    HW114666   4.260   4.466   8.051  2.2081 -1.0143  1.2396
 1068SOL    HW214667   4.285   4.324   8.054  0.6021  0.2758  0.2841
 1069SOL     OW14668   4.471   1.274   7.483 -0.7680  0.2696  0.0155
 1069SOL    HW114669   4.526   1.298   7.409  0.5965  2.6382  1.7772
 1069SOL    HW214670   4.389   1.249   7.442 -0.8954  0.5495  0.0962
 1070SOL     OW14671   3.580   3.406   2.627 -0.0020 -0.3948 -0.1826
 1070SOL    HW114672   3.517   3.456   2.575  1.7846  0.7060 -1.2550
 1070SOL    HW214673   3.564   3.316   2.600  1.5199 -0.6843 -0.1132
 1071SOL     OW14674   4.208   3.470   7.642 -0.5081  0.2120  0.4575
 1071SOL    HW114675   4.133   3.499   7.694 -1.7929 -4.1238  0.9524
 1071SOL    HW214676   4.281   3.484   7.703 -0.4005  1.8176 -0.0383
 1072SOL     OW14677   0.908   2.057   4.940  0.3762 -0.2645 -0.6157
 1072SOL    HW114678   0.881   1.978   4.893  0.2622 -0.0630 -0.8886
 1072SOL    HW214679   0.996   2.028   4.967 -0.1801  2.1179  3.7356
 1073SOL     OW14680   1.125   0.816   3.814  0.3444 -0.1245  0.3582
 1073SOL    HW114681   1.188   0.858   3.756 -0.1477  2.1452  1.4435
 1073SOL    HW214682   1.091   0.891   3.863  0.7135  0.1625  0.1689
 1074SOL     OW14683   4.033   3.193   5.290 -0.3003 -0.1361  0.1642
 1074SOL    HW114684   4.058   3.160   5.376 -0.2162 -2.0282 -0.5819
 1074SOL    HW214685   4.038   3.289   5.296 -3.0208 -0.0925  1.6114
 1075SOL     OW14686   1.047   2.546   1.901  0.1986 -0.2920  0.0040
 1075SOL    HW114687   1.030   2.617   1.839 -0.6863 -1.2871 -0.8898
 1075SOL    HW214688   0.989   2.481   1.862  0.5854  0.6350 -2.1265
 1076SOL     OW14689   2.024   3.252   8.822  0.6870 -0.4229  0.4674
 1076SOL    HW114690   1.973   3.296   8.891  1.1437  0.2695  0.3662
 1076SOL    HW214691   2.049   3.173   8.870 -0.2223 -2.1543 -1.9420
 1077SOL     OW14692   2.057   1.454   1.546 -0.1430 -0.2522 -0.2198
 1077SOL    HW114693   2.032   1.546   1.555 -1.4011 -0.3844 -2.5603
 1077SOL    HW214694   2.112   1.435   1.622  0.2125  1.0015 -0.1575
 1078SOL     OW14695   1.524   2.429   0.611 -0.4520 -0.8051 -0.0502
 1078SOL    HW114696   1.575   2.351   0.592 -2.1489 -1.4376 -2.0482
 1078SOL    HW214697   1.581   2.486   0.559  0.9896 -1.9340  0.3223
 1079SOL     OW14698   1.712   0.543   4.349 -0.3846  0.1488 -0.2102
 1079SOL    HW114699   1.686   0.634   4.338  1.3270  0.7531  0.8064
 1079SOL    HW214700   1.686   0.514   4.261  0.1224  1.4710 -0.7830
 1080SOL     OW14701   0.654   0.307   9.410 -0.3529 -0.3081  0.0539
 1080SOL    HW114702   0.733   0.307   9.465 -1.0206  0.4714  1.0103
 1080SOL    HW214703   0.614   0.229   9.448  3.7095 -1.8345  1.2359
 1081SOL     OW14704   0.027   4.478   9.602 -0.0781 -0.7269 -0.6707
 1081SOL    HW114705   4.714   4.565   9.590 -1.0630 -0.9466  0.8488
 1081SOL    HW214706   0.037   4.451   9.510  0.1124 -3.0044  0.0138
 1082SOL     OW14707   3.948   4.605  12.927  0.1559 -0.2178  0.5335
 1082SOL    HW114708   3.884   4.670  12.897 -0.1969  0.8351  3.5680
 1082SOL    HW214709   3.895   4.526  12.924  1.4602 -1.0052 -1.8266
 1083SOL     OW14710   2.931   2.541   2.838  0.1282 -0.0866 -0.0607
 1083SOL    HW114711   2.971   2.627   2.821 -1.1671  0.2572 -1.4383
 1083SOL    HW214712   2.907   2.517   2.748 -3.5401  1.4185  0.4958
 1084SOL     OW14713   0.357   3.656   8.895 -0.5039  0.1060  0.0214
 1084SOL    HW114714   0.428   3.614   8.943 -0.2911 -1.2055 -1.4417
 1084SOL    HW214715   0.357   3.748   8.923 -1.2524  0.7487 -2.0266
 1085SOL     OW14716   1.079   3.908  14.501 -0.0157  0.6960 -0.5831
 1085SOL    HW114717   1.000   3.961  14.514  0.3891  1.7335 -2.2849
 1085SOL    HW214718   1.101   3.894  14.593 -0.1690 -0.7710 -0.7678
 1086SOL     OW14719   4.702   1.816   6.856 -0.1557 -0.4835  0.0622
 1086SOL    HW114720   0.031   1.845   6.782 -0.0767 -0.1772  0.2409
 1086SOL    HW214721   4.701   1.720   6.846  1.4548 -0.2776 -2.2606
 1087SOL     OW14722   2.946   3.655  12.493  0.5241 -0.3359 -0.3010
 1087SOL    HW114723   2.999   3.732  12.516  0.8374 -0.4522 -0.6294
 1087SOL    HW214724   3.010   3.601  12.446  0.4278 -1.1293  0.4838
 1088SOL     OW14725   2.905   2.609   4.595  0.0513  0.2885 -0.5007
 1088SOL    HW114726   2.866   2.655   4.669 -1.6348 -2.9039  0.5702
 1088SOL    HW214727   2.998   2.610   4.616 -0.5499  2.7365  2.1692
 1089SOL     OW14728   0.088   1.697  10.893 -0.0509 -0.4387 -0.1368
 1089SOL    HW114729   0.177   1.665  10.885  0.3125  0.7889 -1.0521
 1089SOL    HW214730   0.048   1.630  10.948  1.4377  0.2609  1.8017
 1090SOL     OW14731   4.669   4.035   6.628  0.5004  0.2062  0.2170
 1090SOL    HW114732   0.039   4.020   6.624  0.3375 -0.7456 -0.0188
 1090SOL    HW214733   4.630   3.957   6.589 -1.3422  1.7381 -0.9655
 1091SOL     OW14734   2.726   2.032   7.986 -0.3934  0.0075  0.6882
 1091SOL    HW114735   2.743   1.950   8.033 -2.9428 -0.1308  1.3756
 1091SOL    HW214736   2.632   2.030   7.968  0.0560  0.4419 -1.7114
 1092SOL     OW14737   3.930   0.524  17.302  0.3321 -0.0823 -0.2687
 1092SOL    HW114738   3.836   0.522  17.319  0.4249  2.2456  0.5562
 1092SOL    HW214739   3.969   0.580  17.369 -2.0928 -0.2543  1.2570
 1093SOL     OW14740   3.836   0.929   1.343  0.4378  0.0207 -0.9048
 1093SOL    HW114741   3.874   0.875   1.412 -1.1487 -1.4994 -1.2153
 1093SOL    HW214742   3.906   0.964   1.287  0.0657 -0.6925 -1.8049
 1094SOL     OW14743   3.609   2.400   0.189 -0.5500  0.9366  0.7533
 1094SOL    HW114744   3.555   2.383   0.266  0.4202  1.2876  1.5043
 1094SOL    HW214745   3.551   2.362   0.123  0.6486 -0.7811  0.7150
 1095SOL     OW14746   3.245   3.561  15.918 -0.1637 -0.3943  0.3726
 1095SOL    HW114747   3.270   3.645  15.956  2.3991 -1.3407  0.7355
 1095SOL    HW214748   3.283   3.565  15.830  2.9266  1.8764  1.8329
 1096SOL     OW14749   3.521   1.441   6.112  0.3149 -0.0638 -0.2982
 1096SOL    HW114750   3.440   1.401   6.143 -0.0893  0.1789 -1.0438
 1096SOL    HW214751   3.547   1.461   6.202  0.0266  2.0450 -0.6911
 1097SOL     OW14752   0.618   4.117   5.117 -0.3466 -0.2146  0.4265
 1097SOL    HW114753   0.674   4.062   5.063 -0.6027 -2.3250  2.3165
 1097SOL    HW214754   0.605   4.182   5.048  1.3290  1.0676  1.3026
 1098SOL     OW14755   1.444   1.319   0.308 -0.3147 -0.4707 -0.2311
 1098SOL    HW114756   1.382   1.273   0.365 -2.1119  1.7027 -0.4415
 1098SOL    HW214757   1.390   1.397   0.302 -1.8829 -1.4835  0.5887
 1099SOL     OW14758   0.738   0.475   1.798 -0.0888 -0.0201  0.2359
 1099SOL    HW114759   0.822   0.430   1.808 -0.6457 -1.0959  0.0663
 1099SOL    HW214760   0.769   0.563   1.819  1.9832 -0.6575 -0.1432
 1100SOL     OW14761   1.352   4.443   8.921  0.2471 -0.1928 -0.7954
 1100SOL    HW114762   1.369   4.381   8.993 -1.9479  0.9227  0.6711
 1100SOL    HW214763   1.368   4.529   8.961 -0.7006 -0.0577 -0.7214
 1101SOL     OW14764   4.126   1.804   7.289  0.5118 -0.3398  0.3103
 1101SOL    HW114765   4.128   1.889   7.333 -2.1452 -1.1304  1.9961
 1101SOL    HW214766   4.190   1.820   7.220  1.4501  0.4488  1.3511
 1102SOL     OW14767   1.254   4.398  12.924 -0.1758  0.0350  0.4264
 1102SOL    HW114768   1.203   4.470  12.886 -1.0649 -0.4401  0.7030
 1102SOL    HW214769   1.298   4.366  12.845  0.6587  1.3128  0.3809
 1103SOL     OW14770   3.244   2.860   6.099 -0.8580  0.5296 -0.3463
 1103SOL    HW114771   3.323   2.806   6.105 -2.0418 -0.9156  1.9819
 1103SOL    HW214772   3.223   2.849   6.192  0.4480  0.6641 -0.0449
 1104SOL     OW14773   4.110   3.795  14.312 -0.4730  0.6255  0.0080
 1104SOL    HW114774   4.084   3.746  14.234 -2.0004  1.6797 -0.1482
 1104SOL    HW214775   4.202   3.774  14.300 -0.6130 -0.1776  0.3238
 1105SOL     OW14776   0.424   2.596   2.995 -0.2686  0.3663 -0.1769
 1105SOL    HW114777   0.350   2.556   3.040 -0.7032  1.6572  0.2589
 1105SOL    HW214778   0.442   2.535   2.924 -1.3146  0.4980 -0.5498
 1106SOL     OW14779   2.044   3.159   7.272  0.0066  0.1354 -0.3656
 1106SOL    HW114780   2.080   3.231   7.220  2.9187 -0.7458  0.4055
 1106SOL    HW214781   1.963   3.144   7.224 -0.0592  3.2290 -1.2284
 1107SOL     OW14782   0.226   2.422   6.421 -0.1118  0.2573  0.1073
 1107SOL    HW114783   0.241   2.489   6.355  2.5483 -0.8067 -0.3631
 1107SOL    HW214784   0.140   2.434   6.461  0.2880  2.2110  0.3651
 1108SOL     OW14785   1.440   2.413  16.955 -0.6063  0.3783 -0.3235
 1108SOL    HW114786   1.463   2.365  16.876 -2.1762 -2.0212  0.6781
 1108SOL    HW214787   1.508   2.479  16.974 -0.6635 -0.1117  1.6528
 1109SOL     OW14788   1.970   0.912   2.156  0.3803  0.2263 -0.0528
 1109SOL    HW114789   2.033   0.892   2.225 -1.6068 -1.7946  1.1669
 1109SOL    HW214790   2.031   0.944   2.089 -0.7470  0.0739 -1.1635
 1110SOL     OW14791   0.135   4.473   2.708  0.0278  0.3242  0.1080
 1110SOL    HW114792   0.082   4.433   2.777 -0.0675  0.0292 -0.1372
 1110SOL    HW214793   0.086   4.448   2.630  0.4287 -1.9120  0.5660
 1111SOL     OW14794   2.632   3.249   6.512  0.6577 -0.2541 -0.1506
 1111SOL    HW114795   2.692   3.319   6.536  0.5196 -0.2659  0.2379
 1111SOL    HW214796   2.561   3.249   6.576  1.2452  3.1429  0.4965
 1112SOL     OW14797   2.190   0.338   5.657 -0.1708  0.2112  0.1573
 1112SOL    HW114798   2.132   0.341   5.581  0.7240 -0.9994 -0.5721
 1112SOL    HW214799   2.136   0.326   5.735  1.0437  1.0276  1.1189
 1113SOL     OW14800   1.914   0.629  10.923  0.3251 -0.1044  0.6716
 1113SOL    HW114801   1.922   0.716  10.884  1.0525  0.7246  2.7144
 1113SOL    HW214802   1.835   0.594  10.883 -0.6022  1.2395  1.3425
 1114SOL     OW14803   0.460   1.991   1.200  0.9567  0.2171  0.2149
 1114SOL    HW114804   0.432   1.900   1.207 -1.2003  1.0014  1.9439
 1114SOL    HW214805   0.551   1.985   1.228  0.7538 -2.1299  0.3963
 1115SOL     OW14806   1.933   3.402   8.584 -0.3538  0.2349  0.1065
 1115SOL    HW114807   2.001   3.462   8.553 -0.2691 -0.8973 -1.8694
 1115SOL    HW214808   1.984   3.337   8.633  0.2566  0.5079 -0.1609
 1116SOL     OW14809   0.489   4.222   2.845  0.1985 -0.3393 -0.2535
 1116SOL    HW114810   0.456   4.132   2.842 -2.7215  0.6928  1.3874
 1116SOL    HW214811   0.523   4.224   2.755 -2.4851  1.9845 -1.2238
 1117SOL     OW14812   4.525   0.552  16.118  0.2940  0.0971 -0.3516
 1117SOL    HW114813   4.507   0.489  16.049  2.5348 -0.5704 -0.3020
 1117SOL    HW214814   4.586   0.501  16.170 -1.2109 -0.9095  0.4316
 1118SOL     OW14815   3.058   3.082  13.212 -0.7020  0.3519  0.1621
 1118SOL    HW114816   3.065   2.991  13.241 -0.2642  0.1975 -0.4238
 1118SOL    HW214817   3.140   3.093  13.164 -0.9021  0.2060 -0.2034
 1119SOL     OW14818   3.149   3.031   2.949 -0.0346  0.1085 -0.4647
 1119SOL    HW114819   3.106   3.001   2.869  0.1350 -0.5119 -0.3232
 1119SOL    HW214820   3.105   3.113   2.969  0.8697  0.3286  0.6707
 1120SOL     OW14821   3.564   0.658  14.771 -0.4110 -0.3606 -0.4961
 1120SOL    HW114822   3.563   0.567  14.743 -2.3880 -0.6569  0.5570
 1120SOL    HW214823   3.575   0.640  14.864  1.2797  1.8794 -0.2485
 1121SOL     OW14824   1.717   4.289   7.501  0.0120 -0.2884 -0.2039
 1121SOL    HW114825   1.762   4.349   7.443  0.7175  1.0145  1.6847
 1121SOL    HW214826   1.745   4.200   7.479 -2.0645 -0.8181 -0.7598
 1122SOL     OW14827   3.995   1.472   2.777  0.0922  0.0101 -0.5344
 1122SOL    HW114828   3.949   1.393   2.747 -1.0815  0.6551 -0.4329
 1122SOL    HW214829   4.077   1.463   2.729  0.3980  0.8735 -0.1575
 1123SOL     OW14830   3.294   2.388  16.547  0.4374  0.3883  0.2327
 1123SOL    HW114831   3.234   2.314  16.540 -0.9705  1.6418 -0.8918
 1123SOL    HW214832   3.284   2.403  16.453 -2.4128  0.1735  0.4948
 1124SOL     OW14833   4.341   4.654   6.534 -0.5642  0.3791  0.0581
 1124SOL    HW114834   4.251   4.635   6.508 -0.9561  0.6718  1.1894
 1124SOL    HW214835   4.328   4.712   6.609  0.4117  1.1636 -0.3821
 1125SOL     OW14836   4.071   0.000   2.648 -0.0472  0.4803  0.1191
 1125SOL    HW114837   3.997   4.670   2.621  0.7286 -0.9666  0.9702
 1125SOL    HW214838   4.135   4.654   2.652 -0.5593 -0.1224 -1.9752
 1126SOL     OW14839   3.667   2.644  16.679  0.3563 -0.3123  0.6912
 1126SOL    HW114840   3.708   2.704  16.616  1.3313 -0.1067  1.5306
 1126SOL    HW214841   3.745   2.588  16.682  0.5624 -0.0596  0.2138
 1127SOL     OW14842   2.264   0.417   5.057  0.1339  0.2408 -0.2962
 1127SOL    HW114843   2.276   0.335   5.009 -0.6175 -0.0781  0.0568
 1127SOL    HW214844   2.234   0.466   4.981 -0.2791  2.6162  1.4108
 1128SOL     OW14845   3.958   3.680   6.037 -0.1522  0.2945  1.0110
 1128SOL    HW114846   3.980   3.625   6.112  0.6746 -0.3536  0.2899
 1128SOL    HW214847   3.862   3.682   6.035 -0.1883 -1.3241  1.0607
 1129SOL     OW14848   0.268   1.793   7.362  0.4640  0.1377 -0.2069
 1129SOL    HW114849   0.203   1.729   7.332  0.5348  0.0730 -0.2207
 1129SOL    HW214850   0.346   1.739   7.353  2.0869  2.5832 -0.6609
 1130SOL     OW14851   1.458   1.414   5.070 -0.2757 -0.4196 -0.3052
 1130SOL    HW114852   1.401   1.403   5.146 -0.1973 -0.8390 -0.3083
 1130SOL    HW214853   1.415   1.492   5.034 -1.5605 -1.3071 -0.6936
 1131SOL     OW14854   4.071   1.844   6.443  0.4165  0.4105  0.3480
 1131SOL    HW114855   4.118   1.762   6.457 -0.3098 -0.3377 -1.5519
 1131SOL    HW214856   3.992   1.834   6.496 -1.1348  0.2874 -1.9648
 1132SOL     OW14857   1.191   2.582  14.138 -0.1457 -0.3642  0.2853
 1132SOL    HW114858   1.188   2.560  14.045  0.2034 -1.7503  0.6120
 1132SOL    HW214859   1.175   2.500  14.185 -0.8509 -0.1608  0.4098
 1133SOL     OW14860   0.427   1.671  10.516 -0.3433  0.4637 -0.2609
 1133SOL    HW114861   0.388   1.758  10.524  0.2949  0.8194 -1.0033
 1133SOL    HW214862   0.480   1.682  10.437  2.1104  0.9400  1.4567
 1134SOL     OW14863   2.427   1.420   2.935 -0.3450 -0.2261  0.1572
 1134SOL    HW114864   2.332   1.411   2.923 -0.3005 -0.1613 -0.2241
 1134SOL    HW214865   2.440   1.512   2.914 -0.3303 -0.8193 -2.3624
 1135SOL     OW14866   2.316   1.131   6.932  0.1752  0.1748  0.1939
 1135SOL    HW114867   2.359   1.181   7.001  1.1547  0.9845 -1.0220
 1135SOL    HW214868   2.252   1.084   6.986  0.4481 -0.6072 -0.1556
 1136SOL     OW14869   1.165   3.517   9.162  0.0750 -0.5589 -0.4651
 1136SOL    HW114870   1.147   3.559   9.078  1.0907  0.1860 -0.3056
 1136SOL    HW214871   1.115   3.436   9.154 -1.0230  0.0670  0.0072
 1137SOL     OW14872   0.181   3.870   3.544 -0.7492 -0.1790 -0.1172
 1137SOL    HW114873   0.233   3.880   3.464 -0.2856 -1.0660  0.0707
 1137SOL    HW214874   0.237   3.804   3.585  0.3650  0.6450 -0.3190
 1138SOL     OW14875   4.294   0.823  16.858  0.4644 -0.2452 -0.8138
 1138SOL    HW114876   4.223   0.759  16.864  1.0920 -0.8545  0.1971
 1138SOL    HW214877   4.249   0.901  16.891 -1.3840 -1.2745 -0.9131
 1139SOL     OW14878   1.483   3.383   8.850  0.1067  0.9600 -0.3301
 1139SOL    HW114879   1.567   3.414   8.814  1.2013 -1.0454  0.4925
 1139SOL    HW214880   1.491   3.381   8.945  0.8167 -0.7782 -0.4271
 1140SOL     OW14881   0.487   1.684   7.209 -0.1931 -0.5189  0.2824
 1140SOL    HW114882   0.578   1.698   7.183 -1.1559  2.8456 -1.3245
 1140SOL    HW214883   0.494   1.741   7.285  0.9152  0.9238 -0.8957
 1141SOL     OW14884   4.424   2.538   8.892  0.6967  0.1996  0.1823
 1141SOL    HW114885   4.352   2.573   8.944  1.0225 -0.1918  0.8983
 1141SOL    HW214886   4.443   2.451   8.927 -1.7035 -0.2698  0.2760
 1142SOL     OW14887   4.300   2.881  11.865 -0.5084 -0.3820  0.0748
 1142SOL    HW114888   4.215   2.923  11.852 -0.3174 -0.0345 -0.0577
 1142SOL    HW214889   4.289   2.885  11.960 -1.1661  2.9762 -0.1457
 1143SOL     OW14890   4.209   1.229   9.351  0.8153  0.7228  0.3028
 1143SOL    HW114891   4.297   1.261   9.334  0.7354  1.2493  0.8638
 1143SOL    HW214892   4.220   1.136   9.329 -0.8060  0.5049  0.3682
 1144SOL     OW14893   2.647   2.697  15.322  0.1916 -0.2246 -0.2911
 1144SOL    HW114894   2.579   2.735  15.378  3.2362  0.9964  2.5709
 1144SOL    HW214895   2.590   2.676  15.248 -0.7693  1.4519 -0.0432
 1145SOL     OW14896   2.837   3.469   4.510 -0.3021  0.2822  0.4971
 1145SOL    HW114897   2.852   3.399   4.572  1.9749  0.8584  0.5870
 1145SOL    HW214898   2.916   3.462   4.457  0.4855 -0.8893  1.8314
 1146SOL     OW14899   2.173   3.544   8.430  0.3845  0.5144 -0.1606
 1146SOL    HW114900   2.221   3.599   8.492 -0.6204  0.5521  0.5827
 1146SOL    HW214901   2.232   3.548   8.355 -0.5317  2.0456 -0.7800
 1147SOL     OW14902   3.979   0.845   2.783  0.1773  0.1722  0.0953
 1147SOL    HW114903   4.040   0.800   2.841 -1.5954 -2.0247  0.2738
 1147SOL    HW214904   3.919   0.773   2.763 -3.1154  2.0481  3.3653
 1148SOL     OW14905   1.496   1.716  17.403  0.1096  0.0253 -0.3234
 1148SOL    HW114906   1.470   1.802  17.435  0.8709  0.8891 -2.0401
 1148SOL    HW214907   1.446   1.699  17.323 -0.1553  1.2133 -0.4097
 1149SOL     OW14908   4.340   1.695   1.864  0.2124 -0.0093 -0.0497
 1149SOL    HW114909   4.276   1.644   1.915 -0.5752  0.7852 -0.2380
 1149SOL    HW214910   4.416   1.637   1.865  0.7309  0.6610 -0.8090
 1150SOL     OW14911   0.480   3.679   9.313  0.2488 -0.0723  0.0092
 1150SOL    HW114912   0.564   3.659   9.354 -0.4885 -2.7196  0.2279
 1150SOL    HW214913   0.470   3.774   9.320  1.8190 -0.1246  3.1039
 1151SOL     OW14914   1.216   2.100  13.273 -0.4019  0.2695 -0.2917
 1151SOL    HW114915   1.298   2.069  13.234 -1.4802 -0.4365 -1.9938
 1151SOL    HW214916   1.199   2.043  13.348 -1.9961  1.6805  0.4390
 1152SOL     OW14917   2.478   4.065   2.055 -0.2515 -0.0148  0.2707
 1152SOL    HW114918   2.515   4.145   2.093 -0.5801  0.1763  0.1882
 1152SOL    HW214919   2.390   4.094   2.030  0.6553  2.8540  0.3998
 1153SOL     OW14920   4.716   4.452   3.384  0.4923 -0.1235  0.3108
 1153SOL    HW114921   4.643   4.399   3.354 -0.1688 -0.0444  1.7929
 1153SOL    HW214922   4.720   4.423   3.475 -0.8911  2.8831  1.3570
 1154SOL     OW14923   0.832   0.787   7.361 -0.2450  0.0819 -0.0905
 1154SOL    HW114924   0.907   0.770   7.418 -0.4205 -0.1563  0.0684
 1154SOL    HW214925   0.839   0.879   7.336 -0.7685 -0.1111 -0.9521
 1155SOL     OW14926   0.561   4.147  16.811 -0.3436  0.1831  0.4687
 1155SOL    HW114927   0.471   4.175  16.794 -1.0748 -3.0160 -1.0120
 1155SOL    HW214928   0.596   4.198  16.884  1.5912  2.3360 -1.9206
 1156SOL     OW14929   1.042   4.714  15.107  0.4993 -0.5003  0.6735
 1156SOL    HW114930   1.069   0.066  15.158 -0.7612 -0.3332  1.0862
 1156SOL    HW214931   0.990   4.666  15.171 -2.7685 -0.1732 -1.6866
 1157SOL     OW14932   0.950   2.714   9.009  0.0240 -0.2362 -0.2831
 1157SOL    HW114933   0.925   2.752   9.093 -2.7873  1.7635 -2.0194
 1157SOL    HW214934   0.874   2.738   8.955  0.9254 -2.2353 -2.4539
 1158SOL     OW14935   4.264   4.698   3.531 -0.1170 -0.7071 -0.4580
 1158SOL    HW114936   4.317   4.624   3.561 -1.9477 -0.7731  2.5683
 1158SOL    HW214937   4.312   0.055   3.547  0.1193 -0.5285 -2.0636
 1159SOL     OW14938   3.223   0.221   5.782  0.5498  0.6432 -0.0758
 1159SOL    HW114939   3.306   0.196   5.822  0.2687  1.7958  1.2216
 1159SOL    HW214940   3.198   0.130   5.767  1.3100  0.2495  1.0620
 1160SOL     OW14941   0.778   2.152   6.688 -0.4144  0.0312  0.1148
 1160SOL    HW114942   0.786   2.057   6.695  1.6490  0.0780 -1.5894
 1160SOL    HW214943   0.731   2.152   6.605  1.4665 -1.6851 -0.9447
 1161SOL     OW14944   0.068   3.563  13.431 -0.5201  0.4132  0.4921
 1161SOL    HW114945   0.036   3.623  13.499 -2.5400  1.2093 -1.1460
 1161SOL    HW214946   0.005   3.581  13.362 -2.4767 -0.4323  2.0474
 1162SOL     OW14947   0.153   3.385  15.418  0.3195 -0.2932 -0.3204
 1162SOL    HW114948   0.130   3.437  15.340 -0.0726  1.5310  1.0238
 1162SOL    HW214949   0.243   3.408  15.440  0.0654  0.9221 -0.5835
 1163SOL     OW14950   1.271   4.367   6.880  0.8299  0.3179  0.2606
 1163SOL    HW114951   1.178   4.360   6.905  0.8915  2.0944  0.9788
 1163SOL    HW214952   1.307   4.300   6.937  2.5933  1.8173  0.8754
 1164SOL     OW14953   3.027   4.559  16.631  0.0035  0.0889  0.1416
 1164SOL    HW114954   3.017   4.464  16.636 -1.9414  0.3045  0.3874
 1164SOL    HW214955   3.073   4.578  16.713  2.2409  1.6905 -1.4664
 1165SOL     OW14956   2.565   3.138   6.276 -0.3044  0.2282 -0.2654
 1165SOL    HW114957   2.568   3.197   6.351 -0.3715  0.3968 -0.3929
 1165SOL    HW214958   2.537   3.056   6.315  0.2257  0.2994  0.2741
 1166SOL     OW14959   2.227   3.273   3.133  0.3844  0.2180  0.0872
 1166SOL    HW114960   2.208   3.314   3.049  1.9694  0.7230 -0.0326
 1166SOL    HW214961   2.162   3.316   3.189  0.2943  2.3623 -1.6725
 1167SOL     OW14962   1.557   4.350   7.252 -0.3739  0.0856 -0.2769
 1167SOL    HW114963   1.593   4.333   7.339  1.3654  1.2771 -0.7478
 1167SOL    HW214964   1.496   4.421   7.271 -2.2168 -0.9444 -2.4457
 1168SOL     OW14965   2.344   2.931   5.738 -0.0105 -0.3228  0.0933
 1168SOL    HW114966   2.356   2.919   5.644 -0.4670 -0.1848  0.0162
 1168SOL    HW214967   2.250   2.949   5.743  0.2443  0.3854  2.3984
 1169SOL     OW14968   1.728   1.123  11.890  0.4448 -0.1170  0.4298
 1169SOL    HW114969   1.821   1.136  11.871  0.6079 -2.7599 -0.6073
 1169SOL    HW214970   1.722   1.047  11.947 -1.5264 -2.7773 -3.3204
 1170SOL     OW14971   2.234   1.501  16.718  0.1839  0.4789 -0.3235
 1170SOL    HW114972   2.270   1.536  16.799 -2.0952  0.6065  0.6307
 1170SOL    HW214973   2.232   1.407  16.737  0.5599  0.5164 -0.0955
 1171SOL     OW14974   3.411   3.845   8.607 -0.2191 -0.0267  0.4250
 1171SOL    HW114975   3.462   3.863   8.686  0.1884 -3.2160  0.8638
 1171SOL    HW214976   3.328   3.888   8.628 -1.0907 -0.7933 -1.5040
 1172SOL     OW14977   3.383   3.358  12.795  0.2440  0.4036  0.5016
 1172SOL    HW114978   3.378   3.335  12.888 -0.4585 -0.7572  0.1796
 1172SOL    HW214979   3.452   3.298  12.765 -0.3059 -0.8441  1.7236
 1173SOL     OW14980   4.715   0.681  12.006 -0.0745  0.2642  0.4657
 1173SOL    HW114981   0.024   0.593  11.993  1.4249  1.0848 -1.1912
 1173SOL    HW214982   0.071   0.722  12.038  1.5349 -4.4724  2.4568
 1174SOL     OW14983   0.150   1.512   9.075  0.4211 -0.1662 -0.0485
 1174SOL    HW114984   0.162   1.460   9.155 -2.3244 -1.4823 -0.4738
 1174SOL    HW214985   0.230   1.563   9.072  0.2372  0.1595  0.6056
 1175SOL     OW14986   1.208   1.577  10.447 -0.0447 -0.2648  0.0478
 1175SOL    HW114987   1.197   1.664  10.486  0.4508  0.1057 -0.6326
 1175SOL    HW214988   1.269   1.597  10.376 -1.9258  1.0898 -1.2034
 1176SOL     OW14989   3.500   1.181   7.999  0.0628 -0.3585  0.0082
 1176SOL    HW114990   3.489   1.089   8.023 -0.0735 -0.1468  0.7408
 1176SOL    HW214991   3.418   1.186   7.950  0.8021 -1.2645 -1.3228
 1177SOL     OW14992   4.621   0.573   8.315  0.0905 -0.3193 -0.2932
 1177SOL    HW114993   4.676   0.645   8.285  1.0399 -0.8463  0.1987
 1177SOL    HW214994   4.627   0.586   8.409  2.4753  0.1797 -0.5307
 1178SOL     OW14995   0.223   4.481   5.521  0.7620  0.0346  0.1195
 1178SOL    HW114996   0.164   4.455   5.593  0.6872  1.0749  0.4281
 1178SOL    HW214997   0.301   4.464   5.573  0.7210 -2.2925 -0.5620
 1179SOL     OW14998   3.591   0.904   5.089  0.4747  0.4687 -0.1766
 1179SOL    HW114999   3.557   0.960   5.158 -0.3656  1.6966 -1.5878
 1179SOL    HW215000   3.668   0.869   5.134  0.8404 -3.0423 -3.4769
 1180SOL     OW15001   2.717   2.496  10.534  0.4569  0.4890 -0.5592
 1180SOL    HW115002   2.727   2.583  10.495  0.4137  0.7415 -0.0119
 1180SOL    HW215003   2.640   2.461  10.490 -0.2437 -0.0647  1.1166
 1181SOL     OW15004   1.638   1.012  10.704  0.5322 -0.1424  0.4597
 1181SOL    HW115005   1.665   1.101  10.725 -0.7974  0.3785 -0.0879
 1181SOL    HW215006   1.546   1.002  10.727 -0.6743  0.2572 -4.2426
 1182SOL     OW15007   1.161   3.816   9.483 -0.1293  0.2828 -0.2828
 1182SOL    HW115008   1.075   3.817   9.525  0.4794 -0.8103  0.9946
 1182SOL    HW215009   1.206   3.805   9.567 -0.8578  0.6303  0.1505
 1183SOL     OW15010   3.782   4.238   1.112 -0.6200 -0.1326  0.2108
 1183SOL    HW115011   3.826   4.174   1.056  2.2681  2.1875 -0.1326
 1183SOL    HW215012   3.748   4.296   1.043 -1.3796  0.1128  0.7926
 1184SOL     OW15013   2.394   2.244   2.271  0.3755 -0.4374 -0.3876
 1184SOL    HW115014   2.302   2.265   2.285 -0.3471 -2.1713 -2.4991
 1184SOL    HW215015   2.431   2.315   2.219 -0.6026 -0.2690 -0.8409
 1185SOL     OW15016   2.103   1.003  10.398 -0.0505  0.0713  0.0870
 1185SOL    HW115017   2.105   0.932  10.333 -0.6251  0.9491 -0.8916
 1185SOL    HW215018   2.014   0.991  10.430 -0.2294  0.8804 -0.1100
 1186SOL     OW15019   3.674   0.176  14.247  0.0243 -0.0832 -0.2947
 1186SOL    HW115020   3.579   0.175  14.234  0.2315 -0.1140 -1.9003
 1186SOL    HW215021   3.699   0.085  14.261 -0.2616  0.0571  1.0522
 1187SOL     OW15022   2.832   1.968   6.302 -0.5649 -0.6528 -0.2372
 1187SOL    HW115023   2.847   1.896   6.241  0.3834  0.2092 -1.0456
 1187SOL    HW215024   2.842   1.924   6.386  0.3424 -0.5650 -0.2904
 1188SOL     OW15025   2.287   2.232   6.620  0.5150  0.3289  0.3413
 1188SOL    HW115026   2.373   2.235   6.662  0.4805 -1.8652  0.5640
 1188SOL    HW215027   2.283   2.323   6.592 -0.4011  0.1795 -0.0151
 1189SOL     OW15028   1.293   4.501   3.404 -0.2887  0.3342  0.6114
 1189SOL    HW115029   1.280   4.507   3.499 -2.9703 -1.9487  0.4018
 1189SOL    HW215030   1.344   4.420   3.396 -0.8414  0.4336 -3.9582
 1190SOL     OW15031   2.158   1.461  16.042 -0.0831  0.5711 -0.0269
 1190SOL    HW115032   2.230   1.483  15.983 -1.3934  0.5431 -1.6287
 1190SOL    HW215033   2.208   1.415  16.109 -1.2652  1.1340  1.2342
 1191SOL     OW15034   1.808   1.971   3.453  0.5257 -0.8137 -0.3916
 1191SOL    HW115035   1.801   2.058   3.414  0.2136 -1.2016 -1.2060
 1191SOL    HW215036   1.738   1.931   3.401  1.7278 -1.8420 -1.2318
 1192SOL     OW15037   1.261   1.068   0.458  0.0565 -0.1326  0.3828
 1192SOL    HW115038   1.235   1.137   0.519 -2.6297 -1.7738  1.1303
 1192SOL    HW215039   1.179   1.039   0.418 -0.4050 -0.1581  1.3389
 1193SOL     OW15040   0.529   0.378   5.511  0.4429 -0.3417 -0.1890
 1193SOL    HW115041   0.503   0.413   5.426 -1.8551 -0.7405  0.3615
 1193SOL    HW215042   0.561   0.290   5.492 -2.3045 -1.0775 -1.3931
 1194SOL     OW15043   3.513   0.982   9.648  0.1965  0.8512  0.1353
 1194SOL    HW115044   3.521   0.888   9.662  0.7794  0.9304  0.3390
 1194SOL    HW215045   3.443   1.002   9.710  0.1548  2.5244 -0.4695
 1195SOL     OW15046   2.175   1.117   8.454  0.2983  0.3981  0.0430
 1195SOL    HW115047   2.179   1.021   8.447 -0.4480  0.3230  0.6372
 1195SOL    HW215048   2.083   1.132   8.475  0.5345  0.9105  0.6931
 1196SOL     OW15049   0.468   0.682   7.926  0.3789 -0.4237 -0.1447
 1196SOL    HW115050   0.499   0.653   8.012 -1.1322 -1.1829  0.1653
 1196SOL    HW215051   0.511   0.767   7.925  0.3394 -0.4201 -1.2094
 1197SOL     OW15052   3.031   2.031   0.073 -0.3101 -0.0416 -0.6858
 1197SOL    HW115053   2.944   2.038   0.032 -0.2108 -1.3175 -1.1084
 1197SOL    HW215054   3.005   2.030   0.165  1.8504  0.7887 -0.0854
 1198SOL     OW15055   1.257   0.938   4.477  0.1540  0.1093  0.6501
 1198SOL    HW115056   1.171   0.928   4.519 -1.0299 -1.2571 -2.1057
 1198SOL    HW215057   1.229   0.928   4.386 -0.9299  0.9810  0.8878
 1199SOL     OW15058   4.239   3.789  10.516  0.0868  0.1617  0.4396
 1199SOL    HW115059   4.291   3.766  10.439  1.5068  1.2899  1.0497
 1199SOL    HW215060   4.233   3.885  10.515 -1.6415  0.0885  3.3157
 1200SOL     OW15061   0.929   2.916   9.245  0.3279  0.5740 -0.6197
 1200SOL    HW115062   0.921   2.986   9.310 -0.5600  1.1235 -1.3152
 1200SOL    HW215063   0.836   2.897   9.232 -0.4300  2.9145  1.5117
 1201SOL     OW15064   0.887   3.832   9.583 -0.0507  0.5808 -0.0218
 1201SOL    HW115065   0.828   3.906   9.597 -1.2197 -0.0921 -1.3266
 1201SOL    HW215066   0.890   3.803   9.675  0.8489 -1.0352 -0.5487
 1202SOL     OW15067   3.108   3.775   7.412 -0.3618 -0.8896  0.3462
 1202SOL    HW115068   3.161   3.714   7.361 -0.3649 -3.0918  2.9488
 1202SOL    HW215069   3.057   3.808   7.338 -0.8692  0.0864  1.1296
 1203SOL     OW15070   2.452   3.529   0.076 -0.2727  0.0468  0.5566
 1203SOL    HW115071   2.439   3.479   0.157 -1.4832 -0.2098  0.1962
 1203SOL    HW215072   2.387   3.488   0.020 -0.2191  2.8976 -1.5876
 1204SOL     OW15073   4.408   0.955   5.729 -0.1282 -0.4966 -0.0925
 1204SOL    HW115074   4.389   0.993   5.643 -2.5510 -3.3612 -0.8341
 1204SOL    HW215075   4.406   1.037   5.780  0.7314 -0.8177  0.4618
 1205SOL     OW15076   0.771   3.629   4.549  0.4725  0.1014  0.2486
 1205SOL    HW115077   0.845   3.689   4.546  1.5674 -1.3897 -1.9641
 1205SOL    HW215078   0.817   3.547   4.563 -2.7556 -1.8663 -0.5598
 1206SOL     OW15079   2.425   4.142   7.953 -0.2061  0.2277  0.5239
 1206SOL    HW115080   2.386   4.228   7.960  1.4886  0.9353  1.2561
 1206SOL    HW215081   2.350   4.082   7.955 -0.7281  0.7662 -2.9285
 1207SOL     OW15082   0.289   0.824   3.077 -0.4277  0.2401 -0.0975
 1207SOL    HW115083   0.290   0.756   3.145 -1.6019  1.2517  0.9327
 1207SOL    HW215084   0.201   0.812   3.041  0.0446 -0.6927 -0.9640
 1208SOL     OW15085   3.223   1.806  15.872 -0.3305 -0.8729  0.2696
 1208SOL    HW115086   3.272   1.727  15.896 -0.3822 -0.4227  1.8223
 1208SOL    HW215087   3.256   1.865  15.940 -1.6591  0.5913 -0.3571
 1209SOL     OW15088   0.905   0.294   9.573  0.1996  0.4079  0.2901
 1209SOL    HW115089   0.926   0.287   9.666  2.1324 -1.8700 -0.3099
 1209SOL    HW215090   0.911   0.388   9.558  0.3907  0.5789  1.4649
 1210SOL     OW15091   3.398   0.962  15.017  0.6050 -0.8737 -0.3250
 1210SOL    HW115092   3.325   0.900  15.019  0.5321 -0.8159 -1.1384
 1210SOL    HW215093   3.355   1.043  14.991 -0.6636 -1.3359  0.3365
 1211SOL     OW15094   3.535   3.357   0.305 -0.1077 -0.2692 -0.5018
 1211SOL    HW115095   3.471   3.285   0.308 -0.8127  0.3269 -1.2964
 1211SOL    HW215096   3.577   3.332   0.222 -1.6430 -3.5009 -0.3336
 1212SOL     OW15097   0.399   0.258   1.691  0.0878 -0.0539 -0.5382
 1212SOL    HW115098   0.435   0.249   1.602  0.0086 -2.0387 -0.3698
 1212SOL    HW215099   0.434   0.182   1.738  1.5066 -1.1105 -3.2859
 1213SOL     OW15100   3.728   2.232   9.120 -0.7325  0.0121  0.3485
 1213SOL    HW115101   3.703   2.197   9.035  1.0081 -0.1120 -0.1026
 1213SOL    HW215102   3.702   2.168   9.186 -0.3032  0.6170  1.1091
 1214SOL     OW15103   2.599   4.313  15.719 -0.4526  0.0791 -0.5493
 1214SOL    HW115104   2.653   4.376  15.671  1.1458 -0.3506  0.6916
 1214SOL    HW215105   2.547   4.370  15.776  1.0907 -0.2031  1.1417
 1215SOL     OW15106   2.366   2.068  13.957 -0.0179  0.1932  0.5004
 1215SOL    HW115107   2.292   2.115  13.994 -0.4390 -0.2388  0.2160
 1215SOL    HW215108   2.317   2.003  13.906  0.6484 -0.5579  0.8087
 1216SOL     OW15109   0.889   0.601   3.042  0.0315 -0.1497 -0.6675
 1216SOL    HW115110   0.946   0.668   3.080 -1.2737  0.9156 -0.5697
 1216SOL    HW215111   0.817   0.650   3.001  0.1355 -0.3861 -1.1390
 1217SOL     OW15112   1.853   0.675   7.180  0.0658  0.1726  0.1059
 1217SOL    HW115113   1.837   0.697   7.272 -0.6121  1.3456 -0.2848
 1217SOL    HW215114   1.815   0.751   7.134 -1.7052  0.3911  1.9281
 1218SOL     OW15115   2.551   4.032   5.597 -0.1649 -0.1066 -0.4288
 1218SOL    HW115116   2.580   4.046   5.687  1.8809  4.9232 -1.8527
 1218SOL    HW215117   2.613   3.963   5.575  0.7070  1.0612 -1.6562
 1219SOL     OW15118   0.660   3.171  11.356  0.5489  0.4279 -0.3605
 1219SOL    HW115119   0.746   3.214  11.358  0.6798  0.1253  0.3771
 1219SOL    HW215120   0.607   3.243  11.389  1.5696  1.5644 -1.1948
 1220SOL     OW15121   2.469   1.215   3.681  0.3107  0.3189  0.3558
 1220SOL    HW115122   2.521   1.277   3.630  3.3141 -1.7580  0.8676
 1220SOL    HW215123   2.459   1.255   3.767  1.3000  0.2709  0.4907
 1221SOL     OW15124   4.709   4.243  12.633  0.0363 -0.3102  0.3402
 1221SOL    HW115125   4.659   4.185  12.690  1.7456  0.1372  2.3224
 1221SOL    HW215126   4.678   4.331  12.654  0.9275 -0.0677  0.6488
 1222SOL     OW15127   1.662   3.881   5.324 -0.0063  0.8423  0.5848
 1222SOL    HW115128   1.739   3.863   5.378  2.1659  2.7420 -1.8716
 1222SOL    HW215129   1.667   3.803   5.269 -2.5096  1.1705 -0.0981
 1223SOL     OW15130   3.128   1.728   6.349  0.1752 -0.4048 -0.2250
 1223SOL    HW115131   3.194   1.681   6.400 -0.3179 -0.0023  0.7789
 1223SOL    HW215132   3.048   1.728   6.401  0.0580  3.4960 -0.4018
 1224SOL     OW15133   1.725   0.744  10.374  0.8148  1.1870  0.0789
 1224SOL    HW115134   1.734   0.652  10.349 -5.4746  0.7748 -0.7021
 1224SOL    HW215135   1.685   0.739  10.461 -1.0398  0.5715 -0.8167
 1225SOL     OW15136   0.165   2.500   9.017 -0.1589 -0.1064 -0.3066
 1225SOL    HW115137   0.091   2.558   8.995  1.4300  1.4635 -1.5446
 1225SOL    HW215138   0.242   2.543   8.979  0.2790  1.8142  2.7709
 1226SOL     OW15139   0.397   4.514   1.491 -0.6740 -0.2856 -0.0118
 1226SOL    HW115140   0.438   4.522   1.577 -1.7550  0.8980  0.3940
 1226SOL    HW215141   0.425   4.426   1.466  0.1689 -0.6281  2.1607
 1227SOL     OW15142   2.596   1.788  11.081  0.2419  0.7084  0.0030
 1227SOL    HW115143   2.553   1.847  11.019 -0.0341  0.0144 -0.4706
 1227SOL    HW215144   2.543   1.814  11.157  2.8266  1.4885  1.5030
 1228SOL     OW15145   1.902   4.678   4.418  0.3366  0.2521  0.9062
 1228SOL    HW115146   1.975   4.632   4.458  1.7842  1.6719 -0.1029
 1228SOL    HW215147   1.848   4.696   4.494 -1.0044 -4.5628  1.0928
 1229SOL     OW15148   0.778   4.072  16.665  0.4734  0.8196 -0.0086
 1229SOL    HW115149   0.696   4.083  16.713 -0.0566 -1.4538 -0.3803
 1229SOL    HW215150   0.755   4.043  16.577  0.8380  0.9499 -0.1497
 1230SOL     OW15151   3.765   3.282  13.611 -0.0633 -0.3557 -0.3769
 1230SOL    HW115152   3.825   3.351  13.639 -0.4731 -0.4766  0.7823
 1230SOL    HW215153   3.809   3.257  13.530  1.1803  0.9633 -0.1109
 1231SOL     OW15154   3.235   1.665   7.102  0.4484  0.5609 -0.1743
 1231SOL    HW115155   3.224   1.736   7.165 -0.6533 -0.1268  0.4187
 1231SOL    HW215156   3.320   1.686   7.062  0.9846 -1.9771 -0.3866
 1232SOL     OW15157   3.342   1.684   8.309 -0.1542  1.1389 -0.6497
 1232SOL    HW115158   3.406   1.643   8.252 -0.2238 -0.6140  0.5528
 1232SOL    HW215159   3.324   1.619   8.376  1.7487  0.2505 -0.9863
 1233SOL     OW15160   2.477   1.723   6.778  0.2039 -0.7251 -0.7043
 1233SOL    HW115161   2.421   1.794   6.809 -0.3237 -1.5394  0.1868
 1233SOL    HW215162   2.410   1.676   6.728 -1.0595  1.2636 -0.8772
 1234SOL     OW15163   3.781   0.589  15.042 -0.7167 -0.0120 -0.7653
 1234SOL    HW115164   3.719   0.517  15.033  0.2991 -1.1247  1.3296
 1234SOL    HW215165   3.860   0.561  14.995 -0.5076  0.2792 -0.5873
 1235SOL     OW15166   3.147   2.627   4.706 -0.0951 -0.5681  0.0141
 1235SOL    HW115167   3.144   2.589   4.794  1.5912  0.9611  0.7318
 1235SOL    HW215168   3.242   2.642   4.700  0.1193 -2.5372 -1.5311
 1236SOL     OW15169   0.694   4.059   0.061  0.1018 -0.1950  0.1456
 1236SOL    HW115170   0.765   4.048   0.125 -0.6182  0.1279  1.0052
 1236SOL    HW215171   0.678   4.154   0.062  0.6148 -0.1094 -0.1408
 1237SOL     OW15172   3.473   3.623   0.243  0.6669  0.1985 -0.5749
 1237SOL    HW115173   3.462   3.637   0.338 -0.9765  0.3410 -0.7903
 1237SOL    HW215174   3.495   3.530   0.252 -0.2135  0.1509  1.0603
 1238SOL     OW15175   2.195   0.601   5.738 -0.1108 -0.1230  0.8599
 1238SOL    HW115176   2.192   0.573   5.646 -0.4321 -0.1347  0.8734
 1238SOL    HW215177   2.171   0.518   5.779  3.9520 -2.0518 -0.6143
 1239SOL     OW15178   3.059   2.800  17.231  0.5432 -0.0119 -0.3074
 1239SOL    HW115179   3.066   2.781  17.325  1.1472 -0.0807 -0.3659
 1239SOL    HW215180   3.002   2.876  17.240 -0.9925 -1.2378  0.3054
 1240SOL     OW15181   0.180   0.079   8.481 -0.4401 -0.1299  0.1542
 1240SOL    HW115182   0.214   4.715   8.492  0.0973  0.1811  0.9521
 1240SOL    HW215183   0.098   0.059   8.435 -1.6030  2.3363  1.1659
 1241SOL     OW15184   1.094   4.282   3.836 -0.4054  0.0119 -0.0885
 1241SOL    HW115185   1.187   4.261   3.846 -0.0738  0.5068 -2.0875
 1241SOL    HW215186   1.100   4.377   3.823 -0.6958  0.1696  0.8998
 1242SOL     OW15187   0.561   4.697   8.942 -0.4462 -0.9728  0.4556
 1242SOL    HW115188   0.593   0.028   9.013 -2.0865  1.8577 -1.0365
 1242SOL    HW215189   0.570   0.024   8.862 -0.2462  1.3449  1.9565
 1243SOL     OW15190   4.150   1.208   2.372 -0.0182 -0.0203  0.1836
 1243SOL    HW115191   4.227   1.153   2.387  0.0840  0.1367  0.2352
 1243SOL    HW215192   4.145   1.208   2.277  0.2641  0.4390  0.1685
 1244SOL     OW15193   3.014   4.710   6.576 -0.4896  0.2471 -0.4378
 1244SOL    HW115194   2.920   4.714   6.597 -0.0081  1.6346  1.4064
 1244SOL    HW215195   3.049   4.655   6.645 -2.3765 -2.6207 -1.7497
 1245SOL     OW15196   3.433   0.598   1.381  0.3600 -0.0819  0.1855
 1245SOL    HW115197   3.348   0.642   1.392  0.5916  0.3410  0.2564
 1245SOL    HW215198   3.450   0.626   1.292  0.9002  0.1289  0.3564
 1246SOL     OW15199   4.207   4.570   1.045 -0.3747  0.0603 -0.6710
 1246SOL    HW115200   4.207   4.528   0.959  0.9484 -1.1218 -0.0866
 1246SOL    HW215201   4.134   4.529   1.093  0.3156  0.2184  0.5256
 1247SOL     OW15202   0.836   2.173   4.673  0.5004 -0.3258 -0.4187
 1247SOL    HW115203   0.921   2.164   4.631  1.0160 -1.6224  0.8908
 1247SOL    HW215204   0.845   2.141   4.763 -1.1195  0.8003  0.1526
 1248SOL     OW15205   0.062   0.065   9.303  0.0388  0.2213  0.2114
 1248SOL    HW115206   4.691   0.073   9.312 -0.3147 -0.2188 -3.3006
 1248SOL    HW215207   0.062   0.070   9.208 -0.0911 -3.0162  0.0582
 1249SOL     OW15208   3.589   4.545  13.038  0.6659 -0.3848  0.0283
 1249SOL    HW115209   3.494   4.557  13.047  0.8215  1.1790 -0.2736
 1249SOL    HW215210   3.613   4.619  13.095 -0.6923 -1.0478  1.4595
 1250SOL     OW15211   0.667   3.722   4.308  0.4983  0.6222  0.1972
 1250SOL    HW115212   0.577   3.689   4.309 -1.2132  5.4136  2.5810
 1250SOL    HW215213   0.689   3.682   4.392 -1.4255 -1.1810 -0.1474
 1251SOL     OW15214   3.906   1.313   2.465 -0.3187 -0.3918  0.8769
 1251SOL    HW115215   3.996   1.285   2.452 -0.2144 -0.5770  1.9571
 1251SOL    HW215216   3.858   1.266   2.397  1.2951  0.7548 -1.0744
 1252SOL     OW15217   3.310   1.966   3.404 -0.0124 -0.0265  0.4778
 1252SOL    HW115218   3.330   1.923   3.488 -1.3261 -2.7658 -0.6145
 1252SOL    HW215219   3.361   2.046   3.417  1.2098 -0.7757  0.2689
 1253SOL     OW15220   1.709   0.229   1.439  0.8095  0.0955  0.0288
 1253SOL    HW115221   1.679   0.230   1.348 -0.2405 -0.3021  0.3798
 1253SOL    HW215222   1.743   0.318   1.449  2.1066 -0.1376 -2.2738
 1254SOL     OW15223   4.631   0.891   9.301  0.1333  0.0597 -0.6473
 1254SOL    HW115224   4.646   0.851   9.387  0.7418  1.7073 -0.0035
 1254SOL    HW215225   4.556   0.839   9.272  2.5785 -4.0579  0.3893
 1255SOL     OW15226   4.218   4.010   6.766 -0.3469 -0.7164 -0.9866
 1255SOL    HW115227   4.223   4.017   6.671 -1.4334 -0.0207 -0.9919
 1255SOL    HW215228   4.311   3.999   6.786 -0.6242 -1.2248  0.0398
 1256SOL     OW15229   3.059   0.245   4.023 -0.0615 -0.4545  0.7235
 1256SOL    HW115230   2.985   0.215   3.970  1.3765 -2.7136  0.0144
 1256SOL    HW215231   3.055   0.339   4.002 -1.8484 -0.7246 -0.1459
 1257SOL     OW15232   1.839   3.500   4.331  0.3564  0.8267 -0.3353
 1257SOL    HW115233   1.884   3.560   4.390 -0.8829  0.9116  0.5373
 1257SOL    HW215234   1.807   3.564   4.267 -0.9760  0.6923  0.1888
 1258SOL     OW15235   0.621   2.103   7.944  0.1993  0.1912  0.1915
 1258SOL    HW115236   0.537   2.062   7.923  0.2767  0.9827 -1.7238
 1258SOL    HW215237   0.601   2.159   8.018 -1.7636 -0.7742  0.3788
 1259SOL     OW15238   1.446   3.447   7.559  0.3164 -0.5143  0.2512
 1259SOL    HW115239   1.516   3.511   7.573 -1.2870  1.2164  0.4045
 1259SOL    HW215240   1.416   3.425   7.647 -1.8491  0.9779 -0.1240
 1260SOL     OW15241   4.096   3.465  14.361  0.0854 -0.8219 -0.6373
 1260SOL    HW115242   4.054   3.383  14.337  1.2901 -1.5703 -0.1852
 1260SOL    HW215243   4.052   3.524  14.299 -0.6018  0.8297  1.4185
 1261SOL     OW15244   3.428   1.048  15.785  0.0412 -0.2350 -0.2536
 1261SOL    HW115245   3.341   1.030  15.749 -0.2552 -0.3258  0.5226
 1261SOL    HW215246   3.477   1.056  15.703  0.4926 -1.7058 -0.1452
 1262SOL     OW15247   1.336   3.449  17.457 -0.7847  0.1933 -0.1306
 1262SOL    HW115248   1.426   3.454  17.489 -1.0979  0.8329  0.6659
 1262SOL    HW215249   1.280   3.470  17.532  0.4806  0.2095  0.8103
 1263SOL     OW15250   0.193   2.134   1.278  0.5072 -0.0923  0.1345
 1263SOL    HW115251   0.249   2.084   1.220 -1.9849 -2.4820 -0.1934
 1263SOL    HW215252   0.234   2.219   1.264  0.2197 -0.3946 -2.4126
 1264SOL     OW15253   2.569   3.207   5.378  0.1033  0.5063  0.1820
 1264SOL    HW115254   2.546   3.169   5.462 -0.1385  2.6505  1.0915
 1264SOL    HW215255   2.507   3.156   5.325  1.5363  0.3769 -1.4027
 1265SOL     OW15256   2.814   4.041   6.980  1.0489  0.8598  0.2739
 1265SOL    HW115257   2.788   4.128   7.011 -0.8650  0.6464 -0.6914
 1265SOL    HW215258   2.894   4.067   6.935  1.2898  1.2444  0.9287
 1266SOL     OW15259   1.611   2.993  14.871 -0.0820 -0.3338  0.4969
 1266SOL    HW115260   1.678   3.045  14.915 -0.8174 -0.7788  2.1403
 1266SOL    HW215261   1.669   2.926  14.834 -0.4108  0.1275 -0.8434
 1267SOL     OW15262   3.179   1.256  11.119 -0.1273  0.6142 -0.2645
 1267SOL    HW115263   3.186   1.160  11.121  2.1186  0.7736 -0.5415
 1267SOL    HW215264   3.270   1.283  11.116 -0.1838  0.8392  0.1141
 1268SOL     OW15265   0.823   2.301   6.937  0.4768 -0.5322 -0.3453
 1268SOL    HW115266   0.813   2.252   6.856 -1.5426  0.2446 -0.5687
 1268SOL    HW215267   0.913   2.335   6.938 -0.0612  0.9094 -1.8348
 1269SOL     OW15268   0.240   1.668   4.353 -0.3789 -0.1231 -0.1596
 1269SOL    HW115269   0.159   1.693   4.397  0.1755  0.8982  0.2822
 1269SOL    HW215270   0.247   1.573   4.360 -1.8215  0.0074  3.0004
 1270SOL     OW15271   0.925   4.112   8.658  0.0136 -0.8702  0.1136
 1270SOL    HW115272   0.935   4.017   8.652  3.7771 -0.5568  1.0734
 1270SOL    HW215273   0.836   4.122   8.624  1.7754  2.4647 -3.4568
 1271SOL     OW15274   3.437   2.462   6.686  0.3003 -0.2933  0.1066
 1271SOL    HW115275   3.451   2.524   6.757 -0.6909 -1.6294  1.4672
 1271SOL    HW215276   3.471   2.385   6.731 -1.1618 -1.9173 -1.5571
 1272SOL     OW15277   4.251   0.392   5.684 -0.0897  0.2778  0.1729
 1272SOL    HW115278   4.158   0.405   5.702 -0.8543 -1.7309 -2.3397
 1272SOL    HW215279   4.261   0.313   5.736  0.1190  0.3895  0.3031
 1273SOL     OW15280   4.128   3.125   7.777 -0.3442  0.1249 -0.2000
 1273SOL    HW115281   4.143   3.192   7.711 -2.4860  0.6687 -0.1007
 1273SOL    HW215282   4.210   3.074   7.772  1.3234  2.7779 -0.0088
 1274SOL     OW15283   2.540   2.641   7.134  0.0218 -0.3381 -0.3436
 1274SOL    HW115284   2.551   2.624   7.227 -1.6947 -1.8029 -0.3846
 1274SOL    HW215285   2.606   2.582   7.098  0.8906 -0.8679  2.1769
 1275SOL     OW15286   1.690   1.236   9.145  0.3342  0.3609  0.1875
 1275SOL    HW115287   1.660   1.327   9.156  0.3625  0.1973  1.5316
 1275SOL    HW215288   1.625   1.201   9.206  3.1084 -2.1650  1.6453
 1276SOL     OW15289   2.414   3.350  16.983  0.1762 -0.2823 -0.6699
 1276SOL    HW115290   2.480   3.301  17.030 -1.0799 -0.5251  0.8489
 1276SOL    HW215291   2.335   3.323  17.030  0.9349 -0.8498  0.2770
 1277SOL     OW15292   3.159   1.244   9.843 -0.0821  0.5604 -0.8256
 1277SOL    HW115293   3.084   1.191   9.869  2.4074 -1.5996  1.8976
 1277SOL    HW215294   3.218   1.213   9.912  0.5747  0.9075 -1.2236
 1278SOL     OW15295   4.592   2.315   0.402  0.3855  0.0233  0.0322
 1278SOL    HW115296   4.506   2.318   0.360  0.1349 -1.0124  0.4559
 1278SOL    HW215297   4.595   2.222   0.425  0.1353 -0.2974 -1.2317
 1279SOL     OW15298   0.473   0.695  13.702  0.2078  0.0528  0.2335
 1279SOL    HW115299   0.495   0.606  13.676  2.6172  0.8268 -0.3456
 1279SOL    HW215300   0.558   0.728  13.728  0.8871 -0.6918 -1.0449
 1280SOL     OW15301   0.275   0.496   3.094  0.3559 -0.0007 -0.3370
 1280SOL    HW115302   0.319   0.419   3.130  2.0933  1.0862 -0.1657
 1280SOL    HW215303   0.183   0.467   3.094 -0.5384  2.8001 -1.8159
 1281SOL     OW15304   1.419   4.159   4.356  0.0368  0.2204 -0.3208
 1281SOL    HW115305   1.333   4.197   4.374  0.4371  1.6039 -1.2571
 1281SOL    HW215306   1.426   4.087   4.418 -0.7507 -0.2002 -0.7140
 1282SOL     OW15307   3.503   2.640  16.083 -0.0237  0.1121  0.0081
 1282SOL    HW115308   3.463   2.698  16.018  0.4586  0.7556  0.2783
 1282SOL    HW215309   3.574   2.603  16.031  0.3600  0.5455  0.2237
 1283SOL     OW15310   3.524   3.483   0.753 -0.6013  0.2445  0.0260
 1283SOL    HW115311   3.445   3.474   0.806 -0.7971  0.9379 -0.1383
 1283SOL    HW215312   3.574   3.554   0.795  0.3835 -0.2734 -0.2843
 1284SOL     OW15313   2.551   4.552   2.228 -0.4456 -0.5618  0.0873
 1284SOL    HW115314   2.621   4.550   2.163 -2.0931 -1.0105 -1.6922
 1284SOL    HW215315   2.553   4.645   2.251  0.3120 -0.4944 -0.2350
 1285SOL     OW15316   3.113   4.598   5.263  0.0471  0.0036  0.8408
 1285SOL    HW115317   3.043   4.658   5.236  0.4772 -1.1417 -2.8749
 1285SOL    HW215318   3.162   4.585   5.182 -3.2141 -0.2134 -1.1080
 1286SOL     OW15319   0.399   0.662   1.460 -0.0302  0.4085  0.0318
 1286SOL    HW115320   0.420   0.613   1.539  3.6085 -0.0333 -1.1921
 1286SOL    HW215321   0.370   0.593   1.400 -1.9014  1.8700 -0.7481
 1287SOL     OW15322   0.140   4.207   8.353  0.0992  0.3998 -0.2463
 1287SOL    HW115323   0.078   4.156   8.300 -2.0926  1.5468  1.1844
 1287SOL    HW215324   0.122   4.180   8.443 -0.5021  0.0475 -0.4745
 1288SOL     OW15325   3.121   4.362   6.074  0.7253  0.6599  0.3288
 1288SOL    HW115326   3.102   4.404   5.990 -3.8081 -3.8156 -0.8965
 1288SOL    HW215327   3.207   4.339   6.039  1.2916  2.7951  0.3124
 1289SOL     OW15328   2.242   3.086   4.749  0.7029 -0.1017 -0.5801
 1289SOL    HW115329   2.254   3.010   4.692  4.5301 -0.3707  0.5823
 1289SOL    HW215330   2.148   3.102   4.755  0.8041 -0.5189  2.2391
 1290SOL     OW15331   0.854   3.160   0.300 -0.0686 -0.2098 -0.1310
 1290SOL    HW115332   0.794   3.235   0.302  3.0083  2.2706 -2.1702
 1290SOL    HW215333   0.792   3.095   0.335  0.3543 -0.7332 -0.3462
 1291SOL     OW15334   1.195   1.406  15.469 -0.1862  0.2858  0.5831
 1291SOL    HW115335   1.209   1.382  15.561  1.7002 -1.1706 -0.0778
 1291SOL    HW215336   1.107   1.442  15.478 -0.9979 -0.9710 -2.2332
 1292SOL     OW15337   4.720   1.773   4.416 -0.2330  0.0801  0.5017
 1292SOL    HW115338   4.713   1.866   4.395 -0.1183  0.2551  1.2419
 1292SOL    HW215339   4.665   1.726   4.354  2.4506 -0.6820 -1.3062
 1293SOL     OW15340   4.578   1.773   3.761  0.0164 -0.0265  0.2845
 1293SOL    HW115341   4.493   1.729   3.760  0.3188 -0.5620 -1.9069
 1293SOL    HW215342   4.568   1.813   3.675  0.3471 -0.4005  0.0731
 1294SOL     OW15343   1.532   4.054   8.961  0.4834 -0.0518 -0.4029
 1294SOL    HW115344   1.526   4.104   8.880  0.5067  1.1627  0.3466
 1294SOL    HW215345   1.597   3.991   8.931  1.4911  0.1410  1.3395
 1295SOL     OW15346   1.330   0.073   4.359 -0.5446  0.4700  0.2468
 1295SOL    HW115347   1.399   0.131   4.327 -0.7362 -0.5186 -1.9359
 1295SOL    HW215348   1.372   4.712   4.356 -1.3006  0.1544 -1.1346
 1296SOL     OW15349   1.926   1.789   6.737  0.4496  0.3574  0.0022
 1296SOL    HW115350   1.935   1.883   6.752  0.8349  0.0589  1.7182
 1296SOL    HW215351   1.907   1.759   6.826 -0.0200  0.3667 -0.0942
 1297SOL     OW15352   2.186   0.542  12.758  0.3205 -0.4240 -0.3491
 1297SOL    HW115353   2.181   0.593  12.839 -0.7137 -0.1264 -0.5980
 1297SOL    HW215354   2.104   0.553  12.711 -1.3692 -1.6706  2.2780
 1298SOL     OW15355   3.650   0.060  15.786  0.1726 -0.1639  0.2064
 1298SOL    HW115356   3.627   0.006  15.711 -3.3150  0.3407  0.9347
 1298SOL    HW215357   3.724   0.008  15.818 -1.0704 -2.5548 -0.8340
 1299SOL     OW15358   1.822   3.176   2.097  0.1519  0.0668 -0.0299
 1299SOL    HW115359   1.909   3.145   2.124 -0.3732 -0.7211  0.7643
 1299SOL    HW215360   1.768   3.117   2.150 -1.3585  0.6674 -0.9140
 1300SOL     OW15361   1.710   3.513   8.730 -0.0012 -0.4978  0.0481
 1300SOL    HW115362   1.776   3.490   8.664  0.3742 -2.4841  1.1033
 1300SOL    HW215363   1.703   3.607   8.716 -1.0790 -0.1343  3.0841
 1301SOL     OW15364   0.347   1.698  13.307 -0.4637 -0.0872  0.1213
 1301SOL    HW115365   0.266   1.720  13.353 -0.2383  0.3942  0.2924
 1301SOL    HW215366   0.325   1.610  13.276 -2.2330  1.3440 -2.6682
 1302SOL     OW15367   0.020   0.457   8.656  0.6201  0.3396  0.5917
 1302SOL    HW115368   0.116   0.448   8.656  0.7004  1.2226  1.3664
 1302SOL    HW215369   0.008   0.542   8.614  0.0408 -0.6606 -1.2725
 1303SOL     OW15370   4.070   2.671   5.636  0.0191  0.0177 -0.2017
 1303SOL    HW115371   3.985   2.684   5.680  0.6204 -0.1238  0.9927
 1303SOL    HW215372   4.061   2.583   5.598  1.9379  0.1865 -1.0371
 1304SOL     OW15373   2.169   4.293  12.234 -0.4583  0.3284  0.2186
 1304SOL    HW115374   2.123   4.377  12.230 -0.1785  0.6245  3.1848
 1304SOL    HW215375   2.180   4.279  12.328  0.5170 -1.4043 -0.1502
 1305SOL     OW15376   4.297   0.793   8.229  0.3906 -1.2027  0.7694
 1305SOL    HW115377   4.254   0.878   8.242  0.0308 -1.6857  2.7412
 1305SOL    HW215378   4.367   0.819   8.169 -0.1929 -1.6685 -0.1158
 1306SOL     OW15379   2.438   3.729  15.584 -0.2029  0.4900  0.1371
 1306SOL    HW115380   2.518   3.745  15.635 -1.3340 -0.1321  2.1038
 1306SOL    HW215381   2.428   3.807  15.529  1.9472 -1.2357 -2.6808
 1307SOL     OW15382   1.088   1.965   0.854 -0.3822 -0.4210 -0.1567
 1307SOL    HW115383   1.104   1.981   0.761  2.7797 -5.0074 -0.3786
 1307SOL    HW215384   1.060   2.050   0.888 -1.6636 -0.7366 -0.4242
 1308SOL     OW15385   0.080   1.543   2.280 -0.2155  0.2437  0.1594
 1308SOL    HW115386   0.140   1.518   2.351 -0.3019  1.5716  0.6999
 1308SOL    HW215387   0.124   1.622   2.251 -0.8956  1.0121  1.2131
 1309SOL     OW15388   1.782   2.522  13.290 -0.0440  0.2765 -0.0266
 1309SOL    HW115389   1.794   2.560  13.376 -1.0074  0.0352  0.2145
 1309SOL    HW215390   1.697   2.479  13.292  0.5959 -0.9881  0.0245
 1310SOL     OW15391   2.284   0.811   4.486  0.4904  0.1906 -0.1745
 1310SOL    HW115392   2.351   0.769   4.432 -1.0724 -0.6964 -1.4306
 1310SOL    HW215393   2.235   0.732   4.511 -2.0156  1.9993  0.6179
 1311SOL     OW15394   1.897   2.945  16.582 -0.1661 -0.2332  0.3362
 1311SOL    HW115395   1.806   2.975  16.576  0.0771  0.5219  0.4147
 1311SOL    HW215396   1.934   3.029  16.611 -0.6715 -0.5274  1.8381
 1312SOL     OW15397   1.407   2.731  14.564  0.1984  0.2647  0.4903
 1312SOL    HW115398   1.367   2.789  14.499 -0.7321 -1.8119 -0.7670
 1312SOL    HW215399   1.340   2.734  14.633  1.0024 -0.0846  1.2862
 1313SOL     OW15400   2.728   4.097  17.384 -0.6020  0.3273  0.0126
 1313SOL    HW115401   2.676   4.033  17.433  1.1943 -0.2930  1.0956
 1313SOL    HW215402   2.707   4.177  17.433 -1.7085  0.4235 -0.6292
 1314SOL     OW15403   0.507   0.921   2.565  0.4555 -0.1963 -0.0149
 1314SOL    HW115404   0.542   0.832   2.573 -0.2403 -0.4018  0.7040
 1314SOL    HW215405   0.421   0.912   2.525  1.6362 -1.3240 -2.2838
 1315SOL     OW15406   1.309   2.463   0.742  0.3271  0.2632  0.3062
 1315SOL    HW115407   1.313   2.525   0.814  1.2984  2.3015 -1.5086
 1315SOL    HW215408   1.396   2.463   0.702 -0.4332 -0.1908 -1.3470
 1316SOL     OW15409   1.398   4.159   0.480  0.1349  0.4169  0.5960
 1316SOL    HW115410   1.399   4.217   0.404 -0.0845 -0.0900  0.2112
 1316SOL    HW215411   1.307   4.152   0.508 -0.1150 -0.9973 -0.6200
 1317SOL     OW15412   0.707   0.338   0.656 -0.2751 -0.2040  0.0421
 1317SOL    HW115413   0.714   0.271   0.724  2.3608  1.0601  1.0108
 1317SOL    HW215414   0.612   0.336   0.645 -0.1438 -0.2051 -1.0952
 1318SOL     OW15415   2.932   3.042   4.864  0.0035 -0.3684 -0.0180
 1318SOL    HW115416   2.904   3.133   4.877  1.1526 -0.2951  1.8472
 1318SOL    HW215417   2.853   2.989   4.856 -0.8273  0.5992  1.8565
 1319SOL     OW15418   0.693   4.707   8.472 -0.4807  0.0483 -0.5623
 1319SOL    HW115419   0.703   4.660   8.389 -1.0340 -0.0007 -0.6007
 1319SOL    HW215420   0.762   0.049   8.468 -0.2064 -0.2408 -0.6790
 1320SOL     OW15421   0.087   0.567   2.814  0.1002 -0.1240 -0.2793
 1320SOL    HW115422   0.150   0.523   2.757  0.4873  0.3615 -0.2284
 1320SOL    HW215423   0.019   0.503   2.794 -1.0979  0.7454  1.0758
 1321SOL     OW15424   1.700   0.977   2.222  0.2840  0.0843  0.3611
 1321SOL    HW115425   1.772   0.920   2.196  1.3267  1.1093  0.9457
 1321SOL    HW215426   1.725   1.057   2.176  0.8958 -0.3749 -0.1128
 1322SOL     OW15427   2.912   1.372   8.924 -0.1485  0.8029  0.5016
 1322SOL    HW115428   2.886   1.463   8.935  1.0682  1.3108 -0.8378
 1322SOL    HW215429   2.829   1.334   8.894 -0.7085  2.0340  0.4822
 1323SOL     OW15430   1.282   4.603  16.059 -0.3198  0.8657  0.1812
 1323SOL    HW115431   1.266   4.550  16.138 -1.7644 -0.5875 -1.0766
 1323SOL    HW215432   1.244   4.545  15.993 -1.1373 -1.7376  2.8829
 1324SOL     OW15433   4.210   2.514  17.265  0.9000 -0.3302 -0.8070
 1324SOL    HW115434   4.144   2.447  17.281 -1.6614  2.0606 -1.4622
 1324SOL    HW215435   4.245   2.486  17.180  3.9997 -0.8620  0.6104
 1325SOL     OW15436   0.580   1.367   9.051  0.3716  0.4612 -0.1830
 1325SOL    HW115437   0.573   1.281   9.008 -1.0333  0.3941  0.1605
 1325SOL    HW215438   0.671   1.355   9.076  0.1684 -0.7634 -0.0172
 1326SOL     OW15439   2.332   0.281   2.247 -0.9506 -0.0436  0.3845
 1326SOL    HW115440   2.346   0.372   2.271 -0.6755  0.6166 -2.2425
 1326SOL    HW215441   2.299   0.281   2.157  0.3111 -1.8666 -0.0983
 1327SOL     OW15442   1.170   2.632   3.140 -0.3970  0.0045 -0.5073
 1327SOL    HW115443   1.240   2.604   3.199 -2.2048  0.4050  1.8198
 1327SOL    HW215444   1.098   2.575   3.168  1.1925 -0.5193  2.5727
 1328SOL     OW15445   1.975   2.246   7.037  0.0759  0.5814 -0.1249
 1328SOL    HW115446   1.983   2.231   7.131  0.8245  2.2379  0.0856
 1328SOL    HW215447   2.040   2.315   7.021  0.1452  0.0589 -2.0543
 1329SOL     OW15448   0.241   1.843   4.878 -0.7698  0.1311 -0.3320
 1329SOL    HW115449   0.225   1.759   4.922  1.3435  1.1750  2.3691
 1329SOL    HW215450   0.156   1.847   4.834 -1.9925 -1.1317  1.8941
 1330SOL     OW15451   1.612   1.634   6.309 -0.5854  0.5449 -0.3314
 1330SOL    HW115452   1.580   1.544   6.309 -0.9045  0.6798 -4.2157
 1330SOL    HW215453   1.540   1.687   6.343  1.3726  2.5982  0.6553
 1331SOL     OW15454   1.508   1.973   0.528  0.1729 -0.1652  0.1637
 1331SOL    HW115455   1.576   2.037   0.506  0.4392 -0.3205  0.5405
 1331SOL    HW215456   1.470   2.017   0.604  0.4625  0.2321  0.0754
 1332SOL     OW15457   3.787   0.965   4.910  0.1482 -0.3544 -0.1697
 1332SOL    HW115458   3.777   0.880   4.867  0.9404  1.2031 -3.4140
 1332SOL    HW215459   3.700   0.974   4.950  0.2153  1.9797 -0.5289
 1333SOL     OW15460   3.246   1.369   5.877 -0.0928  0.2494  0.1368
 1333SOL    HW115461   3.323   1.321   5.844 -0.2678 -0.5627  0.8889
 1333SOL    HW215462   3.246   1.328   5.964 -0.6018 -1.4052 -0.6342
 1334SOL     OW15463   1.712   2.729   7.540 -0.9269 -0.3128  0.5453
 1334SOL    HW115464   1.788   2.686   7.580  0.8247  1.3754 -0.9928
 1334SOL    HW215465   1.653   2.727   7.616  0.9308  1.8429  2.0118
 1335SOL     OW15466   3.893   1.570   3.220  0.0025  0.1359 -0.6986
 1335SOL    HW115467   3.959   1.500   3.221  0.3889  0.5290  1.1193
 1335SOL    HW215468   3.826   1.535   3.161  1.4371 -1.0763 -1.6184
 1336SOL     OW15469   2.865   0.495   0.228  0.7745 -0.2173  0.7685
 1336SOL    HW115470   2.914   0.413   0.226  1.4530  0.2818 -3.8760
 1336SOL    HW215471   2.801   0.477   0.297 -0.3917 -0.2520 -0.3288
 1337SOL     OW15472   1.625   0.228   0.244  0.4997 -0.2309  0.1185
 1337SOL    HW115473   1.575   0.149   0.225  1.5640 -1.0005  0.5538
 1337SOL    HW215474   1.684   0.199   0.314 -0.7674 -2.8094  0.1176
 1338SOL     OW15475   3.993   4.414   2.516 -0.6115 -0.0624 -0.1349
 1338SOL    HW115476   4.068   4.418   2.576  0.5608  0.1006 -1.6285
 1338SOL    HW215477   3.980   4.320   2.512 -1.1080  0.0514 -1.1641
 1339SOL     OW15478   3.944   4.487   1.192 -0.3137 -0.3453  0.0865
 1339SOL    HW115479   3.904   4.416   1.142 -0.1922 -0.0056 -0.5041
 1339SOL    HW215480   3.982   4.437   1.264 -1.7355 -0.6867  0.5924
 1340SOL     OW15481   2.529   0.584  11.830 -0.1953 -0.1296  0.5738
 1340SOL    HW115482   2.474   0.663  11.828  1.4537  0.9479 -2.9117
 1340SOL    HW215483   2.588   0.613  11.900 -0.5160  0.2831  0.6765
 1341SOL     OW15484   0.768   4.499   5.886 -0.5586  0.0527 -0.3001
 1341SOL    HW115485   0.695   4.545   5.844 -0.2545 -0.1295 -1.0172
 1341SOL    HW215486   0.815   4.568   5.933 -1.8741  0.3049  0.6608
 1342SOL     OW15487   2.744   3.741   7.206  0.1602  0.5810  0.3819
 1342SOL    HW115488   2.682   3.774   7.141 -0.1489  1.9705  1.3688
 1342SOL    HW215489   2.815   3.706   7.152  1.2389 -1.4612  3.1659
 1343SOL     OW15490   1.268   2.182   4.102 -0.2441  0.1310 -0.2890
 1343SOL    HW115491   1.332   2.202   4.170  1.0633 -2.2739 -0.8108
 1343SOL    HW215492   1.187   2.217   4.139  0.3923  1.3717 -0.0857
 1344SOL     OW15493   1.386   3.258   5.903 -0.3049  0.0613 -0.4352
 1344SOL    HW115494   1.471   3.299   5.912 -0.7329  0.6936  0.6880
 1344SOL    HW215495   1.382   3.212   5.987  0.8424  0.4935 -0.1488
 1345SOL     OW15496   1.722   4.096   8.562  0.4044 -0.1707 -0.3295
 1345SOL    HW115497   1.764   4.154   8.498  3.3876 -0.5133  1.2943
 1345SOL    HW215498   1.798   4.049   8.598  0.8330  0.2019 -0.7369
 1346SOL     OW15499   1.243   0.410  13.195 -0.5237 -0.1352 -0.1271
 1346SOL    HW115500   1.284   0.435  13.112  0.4039  1.8014  0.9082
 1346SOL    HW215501   1.176   0.349  13.165  1.9998 -1.7667 -2.4001
 1347SOL     OW15502   4.082   0.936  10.880 -0.1719 -0.1543 -0.4262
 1347SOL    HW115503   4.075   1.019  10.833 -0.9262  0.7562  1.2964
 1347SOL    HW215504   4.167   0.942  10.923  0.1143  0.2123 -1.0434
 1348SOL     OW15505   2.250   3.259   6.245 -0.0301 -0.1556 -0.2219
 1348SOL    HW115506   2.225   3.183   6.298 -0.5221 -1.0020 -1.6309
 1348SOL    HW215507   2.264   3.210   6.164  1.2618 -0.3831  0.1382
 1349SOL     OW15508   3.270   3.674   5.242 -0.0951 -0.1571  0.2083
 1349SOL    HW115509   3.333   3.658   5.172 -0.2295 -1.7418  0.4415
 1349SOL    HW215510   3.327   3.700   5.315 -1.8428 -0.6789  1.7592
 1350SOL     OW15511   0.380   2.825   4.445 -0.4024  0.1691  0.2180
 1350SOL    HW115512   0.475   2.830   4.449 -0.3956  2.1662 -2.3155
 1350SOL    HW215513   0.361   2.901   4.500 -3.6824 -0.0831 -0.5388
 1351SOL     OW15514   0.022   2.978  17.600  0.2735  0.3576  0.0534
 1351SOL    HW115515   0.061   2.991  17.513 -1.2815 -2.2363 -1.0212
 1351SOL    HW215516   4.675   2.919  17.577  1.2871 -0.9876  0.3711
 1352SOL     OW15517   2.730   1.519   2.696  0.2460  0.1262 -0.0848
 1352SOL    HW115518   2.678   1.584   2.744  1.0797  0.0971  0.8632
 1352SOL    HW215519   2.674   1.504   2.620  0.7637  1.4875 -0.7530
 1353SOL     OW15520   0.086   1.430  16.126  0.4271 -0.6694  0.3457
 1353SOL    HW115521   4.722   1.442  16.093  0.3541 -0.6990  0.5295
 1353SOL    HW215522   0.065   1.421  16.219  1.0139  2.8225  0.8059
 1354SOL     OW15523   3.967   3.061  13.141 -0.0445  0.1345 -0.4773
 1354SOL    HW115524   4.045   3.006  13.147 -0.5791 -0.8072 -2.1497
 1354SOL    HW215525   3.974   3.106  13.225 -0.4637 -2.5722  0.9993
 1355SOL     OW15526   1.670   1.161   6.039 -0.2040  0.3148 -0.4820
 1355SOL    HW115527   1.758   1.146   6.005  0.0894 -0.4955  0.6192
 1355SOL    HW215528   1.617   1.141   5.963 -2.1112 -0.5693  1.0861
 1356SOL     OW15529   4.122   1.515   0.939  0.2006  0.3048 -0.1099
 1356SOL    HW115530   4.126   1.530   0.845 -0.3017  2.7366  0.2693
 1356SOL    HW215531   4.092   1.602   0.966  1.1272  0.6409 -0.1884
 1357SOL     OW15532   3.077   4.140   1.737  0.3351  1.5077  0.8388
 1357SOL    HW115533   3.098   4.135   1.830 -0.5515 -1.4192  0.8770
 1357SOL    HW215534   3.111   4.054   1.711 -0.8862  0.6004  2.1993
 1358SOL     OW15535   3.226   4.671   2.505 -0.3406  0.5775  0.1832
 1358SOL    HW115536   3.315   4.663   2.469 -0.5040 -0.7468  0.0570
 1358SOL    HW215537   3.180   4.707   2.428  2.4466 -0.0969 -1.8175
 1359SOL     OW15538   0.433   4.678   2.396 -0.5846 -0.1443 -0.2514
 1359SOL    HW115539   0.417   4.712   2.484  3.2519 -2.1102  1.1835
 1359SOL    HW215540   0.391   0.015   2.336  1.4554  1.3893 -0.0872
 1360SOL     OW15541   2.835   1.633  11.742  0.1135  0.2368  0.8246
 1360SOL    HW115542   2.832   1.729  11.738  0.4878  0.0863 -2.6414
 1360SOL    HW215543   2.791   1.618  11.826 -3.9706  0.8931 -1.2320
 1361SOL     OW15544   1.915   1.241   5.953 -0.3573 -0.0125 -0.3368
 1361SOL    HW115545   1.973   1.182   5.906  0.3782  2.5101 -2.5525
 1361SOL    HW215546   1.945   1.216   6.041 -1.0879 -1.7995 -0.6148
 1362SOL     OW15547   2.648   0.561   8.402 -0.1553  0.1223 -0.6649
 1362SOL    HW115548   2.665   0.496   8.334  1.0203  0.3579 -0.5898
 1362SOL    HW215549   2.562   0.532   8.434  0.1038 -1.0128 -0.9839
 1363SOL     OW15550   3.134   2.864   6.382  0.1769  0.0528  0.5016
 1363SOL    HW115551   3.084   2.827   6.454 -2.3161 -0.0235 -1.2610
 1363SOL    HW215552   3.094   2.950   6.369  0.7292  0.0037 -1.6321
 1364SOL     OW15553   1.568   2.895  11.902 -0.3306  0.2600  0.2167
 1364SOL    HW115554   1.565   2.926  11.811 -2.1046 -1.6720 -0.3868
 1364SOL    HW215555   1.658   2.924  11.917 -0.7076  1.5506  0.0114
 1365SOL     OW15556   0.734   2.623   5.558  0.2968 -0.3043 -0.0204
 1365SOL    HW115557   0.817   2.661   5.587  0.9738  0.0420 -2.3307
 1365SOL    HW215558   0.768   2.539   5.524 -2.5604 -1.9131  1.1745
 1366SOL     OW15559   0.243   2.744   8.042 -0.7511 -0.3844  0.2436
 1366SOL    HW115560   0.157   2.702   8.045 -0.1758 -1.5760  0.2444
 1366SOL    HW215561   0.286   2.716   7.961 -1.0776 -0.6407  0.1606
 1367SOL     OW15562   3.222   0.552   4.537  0.6584  0.4057  0.3691
 1367SOL    HW115563   3.196   0.603   4.614 -1.1860  0.1298 -0.0675
 1367SOL    HW215564   3.314   0.528   4.552  0.3757 -0.2149  1.1014
 1368SOL     OW15565   2.347   4.231   5.988 -0.2204  0.0702  0.4152
 1368SOL    HW115566   2.367   4.254   6.078  1.7445 -1.4213  0.3514
 1368SOL    HW215567   2.253   4.216   6.000 -0.1729  0.0577  0.7618
 1369SOL     OW15568   1.074   1.272   0.112  0.8640 -0.3539 -0.4462
 1369SOL    HW115569   0.985   1.240   0.099  0.6127  0.3213 -0.4290
 1369SOL    HW215570   1.079   1.271   0.207 -2.8837 -0.3932 -0.2186
 1370SOL     OW15571   1.449   4.627   7.268  0.4355  0.4766  0.3238
 1370SOL    HW115572   1.487   4.608   7.354 -0.5195 -0.0845  0.6199
 1370SOL    HW215573   1.390   4.701   7.283 -0.0138 -0.2691  2.2009
 1371SOL     OW15574   2.282   1.512   3.431 -0.6577 -0.5758 -0.0449
 1371SOL    HW115575   2.354   1.533   3.371  1.0548 -0.0399  2.1875
 1371SOL    HW215576   2.328   1.436   3.469 -0.5377  0.0237  1.0062
 1372SOL     OW15577   4.369   1.875   1.645 -0.1952  0.2591  0.2957
 1372SOL    HW115578   4.368   1.806   1.711  1.0723  0.2887  0.3438
 1372SOL    HW215579   4.289   1.922   1.669 -0.5271 -0.4000  0.4853
 1373SOL     OW15580   4.016   0.042  12.221 -0.5116  0.6735 -0.5393
 1373SOL    HW115581   4.100   0.037  12.267 -0.2427 -2.7858 -1.3735
 1373SOL    HW215582   4.035   4.722  12.139  0.2095 -2.6380  1.4051
 1374SOL     OW15583   2.143   0.811   6.741 -1.0061  0.2672  0.4034
 1374SOL    HW115584   2.142   0.875   6.670 -1.7388  1.0846  1.1590
 1374SOL    HW215585   2.229   0.813   6.783 -1.7342  0.0518  1.8830
 1375SOL     OW15586   0.344   3.514   6.137  0.5063 -0.8007  0.4307
 1375SOL    HW115587   0.387   3.469   6.064 -0.7392 -1.5726  0.1804
 1375SOL    HW215588   0.387   3.600   6.138  0.0370 -0.5422 -1.1795
 1376SOL     OW15589   1.187   4.721  11.669 -0.2945  0.1466  0.0964
 1376SOL    HW115590   1.183   4.627  11.651 -0.0342  0.5753 -2.1943
 1376SOL    HW215591   1.211   0.035  11.585  1.1057 -1.3270 -0.1690
 1377SOL     OW15592   3.201   4.064   6.482  0.3332  0.3019  0.3054
 1377SOL    HW115593   3.185   4.122   6.407 -1.2845 -0.9390 -0.2924
 1377SOL    HW215594   3.116   4.085   6.521  0.6568  0.1843  1.0613
 1378SOL     OW15595   0.005   1.043   8.485 -0.5035  0.1306 -0.1499
 1378SOL    HW115596   4.635   1.058   8.489 -0.5636  0.2985 -2.3400
 1378SOL    HW215597   0.035   1.108   8.549 -1.2549 -2.5341  2.9073
 1379SOL     OW15598   0.442   0.368   8.171 -0.1540 -0.8794 -0.1154
 1379SOL    HW115599   0.500   0.423   8.223  0.1272 -0.6661 -0.6683
 1379SOL    HW215600   0.373   0.349   8.235 -1.8204 -1.3341 -2.0550
 1380SOL     OW15601   0.599   3.105  13.899  0.2811  0.0586  0.3393
 1380SOL    HW115602   0.506   3.099  13.919 -0.1953  0.3752 -1.7758
 1380SOL    HW215603   0.612   3.012  13.884  3.3517  0.4821  0.3676
 1381SOL     OW15604   1.133   2.994   8.638  0.0389 -0.4073 -0.7389
 1381SOL    HW115605   1.198   3.002   8.568  1.6113  0.1844  0.7884
 1381SOL    HW215606   1.075   2.935   8.589 -0.7820  1.4511 -2.0094
 1382SOL     OW15607   1.916   1.215   8.500  0.4324  0.3611  0.2955
 1382SOL    HW115608   1.834   1.246   8.461  1.5292  0.4482 -1.9379
 1382SOL    HW215609   1.886   1.174   8.581 -1.1395 -1.4108 -1.1844
 1383SOL     OW15610   1.753   1.701  11.569 -0.7425  0.0414  0.0670
 1383SOL    HW115611   1.824   1.726  11.629  0.7579  1.3349 -2.2574
 1383SOL    HW215612   1.788   1.720  11.482 -2.5986 -0.3035 -0.7446
 1384SOL     OW15613   0.245   0.786  12.896  0.1578  0.0173  0.2263
 1384SOL    HW115614   0.223   0.695  12.918  0.5009 -0.3329 -0.9139
 1384SOL    HW215615   0.322   0.799  12.952 -0.4199  0.2085  0.9850
 1385SOL     OW15616   1.850   1.821   1.099  0.3773 -0.4697 -0.1312
 1385SOL    HW115617   1.925   1.786   1.051  0.8778 -1.5572  1.4333
 1385SOL    HW215618   1.786   1.756   1.070 -2.0512  0.4979  2.9798
 1386SOL     OW15619   1.027   1.828  10.255 -0.0433 -0.5490 -0.1080
 1386SOL    HW115620   0.958   1.804  10.317 -0.4207 -0.8049 -0.6289
 1386SOL    HW215621   1.026   1.922  10.273 -0.5409 -0.7760  1.0303
 1387SOL     OW15622   2.138   4.674   5.300  0.2875  0.0469 -0.1325
 1387SOL    HW115623   2.110   0.041   5.296  0.1348  0.1556  3.0759
 1387SOL    HW215624   2.054   4.633   5.279  0.2195 -1.1214  2.4331
 1388SOL     OW15625   2.436   0.028  13.107 -0.0427  0.3454 -0.4738
 1388SOL    HW115626   2.470   0.107  13.066  2.9752 -1.0357 -0.6049
 1388SOL    HW215627   2.404   4.708  13.028  1.2011  0.1453 -0.8648
 1389SOL     OW15628   1.974   0.912   6.256  0.3473 -0.0487  0.5734
 1389SOL    HW115629   1.978   1.006   6.274  0.0930  0.4870 -2.1394
 1389SOL    HW215630   1.897   0.888   6.308  0.5561  0.3043  1.0418
 1390SOL     OW15631   1.308   3.315   8.297  0.7370 -0.2616  0.3435
 1390SOL    HW115632   1.213   3.314   8.308  0.7064  0.7653  0.1296
 1390SOL    HW215633   1.320   3.385   8.233 -0.4853 -0.8412 -0.5211
 1391SOL     OW15634   2.844   1.796   2.095 -0.3912 -0.3936  0.3683
 1391SOL    HW115635   2.855   1.737   2.170  0.7005 -0.3358  0.2518
 1391SOL    HW215636   2.937   1.795   2.073 -0.7606  0.0985 -1.2359
 1392SOL     OW15637   4.180   1.377   6.685 -0.2072 -0.6198  0.1547
 1392SOL    HW115638   4.255   1.345   6.635 -0.9778 -2.8518  0.4209
 1392SOL    HW215639   4.219   1.361   6.771 -2.9453  0.0695  1.5153
 1393SOL     OW15640   3.034   3.190   1.831  0.4875 -0.6077  0.4165
 1393SOL    HW115641   3.075   3.276   1.830 -0.1358 -0.2865  2.4538
 1393SOL    HW215642   3.052   3.172   1.923  1.1746  0.4149  0.4821
 1394SOL     OW15643   4.452   4.352   1.928 -0.1889 -0.1690 -0.0368
 1394SOL    HW115644   4.454   4.448   1.921  1.0617 -0.2665 -1.0092
 1394SOL    HW215645   4.525   4.316   1.878 -0.1296  0.4400 -0.3866
 1395SOL     OW15646   3.542   0.605   3.268  0.1242 -0.5605  0.0000
 1395SOL    HW115647   3.485   0.560   3.205  0.1827  0.4595 -0.7778
 1395SOL    HW215648   3.602   0.535   3.292 -0.1690 -0.8849 -0.2053
 1396SOL     OW15649   3.464   0.841  16.401 -0.2096 -0.6101  0.2712
 1396SOL    HW115650   3.505   0.831  16.487 -1.0102  4.0922  1.2289
 1396SOL    HW215651   3.464   0.937  16.399  1.8175 -0.6348 -0.0041
 1397SOL     OW15652   2.629   2.861   4.540  0.8743 -0.3207  0.1032
 1397SOL    HW115653   2.713   2.861   4.494 -0.4626 -0.0119 -2.3139
 1397SOL    HW215654   2.581   2.928   4.491  1.3280 -0.5370 -0.6285
 1398SOL     OW15655   1.678   0.721   6.097 -0.8797 -0.5052  0.1635
 1398SOL    HW115656   1.733   0.714   6.019 -0.1767  0.8634  0.5423
 1398SOL    HW215657   1.711   0.639   6.134 -1.8343 -0.0416  2.0730
 1399SOL     OW15658   3.613   4.223   4.455 -0.1477 -0.1916 -0.1835
 1399SOL    HW115659   3.661   4.283   4.512 -1.2057  0.4603  0.0241
 1399SOL    HW215660   3.640   4.264   4.372  1.8261 -1.3260 -0.0964
 1400SOL     OW15661   3.640   3.016   2.224 -0.1145 -0.0479  0.1712
 1400SOL    HW115662   3.618   3.108   2.214  0.2619  0.0108 -0.0843
 1400SOL    HW215663   3.679   3.016   2.312  1.1402 -1.3176 -0.3830
 1401SOL     OW15664   4.354   1.817   6.156 -0.5011 -0.4118  0.0688
 1401SOL    HW115665   4.420   1.851   6.096 -1.4913  0.0295 -0.7635
 1401SOL    HW215666   4.402   1.750   6.204  0.2678  0.3069  0.3023
 1402SOL     OW15667   3.427   0.313   9.116 -0.6154  0.4938  0.0759
 1402SOL    HW115668   3.511   0.270   9.127 -0.2704  1.3271  0.7176
 1402SOL    HW215669   3.441   0.406   9.135  0.9824  0.3751 -0.5226
 1403SOL     OW15670   3.826   1.726  17.641 -0.2214  0.0384  0.9489
 1403SOL    HW115671   3.858   1.748   0.028 -2.1242  3.9213  0.6934
 1403SOL    HW215672   3.734   1.711  17.664 -0.3778 -1.5894 -0.7124
 1404SOL     OW15673   1.755   1.526  14.021 -0.5779 -0.4031 -0.3535
 1404SOL    HW115674   1.789   1.610  13.992 -1.7932  0.6001  1.1510
 1404SOL    HW215675   1.667   1.547  14.053 -0.0869 -0.7785  1.2426
 1405SOL     OW15676   3.270   1.975   2.498  0.1077  0.2745  0.3235
 1405SOL    HW115677   3.322   1.907   2.456 -0.0152  1.8591 -2.4554
 1405SOL    HW215678   3.247   1.935   2.581 -1.0781  2.7774  1.2229
 1406SOL     OW15679   2.572   0.563  14.358  0.2667  0.0603 -0.3933
 1406SOL    HW115680   2.479   0.583  14.358  0.1648 -0.4809  2.5620
 1406SOL    HW215681   2.590   0.605  14.442 -1.8198  1.8787 -0.8458
 1407SOL     OW15682   3.811   0.952   8.073  0.2608  0.5990 -1.1875
 1407SOL    HW115683   3.779   0.878   8.021  1.8679 -1.9694  1.4907
 1407SOL    HW215684   3.791   1.020   8.009  1.0404  2.4559  0.5469
 1408SOL     OW15685   0.561   0.525   3.507  0.2868  0.0273  0.3912
 1408SOL    HW115686   0.595   0.557   3.424  1.4123 -0.9035  0.4867
 1408SOL    HW215687   0.567   0.432   3.485  1.9563 -0.0061  0.9870
 1409SOL     OW15688   4.293   1.807   8.242 -0.5108 -0.1093 -0.0167
 1409SOL    HW115689   4.358   1.865   8.202 -0.2163  0.9035  1.9301
 1409SOL    HW215690   4.235   1.805   8.165 -1.0973 -0.8993  0.4465
 1410SOL     OW15691   0.092   1.801  11.190 -0.3503 -0.4539  0.1580
 1410SOL    HW115692   0.036   1.878  11.179 -1.0792 -0.7691  1.6257
 1410SOL    HW215693   0.155   1.823  11.121  0.8385 -0.9215  1.0856
 1411SOL     OW15694   3.722   0.910   2.486 -0.0087  0.0247 -0.0398
 1411SOL    HW115695   3.687   0.981   2.433 -1.3480 -3.2497 -3.5766
 1411SOL    HW215696   3.785   0.954   2.543  0.2449  1.0222 -1.0890
 1412SOL     OW15697   4.147   1.419   4.122 -0.0573 -0.6284 -0.5987
 1412SOL    HW115698   4.183   1.430   4.034  0.3413  1.0700 -0.2303
 1412SOL    HW215699   4.059   1.394   4.094 -1.2049  1.2468  1.3177
 1413SOL     OW15700   3.224   0.486   5.698 -0.1968  0.8774  0.2268
 1413SOL    HW115701   3.209   0.398   5.733  0.0671  0.3329 -1.0301
 1413SOL    HW215702   3.297   0.463   5.641  0.5936  3.0706  0.3597
 1414SOL     OW15703   4.483   2.039  16.391  0.3448 -0.4431 -0.2114
 1414SOL    HW115704   4.544   1.966  16.380  2.7564  1.7533 -1.4599
 1414SOL    HW215705   4.419   2.019  16.323  0.1093  0.5820 -0.2926
 1415SOL     OW15706   1.956   3.706   4.467  0.4244 -0.1465 -0.7523
 1415SOL    HW115707   1.932   3.798   4.451  0.0404 -0.3417 -1.2890
 1415SOL    HW215708   2.015   3.713   4.543 -0.3976 -3.4925  0.1722
 1416SOL     OW15709   3.667   2.609  15.659  0.6080 -0.7436 -0.0361
 1416SOL    HW115710   3.747   2.596  15.607 -0.3699  2.1182 -2.2202
 1416SOL    HW215711   3.609   2.541  15.626  0.2251 -1.9838  3.1341
 1417SOL     OW15712   3.694   4.147  11.271 -0.0651  0.4151  1.0627
 1417SOL    HW115713   3.746   4.217  11.232 -0.2123  1.2037  2.2920
 1417SOL    HW215714   3.641   4.185  11.341 -0.5595 -0.1249  0.9829
 1418SOL     OW15715   0.660   3.383   1.687 -0.2180 -0.1405 -0.3432
 1418SOL    HW115716   0.743   3.412   1.649  0.3201 -1.1288  0.0805
 1418SOL    HW215717   0.585   3.428   1.647 -0.0966 -0.1437 -0.5753
 1419SOL     OW15718   3.399   0.347   6.728  0.3965 -0.6644 -0.4168
 1419SOL    HW115719   3.306   0.367   6.743  0.1973 -0.4743 -1.9936
 1419SOL    HW215720   3.391   0.352   6.633 -2.1064  0.5478 -0.1485
 1420SOL     OW15721   1.357   0.054   3.454 -0.3371 -0.4506 -0.3688
 1420SOL    HW115722   1.306   0.135   3.462 -1.4916 -1.2014 -0.0228
 1420SOL    HW215723   1.309   0.000   3.391  0.9970 -0.7562 -1.1021
 1421SOL     OW15724   0.658   0.886   5.519 -0.0762  0.0445 -0.3196
 1421SOL    HW115725   0.684   0.915   5.607 -0.5336  0.3215 -0.2728
 1421SOL    HW215726   0.744   0.859   5.489 -0.5289  0.4808 -2.0292
 1422SOL     OW15727   2.823   1.807  16.740  0.0755 -0.2202  0.1712
 1422SOL    HW115728   2.762   1.745  16.699  1.0986 -1.6741  0.8319
 1422SOL    HW215729   2.770   1.886  16.733 -1.9413 -1.4178  2.3093
 1423SOL     OW15730   3.711   3.288  13.082  0.2116  0.1375 -0.1210
 1423SOL    HW115731   3.618   3.265  13.083  0.6326 -1.4456  1.3535
 1423SOL    HW215732   3.695   3.352  13.013 -0.7900 -0.6261 -0.5947
 1424SOL     OW15733   2.616   3.586   2.571 -0.6309  0.3816 -0.3201
 1424SOL    HW115734   2.677   3.657   2.589 -0.1220  0.0585 -0.7750
 1424SOL    HW215735   2.653   3.550   2.490 -0.2772  2.4904 -1.0904
 1425SOL     OW15736   3.048   1.121   2.742  0.5983 -0.3427  0.0452
 1425SOL    HW115737   2.978   1.185   2.727  1.2237  0.1485 -0.8039
 1425SOL    HW215738   3.019   1.085   2.826 -0.0792 -0.1258 -0.0908
 1426SOL     OW15739   3.366   1.988   1.956 -0.1026  0.3089 -0.1464
 1426SOL    HW115740   3.312   2.037   2.017 -0.3534  0.4905 -0.5154
 1426SOL    HW215741   3.422   1.932   2.010 -0.3022  0.1503 -0.1021
 1427SOL     OW15742   0.194   0.533   5.575  0.0994  0.4901 -0.3440
 1427SOL    HW115743   0.248   0.594   5.526  2.0002 -1.6116 -0.8530
 1427SOL    HW215744   0.202   0.447   5.533 -0.2894  0.0190  0.5303
 1428SOL     OW15745   2.758   1.969   3.465 -0.2378  0.3220 -0.6382
 1428SOL    HW115746   2.805   1.953   3.383  0.8284  0.8557 -0.1263
 1428SOL    HW215747   2.821   1.993   3.533 -2.9321  0.4072  1.8735
 1429SOL     OW15748   0.482   0.255   5.216  1.0029  0.6739 -0.2877
 1429SOL    HW115749   0.528   0.194   5.273 -0.3656 -0.1409 -0.0698
 1429SOL    HW215750   0.482   0.203   5.135 -1.5410 -0.7879  0.6754
 1430SOL     OW15751   0.874   1.904   6.703 -0.2403 -0.2384  0.4451
 1430SOL    HW115752   0.852   1.811   6.694  0.1369 -0.2027 -0.8329
 1430SOL    HW215753   0.965   1.911   6.676 -0.4153  0.0650 -0.0739
 1431SOL     OW15754   2.137   1.166  14.498  0.3108 -0.2609 -0.4741
 1431SOL    HW115755   2.069   1.157  14.432 -0.5011 -0.2177  0.3667
 1431SOL    HW215756   2.098   1.218  14.567  1.4185  2.5877 -1.9983
 1432SOL     OW15757   4.004   1.530  14.916 -0.1649 -0.2740  0.5593
 1432SOL    HW115758   4.047   1.524  14.831 -0.6688 -2.4858  0.4644
 1432SOL    HW215759   3.920   1.486  14.901 -0.0311  0.2801 -1.7694
 1433SOL     OW15760   2.121   2.384   5.498  0.1482 -0.3532 -0.2816
 1433SOL    HW115761   2.096   2.293   5.515  0.8405 -0.5864 -0.5117
 1433SOL    HW215762   2.215   2.388   5.518  0.1426  0.6294 -0.4323
 1434SOL     OW15763   0.480   2.057  16.156 -0.1758 -0.0646  0.2948
 1434SOL    HW115764   0.492   2.127  16.092  0.2369  0.3999  0.8790
 1434SOL    HW215765   0.510   2.099  16.236  0.9739  1.6159 -1.0139
 1435SOL     OW15766   0.288   0.460   7.868 -0.2055 -0.2996 -0.1450
 1435SOL    HW115767   0.358   0.476   7.804  0.3489  1.1342  0.8092
 1435SOL    HW215768   0.328   0.436   7.952  0.8629  0.6358 -0.3852
 1436SOL     OW15769   1.391   0.859  14.470 -0.0533  0.7755 -0.0890
 1436SOL    HW115770   1.464   0.902  14.424  0.8608 -0.4824  0.1640
 1436SOL    HW215771   1.326   0.929  14.464 -1.7727 -0.6340  2.0722
 1437SOL     OW15772   2.104   1.907   9.384  0.8036 -0.0367  0.2576
 1437SOL    HW115773   2.164   1.834   9.367 -0.8483 -1.5683  1.0707
 1437SOL    HW215774   2.072   1.865   9.464  1.1686  0.7931  0.8434
 1438SOL     OW15775   0.090   4.124   8.628 -0.3668 -0.0905  0.0906
 1438SOL    HW115776   0.112   4.099   8.718  0.3612  0.1242 -0.0341
 1438SOL    HW215777   0.000   4.092   8.619 -0.1380 -0.7614  0.1725
 1439SOL     OW15778   3.716   2.984   2.506 -0.0791  0.0186 -0.0608
 1439SOL    HW115779   3.805   3.012   2.485  0.3159 -1.7332 -0.7127
 1439SOL    HW215780   3.669   3.062   2.535  1.4174  1.5997 -1.8456
 1440SOL     OW15781   0.723   3.830  10.757 -0.5852  0.3089 -0.1444
 1440SOL    HW115782   0.819   3.833  10.762 -0.6411  0.7335  0.7049
 1440SOL    HW215783   0.706   3.891  10.685  1.1237  0.5766 -0.3313
 1441SOL     OW15784   2.514   4.456   4.077  0.0353  0.1449 -0.1583
 1441SOL    HW115785   2.509   4.384   4.141 -0.9636 -0.1283 -0.5401
 1441SOL    HW215786   2.607   4.473   4.066 -0.6069  2.4887 -1.8505
 1442SOL     OW15787   3.570   2.071   7.604 -0.2771  1.0125  0.1739
 1442SOL    HW115788   3.659   2.105   7.591  1.1294 -2.2269  1.2810
 1442SOL    HW215789   3.587   2.027   7.688  2.7287 -0.1227 -1.0324
 1443SOL     OW15790   0.599   0.629  14.930  0.0590 -0.0120  0.1170
 1443SOL    HW115791   0.597   0.710  14.880 -1.1686  0.2713  0.6356
 1443SOL    HW215792   0.694   0.619  14.932  0.0881  0.2829  0.2022
 1444SOL     OW15793   4.620   4.090   3.948  0.2724  0.1708  0.1944
 1444SOL    HW115794   4.532   4.061   3.922 -0.5379  1.2410  1.7788
 1444SOL    HW215795   4.629   4.176   3.908  0.2950  1.3630  2.8195
 1445SOL     OW15796   0.462   4.285   3.194  0.5524 -0.5683  0.2407
 1445SOL    HW115797   0.528   4.306   3.128 -2.0584  1.8197 -1.6371
 1445SOL    HW215798   0.489   4.194   3.204  0.2553 -0.6626  0.1957
 1446SOL     OW15799   1.860   2.072   4.104 -0.7611 -0.1950  0.1603
 1446SOL    HW115800   1.776   2.028   4.112 -1.5008  0.6070 -3.2942
 1446SOL    HW215801   1.821   2.136   4.045 -0.7121  0.9887  1.4159
 1447SOL     OW15802   1.957   0.103  17.219  0.0591 -1.2049 -0.3398
 1447SOL    HW115803   2.050   0.118  17.206 -0.0454 -1.7533 -1.6296
 1447SOL    HW215804   1.933   0.195  17.210  0.6196 -1.2030 -1.8036
 1448SOL     OW15805   0.749   3.886  13.491 -0.0604 -0.0049 -0.0536
 1448SOL    HW115806   0.784   3.936  13.417  1.3353  1.5248  1.6273
 1448SOL    HW215807   0.664   3.864  13.455 -0.1195 -0.0106  0.0879
 1449SOL     OW15808   1.632   4.169   5.260  0.3839  0.5391  0.1211
 1449SOL    HW115809   1.727   4.181   5.255  0.2683  1.7759  0.9593
 1449SOL    HW215810   1.629   4.076   5.283 -0.3870  0.3476 -0.7428
 1450SOL     OW15811   2.772   1.654   8.350  0.0553  0.6004  0.1636
 1450SOL    HW115812   2.821   1.585   8.304  2.9246  3.6717 -1.3171
 1450SOL    HW215813   2.694   1.605   8.376  0.1257  1.5449  2.0632
 1451SOL     OW15814   3.225   3.501   2.966 -0.2838  0.0129  0.2925
 1451SOL    HW115815   3.211   3.473   2.876 -0.0858 -0.9456  0.5526
 1451SOL    HW215816   3.304   3.554   2.955 -2.1448  3.0212  1.5907
 1452SOL     OW15817   4.492   3.560   8.638 -0.0731  0.1467 -0.4957
 1452SOL    HW115818   4.458   3.619   8.571 -1.1192 -0.3127 -0.3679
 1452SOL    HW215819   4.585   3.576   8.618  0.4798 -1.6241  0.6397
 1453SOL     OW15820   1.055   3.973   5.060 -0.2637  0.8546  0.1368
 1453SOL    HW115821   0.988   4.039   5.044  0.3558  1.0154 -1.7841
 1453SOL    HW215822   1.036   3.913   4.988 -0.9280 -0.6478  1.5392
 1454SOL     OW15823   3.239   4.312   7.544 -0.1968  0.0417  0.4650
 1454SOL    HW115824   3.209   4.394   7.584  0.7477  1.3554 -1.5321
 1454SOL    HW215825   3.279   4.269   7.620 -0.3045 -0.7699  0.0579
 1455SOL     OW15826   4.554   0.943   6.675  0.5768  0.4048 -0.2975
 1455SOL    HW115827   4.571   0.944   6.769  0.1089  0.2677 -0.2093
 1455SOL    HW215828   4.463   0.916   6.662  0.6495  0.8845 -1.7650
 1456SOL     OW15829   2.112   2.493   9.358  0.0212  0.3207 -0.3678
 1456SOL    HW115830   2.030   2.451   9.332  1.4850 -1.5835 -1.9475
 1456SOL    HW215831   2.097   2.582   9.325  0.8381  0.4030 -0.5252
 1457SOL     OW15832   0.816   1.159   3.333  0.1844 -0.6572 -0.0210
 1457SOL    HW115833   0.831   1.227   3.399  1.1432  0.8535 -1.7917
 1457SOL    HW215834   0.893   1.105   3.349  2.7538  3.1987  0.6404
 1458SOL     OW15835   0.079   1.427  11.037 -0.6276  0.3320  0.0178
 1458SOL    HW115836   0.018   1.376  10.984 -2.0528  2.3023 -0.2353
 1458SOL    HW215837   0.148   1.360  11.033 -0.8514  0.1474 -0.6851
 1459SOL     OW15838   3.409   0.906   1.601  0.3507  0.2947  0.6338
 1459SOL    HW115839   3.359   0.856   1.537 -0.0815  0.8448  0.5465
 1459SOL    HW215840   3.378   0.992   1.573  2.0264  0.9100  0.7040
 1460SOL     OW15841   3.630   3.711   4.094 -0.2784  0.2616 -0.1643
 1460SOL    HW115842   3.573   3.650   4.046 -0.6737  1.3880 -1.1421
 1460SOL    HW215843   3.640   3.779   4.027  2.8050 -1.5098 -1.5053
 1461SOL     OW15844   2.388   4.701  15.739  0.1076  0.2140  0.1630
 1461SOL    HW115845   2.389   0.007  15.649  2.6282  0.3290  0.2247
 1461SOL    HW215846   2.314   4.640  15.743 -1.6309  2.3444  0.2873
 1462SOL     OW15847   4.272   4.673  16.620 -0.0354  0.6012 -0.1420
 1462SOL    HW115848   4.320   4.628  16.689  0.2402  1.4108  0.1981
 1462SOL    HW215849   4.247   0.027  16.669 -4.0008 -0.6177 -0.2974
 1463SOL     OW15850   0.940   4.123   7.614 -0.3753 -0.6611 -0.0913
 1463SOL    HW115851   1.032   4.143   7.628  0.6758 -3.5848 -2.8396
 1463SOL    HW215852   0.918   4.051   7.674 -2.3786 -0.4596 -0.5845
 1464SOL     OW15853   2.498   1.928   3.232 -0.0028 -0.0866  0.1438
 1464SOL    HW115854   2.494   1.873   3.153  0.3152 -1.5700  1.1659
 1464SOL    HW215855   2.588   1.900   3.249  0.2680  1.7186  1.6472
 1465SOL     OW15856   3.415   2.853   6.450 -0.2671 -0.3942  0.2732
 1465SOL    HW115857   3.421   2.775   6.394  0.4352 -2.3551  3.0678
 1465SOL    HW215858   3.324   2.875   6.431 -0.0074  1.0983  0.7756
 1466SOL     OW15859   0.914   0.084  15.981 -0.3820  0.5587 -0.3231
 1466SOL    HW115860   0.880   0.005  16.022  0.5746  1.3056  1.8929
 1466SOL    HW215861   0.852   0.148  16.017 -0.5209 -0.1191  0.6392
 1467SOL     OW15862   1.411   2.072  14.571  0.0359  0.0113 -0.1853
 1467SOL    HW115863   1.354   2.016  14.518 -0.9427 -0.5975  1.5113
 1467SOL    HW215864   1.392   2.053  14.663  1.5711 -1.2444 -0.1187
 1468SOL     OW15865   4.145   2.458   3.898 -0.0806 -0.6653  0.3965
 1468SOL    HW115866   4.060   2.445   3.855  0.9897  1.6217 -2.4183
 1468SOL    HW215867   4.211   2.402   3.858  1.0406  0.8120  0.1905
 1469SOL     OW15868   0.664   3.598   9.800  0.1738 -0.3194 -0.1179
 1469SOL    HW115869   0.721   3.531   9.839  4.3890  1.8294 -2.5037
 1469SOL    HW215870   0.737   3.660   9.803  0.0622 -0.0965 -1.8912
 1470SOL     OW15871   3.191   1.787   3.028  0.1853  0.2141  0.3498
 1470SOL    HW115872   3.264   1.794   2.966  0.7986  2.8062  1.3723
 1470SOL    HW215873   3.235   1.753   3.106 -1.5021 -0.5752  0.9529
 1471SOL     OW15874   3.433   0.436   9.701  0.4738 -0.0457 -0.0438
 1471SOL    HW115875   3.340   0.454   9.683  0.9411  2.2990 -0.1408
 1471SOL    HW215876   3.429   0.357   9.754 -1.6022 -0.9345 -1.5420
 1472SOL     OW15877   0.877   1.786   8.810  0.3393 -0.2569 -0.1676
 1472SOL    HW115878   0.795   1.804   8.765  0.4057 -2.4918 -1.2196
 1472SOL    HW215879   0.896   1.875   8.839 -0.3226 -0.0218 -0.4712
 1473SOL     OW15880   2.854   3.367   1.158  0.0937  0.2813 -0.0037
 1473SOL    HW115881   2.764   3.377   1.127 -0.5213 -0.7325  1.4995
 1473SOL    HW215882   2.854   3.446   1.212  1.7496 -0.5382  1.1954
 1474SOL     OW15883   0.925   0.985   2.553  0.1121 -0.7101 -0.2012
 1474SOL    HW115884   0.908   1.077   2.573  1.5002 -0.5061  0.0158
 1474SOL    HW215885   0.878   0.972   2.471 -2.3583 -1.5269  1.3430
 1475SOL     OW15886   2.501   4.447   5.440 -0.2871 -0.4833 -0.5887
 1475SOL    HW115887   2.497   4.389   5.516  1.5220 -2.4001 -1.9354
 1475SOL    HW215888   2.571   4.506   5.467  2.3195 -3.6299 -0.3524
 1476SOL     OW15889   2.368   0.161   8.412 -0.1437  0.4459 -0.2717
 1476SOL    HW115890   2.373   0.079   8.363  0.0257  0.0098  0.4758
 1476SOL    HW215891   2.447   0.155   8.466 -0.2180  0.6448 -0.1417
 1477SOL     OW15892   3.759   3.608   5.424 -0.1859  0.3893  0.0768
 1477SOL    HW115893   3.753   3.697   5.389 -1.6937 -0.5056 -1.9194
 1477SOL    HW215894   3.743   3.563   5.341  5.3774  2.1847 -2.0107
 1478SOL     OW15895   2.708   3.557   4.063  0.1429 -0.6871  0.2492
 1478SOL    HW115896   2.783   3.591   4.112 -0.6984 -0.0543  1.1147
 1478SOL    HW215897   2.713   3.467   4.096 -1.7669 -0.3804  1.3868
 1479SOL     OW15898   1.383   3.197  10.073 -0.7281  0.4375 -0.8691
 1479SOL    HW115899   1.345   3.270  10.024 -0.1585  1.7323  0.6110
 1479SOL    HW215900   1.316   3.199  10.142  0.4080 -2.2239  0.3127
 1480SOL     OW15901   3.625   2.771   5.602  0.2333 -0.6591  0.5777
 1480SOL    HW115902   3.615   2.752   5.509  0.2166 -0.1385  0.4751
 1480SOL    HW215903   3.551   2.829   5.622  0.5687  0.3872 -1.2054
 1481SOL     OW15904   1.361   3.712   5.354 -0.0122  0.1729  0.0785
 1481SOL    HW115905   1.440   3.685   5.306  0.0263  1.7688 -0.7443
 1481SOL    HW215906   1.387   3.776   5.421  1.4071  0.1354 -0.4412
 1482SOL     OW15907   2.853   3.037  16.132  0.6278 -0.1620 -0.1267
 1482SOL    HW115908   2.807   3.024  16.215  1.0039  2.1677  0.4741
 1482SOL    HW215909   2.870   2.944  16.121 -1.7601 -0.8824  2.0961
 1483SOL     OW15910   0.819   1.377   7.152  0.2102  0.0505 -0.2795
 1483SOL    HW115911   0.758   1.347   7.220  0.2423 -1.3250 -0.8670
 1483SOL    HW215912   0.825   1.296   7.102  1.2036 -0.9894  1.5380
 1484SOL     OW15913   4.098   3.513   5.186  0.1203  0.2376 -0.0552
 1484SOL    HW115914   4.120   3.517   5.280  2.2663 -2.1003 -0.4604
 1484SOL    HW215915   4.119   3.605   5.166  0.0305  0.6011  1.5051
 1485SOL     OW15916   4.213   1.192   5.204  0.1556  0.0639 -0.4742
 1485SOL    HW115917   4.178   1.112   5.164  1.6665 -0.0400 -1.6124
 1485SOL    HW215918   4.152   1.258   5.174  0.1139  0.0161 -0.4952
 1486SOL     OW15919   2.516   2.008   8.241 -0.2049  0.7621 -0.7303
 1486SOL    HW115920   2.509   1.955   8.320 -0.8794  0.2786 -1.1138
 1486SOL    HW215921   2.600   1.980   8.204 -0.7424 -2.1675  0.2725
 1487SOL     OW15922   2.591   2.582   1.494 -0.7955 -0.8178 -0.5800
 1487SOL    HW115923   2.667   2.608   1.443  1.5833  0.4786  3.6401
 1487SOL    HW215924   2.636   2.573   1.578 -0.2441  1.8366 -0.5899
 1488SOL     OW15925   3.297   3.241   4.733 -0.3204 -0.3789  0.6051
 1488SOL    HW115926   3.246   3.312   4.772  0.0591  0.2184  0.0011
 1488SOL    HW215927   3.387   3.271   4.739 -0.8758  1.5025 -0.4931
 1489SOL     OW15928   1.715   3.603   9.118 -0.1077  0.1751  0.2608
 1489SOL    HW115929   1.740   3.599   9.210 -2.8585  2.3319  1.0751
 1489SOL    HW215930   1.634   3.653   9.123 -1.2282 -1.5664 -0.6805
 1490SOL     OW15931   0.513   0.106   9.507  0.0676 -0.1902  0.0959
 1490SOL    HW115932   0.490   0.129   9.597  1.1070 -0.1082  0.3364
 1490SOL    HW215933   0.427   0.081   9.473 -0.3433  0.1294  0.9048
 1491SOL     OW15934   2.468   3.085   7.560 -0.3022  0.1230 -0.3117
 1491SOL    HW115935   2.423   3.091   7.645  0.4844 -3.0938  0.3098
 1491SOL    HW215936   2.449   3.174   7.528 -0.1141  1.4272  3.1888
 1492SOL     OW15937   4.722   2.200  10.934  0.1199 -0.3246 -0.2009
 1492SOL    HW115938   0.072   2.220  10.991  0.9515  1.1042 -1.7600
 1492SOL    HW215939   0.025   2.109  10.926 -0.7643 -1.0397  4.6691
 1493SOL     OW15940   3.045   0.577  10.622  0.0172  0.0624 -0.1997
 1493SOL    HW115941   3.050   0.671  10.602 -0.1298 -0.1581 -1.2694
 1493SOL    HW215942   2.950   0.575  10.626  0.0334 -2.9355 -1.2760
 1494SOL     OW15943   3.956   2.084   9.114  0.3259 -0.0696 -0.8956
 1494SOL    HW115944   3.940   2.022   9.185 -0.3563  1.8501  0.6301
 1494SOL    HW215945   3.895   2.156   9.130 -0.0513 -0.2510 -1.4711
 1495SOL     OW15946   1.646   0.815   6.629  0.0604 -0.3092  0.9013
 1495SOL    HW115947   1.700   0.888   6.659 -1.0467  1.4255 -1.3482
 1495SOL    HW215948   1.573   0.861   6.588  1.2781  1.1833  0.4242
 1496SOL     OW15949   0.860   4.066   8.975  0.3896  0.3735  0.2065
 1496SOL    HW115950   0.853   4.129   8.904 -0.2453  1.9079  1.6281
 1496SOL    HW215951   0.810   4.113   9.041 -2.0406 -0.4281 -1.0553
 1497SOL     OW15952   4.042   0.306   2.225  0.3731  0.5511  0.3927
 1497SOL    HW115953   4.041   0.305   2.129 -1.6165 -0.4028  0.4209
 1497SOL    HW215954   3.970   0.244   2.234  1.0204 -0.4896 -1.6270
 1498SOL     OW15955   3.326   4.482   8.518 -0.0430  0.5840 -0.0946
 1498SOL    HW115956   3.381   4.404   8.516 -0.8724  0.0552 -1.7064
 1498SOL    HW215957   3.338   4.524   8.433  2.0330  0.7277  0.2748
 1499SOL     OW15958   3.853   3.321   2.997  0.0066 -0.4391 -0.1365
 1499SOL    HW115959   3.816   3.365   3.073  1.5927  1.3822 -0.4259
 1499SOL    HW215960   3.922   3.273   3.042 -0.3439 -1.3791 -0.6027
 1500SOL     OW15961   2.685   2.934   0.417  0.4748 -0.0619 -0.4834
 1500SOL    HW115962   2.723   2.941   0.329  1.0285 -0.1307 -0.2503
 1500SOL    HW215963   2.591   2.951   0.408  0.0355 -2.4644 -0.3618
 1501SOL     OW15964   3.263   0.609   3.513 -0.0036  0.4782 -0.2080
 1501SOL    HW115965   3.320   0.678   3.478  1.4238 -1.0512 -0.8859
 1501SOL    HW215966   3.271   0.627   3.607  0.0409 -1.9152  0.2465
 1502SOL     OW15967   4.346   2.251  15.570  0.0333  0.0688 -0.5184
 1502SOL    HW115968   4.277   2.295  15.521  1.1774  2.3787 -0.0530
 1502SOL    HW215969   4.419   2.312  15.560  2.1415 -1.9733  2.1837
 1503SOL     OW15970   0.679   3.280   2.301  0.1644 -0.1513  0.6794
 1503SOL    HW115971   0.700   3.191   2.275  1.0568 -0.4139  2.2767
 1503SOL    HW215972   0.605   3.303   2.246  1.1083  1.1422 -0.0548
 1504SOL     OW15973   0.634   1.388   5.296 -0.8115 -0.0276 -0.3100
 1504SOL    HW115974   0.611   1.310   5.345  1.9049  0.0768  1.1290
 1504SOL    HW215975   0.682   1.437   5.363  0.2327 -1.5168  0.0330
 1505SOL     OW15976   2.183   3.512   7.380 -0.3431 -0.1131 -0.3922
 1505SOL    HW115977   2.228   3.589   7.415  3.5964 -2.5981 -0.0245
 1505SOL    HW215978   2.141   3.547   7.302  2.7109  2.8620 -0.6912
 1506SOL     OW15979   3.569   1.058   9.302  0.6834 -0.0488 -0.0973
 1506SOL    HW115980   3.611   1.131   9.256 -0.8304  0.1205 -1.1933
 1506SOL    HW215981   3.636   1.030   9.365 -0.9140 -0.3819  1.4644
 1507SOL     OW15982   4.381   2.259   4.178 -0.1370 -0.3664 -0.1949
 1507SOL    HW115983   4.316   2.194   4.151  0.3551 -0.2376 -1.6669
 1507SOL    HW215984   4.433   2.255   4.098  0.0728 -0.5648 -0.0514
 1508SOL     OW15985   4.486   1.502   7.683 -0.4753  0.1441  0.0463
 1508SOL    HW115986   4.465   1.576   7.625 -2.0196  0.0724  0.5018
 1508SOL    HW215987   4.447   1.430   7.634 -1.3586 -0.3436  1.4645
 1509SOL     OW15988   0.387   1.271   8.529  0.8883 -0.3282 -0.0739
 1509SOL    HW115989   0.379   1.356   8.573 -0.2648  0.8048 -2.4248
 1509SOL    HW215990   0.482   1.261   8.537  0.8770 -1.2639 -1.1168
 1510SOL     OW15991   2.920   4.539   7.943 -0.1384  0.3262  0.0951
 1510SOL    HW115992   2.977   4.591   8.000  2.3514 -1.5484 -0.7048
 1510SOL    HW215993   2.950   4.452   7.966 -0.6208  0.3740  0.8851
 1511SOL     OW15994   1.101   2.876   7.022  0.2028  0.2825 -0.0300
 1511SOL    HW115995   1.114   2.792   6.979  0.9835 -0.2488  1.2632
 1511SOL    HW215996   1.010   2.873   7.053  0.1311  1.3138 -0.1306
 1512SOL     OW15997   1.588   1.011   5.425  0.0540  0.2035 -0.2902
 1512SOL    HW115998   1.602   1.084   5.485  0.1733 -0.2661  0.2629
 1512SOL    HW215999   1.546   0.949   5.485  0.4990  0.6881  0.5297
 1513SOL     OW16000   2.851   0.824   0.732 -0.0112 -0.1140 -0.2322
 1513SOL    HW116001   2.908   0.752   0.704  0.5408  0.0464  0.4846
 1513SOL    HW216002   2.881   0.838   0.822 -0.8596 -1.1384  0.2212
 1514SOL     OW16003   1.631   2.639  13.604  0.0096 -0.0822  0.4422
 1514SOL    HW116004   1.623   2.557  13.555 -2.9383 -0.5697  1.7367
 1514SOL    HW216005   1.540   2.667  13.611 -0.4661 -0.7714 -3.2130
 1515SOL     OW16006   4.014   2.953   3.370  0.0797 -0.1212  0.2533
 1515SOL    HW116007   3.950   2.884   3.353  0.5077 -0.3033 -0.6293
 1515SOL    HW216008   3.966   3.034   3.350 -2.7420 -0.8965  4.0602
 1516SOL     OW16009   1.462   0.274   4.193 -0.5247  0.0789 -0.5005
 1516SOL    HW116010   1.527   0.211   4.161 -1.6262 -0.8072 -1.0152
 1516SOL    HW216011   1.395   0.264   4.126 -1.2391 -1.8981  0.5175
 1517SOL     OW16012   4.663   4.294  14.945 -0.1667  0.0469 -0.3280
 1517SOL    HW116013   4.634   4.304  14.854 -0.0863  1.1409 -0.2355
 1517SOL    HW216014   4.593   4.235  14.972  0.2573  0.6216  2.0327
 1518SOL     OW16015   3.547   4.440   2.434 -0.2390  0.1053 -0.1780
 1518SOL    HW116016   3.494   4.514   2.404  0.1401  1.0844  1.5556
 1518SOL    HW216017   3.539   4.380   2.360 -1.7219  1.0502 -0.8060
 1519SOL     OW16018   2.204   2.678   5.475  0.1743  0.0717 -0.3839
 1519SOL    HW116019   2.187   2.692   5.568 -0.3330 -0.4264 -0.4024
 1519SOL    HW216020   2.124   2.713   5.437  0.0949  0.0014 -0.2826
 1520SOL     OW16021   4.072   0.621   7.853 -0.2423  0.7793 -0.4945
 1520SOL    HW116022   4.065   0.535   7.811  1.8954  0.1015  0.5430
 1520SOL    HW216023   3.982   0.655   7.859 -0.0772  1.0989  0.2649
 1521SOL     OW16024   0.013   3.743   2.283 -0.9696  0.7091 -0.0253
 1521SOL    HW116025   0.073   3.708   2.348 -0.8112  0.0253 -0.5377
 1521SOL    HW216026   0.063   3.820   2.259 -0.5108  0.4429  0.0875
 1522SOL     OW16027   3.256   4.042   6.031 -0.2626  0.6928  0.5131
 1522SOL    HW116028   3.294   4.019   5.946  1.4264 -0.7878  1.6633
 1522SOL    HW216029   3.194   4.108   5.999 -1.8599 -1.7524 -1.4587
 1523SOL     OW16030   0.807   0.645   4.446 -0.0228 -0.1507 -0.5514
 1523SOL    HW116031   0.771   0.663   4.359  0.4359 -0.5475 -0.8209
 1523SOL    HW216032   0.899   0.625   4.425  0.8262  0.2603  2.8185
 1524SOL     OW16033   2.652   2.386   5.655  0.1033  0.0036 -0.2254
 1524SOL    HW116034   2.647   2.454   5.587 -0.6047 -0.6135 -0.7952
 1524SOL    HW216035   2.651   2.300   5.613 -0.7256 -0.5991  1.0628
 1525SOL     OW16036   1.770   0.132   2.119 -0.0239 -0.0781  0.0075
 1525SOL    HW116037   1.813   0.119   2.204 -0.3012  1.1913  0.3418
 1525SOL    HW216038   1.718   0.052   2.119 -1.0168  0.5768 -2.2584
 1526SOL     OW16039   0.273   1.053   8.442  0.1054 -0.0403 -0.0250
 1526SOL    HW116040   0.314   1.133   8.477 -0.6081  0.4964 -0.4076
 1526SOL    HW216041   0.179   1.072   8.451  0.4260  1.8987 -0.8899
 1527SOL     OW16042   2.180   2.861   4.588  0.3236  0.2311  0.0692
 1527SOL    HW116043   2.170   2.888   4.497  0.5354  0.5515  0.1404
 1527SOL    HW216044   2.130   2.780   4.577  2.4065 -1.2256  1.3670
 1528SOL     OW16045   1.157   2.171   2.497  0.3650 -0.0361  0.3283
 1528SOL    HW116046   1.112   2.096   2.535 -0.1343 -0.5738 -1.2961
 1528SOL    HW216047   1.140   2.234   2.566 -0.5175  2.2097 -1.9449
 1529SOL     OW16048   2.881   3.130  15.835  0.3699 -0.2374  0.1439
 1529SOL    HW116049   2.840   3.211  15.805 -1.1600 -0.9248  0.3920
 1529SOL    HW216050   2.926   3.149  15.917  1.6146 -0.5747 -0.4569
 1530SOL     OW16051   0.929   3.755   0.107 -0.1980  0.1809  0.0243
 1530SOL    HW116052   1.000   3.810   0.142 -1.4257  1.3502  0.6592
 1530SOL    HW216053   0.863   3.754   0.176 -0.7079  1.1533 -0.4634
 1531SOL     OW16054   0.551   1.358  12.606  0.5919  0.0766  0.4952
 1531SOL    HW116055   0.536   1.452  12.596 -1.7838 -0.3953 -0.2690
 1531SOL    HW216056   0.591   1.337  12.521  0.9256 -0.8367  0.8767
 1532SOL     OW16057   1.823   3.354   3.027 -0.0484  0.2821  0.3456
 1532SOL    HW116058   1.729   3.342   3.041 -0.3890  1.0153 -1.2886
 1532SOL    HW216059   1.860   3.266   3.027 -0.0330  0.2845 -0.6913
 1533SOL     OW16060   2.349   4.341   8.290 -1.6020  0.4712  0.5808
 1533SOL    HW116061   2.354   4.365   8.197  2.7587  2.7716  1.4039
 1533SOL    HW216062   2.408   4.265   8.300 -1.5264  0.4905  0.2934
 1534SOL     OW16063   4.067   1.410  14.420  0.2990  0.4026 -0.3184
 1534SOL    HW116064   3.989   1.463  14.403  0.3946  0.3538 -0.9088
 1534SOL    HW216065   4.064   1.363  14.336 -3.9242 -1.2444  0.7176
 1535SOL     OW16066   1.922   3.186   1.157  1.0269 -0.7311  0.4292
 1535SOL    HW116067   1.927   3.282   1.155 -1.4690 -0.6200 -0.4200
 1535SOL    HW216068   1.829   3.166   1.153  0.9604 -0.5257  0.9243
 1536SOL     OW16069   1.478   1.378   6.514  0.0628 -0.1722 -0.5807
 1536SOL    HW116070   1.475   1.303   6.573  0.2883  0.6485  0.4617
 1536SOL    HW216071   1.531   1.347   6.440  0.3025  1.4677 -1.0882
 1537SOL     OW16072   2.031   4.664   8.892 -0.1164 -0.0003  0.1846
 1537SOL    HW116073   2.009   0.030   8.915  0.5155  0.2877 -0.3344
 1537SOL    HW216074   2.043   4.625   8.979  2.1242  0.4964  0.0958
 1538SOL     OW16075   1.368   1.237   4.877 -0.0127  0.3230 -0.7950
 1538SOL    HW116076   1.422   1.270   4.949  0.9110  0.1876 -1.4330
 1538SOL    HW216077   1.432   1.242   4.807  0.1366 -0.4063 -0.7145
 1539SOL     OW16078   1.960   2.326   2.879  0.4075  0.1385  0.0911
 1539SOL    HW116079   2.002   2.367   2.955 -0.3576 -0.1279  0.6630
 1539SOL    HW216080   2.030   2.325   2.815 -0.0669 -0.1479 -0.4247
 1540SOL     OW16081   1.482   2.297   2.121 -0.6280  0.0629  0.2954
 1540SOL    HW116082   1.408   2.355   2.102 -1.0265 -0.7208 -0.5419
 1540SOL    HW216083   1.548   2.339   2.065  0.0503  1.0978  1.8763
 1541SOL     OW16084   3.122   1.546   3.196  0.4085  0.4564 -0.4048
 1541SOL    HW116085   3.214   1.522   3.203  0.2797  0.1608  0.3529
 1541SOL    HW216086   3.106   1.512   3.108 -1.2257  2.9669 -1.0811
 1542SOL     OW16087   4.542   3.195   7.776  0.1202 -0.1218 -0.2015
 1542SOL    HW116088   4.619   3.163   7.823 -0.9294 -0.1910  1.4622
 1542SOL    HW216089   4.490   3.115   7.762  2.5621 -1.7972  0.2042
 1543SOL     OW16090   4.496   0.059  14.697 -0.6621 -0.1225  0.2175
 1543SOL    HW116091   4.591   0.059  14.707 -0.6203  0.8031 -0.1472
 1543SOL    HW216092   4.471   0.079  14.787  1.0125  0.3378  0.5821
 1544SOL     OW16093   2.133   2.817  11.808 -0.6297  0.0742  0.2270
 1544SOL    HW116094   2.086   2.735  11.793  0.7249 -0.8557  1.1598
 1544SOL    HW216095   2.056   2.871  11.828 -0.6946 -0.0523  0.3203
 1545SOL     OW16096   1.089   0.366   2.046 -0.7577  0.5299  0.4465
 1545SOL    HW116097   1.153   0.362   2.118 -0.1571 -3.1162 -0.3181
 1545SOL    HW216098   1.043   0.448   2.064 -1.7582 -0.4787  2.4968
 1546SOL     OW16099   0.844   1.483   5.473 -0.5116 -0.2907 -0.0690
 1546SOL    HW116100   0.831   1.401   5.522  0.6923 -1.0316 -0.9856
 1546SOL    HW216101   0.938   1.493   5.487 -0.6650 -0.2410  0.9289
 1547SOL     OW16102   1.690   3.661  16.530 -0.1214 -0.3274  0.3801
 1547SOL    HW116103   1.601   3.689  16.506 -1.1516 -1.7461  2.5448
 1547SOL    HW216104   1.736   3.744  16.538 -0.8435  0.1053  0.0349
 1548SOL     OW16105   4.625   2.224   3.383 -0.3394  0.2817  0.1951
 1548SOL    HW116106   4.594   2.231   3.292 -2.2403  0.5289  0.8745
 1548SOL    HW216107   4.594   2.304   3.425 -0.6965 -0.3977  1.2040
 1549SOL     OW16108   3.020   0.734   9.841 -0.4290 -0.0882  0.0275
 1549SOL    HW116109   3.110   0.702   9.837  0.1113  1.5845 -0.8830
 1549SOL    HW216110   2.968   0.665   9.882 -0.4617  0.2907  0.6228
 1550SOL     OW16111   0.322   4.578  14.992  0.2861  0.4402 -0.4193
 1550SOL    HW116112   0.283   4.665  15.001 -0.3358 -0.0673  1.9085
 1550SOL    HW216113   0.251   4.527  15.029 -1.2458  2.4351 -0.6226
 1551SOL     OW16114   0.124   0.848  12.346 -0.1349  0.7622  0.8513
 1551SOL    HW116115   0.078   0.929  12.322  0.2740  1.1073  1.2291
 1551SOL    HW216116   0.189   0.842  12.276  0.9931 -0.0277  1.9855
 1552SOL     OW16117   3.280   0.724   8.742 -0.2665  0.0061  0.7123
 1552SOL    HW116118   3.354   0.750   8.687 -1.0671  0.0237 -0.3455
 1552SOL    HW216119   3.319   0.730   8.829  0.7452  3.7908  0.0026
 1553SOL     OW16120   2.366   0.991  10.500  0.1125  0.4356  0.4609
 1553SOL    HW116121   2.344   0.945  10.581 -2.3254 -0.6770 -0.8485
 1553SOL    HW216122   2.279   1.001  10.462  1.2363 -1.2746 -2.5684
 1554SOL     OW16123   2.851   3.221  17.531 -0.0250  0.1318 -0.2605
 1554SOL    HW116124   2.822   3.304  17.492 -0.0824  0.3908  0.3438
 1554SOL    HW216125   2.794   3.214  17.607  0.2307  2.3715  0.1222
 1555SOL     OW16126   3.132   4.022   7.759 -0.2514  0.2122  0.7311
 1555SOL    HW116127   3.191   4.056   7.827  0.7318 -1.0265  0.4949
 1555SOL    HW216128   3.142   3.928   7.779  0.7641 -0.0342 -0.9423
 1556SOL     OW16129   4.310   2.603   2.905  0.1754  0.2097 -0.4272
 1556SOL    HW116130   4.336   2.689   2.873  2.3520  0.3534  1.7109
 1556SOL    HW216131   4.354   2.555   2.835  0.0531  0.4665 -0.6781
 1557SOL     OW16132   1.758   3.521   6.596 -0.5066 -0.0631 -0.2341
 1557SOL    HW116133   1.755   3.575   6.675  0.1967  1.0642 -0.9905
 1557SOL    HW216134   1.674   3.475   6.600 -0.4582 -0.0754  0.6608
 1558SOL     OW16135   2.385   1.524  15.897  0.4703  0.1856 -0.1412
 1558SOL    HW116136   2.411   1.463  15.829 -0.2967  1.0425 -1.2068
 1558SOL    HW216137   2.359   1.603  15.849  1.3130  0.6845  0.2216
 1559SOL     OW16138   2.527   4.385   3.789 -0.5419  0.2891 -0.0363
 1559SOL    HW116139   2.487   4.471   3.785  0.6521  0.7826 -1.5242
 1559SOL    HW216140   2.515   4.369   3.882 -1.3597 -2.0321 -0.5262
 1560SOL     OW16141   1.782   0.087   9.486 -0.2346 -0.6216 -0.1982
 1560SOL    HW116142   1.830   0.077   9.403 -2.1572  2.8301 -1.6728
 1560SOL    HW216143   1.830   0.160   9.524  0.9556 -1.6703  0.3133
 1561SOL     OW16144   2.379   2.438   7.867 -1.1883 -0.3346 -0.0890
 1561SOL    HW116145   2.314   2.375   7.898 -2.1535  0.4223 -0.5348
 1561SOL    HW216146   2.374   2.511   7.930  0.7806 -0.4925  0.2277
 1562SOL     OW16147   2.671   1.692   6.387  0.8854  0.2180  0.0230
 1562SOL    HW116148   2.597   1.752   6.379  0.7112  0.1103  0.8345
 1562SOL    HW216149   2.698   1.689   6.295 -4.0270 -2.4919 -1.2532
 1563SOL     OW16150   4.587   3.827  10.557  0.7406  0.1698 -0.0696
 1563SOL    HW116151   4.679   3.815  10.534  1.0449 -0.0214  1.2526
 1563SOL    HW216152   4.549   3.748  10.519  1.6894 -0.1309 -0.4040
 1564SOL     OW16153   2.215   0.091   4.226  0.8247 -0.0517 -0.0461
 1564SOL    HW116154   2.251   0.012   4.268  0.2688 -0.3059 -0.0457
 1564SOL    HW216155   2.162   0.128   4.297  0.0454  0.2074 -0.7629
 1565SOL     OW16156   2.674   0.897  15.159  0.0351 -0.0683 -0.1709
 1565SOL    HW116157   2.638   0.986  15.155 -0.5401 -0.3043 -0.3107
 1565SOL    HW216158   2.762   0.912  15.194  0.7600  0.9765 -2.4726
 1566SOL     OW16159   4.330   3.383   8.357  0.2600  0.2515  0.3140
 1566SOL    HW116160   4.410   3.420   8.319 -0.9135  0.9672 -1.4415
 1566SOL    HW216161   4.310   3.322   8.285  2.8709  1.1281 -1.1459
 1567SOL     OW16162   1.027   3.310   4.212  0.0716 -0.1397  0.0242
 1567SOL    HW116163   1.037   3.359   4.131 -1.7918 -1.9097 -1.2894
 1567SOL    HW216164   0.935   3.330   4.231 -0.0293 -0.2793 -0.3144
 1568SOL     OW16165   2.625   3.821   9.766  0.1318 -0.0940 -0.1805
 1568SOL    HW116166   2.643   3.849   9.855 -0.3062  0.1404 -0.1631
 1568SOL    HW216167   2.530   3.829   9.753  0.0309  1.3677  1.5491
 1569SOL     OW16168   0.199   0.435   4.256 -0.0426 -0.1229  0.0744
 1569SOL    HW116169   0.173   0.526   4.270  0.8711 -0.1213  1.8942
 1569SOL    HW216170   0.293   0.433   4.275 -0.0913 -0.1934  0.3175
 1570SOL     OW16171   0.942   0.594   9.715  0.4699  0.1193 -0.4122
 1570SOL    HW116172   1.025   0.642   9.708  1.3041 -1.1103  1.0565
 1570SOL    HW216173   0.950   0.532   9.788 -0.3124  0.1546 -0.2980
 1571SOL     OW16174   4.458   0.659   3.464 -0.2717  0.3118  0.1796
 1571SOL    HW116175   4.541   0.706   3.476  0.0572 -0.3529  0.5532
 1571SOL    HW216176   4.452   0.663   3.369 -2.1845  2.6851  0.4120
 1572SOL     OW16177   4.715   4.530   6.324  0.1465 -1.0180  0.5467
 1572SOL    HW116178   4.685   4.440   6.320 -0.1539 -0.8333 -1.1350
 1572SOL    HW216179   4.635   4.572   6.294 -0.3324 -1.1665  1.6248
 1573SOL     OW16180   2.415   0.459   9.102 -0.5989  0.6095  0.4277
 1573SOL    HW116181   2.425   0.387   9.039 -0.3517 -0.3290  1.5245
 1573SOL    HW216182   2.472   0.421   9.169 -1.2824 -0.2800  0.5039
 1574SOL     OW16183   1.058   2.824  11.377 -0.0617 -0.5221  0.1197
 1574SOL    HW116184   1.075   2.820  11.471  1.3221 -2.0304 -0.2098
 1574SOL    HW216185   1.106   2.751  11.339 -0.2932 -0.0300 -1.1207
 1575SOL     OW16186   3.006   2.627  15.381  0.2002  0.1844  0.4874
 1575SOL    HW116187   3.008   2.722  15.392 -2.1479  0.3972 -0.8324
 1575SOL    HW216188   3.077   2.618  15.317 -1.4468  0.8696 -1.4675
 1576SOL     OW16189   0.666   2.715   3.001 -0.1936 -0.4247  0.6457
 1576SOL    HW116190   0.695   2.677   2.918 -2.5968  0.9881 -0.8449
 1576SOL    HW216191   0.571   2.700   3.008  0.3545 -3.3179  2.1892
 1577SOL     OW16192   2.319   0.535   6.631 -0.1200 -0.0439  0.1592
 1577SOL    HW116193   2.361   0.610   6.673 -0.1403 -1.1004  2.0515
 1577SOL    HW216194   2.367   0.469   6.681  1.1560  1.8033  1.3536
 1578SOL     OW16195   1.239   1.603   8.257 -0.0334  0.5160  0.5284
 1578SOL    HW116196   1.322   1.570   8.223  0.3333  2.0261 -0.0262
 1578SOL    HW216197   1.261   1.576   8.346  2.0073 -0.6305 -0.3432
 1579SOL     OW16198   2.229   3.889   1.260  0.3056 -0.3180 -0.0143
 1579SOL    HW116199   2.167   3.915   1.192  1.4020  3.0844  0.2677
 1579SOL    HW216200   2.189   3.935   1.334 -1.9578 -2.1810 -0.1071
 1580SOL     OW16201   0.756   2.699  14.136 -0.4088 -0.1362  0.0993
 1580SOL    HW116202   0.833   2.676  14.083  0.6579  4.3490 -0.2610
 1580SOL    HW216203   0.754   2.621  14.192  0.0589 -1.7471 -2.1435
 1581SOL     OW16204   0.938   4.693   5.996 -0.0124 -0.0573  0.0598
 1581SOL    HW116205   0.887   0.049   5.998 -1.4578 -0.9370 -0.3823
 1581SOL    HW216206   0.980   4.700   6.081  2.3458  3.4942 -1.4331
 1582SOL     OW16207   1.604   3.211   3.439 -0.4630 -0.0474 -0.1741
 1582SOL    HW116208   1.525   3.251   3.474 -0.2999  0.3967 -0.3123
 1582SOL    HW216209   1.612   3.132   3.493 -0.4483  0.6084  0.7651
 1583SOL     OW16210   2.505   2.704   1.040  0.4037 -0.3732  0.2438
 1583SOL    HW116211   2.460   2.754   1.108 -0.1396 -3.2794  2.0704
 1583SOL    HW216212   2.443   2.672   0.975 -0.2095 -1.2811  1.2507
 1584SOL     OW16213   0.834   2.979   4.953 -0.0881 -0.2471  0.0177
 1584SOL    HW116214   0.880   3.059   4.929  1.3641 -0.4337  2.2366
 1584SOL    HW216215   0.750   2.987   4.907 -0.4271  0.7537  0.8052
 1585SOL     OW16216   4.542   1.087  16.170 -0.6936  0.1479  0.5723
 1585SOL    HW116217   4.540   1.005  16.122 -1.1334  0.4831  0.0194
 1585SOL    HW216218   4.619   1.091  16.227 -0.9469 -0.2772  0.9476
 1586SOL     OW16219   3.428   3.787  11.483 -0.6345 -0.2071  0.5153
 1586SOL    HW116220   3.407   3.805  11.574  0.8851  2.9874  0.2141
 1586SOL    HW216221   3.405   3.866  11.435  1.7618 -0.2288 -0.7138
 1587SOL     OW16222   3.473   1.921   7.406  0.3572  0.6615  0.5396
 1587SOL    HW116223   3.509   1.973   7.479  1.3788 -0.5929  0.9394
 1587SOL    HW216224   3.515   1.840   7.435  1.1531  0.6072 -0.8090
 1588SOL     OW16225   0.612   1.420   0.932  0.0617  0.3849  0.3328
 1588SOL    HW116226   0.636   1.448   0.843  1.2293 -0.1835  0.4698
 1588SOL    HW216227   0.675   1.349   0.941  1.4199  1.5512 -0.0715
 1589SOL     OW16228   3.545   3.457   8.080 -0.6002  0.0699  0.3199
 1589SOL    HW116229   3.488   3.435   8.007 -0.9747  0.4159  0.5051
 1589SOL    HW216230   3.568   3.373   8.118 -0.3230  0.7601  1.6761
 1590SOL     OW16231   3.672   0.537   6.635  0.1975 -0.0499 -0.4064
 1590SOL    HW116232   3.747   0.479   6.624  1.8021  1.5264  2.2124
 1590SOL    HW216233   3.686   0.561   6.727 -0.4302  1.5025 -0.7260
 1591SOL     OW16234   1.008   2.063   1.622 -0.5090  1.3669  0.0372
 1591SOL    HW116235   0.957   2.044   1.543 -0.4863  0.6088  0.2025
 1591SOL    HW216236   0.962   2.131   1.670 -2.4557 -1.7698  2.6431
 1592SOL     OW16237   0.586   0.870  14.494  0.0739  0.0283  0.7181
 1592SOL    HW116238   0.596   0.942  14.556 -0.0252  1.7117 -1.2229
 1592SOL    HW216239   0.589   0.788  14.544 -0.5224 -1.7203 -2.0809
 1593SOL     OW16240   4.029   2.957  15.963  0.3616  0.4686 -0.0942
 1593SOL    HW116241   4.007   2.895  15.894 -2.9340 -0.1628  1.5205
 1593SOL    HW216242   4.004   2.903  16.038  1.0742  1.5417  0.9117
 1594SOL     OW16243   4.126   4.017  10.456 -0.3191  0.0876 -0.1287
 1594SOL    HW116244   4.036   4.010  10.426 -1.1009 -1.7206  2.6278
 1594SOL    HW216245   4.109   4.061  10.539 -1.8284  2.1170 -1.5256
 1595SOL     OW16246   1.269   1.435   5.887 -0.1879 -0.3188 -0.2104
 1595SOL    HW116247   1.186   1.466   5.851 -1.7778 -0.0848  3.6373
 1595SOL    HW216248   1.317   1.418   5.806 -1.2377  0.4318 -0.9938
 1596SOL     OW16249   1.398   0.899  10.307 -0.0046  0.4092  0.6805
 1596SOL    HW116250   1.352   0.852  10.238 -0.8887 -1.6968  2.7024
 1596SOL    HW216251   1.376   0.838  10.376 -1.0399  1.0936  0.9479
 1597SOL     OW16252   3.562   0.845   6.931  0.1482  0.0446 -0.0586
 1597SOL    HW116253   3.643   0.795   6.919  1.1862  1.4339  1.0792
 1597SOL    HW216254   3.491   0.782   6.928  0.4593 -0.2342 -1.6616
 1598SOL     OW16255   3.030   0.542   3.954 -0.4866 -0.4043 -0.0278
 1598SOL    HW116256   3.116   0.572   3.982 -0.0595  0.0801 -1.8269
 1598SOL    HW216257   2.986   0.538   4.039  1.0115 -1.3954  0.7076
 1599SOL     OW16258   1.434   0.453   1.582 -0.3213  0.6669  0.1665
 1599SOL    HW116259   1.386   0.370   1.590 -0.9824  1.0034 -0.3115
 1599SOL    HW216260   1.364   0.506   1.544 -0.8101  0.1981  0.4025
 1600SOL     OW16261   0.564   1.974   4.166  0.1549  0.2974  0.8344
 1600SOL    HW116262   0.554   1.899   4.108 -2.8173  0.7995  0.7121
 1600SOL    HW216263   0.478   1.980   4.208  0.4882 -2.2962  1.8608
 1601SOL     OW16264   3.991   0.797   1.546 -0.0729  0.2957 -0.1574
 1601SOL    HW116265   3.955   0.713   1.516  0.4954  0.0979 -0.2858
 1601SOL    HW216266   3.944   0.805   1.630 -0.0717  0.9405 -0.2170
 1602SOL     OW16267   3.725   3.290   9.454  0.1544 -0.1928 -0.2350
 1602SOL    HW116268   3.760   3.322   9.371  0.4137 -0.6771 -0.3128
 1602SOL    HW216269   3.791   3.316   9.518 -0.6811  2.8835 -0.6448
 1603SOL     OW16270   0.289   1.509   7.623  0.1289  0.1144  0.3450
 1603SOL    HW116271   0.370   1.462   7.604  0.5389  1.4699 -1.3302
 1603SOL    HW216272   0.291   1.520   7.718  2.5629 -3.8318  0.7209
 1604SOL     OW16273   4.702   0.453   1.960  0.1550  0.0706 -0.0825
 1604SOL    HW116274   4.665   0.396   1.893  2.2874  0.3493 -1.4966
 1604SOL    HW216275   0.071   0.433   1.949  0.2599  0.6599 -0.2817
 1605SOL     OW16276   1.310   1.740   0.143 -0.0833 -0.6261 -0.5627
 1605SOL    HW116277   1.272   1.671   0.197  2.0478  0.8334  2.8413
 1605SOL    HW216278   1.404   1.719   0.149 -0.5257 -2.7215 -0.8434
 1606SOL     OW16279   2.441   4.235   7.684 -0.0334  0.3803 -0.5023
 1606SOL    HW116280   2.423   4.147   7.650 -1.5360  0.5140 -0.0521
 1606SOL    HW216281   2.518   4.226   7.741 -0.7960  0.4077  0.5227
 1607SOL     OW16282   1.133   4.350   5.226  0.1468 -0.0360  0.0075
 1607SOL    HW116283   1.100   4.286   5.289  1.6564  0.6237  1.4666
 1607SOL    HW216284   1.061   4.413   5.225 -0.4735 -0.7305  1.4228
 1608SOL     OW16285   3.676   1.539   7.797  0.1507  0.5002 -0.4504
 1608SOL    HW116286   3.702   1.455   7.835  0.3653 -0.1556 -2.0579
 1608SOL    HW216287   3.581   1.529   7.802  0.0168  2.5224  1.1347
 1609SOL     OW16288   4.138   4.051   4.259 -0.0743  0.4451 -0.7234
 1609SOL    HW116289   4.174   4.120   4.203  2.2245  1.0713  1.5149
 1609SOL    HW216290   4.166   3.973   4.210  0.3943  0.6703 -0.8237
 1610SOL     OW16291   1.488   0.438   6.184  0.1528  0.7346  0.3587
 1610SOL    HW116292   1.575   0.473   6.166 -0.0879 -0.5184 -3.2194
 1610SOL    HW216293   1.460   0.501   6.251 -1.1660  0.4682  0.0585
 1611SOL     OW16294   3.199   3.809   2.343 -0.3535 -0.9391  0.5658
 1611SOL    HW116295   3.235   3.868   2.409  0.3566  0.8467 -1.4047
 1611SOL    HW216296   3.140   3.759   2.398  0.5693 -0.6913  1.7978
 1612SOL     OW16297   3.078   1.953   7.860 -0.3369  0.0761  0.5029
 1612SOL    HW116298   3.071   2.045   7.887 -0.7226 -0.2010  1.3426
 1612SOL    HW216299   2.986   1.929   7.848 -0.5822  0.3711  1.7847
 1613SOL     OW16300   0.894   1.369   9.396  0.1267  0.0091  0.1535
 1613SOL    HW116301   0.846   1.372   9.479  3.1273  0.2630  1.9013
 1613SOL    HW216302   0.902   1.462   9.373  0.5393  0.0307  0.3750
 1614SOL     OW16303   3.235   3.527   4.131 -1.3014  0.4720 -0.3980
 1614SOL    HW116304   3.166   3.492   4.075  0.8373  0.5297 -3.0576
 1614SOL    HW216305   3.313   3.515   4.078 -0.6534 -0.9569  0.9030
 1615SOL     OW16306   0.874   1.616   5.092 -0.0190 -0.3568 -0.3817
 1615SOL    HW116307   0.861   1.559   5.016  2.2649 -0.6080 -0.5774
 1615SOL    HW216308   0.782   1.636   5.108 -0.1716 -1.8123  0.4665
 1616SOL     OW16309   4.013   4.432  16.012 -0.2820 -0.0570  0.2187
 1616SOL    HW116310   3.934   4.431  16.065 -0.5902  0.6754 -0.2345
 1616SOL    HW216311   3.981   4.374  15.943 -0.2742 -1.1361  1.1206
 1617SOL     OW16312   0.653   0.190   7.531 -0.1532 -0.4646  0.3856
 1617SOL    HW116313   0.575   0.238   7.557 -0.1691 -1.2012  1.7276
 1617SOL    HW216314   0.636   0.116   7.590  2.3663 -0.5774  0.9893
 1618SOL     OW16315   1.751   3.017   1.859 -0.4280  0.5167 -0.2130
 1618SOL    HW116316   1.758   3.085   1.926 -1.6643  0.3692  0.0687
 1618SOL    HW216317   1.844   3.007   1.837  0.1778  3.5719  1.0116
 1619SOL     OW16318   0.664   1.600   2.707 -0.1088  0.0623  0.0220
 1619SOL    HW116319   0.632   1.687   2.729 -0.8505 -0.2582  0.2191
 1619SOL    HW216320   0.584   1.562   2.670 -1.3902 -0.0713  2.8845
 1620SOL     OW16321   0.615   0.853   6.197  0.1288  0.0624 -0.1114
 1620SOL    HW116322   0.675   0.882   6.265 -0.9429 -0.5133  1.0735
 1620SOL    HW216323   0.538   0.891   6.238 -0.6418 -1.2300 -0.3826
 1621SOL     OW16324   1.341   4.331  10.601 -0.4187 -0.0428 -0.7186
 1621SOL    HW116325   1.403   4.319  10.528  0.1759  0.2522 -0.2633
 1621SOL    HW216326   1.360   4.421  10.627 -2.5386  0.5358 -1.2104
 1622SOL     OW16327   4.636   0.369   5.645 -0.1894  0.0319  0.1660
 1622SOL    HW116328   4.673   0.369   5.557 -0.6510  0.0004 -0.0266
 1622SOL    HW216329   4.548   0.400   5.623  0.9314  4.1136  1.3998
 1623SOL     OW16330   3.066   2.938   4.135  0.7451  0.4415  0.2302
 1623SOL    HW116331   3.144   2.883   4.140  0.9865  0.8524  0.9085
 1623SOL    HW216332   3.083   2.993   4.059 -0.3150  0.2418 -0.1573
 1624SOL     OW16333   3.607   4.247  17.162 -0.9979 -0.0651  0.0402
 1624SOL    HW116334   3.693   4.280  17.136 -0.5578 -0.7831  0.5916
 1624SOL    HW216335   3.623   4.256  17.256  1.7552  1.3771 -0.5790
 1625SOL     OW16336   0.151   0.055   5.095  0.0486 -0.8699 -0.3683
 1625SOL    HW116337   0.139   4.722   5.170  0.0756  1.3758  1.3796
 1625SOL    HW216338   0.067   0.042   5.050  0.2148  1.2309 -1.2901
 1626SOL     OW16339   4.140   1.493  17.675 -0.4799  0.3998 -0.0566
 1626SOL    HW116340   4.189   1.412  17.661 -0.0489  0.7724 -0.6982
 1626SOL    HW216341   4.212   1.555  17.681  1.2999 -1.7215  0.5880
 1627SOL     OW16342   1.068   0.196   3.641 -0.2255  0.4825 -0.1088
 1627SOL    HW116343   1.058   0.249   3.720  3.6241 -0.9443  1.3343
 1627SOL    HW216344   1.145   0.238   3.604 -0.0588 -0.3880 -0.7359
 1628SOL     OW16345   1.769   3.839  11.135 -0.1529 -0.3705 -0.4592
 1628SOL    HW116346   1.789   3.851  11.042 -2.4888 -0.2100 -0.9426
 1628SOL    HW216347   1.779   3.744  11.145 -0.0363 -0.4182 -1.0393
 1629SOL     OW16348   3.438   2.193   2.520 -0.3350  0.0999 -0.2009
 1629SOL    HW116349   3.377   2.261   2.547 -0.7818 -0.1641 -0.5488
 1629SOL    HW216350   3.372   2.124   2.512  0.7231 -0.8638 -0.6909
 1630SOL     OW16351   4.063   2.378   5.194 -0.3634  0.0406  0.1066
 1630SOL    HW116352   4.096   2.306   5.248 -0.1567 -1.3258 -1.8429
 1630SOL    HW216353   3.968   2.374   5.199 -0.2992 -1.8049 -0.0345
 1631SOL     OW16354   3.551   3.808   2.707  0.1090 -0.1579  0.2862
 1631SOL    HW116355   3.520   3.873   2.644  2.5854 -0.1997 -0.9804
 1631SOL    HW216356   3.554   3.859   2.788  1.6727 -0.1335  0.2239
 1632SOL     OW16357   0.319   3.144  14.946  0.0251 -0.1979  0.5237
 1632SOL    HW116358   0.380   3.091  14.895 -0.8052 -1.6202  1.0179
 1632SOL    HW216359   0.332   3.234  14.916 -1.1459 -0.6624 -1.2986
 1633SOL     OW16360   4.371   0.149  14.936 -0.1392  0.3330 -0.4034
 1633SOL    HW116361   4.318   0.070  14.920  0.0346 -0.0246  0.7524
 1633SOL    HW216362   4.300   0.205  14.967  0.2434  0.3593  0.4412
 1634SOL     OW16363   0.888   0.875  15.112 -0.8026  0.4196  0.3609
 1634SOL    HW116364   0.868   0.937  15.183  1.0846 -0.8226  1.9885
 1634SOL    HW216365   0.806   0.884  15.063 -0.9249 -1.3724  0.2336
 1635SOL     OW16366   4.320   2.114   8.475 -0.6761 -0.1597  0.1611
 1635SOL    HW116367   4.272   2.085   8.553  2.0539 -2.6333  0.9382
 1635SOL    HW216368   4.321   2.209   8.483 -0.2875  0.1660 -4.0859
 1636SOL     OW16369   4.501   1.962   3.436 -0.0341 -0.0529 -0.1557
 1636SOL    HW116370   4.470   2.005   3.516  0.0188 -2.2629  1.0413
 1636SOL    HW216371   4.569   2.025   3.410  0.4004  0.2094  1.6116
 1637SOL     OW16372   0.896   4.044   2.631  0.7098 -0.2863  0.0540
 1637SOL    HW116373   0.925   3.999   2.711 -4.4036  0.4089  2.3519
 1637SOL    HW216374   0.815   3.994   2.614  1.5897 -1.5274 -0.4979
 1638SOL     OW16375   2.214   0.523   8.807  0.8664 -0.4079 -0.5895
 1638SOL    HW116376   2.237   0.447   8.753 -0.1535 -0.8242 -0.4519
 1638SOL    HW216377   2.273   0.590   8.773 -1.3107  1.6923 -0.2268
 1639SOL     OW16378   2.713   1.329  15.073 -0.4421 -0.0210 -0.0773
 1639SOL    HW116379   2.693   1.346  15.166  0.2439  1.1659 -0.1469
 1639SOL    HW216380   2.664   1.247  15.060  0.2677 -0.3113 -0.8866
 1640SOL     OW16381   3.086   1.247  11.882  0.0429 -0.0380  0.6624
 1640SOL    HW116382   3.070   1.311  11.813  0.3523 -1.2850 -0.5839
 1640SOL    HW216383   3.109   1.299  11.959 -0.0101 -0.0959  0.7177
 1641SOL     OW16384   3.615   1.887  11.702  0.1266  0.0220  0.6333
 1641SOL    HW116385   3.552   1.893  11.773 -1.9282  0.6190 -1.2289
 1641SOL    HW216386   3.693   1.841  11.733  0.6375  1.0083  0.7927
 1642SOL     OW16387   0.419   3.674   4.369 -0.1769 -0.2740  0.0822
 1642SOL    HW116388   0.352   3.624   4.415 -0.3921  1.9579  2.2235
 1642SOL    HW216389   0.378   3.717   4.294  0.2287 -0.9459 -0.5150
 1643SOL     OW16390   1.225   1.999   5.437  0.2296  0.0780 -1.2441
 1643SOL    HW116391   1.274   2.078   5.461  1.5576 -2.1174  3.2851
 1643SOL    HW216392   1.284   1.967   5.369  1.7758 -1.2692  0.7409
 1644SOL     OW16393   2.454   2.381   4.491  0.3752 -0.3457 -0.4127
 1644SOL    HW116394   2.548   2.387   4.506  0.8187  0.4953 -3.5913
 1644SOL    HW216395   2.446   2.464   4.444 -3.4313 -1.4199 -1.6745
 1645SOL     OW16396   2.661   3.115   5.823 -0.5411 -0.7083  0.2415
 1645SOL    HW116397   2.733   3.158   5.869 -0.8849 -0.9424  1.0104
 1645SOL    HW216398   2.587   3.151   5.873 -1.2572 -0.1048 -1.2583
 1646SOL     OW16399   4.455   3.561   8.924 -0.3047  0.7278  0.2647
 1646SOL    HW116400   4.476   3.571   8.831 -1.0689  0.0096  0.0164
 1646SOL    HW216401   4.379   3.503   8.916  0.7623 -0.1153 -3.7527
 1647SOL     OW16402   2.664   0.951   2.685  0.6728  0.1302  0.1335
 1647SOL    HW116403   2.632   1.041   2.675 -0.5948 -0.4649 -1.0335
 1647SOL    HW216404   2.653   0.952   2.780 -2.0502 -0.3237 -0.1903
 1648SOL     OW16405   2.699   3.944   6.741 -0.7646  0.2110  0.5997
 1648SOL    HW116406   2.764   3.881   6.709 -3.0781 -1.1886 -1.3254
 1648SOL    HW216407   2.720   3.947   6.834 -0.3866 -2.3540  0.6134
 1649SOL     OW16408   4.444   0.756   2.529 -0.3194  0.1816 -0.2037
 1649SOL    HW116409   4.444   0.682   2.468 -1.0389  0.7683 -0.9145
 1649SOL    HW216410   4.520   0.740   2.585  0.5980  0.1636 -1.4346
 1650SOL     OW16411   2.547   0.255   3.104 -0.3107 -0.0546  0.5623
 1650SOL    HW116412   2.477   0.197   3.074  0.5727 -0.8187  0.0044
 1650SOL    HW216413   2.532   0.259   3.199 -0.3596 -0.0709  0.5551
 1651SOL     OW16414   3.833   2.270   2.096  0.2437  0.1664  0.0209
 1651SOL    HW116415   3.804   2.246   2.184  0.5620  0.1240  0.1151
 1651SOL    HW216416   3.920   2.231   2.109 -0.0545 -0.7667 -0.7788
 1652SOL     OW16417   4.671   4.025   9.085  0.0717  0.3896 -0.2342
 1652SOL    HW116418   4.582   3.994   9.068  0.5391 -0.1136 -1.7741
 1652SOL    HW216419   4.710   3.946   9.048  0.3821  1.3082 -1.8459
 1653SOL     OW16420   2.058   3.171   1.436  0.5677 -0.2859  0.6664
 1653SOL    HW116421   2.133   3.114   1.423 -0.1156 -0.9621 -0.3176
 1653SOL    HW216422   2.021   3.157   1.349  0.9947 -2.5161  0.8406
 1654SOL     OW16423   2.378   3.313   6.709 -0.5809 -0.0677 -0.2918
 1654SOL    HW116424   2.405   3.343   6.795 -0.8604  0.9668 -0.5611
 1654SOL    HW216425   2.319   3.386   6.688 -1.8127 -0.2493  2.5856
 1655SOL     OW16426   0.442   1.783   6.592 -0.0278 -0.0376  0.2819
 1655SOL    HW116427   0.465   1.825   6.509  3.8335  0.7162  1.6896
 1655SOL    HW216428   0.441   1.858   6.652  3.4243  3.0415 -3.5419
 1656SOL     OW16429   2.073   0.515   1.996 -0.7897  0.1876 -0.0806
 1656SOL    HW116430   2.022   0.569   1.936  0.2602  0.4978 -0.6931
 1656SOL    HW216431   2.158   0.526   1.952 -0.6903 -1.5478 -0.3467
 1657SOL     OW16432   0.679   1.128   5.070 -0.7530 -0.4308 -0.3835
 1657SOL    HW116433   0.755   1.154   5.122 -1.1632  0.9422 -0.4814
 1657SOL    HW216434   0.615   1.083   5.126 -0.9048  0.6557  0.3032
 1658SOL     OW16435   2.823   4.527  16.388  0.0900  0.2143 -0.0895
 1658SOL    HW116436   2.767   4.492  16.318  0.2170 -2.7503  1.2836
 1658SOL    HW216437   2.779   4.482  16.461 -0.1699  0.5629 -0.0331
 1659SOL     OW16438   0.131   3.055   6.196 -0.3585 -0.3274 -0.4561
 1659SOL    HW116439   0.205   3.097   6.240  0.2426 -1.0691 -0.7578
 1659SOL    HW216440   0.179   2.972   6.188 -0.0383  0.0145 -2.1526
 1660SOL     OW16441   2.407   2.896   2.527 -0.2042 -0.0569 -0.2179
 1660SOL    HW116442   2.473   2.912   2.460  2.1083 -0.9703  1.8346
 1660SOL    HW216443   2.451   2.824   2.573 -0.3569 -0.0854 -0.1158
 1661SOL     OW16444   2.034   3.130   0.926  0.0890 -0.1182 -0.0954
 1661SOL    HW116445   1.962   3.093   0.876  0.5912 -0.8878 -0.2506
 1661SOL    HW216446   1.989   3.144   1.009 -0.8367 -3.1841 -0.0941
 1662SOL     OW16447   3.073   4.363  10.188 -0.1041  0.3034 -0.1740
 1662SOL    HW116448   3.016   4.289  10.206 -0.0018  0.5728  1.2184
 1662SOL    HW216449   3.035   4.398  10.107 -2.8911  1.3163  1.6045
 1663SOL     OW16450   4.529   4.552   9.430  0.3772  0.2108 -0.0890
 1663SOL    HW116451   4.503   4.642   9.415  1.8242  0.7729  0.7945
 1663SOL    HW216452   4.551   4.527   9.340 -0.6229 -2.0984  0.2877
 1664SOL     OW16453   1.990   2.436   4.161 -0.5180 -0.1129  0.0717
 1664SOL    HW116454   2.080   2.403   4.155 -0.8111 -0.4862 -2.2834
 1664SOL    HW216455   1.961   2.427   4.070  0.9619 -0.3231 -0.3849
 1665SOL     OW16456   0.070   2.506   4.101  0.1411 -0.0783  0.8644
 1665SOL    HW116457   0.032   2.460   4.176 -0.0467 -0.5463  0.4902
 1665SOL    HW216458   0.162   2.483   4.111  0.5383  0.6470 -1.0571
 1666SOL     OW16459   4.051   1.009   1.960 -0.4144 -0.4685  0.5320
 1666SOL    HW116460   4.111   0.935   1.962 -0.4423 -0.4909  0.5322
 1666SOL    HW216461   4.056   1.037   2.051  0.5454  0.3578  0.2161
 1667SOL     OW16462   2.393   0.894   7.262 -0.0476  0.2122  0.1030
 1667SOL    HW116463   2.311   0.858   7.228 -1.2160  0.2205  2.9178
 1667SOL    HW216464   2.439   0.929   7.185  2.4897  0.3917  1.6939
 1668SOL     OW16465   3.484   0.126   0.103 -0.0749  0.0419  0.1737
 1668SOL    HW116466   3.515   0.061   0.166 -1.2890 -0.1254  0.6022
 1668SOL    HW216467   3.540   0.102   0.029 -0.9600 -0.0844 -0.4524
 1669SOL     OW16468   0.635   4.612  14.155  0.0577  0.1123  0.3844
 1669SOL    HW116469   0.569   4.670  14.119 -2.2198 -2.1429  0.9127
 1669SOL    HW216470   0.703   4.673  14.184 -2.5778  1.4955  3.6292
 1670SOL     OW16471   4.275   1.269   1.858 -0.5000  0.3576  0.5267
 1670SOL    HW116472   4.360   1.253   1.817  0.2278  2.2737  1.3282
 1670SOL    HW216473   4.220   1.212   1.804 -0.1262 -0.8675  1.4320
 1671SOL     OW16474   0.489   0.234   1.454  0.0461  0.0741  0.4495
 1671SOL    HW116475   0.444   0.300   1.400  0.9259  1.3109  1.2437
 1671SOL    HW216476   0.484   0.158   1.396 -0.6556 -0.1147  0.7573
 1672SOL     OW16477   4.612   1.258   4.072 -0.0592 -0.2222  0.4424
 1672SOL    HW116478   4.650   1.284   3.988 -1.7403 -1.0570 -0.5834
 1672SOL    HW216479   4.542   1.323   4.079  0.4403  0.0846  2.4927
 1673SOL     OW16480   0.808   1.798   0.792 -0.1493  0.2130 -0.0612
 1673SOL    HW116481   0.779   1.880   0.752  1.0933  0.3495 -0.6847
 1673SOL    HW216482   0.880   1.830   0.847 -0.5341  0.2000  0.4517
 1674SOL     OW16483   2.537   2.634   4.397 -0.4374 -0.1194 -0.4296
 1674SOL    HW116484   2.484   2.659   4.321 -0.7558 -0.9566 -0.4803
 1674SOL    HW216485   2.527   2.713   4.450 -2.5666 -0.9498  0.3948
 1675SOL     OW16486   3.874   3.997   0.025 -0.2004 -0.0504 -0.1046
 1675SOL    HW116487   3.947   4.048  17.694  0.8391 -0.9110  0.9073
 1675SOL    HW216488   3.916   3.920   0.063 -0.0488 -0.0732 -0.3242
 1676SOL     OW16489   3.787   1.105  15.007 -0.2736  0.2234 -0.2440
 1676SOL    HW116490   3.726   1.056  14.952 -0.8320 -0.0630  0.6220
 1676SOL    HW216491   3.755   1.068  15.089  0.0753 -0.5032 -0.4382
 1677SOL     OW16492   4.213   0.488   8.165 -0.2775 -0.5638 -0.1223
 1677SOL    HW116493   4.269   0.455   8.235  1.0684  1.1079 -0.4022
 1677SOL    HW216494   4.234   0.581   8.176 -1.3769 -0.4360  0.9319
 1678SOL     OW16495   4.013   1.151   8.847 -0.0380  0.5664  0.3773
 1678SOL    HW116496   3.940   1.188   8.797  0.6200  2.5681  0.8997
 1678SOL    HW216497   3.980   1.064   8.869  0.7340  0.3801  0.7700
 1679SOL     OW16498   1.234   3.682  17.664  0.5698 -0.6091 -0.1758
 1679SOL    HW116499   1.220   3.718   0.051  0.2823 -0.7246 -0.1775
 1679SOL    HW216500   1.273   3.600  17.693  0.3083 -1.0383 -1.0494
 1680SOL     OW16501   2.818   3.984   4.949 -0.5587  0.2074 -0.2377
 1680SOL    HW116502   2.816   3.914   4.884 -0.6100 -1.6311  1.7510
 1680SOL    HW216503   2.871   4.053   4.908  0.9175 -0.3391  0.7587
 1681SOL     OW16504   1.043   4.525   2.131  0.0736 -0.2361  0.1900
 1681SOL    HW116505   0.963   4.486   2.098 -0.7601  1.7312 -0.1071
 1681SOL    HW216506   1.014   4.601   2.181  1.0160  1.2215 -1.4638
 1682SOL     OW16507   4.299   1.571   7.865  0.1913 -0.2699 -0.0729
 1682SOL    HW116508   4.275   1.479   7.865  0.7582 -0.4132 -1.4844
 1682SOL    HW216509   4.370   1.559   7.802 -0.7089 -0.8452 -0.9539
 1683SOL     OW16510   4.084   3.400   4.055 -0.0752  0.0809  0.1118
 1683SOL    HW116511   4.089   3.366   3.965  0.8279 -3.1460  1.3842
 1683SOL    HW216512   4.097   3.332   4.120 -0.5291 -0.4486 -0.3510
 1684SOL     OW16513   1.558   0.040  10.241 -0.8255 -0.7493  0.3084
 1684SOL    HW116514   1.519   0.082  10.164 -1.4179  0.4087  1.2437
 1684SOL    HW216515   1.475   0.004  10.272 -0.9457 -2.4662 -2.0303
 1685SOL     OW16516   0.693   1.345   1.382  0.4546 -0.4731  0.4020
 1685SOL    HW116517   0.602   1.317   1.393 -0.6007  2.2449 -1.3957
 1685SOL    HW216518   0.697   1.429   1.428  0.1953  0.2471 -0.8970
 1686SOL     OW16519   4.278   4.319  12.695  0.7286 -0.1072 -0.3252
 1686SOL    HW116520   4.367   4.314  12.731  0.8860 -2.4381 -1.0155
 1686SOL    HW216521   4.242   4.231  12.707 -0.1504  0.3594  0.4486
 1687SOL     OW16522   3.157   3.625  14.864  0.0966 -0.6567 -0.1568
 1687SOL    HW116523   3.176   3.536  14.834 -0.7369 -0.2824 -1.7395
 1687SOL    HW216524   3.239   3.653  14.823 -0.0591  0.9505  0.6237
 1688SOL     OW16525   4.570   0.210   8.662 -0.5206  0.2978 -0.1409
 1688SOL    HW116526   4.535   0.238   8.577  1.2269 -2.2430 -1.7111
 1688SOL    HW216527   4.635   0.281   8.666  0.6955 -0.6500 -2.5788
 1689SOL     OW16528   0.407   1.253   1.426 -0.0869 -1.2863 -0.1794
 1689SOL    HW116529   0.441   1.264   1.515  0.2427  1.3241 -0.6371
 1689SOL    HW216530   0.338   1.319   1.433 -0.2384 -1.6578  1.7668
 1690SOL     OW16531   3.449   2.190   5.879  0.5238 -0.1292  0.9273
 1690SOL    HW116532   3.482   2.101   5.889 -1.4726 -0.9510  0.0633
 1690SOL    HW216533   3.458   2.235   5.964  1.6729 -0.8439  1.1767
 1691SOL     OW16534   2.597   3.022  13.938 -0.0371  0.0314  0.3131
 1691SOL    HW116535   2.671   3.031  13.878  2.0454 -1.5411  2.6295
 1691SOL    HW216536   2.629   2.964  14.007  1.4575  0.8589  0.3282
 1692SOL     OW16537   0.609   0.686   5.172 -0.0898  0.6585 -0.4431
 1692SOL    HW116538   0.683   0.662   5.227  1.1569 -1.1210 -2.8729
 1692SOL    HW216539   0.628   0.639   5.090 -0.4164  1.6585 -1.0971
 1693SOL     OW16540   3.594   0.820   4.030 -0.2074  0.7778 -0.6446
 1693SOL    HW116541   3.599   0.862   4.115 -1.2779  0.4089 -0.4061
 1693SOL    HW216542   3.623   0.729   4.036  0.0207  0.8999  0.0449
 1694SOL     OW16543   3.765   3.127   8.598 -0.2114  0.1318  0.7390
 1694SOL    HW116544   3.821   3.203   8.616 -0.2519 -0.0799  1.7502
 1694SOL    HW216545   3.705   3.158   8.530  0.3711  0.8217  0.5451
 1695SOL     OW16546   1.271   4.528   4.055 -0.2703 -0.1739 -0.0317
 1695SOL    HW116547   1.344   4.469   4.076 -0.1287 -0.1892 -0.5709
 1695SOL    HW216548   1.192   4.493   4.096 -0.4078  2.4698  1.9833
 1696SOL     OW16549   1.056   0.352  11.429 -0.2708  0.4947 -0.3084
 1696SOL    HW116550   1.101   0.428  11.466 -1.6195  1.3261 -0.4010
 1696SOL    HW216551   1.000   0.392  11.363 -3.0238 -0.2073  1.6062
 1697SOL     OW16552   2.583   0.761   3.811 -0.3583 -0.4316  0.5610
 1697SOL    HW116553   2.546   0.813   3.740  1.9416  0.0583 -0.3090
 1697SOL    HW216554   2.641   0.706   3.757  1.3420 -0.2878  2.2378
 1698SOL     OW16555   0.613   4.409   4.354 -0.0640  0.0874 -0.5322
 1698SOL    HW116556   0.563   4.347   4.406  1.3658 -1.0717 -0.5423
 1698SOL    HW216557   0.602   4.378   4.264 -1.4525 -0.3265 -0.2077
 1699SOL     OW16558   1.013   2.892   8.429  0.8041  0.3090  0.0976
 1699SOL    HW116559   0.976   2.818   8.380  1.0628  0.0229  0.3319
 1699SOL    HW216560   1.011   2.972   8.377  0.2374 -0.8795 -1.7251
 1700SOL     OW16561   1.892   0.876  10.778  0.5219 -0.2159 -0.2389
 1700SOL    HW116562   1.849   0.906  10.697 -0.9669  0.6057  0.8547
 1700SOL    HW216563   1.859   0.937  10.843  0.0744  0.9256 -1.5269
 1701SOL     OW16564   1.768   3.015  10.805 -0.3313  0.3965 -0.0681
 1701SOL    HW116565   1.843   3.007  10.863 -0.9197  0.0296  0.6392
 1701SOL    HW216566   1.745   3.104  10.830  1.1535  1.3609 -2.1157
 1702SOL     OW16567   1.273   0.205  15.486  0.0727 -0.3187  0.3339
 1702SOL    HW116568   1.329   0.142  15.530 -0.2942 -1.4283 -0.7875
 1702SOL    HW216569   1.266   0.267  15.559  2.6262  0.4399 -0.0715
 1703SOL     OW16570   3.624   1.404   3.392 -0.3112 -0.3560 -0.4470
 1703SOL    HW116571   3.703   1.390   3.445  0.6444  2.9891 -1.0038
 1703SOL    HW216572   3.669   1.436   3.314  1.9643 -2.6486 -0.0543
 1704SOL     OW16573   4.671   2.615   4.737 -0.9151  0.1022  0.3326
 1704SOL    HW116574   4.633   2.674   4.802  0.1568 -0.4833  1.5086
 1704SOL    HW216575   4.596   2.616   4.679  0.1775  0.6472 -1.0647
 1705SOL     OW16576   0.203   3.655   7.140 -0.2260 -0.0708  0.6028
 1705SOL    HW116577   0.175   3.687   7.226 -0.5081  1.2816  0.0043
 1705SOL    HW216578   0.248   3.574   7.164 -0.2762 -0.2758  0.0004
 1706SOL     OW16579   3.070   0.499   8.984 -0.6466  0.4798 -0.1613
 1706SOL    HW116580   3.069   0.559   9.059  1.8541 -0.6056  0.7497
 1706SOL    HW216581   3.065   0.552   8.904  0.4200  1.7784  0.6243
 1707SOL     OW16582   2.774   0.046   6.661  0.0315 -0.1325  0.2487
 1707SOL    HW116583   2.739   4.684   6.681  0.3654  0.1178  1.9379
 1707SOL    HW216584   2.707   0.097   6.615 -0.2170 -0.2213  0.5118
 1708SOL     OW16585   1.350   3.570  15.882  0.3018 -0.0616 -0.5637
 1708SOL    HW116586   1.391   3.601  15.801 -1.7545  2.5884 -0.5962
 1708SOL    HW216587   1.373   3.477  15.884  1.6162  0.3591  4.1305
 1709SOL     OW16588   1.771   0.028   6.782  0.3302  0.4446 -0.3572
 1709SOL    HW116589   1.835   0.059   6.717  2.1619 -1.0146  0.7344
 1709SOL    HW216590   1.793   4.659   6.790  0.9769  0.5433 -0.9210
 1710SOL     OW16591   0.476   3.522   5.654  0.5616  0.0818 -0.5609
 1710SOL    HW116592   0.391   3.520   5.609  0.5169 -1.7521 -0.3653
 1710SOL    HW216593   0.530   3.451   5.619 -0.3605 -0.6605 -0.4761
 1711SOL     OW16594   0.629   3.666   2.807 -0.0280  0.0987 -0.1393
 1711SOL    HW116595   0.709   3.614   2.815 -0.3510 -0.3913 -0.0702
 1711SOL    HW216596   0.570   3.591   2.792 -1.1731  0.9841 -0.0298
 1712SOL     OW16597   1.069   2.100  10.392  0.5717  0.0499 -0.2446
 1712SOL    HW116598   0.983   2.091  10.432  0.3193  0.0519 -0.7834
 1712SOL    HW216599   1.072   2.189  10.357 -0.5229 -0.3354 -1.2927
 1713SOL     OW16600   2.182   0.617   3.833 -0.1399  0.2835  0.6412
 1713SOL    HW116601   2.145   0.594   3.747 -2.6122  2.2742  1.1767
 1713SOL    HW216602   2.109   0.593   3.891 -0.2722 -1.3941 -0.2294
 1714SOL     OW16603   0.944   1.314   7.870 -0.1720 -0.4764 -0.4618
 1714SOL    HW116604   0.902   1.376   7.929 -0.2508  0.0880 -1.1044
 1714SOL    HW216605   0.995   1.273   7.939  1.5004 -0.0384 -1.4379
 1715SOL     OW16606   4.208   3.874   7.471 -0.6203  0.5093  0.6396
 1715SOL    HW116607   4.221   3.856   7.378  0.0939  1.8190  0.4858
 1715SOL    HW216608   4.233   3.965   7.488  0.6448  0.1771  0.4984
 1716SOL     OW16609   2.510   0.936   6.553  0.2874  0.1252  0.7485
 1716SOL    HW116610   2.590   0.927   6.502 -0.5983 -1.8242 -0.2918
 1716SOL    HW216611   2.531   0.998   6.623  0.5680  0.1928  0.6030
 1717SOL     OW16612   3.097   1.603   8.137 -0.0651 -0.1736  0.2231
 1717SOL    HW116613   3.183   1.623   8.100  0.4957  1.2740  2.2696
 1717SOL    HW216614   3.044   1.580   8.061 -1.5301  1.7589  0.6711
 1718SOL     OW16615   0.459   3.728  12.057  0.6908 -0.8155 -0.4796
 1718SOL    HW116616   0.461   3.697  11.966 -1.0477 -0.3251 -0.6955
 1718SOL    HW216617   0.553   3.733  12.075  0.3685  1.1155  0.6379
 1719SOL     OW16618   1.411   4.721   7.777 -0.1834 -0.3757  0.1726
 1719SOL    HW116619   1.370   0.054   7.713  0.8187  0.9432  0.7259
 1719SOL    HW216620   1.359   0.004   7.856  0.0686  0.2833  0.2714
 1720SOL     OW16621   1.371   1.041  10.708 -0.3778 -0.2921  0.3227
 1720SOL    HW116622   1.369   1.092  10.627 -0.4119  2.3585  2.0025
 1720SOL    HW216623   1.321   1.100  10.764 -0.6632 -0.4397  0.2246
 1721SOL     OW16624   2.179   4.363   3.534  0.1977 -0.3929  0.4234
 1721SOL    HW116625   2.181   4.399   3.445  1.2608 -3.5532 -0.8597
 1721SOL    HW216626   2.103   4.405   3.574 -1.3483 -0.8046 -2.0512
 1722SOL     OW16627   3.329   2.701   3.977 -0.2883 -0.2007  0.3099
 1722SOL    HW116628   3.374   2.770   4.024  0.3001  0.3374 -1.0681
 1722SOL    HW216629   3.262   2.672   4.040 -1.9196  1.4977 -0.6402
 1723SOL     OW16630   1.217   0.121   5.130 -0.0466  0.5156 -0.0676
 1723SOL    HW116631   1.175   0.197   5.171 -1.1867 -0.9129  1.4127
 1723SOL    HW216632   1.303   0.156   5.105 -0.7547  0.8955 -1.9618
 1724SOL     OW16633   2.197   2.365   0.841 -0.4297  0.3559  0.4644
 1724SOL    HW116634   2.108   2.393   0.864  1.2789  3.5478  3.1796
 1724SOL    HW216635   2.244   2.353   0.924 -0.0449 -0.7664  0.0865
 1725SOL     OW16636   1.480   3.205  17.113 -0.1427  0.4242  0.5312
 1725SOL    HW116637   1.389   3.181  17.126 -0.0870  0.5423  1.1401
 1725SOL    HW216638   1.486   3.294  17.079 -0.4083  0.6087  0.9781
 1726SOL     OW16639   1.428   0.980   2.214 -0.3004 -0.0487 -0.1920
 1726SOL    HW116640   1.513   0.937   2.209 -0.2440 -0.3997  3.5480
 1726SOL    HW216641   1.414   0.964   2.307  3.6837 -1.1024  0.2304
 1727SOL     OW16642   3.624   2.348  16.620  0.0378  0.2940  0.8810
 1727SOL    HW116643   3.601   2.269  16.571 -1.0962  1.2655 -0.1128
 1727SOL    HW216644   3.685   2.312  16.685 -1.4097  0.8666  2.5484
 1728SOL     OW16645   1.001   4.661   3.619 -0.1947  0.0406 -0.1388
 1728SOL    HW116646   1.024   0.029   3.608  0.8305 -0.3264 -1.1127
 1728SOL    HW216647   1.081   4.618   3.651 -0.4209  0.6804  1.3102
 1729SOL     OW16648   4.589   3.484   5.242  0.0217  0.4132  0.1134
 1729SOL    HW116649   4.511   3.438   5.275  0.6961 -0.1787  0.8917
 1729SOL    HW216650   4.643   3.411   5.211  1.0689  1.5437 -0.7332
 1730SOL     OW16651   3.831   1.558   8.149 -0.8809 -0.3193 -0.1972
 1730SOL    HW116652   3.815   1.494   8.079 -2.2271  3.3466 -3.1889
 1730SOL    HW216653   3.921   1.550   8.180 -0.1952  0.0498 -2.0770
 1731SOL     OW16654   3.449   1.041   1.195 -0.4296 -0.0668  1.3911
 1731SOL    HW116655   3.504   0.980   1.244  0.7941  0.3071  0.4887
 1731SOL    HW216656   3.417   1.098   1.264 -1.2052 -0.5271  1.4148
 1732SOL     OW16657   0.067   0.708  11.322 -0.6356 -0.5142  0.2193
 1732SOL    HW116658   0.083   0.673  11.235 -0.9411 -0.1312  0.0054
 1732SOL    HW216659   0.129   0.781  11.319 -0.1055 -0.9203  1.6816
 1733SOL     OW16660   1.016   3.098   8.144 -0.1462 -0.4932 -0.1609
 1733SOL    HW116661   1.111   3.100   8.134 -0.3454  0.1346 -1.8022
 1733SOL    HW216662   0.990   3.009   8.165  0.9934 -0.1243  2.8699
 1734SOL     OW16663   2.893   0.583   7.850  0.6828  0.4450 -0.0949
 1734SOL    HW116664   2.987   0.569   7.860  0.3971 -1.2752  0.1903
 1734SOL    HW216665   2.870   0.516   7.786 -0.8805 -0.4581  1.4379
 1735SOL     OW16666   1.417   0.857   5.595  0.2202  0.2712  0.3349
 1735SOL    HW116667   1.423   0.797   5.669  2.2424  1.5040  1.1833
 1735SOL    HW216668   1.367   0.930   5.631 -0.5466 -0.3640  0.5503
 1736SOL     OW16669   4.701   1.551   4.848  0.2457 -0.2372  0.1293
 1736SOL    HW116670   0.011   1.571   4.935  1.6920  3.2244 -1.2474
 1736SOL    HW216671   4.709   1.633   4.799 -0.6494  0.0855  0.5317
 1737SOL     OW16672   1.507   2.951  17.003 -0.2107 -0.5506  0.6308
 1737SOL    HW116673   1.595   2.947  16.965 -0.6234 -0.4647 -0.3345
 1737SOL    HW216674   1.497   3.043  17.028  0.9445 -0.1485 -0.3760
 1738SOL     OW16675   4.601   0.897  11.536 -0.1871  0.0920 -0.1875
 1738SOL    HW116676   4.585   0.991  11.546 -1.0437 -0.1237  0.4800
 1738SOL    HW216677   4.511   0.863  11.530 -0.0687 -0.2793  0.1314
 1739SOL     OW16678   1.279   1.890  14.429  0.4548  0.3702  0.6585
 1739SOL    HW116679   1.277   1.923  14.340 -0.5771 -2.0204 -0.2157
 1739SOL    HW216680   1.288   1.795  14.419  0.7168  0.1405  2.8710
 1740SOL     OW16681   0.156   3.410   3.168  0.1421  0.3736  0.2618
 1740SOL    HW116682   0.169   3.322   3.131 -2.1660 -0.2572  1.0038
 1740SOL    HW216683   0.095   3.446   3.104 -2.0241  0.2131  2.2649
 1741SOL     OW16684   0.793   4.502  15.637 -0.1485 -0.4165 -0.8117
 1741SOL    HW116685   0.719   4.536  15.585 -0.8309 -1.0689 -0.2603
 1741SOL    HW216686   0.795   4.570  15.704 -1.9537 -1.2267  0.0513
 1742SOL     OW16687   1.885   1.454   6.316 -0.0653 -0.0875  0.1953
 1742SOL    HW116688   1.824   1.498   6.257  0.0087 -3.0186 -2.0447
 1742SOL    HW216689   1.959   1.514   6.318 -0.2662  0.1448  1.0635
 1743SOL     OW16690   4.265   0.954   5.424 -0.0177  0.1004 -0.3613
 1743SOL    HW116691   4.284   0.861   5.409 -1.1922 -0.0463 -0.9086
 1743SOL    HW216692   4.316   0.996   5.355 -0.7427 -2.3337 -2.3488
 1744SOL     OW16693   3.194   4.095  13.558 -0.0019  0.3614  0.2357
 1744SOL    HW116694   3.111   4.078  13.603  0.3672  3.1538  1.9689
 1744SOL    HW216695   3.172   4.184  13.534 -0.2675  0.0883 -0.5317
 1745SOL     OW16696   0.265   4.466   2.431 -0.5166  0.3369  0.4442
 1745SOL    HW116697   0.324   4.540   2.420  1.5991 -1.5691 -1.0241
 1745SOL    HW216698   0.191   4.499   2.381 -0.2900 -1.6701 -1.1838
 1746SOL     OW16699   2.307   0.643   8.485  0.4271  0.3351 -0.6925
 1746SOL    HW116700   2.360   0.622   8.563  2.0752 -0.3337 -1.9917
 1746SOL    HW216701   2.343   0.577   8.427  0.6842 -0.4130  0.3115
 1747SOL     OW16702   0.052   0.016  14.731 -0.3114  0.0372 -0.1114
 1747SOL    HW116703   0.090   0.075  14.667 -3.5425  2.1226 -0.0871
 1747SOL    HW216704   0.094   0.042  14.813  0.1098 -2.5221  0.4896
 1748SOL     OW16705   0.492   1.375   6.612  0.7822  0.3662  0.2190
 1748SOL    HW116706   0.491   1.418   6.697 -0.6024 -0.2786  0.5183
 1748SOL    HW216707   0.503   1.448   6.551  0.0661  0.6083  0.3766
 1749SOL     OW16708   4.519   4.547  14.283 -0.3247 -0.6818 -0.6346
 1749SOL    HW116709   4.601   4.499  14.290  0.3396  0.3887 -1.2201
 1749SOL    HW216710   4.523   4.591  14.368 -3.6138  0.3922 -1.0446
 1750SOL     OW16711   3.404   2.992   8.343 -0.1230  0.0130  0.2149
 1750SOL    HW116712   3.345   3.067   8.333  0.2597  0.3214  0.2408
 1750SOL    HW216713   3.483   3.029   8.301 -0.1219  0.5037  0.6439
 1751SOL     OW16714   1.710   2.138   6.973  0.6616  0.3131 -0.3270
 1751SOL    HW116715   1.783   2.185   7.011  1.8904 -1.1219 -0.8942
 1751SOL    HW216716   1.695   2.192   6.895 -0.8647  0.7416  0.2714
 1752SOL     OW16717   3.656   2.933  12.631 -0.6551 -0.6522  0.0657
 1752SOL    HW116718   3.584   2.916  12.571  0.2957 -1.0584 -0.9601
 1752SOL    HW216719   3.722   2.870  12.602 -0.9407  0.9850 -4.1332
 1753SOL     OW16720   0.724   2.217   4.423 -0.3421 -0.3126  0.2164
 1753SOL    HW116721   0.647   2.270   4.443 -0.5358  0.2202 -1.9833
 1753SOL    HW216722   0.765   2.204   4.508  1.6745 -0.5108 -0.7869
 1754SOL     OW16723   3.619   3.110   5.044 -0.0449 -0.3782 -0.4292
 1754SOL    HW116724   3.715   3.111   5.051 -0.0170 -0.7879 -0.7870
 1754SOL    HW216725   3.606   3.104   4.950  0.8167  1.0843 -0.6444
 1755SOL     OW16726   1.572   4.629   9.378 -0.1654  0.0662 -0.2466
 1755SOL    HW116727   1.653   4.648   9.330 -0.1638  0.8806  0.0757
 1755SOL    HW216728   1.526   4.713   9.376 -3.7160 -1.8467  0.3332
 1756SOL     OW16729   1.676   2.224   1.822  0.2181  0.2635  0.5787
 1756SOL    HW116730   1.711   2.141   1.789  1.7058  0.1728  2.3559
 1756SOL    HW216731   1.657   2.273   1.742 -3.9359 -1.6520  0.4203
 1757SOL     OW16732   1.703   0.107   0.489  0.0817 -0.4133  0.0343
 1757SOL    HW116733   1.671   0.023   0.457 -1.7469 -0.0437  0.8916
 1757SOL    HW216734   1.618   0.150   0.499  0.1669 -0.9400  2.9240
 1758SOL     OW16735   1.647   3.440   6.208 -0.4412 -0.2966 -0.2923
 1758SOL    HW116736   1.564   3.483   6.188  0.4659  1.4974 -0.2068
 1758SOL    HW216737   1.670   3.388   6.131 -1.0013  0.6836 -1.1069
 1759SOL     OW16738   3.665   0.430   4.340 -0.2845  0.6946 -0.1189
 1759SOL    HW116739   3.719   0.419   4.262 -1.2341 -0.5569 -0.5880
 1759SOL    HW216740   3.613   0.350   4.330  2.4049 -1.0888 -0.0379
 1760SOL     OW16741   2.848   2.995   5.667 -0.5753 -0.1996 -0.3524
 1760SOL    HW116742   2.902   3.002   5.746  0.2628 -2.8033 -0.7026
 1760SOL    HW216743   2.765   3.009   5.711 -0.9976  1.3662 -1.6458
 1761SOL     OW16744   4.559   2.492   5.450 -0.1127 -0.5554  0.6309
 1761SOL    HW116745   4.528   2.496   5.360  1.5812  2.3683  0.1885
 1761SOL    HW216746   4.508   2.419   5.486 -0.5494 -0.3765  0.3844
 1762SOL     OW16747   1.228   0.578  17.639  0.5600  0.3287 -0.0670
 1762SOL    HW116748   1.302   0.579  17.577  1.3413 -0.6361  0.8503
 1762SOL    HW216749   1.216   0.670  17.661 -2.6764 -0.0688 -0.2416
 1763SOL     OW16750   4.055   3.858   2.621  0.3849  0.5113  0.7632
 1763SOL    HW116751   4.071   3.880   2.529  1.5797 -0.4377  0.7338
 1763SOL    HW216752   3.966   3.824   2.630  0.0906  0.8648 -0.8836
 1764SOL     OW16753   3.708   3.592   7.186 -0.4201  0.1496 -0.6947
 1764SOL    HW116754   3.704   3.678   7.228  0.4295 -0.0600 -0.1962
 1764SOL    HW216755   3.613   3.577   7.184 -0.5172  0.7458 -0.6293
 1765SOL     OW16756   2.310   1.445   6.695  0.4834 -0.6391 -0.3466
 1765SOL    HW116757   2.370   1.474   6.626  1.1388  0.3891  0.6569
 1765SOL    HW216758   2.318   1.350   6.681 -1.6774 -0.8419 -0.1804
 1766SOL     OW16759   1.418   1.417   1.040  0.3238  0.5691 -0.4734
 1766SOL    HW116760   1.330   1.383   1.058  0.3310  0.8828  0.1748
 1766SOL    HW216761   1.472   1.362   1.098 -0.9757 -0.2254 -0.0089
 1767SOL     OW16762   0.404   4.544   3.827 -0.0916  0.0200  0.1833
 1767SOL    HW116763   0.334   4.604   3.800 -1.1371 -1.9277 -1.4425
 1767SOL    HW216764   0.427   4.483   3.757 -0.0001 -1.4015  1.4532
 1768SOL     OW16765   1.725   0.645   4.683  0.6895  0.1074 -0.1060
 1768SOL    HW116766   1.763   0.669   4.768  1.8192  1.3553 -0.9754
 1768SOL    HW216767   1.729   0.734   4.650 -0.1821  0.2856  0.2531
 1769SOL     OW16768   2.096   2.558   6.744  0.3119  0.1251  0.3676
 1769SOL    HW116769   2.157   2.522   6.679 -1.1699  0.0079 -0.9618
 1769SOL    HW216770   2.060   2.634   6.698  0.8037  1.6841  2.5141
 1770SOL     OW16771   0.639   0.810  10.119 -0.4100 -0.4351  0.3777
 1770SOL    HW116772   0.610   0.724  10.151 -1.2794 -0.5584 -0.7259
 1770SOL    HW216773   0.680   0.789  10.035 -0.8011  2.2706 -0.4668
 1771SOL     OW16774   2.208   2.447   4.391  0.1094 -0.1969 -0.0363
 1771SOL    HW116775   2.135   2.451   4.453  0.8134  1.5722  0.6742
 1771SOL    HW216776   2.223   2.354   4.373  0.9586 -0.3837  1.6876
 1772SOL     OW16777   0.769   0.298   6.374  0.2369 -0.5206  0.0869
 1772SOL    HW116778   0.805   0.383   6.350  0.4797 -0.5666  0.2883
 1772SOL    HW216779   0.675   0.299   6.357  0.0814  0.5729  1.0436
 1773SOL     OW16780   0.804   4.434   5.059 -0.0834 -0.0918 -0.2059
 1773SOL    HW116781   0.868   4.475   5.001 -0.5321 -1.7137 -1.8619
 1773SOL    HW216782   0.726   4.466   5.015 -0.8682 -3.1976 -1.0949
 1774SOL     OW16783   4.565   3.788   6.591  0.4692  0.1237 -0.3742
 1774SOL    HW116784   4.612   3.735   6.655  2.2401  1.1959 -0.7821
 1774SOL    HW216785   4.605   3.754   6.511  0.7169 -0.0610 -0.1688
 1775SOL     OW16786   2.694   3.646   0.027  0.4916  0.7826  0.4069
 1775SOL    HW116787   2.692   3.649   0.123  1.2690  0.8363  0.4187
 1775SOL    HW216788   2.608   3.608   0.009  1.0253  0.0397 -0.5585
 1776SOL     OW16789   1.359   2.250   5.508  0.4566 -0.1024 -0.6292
 1776SOL    HW116790   1.413   2.267   5.432  1.5584 -1.0251 -0.0623
 1776SOL    HW216791   1.405   2.298   5.576  0.2652 -2.9239  1.5107
 1777SOL     OW16792   2.221   1.661   9.391 -0.2585 -0.5019 -0.2664
 1777SOL    HW116793   2.308   1.623   9.398  0.4216  1.1489  0.2112
 1777SOL    HW216794   2.154   1.592   9.393  1.0143 -1.6518  2.7853
 1778SOL     OW16795   2.030   2.235   4.726  0.2145 -0.6270 -0.1534
 1778SOL    HW116796   2.022   2.294   4.651 -0.0895  1.3849  1.4554
 1778SOL    HW216797   2.002   2.157   4.678  1.8519 -0.3248 -1.5818
 1779SOL     OW16798   4.383   3.423  10.335 -0.2638  0.5009 -0.3420
 1779SOL    HW116799   4.355   3.333  10.318  0.4740 -0.0558  1.4412
 1779SOL    HW216800   4.378   3.437  10.429  0.4714  1.2274 -0.4090
 1780SOL     OW16801   3.339   2.192   1.721  0.1109  0.0685 -0.0230
 1780SOL    HW116802   3.309   2.214   1.633  0.5510 -0.2126 -0.2375
 1780SOL    HW216803   3.255   2.170   1.762 -0.4230  1.2930 -0.4595
 1781SOL     OW16804   3.042   0.672   6.381  0.0403  0.3182  0.1407
 1781SOL    HW116805   3.075   0.713   6.461  0.5706  0.7803 -0.3169
 1781SOL    HW216806   2.956   0.640   6.409  1.0258 -1.7174  0.8758
 1782SOL     OW16807   3.087   0.048   2.297 -0.0073 -0.2629  0.3341
 1782SOL    HW116808   3.000   0.086   2.304 -0.1084 -0.1490 -1.4763
 1782SOL    HW216809   3.126   0.091   2.221 -1.9694  1.1437  0.1424
 1783SOL     OW16810   1.725   2.001   5.025 -0.0881 -0.5744 -0.3062
 1783SOL    HW116811   1.761   1.980   4.938 -0.4082  0.6255 -0.7347
 1783SOL    HW216812   1.631   1.992   5.009  0.3477 -1.9521 -2.1331
 1784SOL     OW16813   4.195   1.794   7.935 -0.2267 -0.2217 -0.1148
 1784SOL    HW116814   4.238   1.713   7.907  3.4430  0.7048  2.8097
 1784SOL    HW216815   4.139   1.810   7.860 -0.2156  1.8046  0.3178
 1785SOL     OW16816   0.280   2.744   5.658 -0.6833 -0.3059 -0.1179
 1785SOL    HW116817   0.208   2.739   5.595 -0.7811 -1.0959  0.0643
 1785SOL    HW216818   0.302   2.653   5.679 -1.6077 -0.4043  0.4084
 1786SOL     OW16819   0.574   2.389   3.466 -0.2706 -0.1065 -0.2057
 1786SOL    HW116820   0.600   2.457   3.403 -0.1977  0.0047 -0.0537
 1786SOL    HW216821   0.661   2.351   3.480  0.0073  0.2056 -1.0458
 1787SOL     OW16822   3.436   0.971   8.488 -0.7159 -0.1872  0.1736
 1787SOL    HW116823   3.515   0.972   8.435  0.2680 -1.3557  1.6339
 1787SOL    HW216824   3.365   0.996   8.428 -0.3623  1.5888  0.4910
 1788SOL     OW16825   4.041   4.489   3.860  0.0175  0.1837 -0.0100
 1788SOL    HW116826   4.124   4.447   3.880  1.0720  1.5086 -1.6320
 1788SOL    HW216827   4.020   4.550   3.931 -1.5691  0.6372 -0.8745
 1789SOL     OW16828   4.142   1.238   2.115 -0.4092 -0.2125  0.2204
 1789SOL    HW116829   4.085   1.309   2.085 -0.5640 -0.1370  0.6931
 1789SOL    HW216830   4.195   1.228   2.036 -0.7461  1.7120 -0.2542
 1790SOL     OW16831   0.227   1.417   4.008 -0.0324 -0.3265 -0.0984
 1790SOL    HW116832   0.302   1.361   4.030 -1.5264 -1.0758  3.1234
 1790SOL    HW216833   0.195   1.423   4.098 -0.7784  1.4092 -0.4876
 1791SOL     OW16834   0.189   3.044   4.940 -0.5810  0.3711 -0.7574
 1791SOL    HW116835   0.104   3.047   4.897 -1.5911  1.7808  1.3749
 1791SOL    HW216836   0.212   2.952   4.923  2.4197  0.9981 -0.0525
 1792SOL     OW16837   2.082   2.884  14.060 -0.2863  0.3201  0.1476
 1792SOL    HW116838   2.156   2.930  14.020 -0.0315 -1.7141 -1.6927
 1792SOL    HW216839   2.126   2.847  14.137  2.3661 -1.9890 -2.5153
 1793SOL     OW16840   4.073   0.428   4.585 -0.7709  0.1002  0.4778
 1793SOL    HW116841   3.994   0.460   4.541 -0.3477  0.6908  0.1438
 1793SOL    HW216842   4.137   0.468   4.526  1.5729 -2.2433  1.4380
 1794SOL     OW16843   1.911   2.334   8.065 -0.1270 -0.2429  0.1538
 1794SOL    HW116844   1.946   2.390   8.134  0.5944  1.2179 -1.3799
 1794SOL    HW216845   1.900   2.393   7.990  1.3524  0.0175  0.1361
 1795SOL     OW16846   4.119   2.504  12.825  0.5251 -0.5763 -0.1254
 1795SOL    HW116847   4.161   2.531  12.743 -1.2907  1.4301 -0.4010
 1795SOL    HW216848   4.028   2.534  12.821  0.7150  0.2962  2.2753
 1796SOL     OW16849   2.214   3.622  15.677 -0.0179  0.1762  0.0790
 1796SOL    HW116850   2.301   3.633  15.637  0.1830 -0.2288  0.4090
 1796SOL    HW216851   2.195   3.703  15.725  0.4097  1.1240 -1.3217
 1797SOL     OW16852   4.517   4.285   5.159  0.5568 -0.1534 -0.1074
 1797SOL    HW116853   4.586   4.323   5.214  0.7795 -0.7313  0.0207
 1797SOL    HW216854   4.558   4.200   5.140  1.1216  0.2114 -0.5285
 1798SOL     OW16855   1.167   1.618   5.473  0.1697  0.4587 -0.0814
 1798SOL    HW116856   1.126   1.584   5.393 -0.5838  0.3955  0.3290
 1798SOL    HW216857   1.155   1.712   5.461 -1.3905  0.3660  0.6678
 1799SOL     OW16858   4.395   3.930   7.982  0.4144  1.0092 -0.2160
 1799SOL    HW116859   4.400   3.853   8.039 -0.8551 -0.2277 -1.7554
 1799SOL    HW216860   4.368   3.882   7.903  1.2758 -0.4016  0.3431
 1800SOL     OW16861   3.497   1.137   6.053 -0.7499 -0.0424  0.4658
 1800SOL    HW116862   3.423   1.184   6.091 -0.3443  1.2748 -0.3586
 1800SOL    HW216863   3.458   1.127   5.966  0.2498 -2.5607  0.3120
 1801SOL     OW16864   1.413   4.098   3.184 -0.4706 -0.0398  0.1684
 1801SOL    HW116865   1.410   4.187   3.149 -0.4817 -1.4332 -3.2983
 1801SOL    HW216866   1.472   4.060   3.119  1.2782 -0.2177  1.8464
 1802SOL     OW16867   2.893   2.346   2.093  0.1393  0.8232  0.4753
 1802SOL    HW116868   2.875   2.252   2.089 -0.1386  0.9421 -0.9888
 1802SOL    HW216869   2.952   2.340   2.168 -1.4611 -0.3912  1.6323
 1803SOL     OW16870   3.126   4.690   5.640 -0.1367 -0.5280  0.5750
 1803SOL    HW116871   3.090   4.624   5.580  0.9140  0.5914 -1.2818
 1803SOL    HW216872   3.218   4.687   5.614 -0.1358 -0.5349  0.5788
 1804SOL     OW16873   3.115   2.978   7.527 -0.7927 -0.0472  0.2360
 1804SOL    HW116874   3.107   2.965   7.622  0.2872 -1.5480  0.1224
 1804SOL    HW216875   3.028   3.018   7.524 -0.3787  0.7915 -0.4132
 1805SOL     OW16876   1.843   0.773  10.068 -0.2298 -0.3051 -0.4672
 1805SOL    HW116877   1.775   0.815  10.120 -0.2605  0.2213 -0.9351
 1805SOL    HW216878   1.922   0.786  10.121  1.2851  1.3529 -3.1266
 1806SOL     OW16879   1.553   4.694   4.539  0.1496 -0.1589  0.0986
 1806SOL    HW116880   1.572   4.654   4.454  0.0686  1.7228 -0.8080
 1806SOL    HW216881   1.641   4.711   4.574 -1.0291  1.2211  2.4116
 1807SOL     OW16882   2.231   1.227   2.565 -0.1122  0.0992 -0.1431
 1807SOL    HW116883   2.154   1.228   2.622 -0.8761  0.3986 -1.1684
 1807SOL    HW216884   2.181   1.236   2.484 -0.7288  0.6788  0.2965
 1808SOL     OW16885   2.944   4.308  15.997  0.2977 -0.9197 -0.1440
 1808SOL    HW116886   2.902   4.225  15.975  0.9917 -1.3826  0.2840
 1808SOL    HW216887   2.960   4.300  16.091  0.0193  1.3258  0.1033
 1809SOL     OW16888   2.818   0.139   8.149  0.5220  0.2757  0.0533
 1809SOL    HW116889   2.753   0.083   8.191  0.7719  0.3920  0.5966
 1809SOL    HW216890   2.835   0.110   8.059  2.4109 -0.9732  0.8031
 1810SOL     OW16891   4.590   4.063   2.833  0.5617 -0.0092  0.0397
 1810SOL    HW116892   4.553   4.114   2.761  1.4015  0.4880 -0.0391
 1810SOL    HW216893   4.681   4.092   2.834  0.7832 -0.7398  0.6872
 1811SOL     OW16894   3.964   3.886  11.586 -0.7118  0.0101  0.3992
 1811SOL    HW116895   3.883   3.841  11.607  0.0004 -0.5294  1.9633
 1811SOL    HW216896   3.942   3.915  11.497 -0.9466  1.4839  0.9280
 1812SOL     OW16897   0.648   1.949  12.363  0.8895 -0.0796  0.0456
 1812SOL    HW116898   0.633   2.043  12.363 -0.0826 -0.2346  1.2369
 1812SOL    HW216899   0.625   1.923  12.452 -0.0472  0.9596  0.1032
 1813SOL     OW16900   0.283   4.358   9.182  0.5608 -0.0768  0.0085
 1813SOL    HW116901   0.346   4.363   9.111  0.7263 -0.9403  0.0946
 1813SOL    HW216902   0.219   4.301   9.141  2.0048  0.8010 -3.4222
 1814SOL     OW16903   0.283   1.005  16.693  0.0780 -0.0861  0.7130
 1814SOL    HW116904   0.232   1.083  16.715 -0.6609  0.0152 -1.2880
 1814SOL    HW216905   0.282   0.956  16.774  1.0222 -0.5319  0.4576
 1815SOL     OW16906   0.800   1.901   8.044 -0.1307 -0.1575  0.6515
 1815SOL    HW116907   0.856   1.896   8.121  0.7223  3.3723  0.2082
 1815SOL    HW216908   0.742   1.975   8.062 -0.8681 -0.5037 -0.2797
 1816SOL     OW16909   0.996   3.544  13.554 -0.3872  0.0477  0.1982
 1816SOL    HW116910   0.948   3.543  13.637 -0.0918  0.5070  0.3729
 1816SOL    HW216911   1.082   3.534  13.594 -0.1132 -1.4489 -0.7565
 1817SOL     OW16912   2.918   1.802   1.631 -0.5168 -0.0137 -0.0503
 1817SOL    HW116913   2.936   1.723   1.580 -0.7934 -0.7629  1.0037
 1817SOL    HW216914   2.968   1.787   1.711 -0.3618 -1.1585 -0.3643
 1818SOL     OW16915   1.175   1.496   2.996 -0.6663 -0.1103  0.2619
 1818SOL    HW116916   1.229   1.440   2.940  0.5155 -2.0238  3.3136
 1818SOL    HW216917   1.088   1.471   2.966 -0.7126 -0.1713  0.4434
 1819SOL     OW16918   2.879   0.357  15.486  0.2858  0.3963 -0.2687
 1819SOL    HW116919   2.828   0.377  15.407  1.1147 -0.7162 -1.0973
 1819SOL    HW216920   2.950   0.301  15.453  0.8467  3.1994 -3.8250
 1820SOL     OW16921   0.849   0.763   2.720  0.2765 -0.8616  0.1165
 1820SOL    HW116922   0.798   0.766   2.802  0.5805 -0.7302  0.2977
 1820SOL    HW216923   0.876   0.853   2.707  1.1035 -1.0570  0.5094
 1821SOL     OW16924   4.126   1.420  13.621  0.1615 -0.3808 -0.2139
 1821SOL    HW116925   4.183   1.405  13.546 -0.7766 -1.9247 -0.6247
 1821SOL    HW216926   4.047   1.461  13.585 -0.8551 -0.4837  1.8891
 1822SOL     OW16927   3.599   4.558   1.149 -0.0828  0.0077  0.1142
 1822SOL    HW116928   3.614   4.652   1.137  0.4051  0.0808  1.3448
 1822SOL    HW216929   3.661   4.519   1.088  2.1020  2.2784  0.8547
 1823SOL     OW16930   1.010   3.605  14.013 -0.0811  0.0047 -0.0487
 1823SOL    HW116931   1.063   3.554  14.075 -3.1366 -1.9540  0.9990
 1823SOL    HW216932   0.988   3.675  14.075  1.0863  1.0244 -0.7992
 1824SOL     OW16933   3.999   0.872   3.596  0.0297 -0.3138  0.0966
 1824SOL    HW116934   4.084   0.904   3.569  0.5983 -0.8560  1.2199
 1824SOL    HW216935   4.027   0.841   3.682 -0.0701 -0.2541  0.1512
 1825SOL     OW16936   4.502   3.932   3.383  0.5782 -0.6095 -0.3225
 1825SOL    HW116937   4.416   3.923   3.341  1.4991 -3.3088 -1.6465
 1825SOL    HW216938   4.547   3.847   3.379  2.6120  0.5331 -1.6773
 1826SOL     OW16939   4.509   2.848  14.901  0.0035 -0.3739  0.5741
 1826SOL    HW116940   4.443   2.901  14.857  0.8132  0.5482  0.4542
 1826SOL    HW216941   4.578   2.857  14.835  0.1758  0.6771  0.8892
 1827SOL     OW16942   1.403   3.792   4.996 -0.0972  0.5070 -0.1388
 1827SOL    HW116943   1.409   3.858   4.926 -1.3549 -0.5413 -1.2331
 1827SOL    HW216944   1.383   3.845   5.073 -2.2229  1.2247 -1.1672
 1828SOL     OW16945   2.086   4.571   7.144  0.2571 -0.6485  0.4264
 1828SOL    HW116946   2.044   4.569   7.058  0.2861 -2.1791  0.4487
 1828SOL    HW216947   2.148   4.640   7.122 -0.9640  0.3039  0.0055
 1829SOL     OW16948   0.785   3.892   8.544 -0.5014  0.0595 -0.2100
 1829SOL    HW116949   0.728   3.890   8.468 -0.2455 -0.8450 -0.3766
 1829SOL    HW216950   0.772   3.803   8.575  2.6026 -0.2641  0.2223
 1830SOL     OW16951   3.561   0.037   3.830 -0.1508 -0.1965  0.4265
 1830SOL    HW116952   3.590   4.699   3.763 -0.1634 -1.8888  2.0204
 1830SOL    HW216953   3.467   0.023   3.828 -0.2235  0.1778  1.3591
 1831SOL     OW16954   0.774   3.513  11.011 -0.0022 -0.0749 -0.0956
 1831SOL    HW116955   0.832   3.482  11.080 -0.4147 -0.3176  0.1472
 1831SOL    HW216956   0.686   3.493  11.045  0.1912  0.7053  0.8692
 1832SOL     OW16957   1.774   3.117   8.413 -0.5770  0.1130 -0.4400
 1832SOL    HW116958   1.828   3.064   8.470  1.4074  3.0767  0.4300
 1832SOL    HW216959   1.755   3.191   8.470  0.9293  1.2324 -1.3768
 1833SOL     OW16960   2.948   0.849   4.818  0.3630 -0.6927 -0.8842
 1833SOL    HW116961   3.033   0.807   4.805  0.0840 -0.9746 -1.7527
 1833SOL    HW216962   2.905   0.782   4.872  0.0521  1.0677  1.0631
 1834SOL     OW16963   2.635   1.401   0.903  0.8208 -0.7848 -0.2353
 1834SOL    HW116964   2.635   1.469   0.836 -0.6362 -0.8002 -0.2559
 1834SOL    HW216965   2.586   1.334   0.856  0.0045 -0.9415  0.8241
 1835SOL     OW16966   0.186   0.765   7.214  0.2475 -0.1132 -0.4288
 1835SOL    HW116967   0.231   0.728   7.289 -1.5919 -2.2905 -0.3986
 1835SOL    HW216968   0.179   0.703   7.141 -0.2022  1.4084 -1.6980
 1836SOL     OW16969   0.877   1.836  10.950  1.0649 -0.1894 -0.3200
 1836SOL    HW116970   0.798   1.825  10.897  0.2902 -2.2373  1.2925
 1836SOL    HW216971   0.850   1.890  11.024  1.3125 -2.2732  1.2672
 1837SOL     OW16972   1.679   2.186   4.704 -0.1419 -0.7104 -0.2365
 1837SOL    HW116973   1.629   2.191   4.786  0.6089 -3.7282  0.4016
 1837SOL    HW216974   1.711   2.096   4.709  1.4753 -0.1253  0.0099
 1838SOL     OW16975   2.735   0.161  11.752 -0.5411  0.7325 -0.5561
 1838SOL    HW116976   2.753   0.215  11.829 -0.6286 -0.6988  0.4660
 1838SOL    HW216977   2.706   0.228  11.690 -0.1680  0.5321 -0.9429
 1839SOL     OW16978   1.691   0.958   0.906  1.0247  0.0443  0.2114
 1839SOL    HW116979   1.713   0.962   0.813  0.9219 -0.2172  0.1761
 1839SOL    HW216980   1.633   0.881   0.902 -1.6778  2.0728  0.3677
 1840SOL     OW16981   2.164   1.359   7.694 -0.2039  0.3530  0.1653
 1840SOL    HW116982   2.154   1.347   7.599  1.6413  1.3404 -0.1403
 1840SOL    HW216983   2.212   1.441   7.697 -0.7161  0.6404  0.5314
 1841SOL     OW16984   2.410   3.222   3.471  0.4942  0.0992 -0.2409
 1841SOL    HW116985   2.370   3.286   3.529  1.4995  2.5329 -2.2277
 1841SOL    HW216986   2.362   3.144   3.499  1.1605 -0.1303  0.2633
 1842SOL     OW16987   0.916   0.340   4.887  0.6218 -0.2591  0.5527
 1842SOL    HW116988   0.968   0.261   4.900  1.4741  0.5803  2.1645
 1842SOL    HW216989   0.970   0.395   4.831 -0.2288 -1.3362 -1.3396
 1843SOL     OW16990   0.494   0.876  14.817  0.0889  0.2305 -0.7001
 1843SOL    HW116991   0.488   0.962  14.775 -1.1711  1.1278  1.3188
 1843SOL    HW216992   0.404   0.844  14.818 -0.4964  1.8716 -0.5516
 1844SOL     OW16993   3.609   2.915  15.725 -0.1136  0.1043 -0.1941
 1844SOL    HW116994   3.517   2.905  15.746  0.0198  0.1256  0.3832
 1844SOL    HW216995   3.633   2.826  15.700  0.6110 -0.4824  2.6836
 1845SOL     OW16996   2.342   2.102   5.446 -0.6970 -0.4209  0.3299
 1845SOL    HW116997   2.247   2.103   5.462 -0.9166 -0.3384 -0.9432
 1845SOL    HW216998   2.347   2.181   5.392 -2.2379  0.5256  1.5603
 1846SOL     OW16999   4.665   4.291   1.761 -0.7786 -0.7114 -0.2957
 1846SOL    HW117000   4.683   4.220   1.699 -1.0515 -1.5831  0.6319
 1846SOL    HW217001   4.706   4.362   1.711  0.5800 -0.8436  0.6269
 1847SOL     OW17002   1.917   3.159  15.384 -0.0679  0.5828  0.1332
 1847SOL    HW117003   1.994   3.117  15.345 -0.7815 -1.8362  1.3349
 1847SOL    HW217004   1.965   3.215  15.446  0.7323  0.3810 -0.2988
 1848SOL     OW17005   4.219   2.074   2.768 -0.6712  0.0694 -0.0340
 1848SOL    HW117006   4.136   2.098   2.727  0.1751  1.8231 -0.7474
 1848SOL    HW217007   4.272   2.142   2.724  0.0131  1.1751  2.4961
 1849SOL     OW17008   4.189   0.321   6.050  0.3353  0.0219  0.4611
 1849SOL    HW117009   4.220   0.410   6.033  1.2799  0.0908  2.4462
 1849SOL    HW217010   4.230   0.268   5.981  1.7856  2.9769 -0.9280
 1850SOL     OW17011   3.321   0.468   4.266 -0.1505 -0.0654 -0.6192
 1850SOL    HW117012   3.306   0.399   4.331  0.9411  0.0007 -0.3049
 1850SOL    HW217013   3.363   0.539   4.314  0.4953  0.5879 -2.1454
 1851SOL     OW17014   1.019   1.208   9.917  0.0687 -0.3937  0.1897
 1851SOL    HW117015   1.059   1.265   9.983  1.4786 -1.6633  0.4379
 1851SOL    HW217016   0.952   1.270   9.888  2.1094  0.5545 -2.5901
 1852SOL     OW17017   3.270   2.668   5.476  0.1104 -0.1349 -0.6933
 1852SOL    HW117018   3.268   2.739   5.412  0.1751  0.7584  0.2908
 1852SOL    HW217019   3.237   2.710   5.555  0.9099  1.1744 -1.0607
 1853SOL     OW17020   3.952   0.875   8.300 -0.7683 -0.0519  0.4309
 1853SOL    HW117021   3.957   0.794   8.249  2.1190  1.3314 -1.4650
 1853SOL    HW217022   3.895   0.929   8.245 -0.6295  0.7150  1.0415
 1854SOL     OW17023   1.934   4.040   7.947  0.0246 -0.1512  0.7733
 1854SOL    HW117024   1.895   4.020   7.862 -1.5375  0.9473  1.2292
 1854SOL    HW217025   1.937   3.954   7.988 -1.3396 -0.0418  1.1000
 1855SOL     OW17026   1.141   3.279   6.965 -0.0923 -0.7120 -0.2558
 1855SOL    HW117027   1.187   3.207   6.921  0.2195  0.5614 -2.0209
 1855SOL    HW217028   1.189   3.353   6.927 -0.2535 -0.4127  0.1243
 1856SOL     OW17029   2.292   2.333   3.269  0.2186  0.3532 -0.2749
 1856SOL    HW117030   2.343   2.262   3.230  0.5830 -0.5573  1.8295
 1856SOL    HW217031   2.364   2.372   3.318  0.2607  0.4646 -0.4268
 1857SOL     OW17032   1.999   1.543   1.833 -0.0921 -0.7538  0.5301
 1857SOL    HW117033   2.081   1.588   1.812 -1.2562  1.3611  0.4930
 1857SOL    HW217034   1.935   1.604   1.798 -0.5843  0.0267  2.8387
 1858SOL     OW17035   2.387   0.312   8.762  0.3164 -0.2109 -0.3847
 1858SOL    HW117036   2.433   0.242   8.716 -0.3199 -3.1079  3.4157
 1858SOL    HW217037   2.358   0.262   8.838 -0.8333  2.0709  0.6662
 1859SOL     OW17038   1.112   1.028   0.932 -0.4880  0.1026  0.5477
 1859SOL    HW117039   1.156   0.959   0.883 -1.8737  0.7319 -1.5988
 1859SOL    HW217040   1.101   0.976   1.011  2.0076 -2.8696 -1.0556
 1860SOL     OW17041   0.153   1.075   4.228 -0.2023  0.0544 -0.0242
 1860SOL    HW117042   0.104   1.156   4.213  1.1039  0.7477 -0.5166
 1860SOL    HW217043   0.168   1.079   4.323 -0.9616  0.8867  0.0565
 1861SOL     OW17044   4.115   1.819  12.133 -0.4913 -0.0428  0.3891
 1861SOL    HW117045   4.152   1.891  12.082 -0.2754 -0.3480  0.1176
 1861SOL    HW217046   4.124   1.847  12.224  0.5357  3.2998 -0.7536
 1862SOL     OW17047   2.872   2.057   8.859  0.1673 -0.1272  0.4100
 1862SOL    HW117048   2.936   2.007   8.910 -0.0103  0.3827  1.1422
 1862SOL    HW217049   2.899   2.146   8.884  0.9369 -0.1297 -0.4151
 1863SOL     OW17050   4.036   1.228  11.017  0.3134 -0.4557  0.5200
 1863SOL    HW117051   3.998   1.185  10.940 -0.7311 -0.1027  0.8399
 1863SOL    HW217052   4.073   1.152  11.062  1.4508  1.3800  2.7039
 1864SOL     OW17053   3.381   0.798   6.512 -0.1615  0.4426  0.6839
 1864SOL    HW117054   3.383   0.833   6.423  1.4799  0.2265  0.6401
 1864SOL    HW217055   3.398   0.704   6.500  1.0224  0.5772  1.2780
 1865SOL     OW17056   1.715   3.183  17.249 -0.0796 -0.3314 -0.2937
 1865SOL    HW117057   1.671   3.162  17.332 -0.7136 -0.0530 -0.5611
 1865SOL    HW217058   1.643   3.183  17.186 -0.3361 -1.5580 -0.0010
 1866SOL     OW17059   2.759   1.260   9.821 -0.4400 -0.4093 -0.6259
 1866SOL    HW117060   2.704   1.182   9.826 -0.0814 -0.6854 -1.0479
 1866SOL    HW217061   2.717   1.297   9.899 -0.8366 -0.1168 -0.9774
 1867SOL     OW17062   0.313   1.037   3.882  0.3801  0.1903  0.3035
 1867SOL    HW117063   0.219   1.048   3.871  0.3481  0.6988  1.0872
 1867SOL    HW217064   0.339   1.067   3.795  1.9431 -1.0773  0.3339
 1868SOL     OW17065   3.652   4.469   4.291 -0.5026  0.1141 -0.1624
 1868SOL    HW117066   3.575   4.484   4.237  0.4954  0.8617 -1.3684
 1868SOL    HW217067   3.626   4.526   4.363 -1.6793 -1.0822  0.3675
 1869SOL     OW17068   1.647   3.646   1.342  0.2381 -0.4232  0.0126
 1869SOL    HW117069   1.664   3.692   1.424  0.5724  1.0340 -0.8727
 1869SOL    HW217070   1.686   3.709   1.282  1.0254 -0.5345  0.4022
 1870SOL     OW17071   2.561   1.968  16.955 -0.0106  0.1069  0.5693
 1870SOL    HW117072   2.583   1.975  16.862 -0.1852 -2.3740  0.3449
 1870SOL    HW217073   2.487   2.028  16.957 -0.3149 -0.2434 -0.4235
 1871SOL     OW17074   0.260   0.449   1.815 -0.2922 -0.0904 -0.2689
 1871SOL    HW117075   0.276   0.419   1.725  2.0509  0.7189 -0.1222
 1871SOL    HW217076   0.334   0.412   1.863 -1.2666 -2.9216 -0.9461
 1872SOL     OW17077   2.760   3.964   7.386  0.0840  0.3282 -0.0271
 1872SOL    HW117078   2.842   3.983   7.432  0.9468  2.5779 -2.4280
 1872SOL    HW217079   2.786   3.883   7.342 -1.7945 -0.7050  0.8237
 1873SOL     OW17080   3.190   3.762   0.689  0.1864 -1.0062  0.0715
 1873SOL    HW117081   3.148   3.823   0.750 -0.6018 -2.0254  0.5412
 1873SOL    HW217082   3.277   3.761   0.727 -0.7348 -1.5162  2.1627
 1874SOL     OW17083   2.128   0.801   7.200 -0.0973 -0.7006 -0.5119
 1874SOL    HW117084   2.174   0.760   7.126  0.4351  0.8152 -1.0121
 1874SOL    HW217085   2.038   0.773   7.182  0.0785 -3.6545  3.1780
 1875SOL     OW17086   3.694   0.720   8.244 -0.1610 -0.5431 -0.0825
 1875SOL    HW117087   3.779   0.700   8.204  0.4081  4.2829 -1.3448
 1875SOL    HW217088   3.682   0.629   8.272 -1.7325 -0.2786  0.1085
 1876SOL     OW17089   3.638   1.229   4.462  0.2047  0.0244  0.2927
 1876SOL    HW117090   3.569   1.210   4.525  0.2103  3.1497  1.2185
 1876SOL    HW217091   3.598   1.298   4.409 -0.2626 -2.2246 -2.3239
 1877SOL     OW17092   0.287   3.218   5.785 -0.1377 -0.3709 -0.4949
 1877SOL    HW117093   0.350   3.158   5.747  0.5259  0.6039 -0.9458
 1877SOL    HW217094   0.213   3.218   5.724 -0.4119 -1.2800 -0.1544
 1878SOL     OW17095   1.708   1.204   2.897  0.0901 -0.0554 -0.2704
 1878SOL    HW117096   1.712   1.169   2.808  1.5506 -0.5496  0.0050
 1878SOL    HW217097   1.797   1.185   2.925  0.1629  2.4268  1.2505
 1879SOL     OW17098   3.134   4.046   8.085 -0.0457 -0.3256 -0.1436
 1879SOL    HW117099   3.078   3.969   8.076 -0.5092  0.2431 -2.0694
 1879SOL    HW217100   3.169   4.028   8.172  0.2994 -0.8742 -0.4036
 1880SOL     OW17101   1.978   2.052   5.770 -0.8510  0.5435  0.0122
 1880SOL    HW117102   2.008   2.093   5.851  2.0363  0.9919 -1.2616
 1880SOL    HW217103   2.031   1.973   5.771 -0.9391  0.5059  1.1756
 1881SOL     OW17104   2.995   1.675  13.527 -0.2806 -0.2141 -1.2452
 1881SOL    HW117105   2.962   1.627  13.603  0.0632  0.6514 -0.5499
 1881SOL    HW217106   3.087   1.648  13.528 -0.7211 -1.6884 -2.4326
 1882SOL     OW17107   0.687   1.445   2.934  0.8118 -0.0434 -0.5988
 1882SOL    HW117108   0.703   1.504   2.861 -0.0212 -1.4585 -1.9440
 1882SOL    HW217109   0.636   1.505   2.988  1.7385 -1.2253  1.5761
 1883SOL     OW17110   1.698   3.721   6.815  0.0090 -0.0354  0.3570
 1883SOL    HW117111   1.700   3.726   6.910 -0.5516 -0.6059  0.3977
 1883SOL    HW217112   1.702   3.814   6.791  2.0343 -0.3179 -0.3677
 1884SOL     OW17113   4.626   2.323   8.968  0.7672  0.4504  0.0644
 1884SOL    HW117114   4.629   2.379   9.046  1.5388  3.4712 -2.1390
 1884SOL    HW217115   4.636   2.237   9.008  2.2680  0.2838 -0.6927
 1885SOL     OW17116   3.934   2.448  15.295  0.4788  0.3434 -0.5074
 1885SOL    HW117117   4.013   2.500  15.283 -0.0919  1.3285  0.0412
 1885SOL    HW217118   3.895   2.502  15.363 -1.8054 -2.0869  0.1403
 1886SOL     OW17119   2.599   0.253  10.463  0.1757 -0.5629 -0.7218
 1886SOL    HW117120   2.682   0.260  10.512 -0.1860 -1.4815  0.0316
 1886SOL    HW217121   2.576   0.161  10.451 -0.4688 -0.5531  0.4777
 1887SOL     OW17122   2.753   3.912  12.956 -0.3825  0.2796  0.4440
 1887SOL    HW117123   2.806   3.899  12.877 -1.4806 -2.2495  0.1173
 1887SOL    HW217124   2.681   3.956  12.910 -0.1350  0.7747  0.5290
 1888SOL     OW17125   3.548   1.780   7.929  0.6598 -0.1968 -0.1246
 1888SOL    HW117126   3.479   1.771   7.863 -0.6899  1.0826  1.1148
 1888SOL    HW217127   3.591   1.859   7.897  0.5559  0.1054  0.4879
 1889SOL     OW17128   2.749   3.178   8.601 -0.1216 -0.4609 -0.6279
 1889SOL    HW117129   2.655   3.196   8.610 -0.0875 -0.8863  0.6846
 1889SOL    HW217130   2.783   3.264   8.625 -0.2321 -0.1646 -1.5457
 1890SOL     OW17131   3.000   0.137  16.321 -0.5850 -0.7446  0.6512
 1890SOL    HW117132   3.062   0.163  16.389 -0.0243  1.3665 -0.6556
 1890SOL    HW217133   2.935   0.207  16.308 -0.8229 -0.7952  1.5571
 1891SOL     OW17134   0.488   3.976   2.200 -0.7337  0.5677 -0.2470
 1891SOL    HW117135   0.429   4.031   2.147 -2.7699  0.6698  2.0929
 1891SOL    HW217136   0.569   3.982   2.151 -1.3256 -1.1888 -1.4125
 1892SOL     OW17137   0.065   3.222   5.633  0.0027  0.0095  0.8730
 1892SOL    HW117138   0.039   3.130   5.631  1.5875 -0.4448  1.2903
 1892SOL    HW217139   4.715   3.258   5.585  0.4213  0.2599  0.4176
 1893SOL     OW17140   2.882   4.259   2.492  0.1229 -0.0657 -0.1584
 1893SOL    HW117141   2.931   4.319   2.548 -2.8115  3.4633 -1.3539
 1893SOL    HW217142   2.799   4.307   2.488  0.5374  0.6742  0.1147
 1894SOL     OW17143   4.347   0.197   5.455  0.1043 -0.4798 -0.3920
 1894SOL    HW117144   4.267   0.143   5.453 -0.0129 -0.3557  0.7184
 1894SOL    HW217145   4.332   0.277   5.506 -0.2269 -1.2322  0.6934
 1895SOL     OW17146   2.007   4.278  14.812  0.5115  1.1835 -0.7510
 1895SOL    HW117147   1.970   4.269  14.900  1.6502 -1.7252 -0.5728
 1895SOL    HW217148   2.097   4.247  14.818  0.9845  2.5762 -0.5914
 1896SOL     OW17149   3.452   1.554   4.732  0.5476 -0.2398 -0.5165
 1896SOL    HW117150   3.398   1.475   4.718  2.8640 -1.6873 -1.2657
 1896SOL    HW217151   3.524   1.536   4.672 -0.5490 -2.0874 -1.2947
 1897SOL     OW17152   1.944   3.494   7.899 -0.4852 -0.3540  0.2915
 1897SOL    HW117153   1.926   3.509   7.807  1.1457 -1.4685 -0.2215
 1897SOL    HW217154   1.873   3.434   7.923 -2.0472  1.9317  1.3627
 1898SOL     OW17155   0.443   3.898   7.189  0.3473  0.3521 -0.0913
 1898SOL    HW117156   0.361   3.922   7.145  0.8052  1.7170 -0.2099
 1898SOL    HW217157   0.469   3.813   7.155  0.4147  1.2170 -2.1922
 1899SOL     OW17158   3.365   1.695  17.522  0.4944  0.7231 -0.0044
 1899SOL    HW117159   3.327   1.772  17.481  1.4823  1.7301  0.9807
 1899SOL    HW217160   3.289   1.642  17.546 -0.4275  2.9578  2.0310
 1900SOL     OW17161   4.245   4.166   5.468  0.0121 -0.1219 -0.4422
 1900SOL    HW117162   4.198   4.208   5.540  1.1478  0.0026  0.2242
 1900SOL    HW217163   4.269   4.247   5.422 -0.0334 -0.2179 -0.6341
 1901SOL     OW17164   1.269   2.697   1.757  0.1276 -0.0158 -0.5709
 1901SOL    HW117165   1.273   2.792   1.772 -0.5284 -0.0462 -0.1943
 1901SOL    HW217166   1.174   2.686   1.750 -0.0276  0.8018  0.1616
 1902SOL     OW17167   0.746   2.422   5.106  0.0026  0.1814  0.4271
 1902SOL    HW117168   0.831   2.461   5.087 -0.8242  0.8886 -1.8780
 1902SOL    HW217169   0.716   2.480   5.176 -0.2622  2.2503 -1.3924
 1903SOL     OW17170   1.050   4.069   2.099  0.3058  0.3649 -0.5639
 1903SOL    HW117171   1.052   3.974   2.088  0.5701  0.2949  0.1299
 1903SOL    HW217172   0.988   4.085   2.170  0.6144 -0.3695 -0.1328
 1904SOL     OW17173   4.132   4.265  11.208  0.0332  0.4953 -0.6060
 1904SOL    HW117174   4.117   4.355  11.178 -0.9989  0.8465  0.9602
 1904SOL    HW217175   4.084   4.265  11.290 -0.7007  1.0467 -1.0370
 1905SOL     OW17176   4.231   1.697   3.991 -0.3558 -0.4221  0.0238
 1905SOL    HW117177   4.281   1.753   3.931 -1.3375  2.1323  1.5799
 1905SOL    HW217178   4.238   1.738   4.077  0.5554  0.4537 -0.4683
 1906SOL     OW17179   0.669   3.975   6.570 -0.3169  0.0498 -0.2612
 1906SOL    HW117180   0.624   4.029   6.634 -0.5920 -0.0334 -0.3802
 1906SOL    HW217181   0.641   3.891   6.607  1.8898  0.6201  2.5928
 1907SOL     OW17182   0.666   2.701   2.299 -0.2062 -0.1247  0.3096
 1907SOL    HW117183   0.616   2.630   2.338  2.8661 -1.2875  2.1407
 1907SOL    HW217184   0.680   2.667   2.210  1.3859  1.7365 -0.1603
 1908SOL     OW17185   0.651   3.670   8.107 -0.4165  0.7837  0.1574
 1908SOL    HW117186   0.661   3.617   8.028  0.6886  0.8108  0.2859
 1908SOL    HW217187   0.607   3.601   8.158 -1.0055  2.5244  1.9922
 1909SOL     OW17188   0.783   2.686   8.228  0.3232  0.2817 -0.4248
 1909SOL    HW117189   0.871   2.702   8.194  0.2530 -0.6408 -1.0328
 1909SOL    HW217190   0.745   2.773   8.224 -3.1730 -1.2650 -0.2111
 1910SOL     OW17191   4.021   3.399  11.022  0.2023 -0.3982 -0.9136
 1910SOL    HW117192   4.057   3.372  11.106 -0.6821  2.5973  0.4150
 1910SOL    HW217193   3.938   3.353  11.030  0.0050  0.3387  1.2861
 1911SOL     OW17194   3.335   1.160   4.374  0.0862 -0.3172 -0.0197
 1911SOL    HW117195   3.267   1.151   4.308  0.9863  0.3765 -1.0480
 1911SOL    HW217196   3.297   1.241   4.408 -2.1026 -2.0982  1.7316
 1912SOL     OW17197   1.904   2.194   9.060  0.3853 -0.3070  0.3980
 1912SOL    HW117198   1.985   2.147   9.039 -0.6730 -0.1571 -3.9596
 1912SOL    HW217199   1.934   2.219   9.148 -1.9803  4.4618 -0.2071
 1913SOL     OW17200   1.808   4.434   1.720  0.7744 -0.1279 -0.2092
 1913SOL    HW117201   1.786   4.526   1.708 -0.4241 -0.5328 -1.2033
 1913SOL    HW217202   1.854   4.436   1.803 -0.2973 -1.7076  0.4409
 1914SOL     OW17203   4.711   2.659   2.769 -0.0288  0.0928 -0.2375
 1914SOL    HW117204   4.674   2.724   2.709  1.4828  1.0752 -0.0903
 1914SOL    HW217205   0.003   2.711   2.847 -0.5512  1.3127 -0.9514
 1915SOL     OW17206   4.477   2.330  11.139 -1.0822  0.1602  0.3267
 1915SOL    HW117207   4.542   2.293  11.080 -0.7901 -1.2737  1.5558
 1915SOL    HW217208   4.523   2.322  11.222 -0.6703 -0.9836 -0.0104
 1916SOL     OW17209   0.854   1.840  12.230  0.6017  0.8258  0.1463
 1916SOL    HW117210   0.804   1.758  12.234  2.2215 -0.0584  2.1752
 1916SOL    HW217211   0.794   1.891  12.285 -2.4118 -1.0189 -1.4329
 1917SOL     OW17212   4.305   4.503   1.303 -0.1215  0.1917 -0.1636
 1917SOL    HW117213   4.292   4.445   1.228  0.1897 -0.6542  0.4428
 1917SOL    HW217214   4.277   4.588   1.268  1.7134  1.0031  0.3195
 1918SOL     OW17215   0.965   0.211   8.931  0.1002 -0.3785  0.1412
 1918SOL    HW117216   0.935   0.302   8.932 -0.5672 -0.5973  0.5171
 1918SOL    HW217217   0.927   0.179   9.013  0.8414  0.2101  0.7099
 1919SOL     OW17218   1.145   3.848  17.459 -0.0755 -0.0925  0.2335
 1919SOL    HW117219   1.173   3.805  17.540 -0.4419  0.3733  0.6076
 1919SOL    HW217220   1.178   3.789  17.391 -4.5688 -0.7120 -1.4099
 1920SOL     OW17221   3.071   1.013   9.586  0.2730 -0.1590 -0.0721
 1920SOL    HW117222   3.095   0.921   9.594 -0.8354 -0.5969 -1.7562
 1920SOL    HW217223   2.985   1.016   9.626  0.4167  3.0578 -0.0394
 1921SOL     OW17224   2.616   1.993   3.980  0.7013 -0.2095 -0.2349
 1921SOL    HW117225   2.699   1.990   4.029  0.2974  2.6402  0.6398
 1921SOL    HW217226   2.643   1.956   3.896 -0.7883 -2.8408  0.4354
 1922SOL     OW17227   4.488   4.345   9.632  0.6345  0.1884 -0.0520
 1922SOL    HW117228   4.520   4.418   9.579  1.9811  0.3049  0.8931
 1922SOL    HW217229   4.556   4.280   9.614 -0.7924 -1.0551 -0.8426
 1923SOL     OW17230   1.459   2.845   5.672  0.1664 -0.3786 -0.0543
 1923SOL    HW117231   1.548   2.880   5.670  0.4234 -1.0279 -0.1477
 1923SOL    HW217232   1.433   2.847   5.764  1.5550  0.8061  0.3117
 1924SOL     OW17233   1.417   4.636  16.323 -0.1322  0.8971 -0.1093
 1924SOL    HW117234   1.372   4.611  16.404  1.0422  0.8032  0.5226
 1924SOL    HW217235   1.418   0.006  16.330  1.3455  0.7262  1.9990
 1925SOL     OW17236   1.665   3.208   6.623 -0.0971 -0.1883 -0.4686
 1925SOL    HW117237   1.656   3.121   6.660  1.7422  1.1896  3.1969
 1925SOL    HW217238   1.593   3.251   6.670  0.4129  0.8222 -0.6000
 1926SOL     OW17239   3.380   4.298   9.020  0.3702 -0.4110 -0.6741
 1926SOL    HW117240   3.360   4.363   8.954  0.8304 -0.2398 -0.6434
 1926SOL    HW217241   3.352   4.337   9.103  0.7177 -0.5617 -0.4864
 1927SOL     OW17242   1.691   1.023   7.639  0.0674 -0.1343 -0.4139
 1927SOL    HW117243   1.630   1.077   7.689 -1.4551 -2.5541  0.3796
 1927SOL    HW217244   1.648   0.937   7.644  1.4524 -0.7563  0.6889
 1928SOL     OW17245   1.857   1.098   9.300  0.3211 -0.3294  0.0669
 1928SOL    HW117246   1.822   1.136   9.219  1.0519  2.0065  0.8543
 1928SOL    HW217247   1.873   1.007   9.273  0.6546 -0.7570  1.6844
 1929SOL     OW17248   2.003   0.473   5.473  0.0230 -0.0251  0.1962
 1929SOL    HW117249   1.948   0.540   5.433  1.2503  0.7141 -0.2350
 1929SOL    HW217250   2.048   0.443   5.394 -1.9302 -0.5000 -0.7388
 1930SOL     OW17251   3.225   0.694   8.320 -0.0617 -0.3314  0.0754
 1930SOL    HW117252   3.207   0.682   8.227 -0.9768 -2.1537  0.4836
 1930SOL    HW217253   3.136   0.692   8.356 -0.2283  0.3812 -0.3151
 1931SOL     OW17254   4.061   1.806   7.718 -0.3178 -0.2949 -0.0644
 1931SOL    HW117255   3.968   1.786   7.710 -0.2706  0.1520 -1.7044
 1931SOL    HW217256   4.102   1.766   7.641  0.3323 -1.1077  0.7159
 1932SOL     OW17257   2.868   2.852   4.421 -0.0927  0.6088 -0.7103
 1932SOL    HW117258   2.948   2.869   4.471 -0.4053 -0.0678  0.0195
 1932SOL    HW217259   2.892   2.762   4.398 -2.0714 -0.6479  2.1792
 1933SOL     OW17260   1.843   0.642   7.850 -0.1552  0.2131 -0.1046
 1933SOL    HW117261   1.879   0.730   7.862 -0.6001  0.1969  1.3752
 1933SOL    HW217262   1.864   0.603   7.935 -1.3516 -2.2624 -0.9611
 1934SOL     OW17263   1.153   0.983  13.102 -0.1816  0.0031 -0.0523
 1934SOL    HW117264   1.198   1.001  13.019  1.1453 -1.1091  0.4286
 1934SOL    HW217265   1.207   1.026  13.168  0.5634 -0.5063 -0.3191
 1935SOL     OW17266   0.777   3.930  17.283 -0.4114 -0.5080  0.5526
 1935SOL    HW117267   0.852   3.890  17.327 -1.2483 -0.4903  1.9781
 1935SOL    HW217268   0.776   3.881  17.201 -1.7493  1.8202 -0.8117
 1936SOL     OW17269   1.737   3.883   2.669  0.3928  1.0273  0.2108
 1936SOL    HW117270   1.744   3.973   2.700  0.1960  1.0887  0.0733
 1936SOL    HW217271   1.684   3.900   2.591 -0.1968 -3.3929 -0.3648
 1937SOL     OW17272   2.595   0.046   7.022  0.6981 -0.8042  0.1952
 1937SOL    HW117273   2.590   4.686   7.065 -0.6597 -1.8092 -1.9439
 1937SOL    HW217274   2.643   0.028   6.942 -0.6859  1.2724 -1.1154
 1938SOL     OW17275   1.050   3.206   1.516 -0.1771 -0.0759  0.0129
 1938SOL    HW117276   1.041   3.121   1.560 -0.2966 -0.6545 -1.1294
 1938SOL    HW217277   1.144   3.210   1.500  0.1086  2.7203  2.3966
 1939SOL     OW17278   0.175   1.856   8.438 -0.1857  0.0193 -0.0678
 1939SOL    HW117279   0.139   1.837   8.352 -0.8867  2.3976 -0.3104
 1939SOL    HW217280   0.134   1.941   8.457  0.3806  0.4469 -0.7458
 1940SOL     OW17281   4.627   1.285   3.070  0.1643  0.3445  0.1509
 1940SOL    HW117282   4.621   1.367   3.118 -1.7598 -0.6897  1.6378
 1940SOL    HW217283   4.697   1.225   3.099 -0.4257  0.3154  1.5034
 1941SOL     OW17284   0.091   0.133   4.045 -0.3287 -0.8716  0.0753
 1941SOL    HW117285   0.011   0.110   3.999 -0.2007  0.8160 -0.9800
 1941SOL    HW217286   0.069   0.225   4.058 -0.0306 -0.7619 -0.2033
 1942SOL     OW17287   2.081   0.226   4.715 -0.0808  0.7514  0.1083
 1942SOL    HW117288   2.033   0.275   4.781  0.6667  3.0886 -1.0700
 1942SOL    HW217289   2.166   0.225   4.758  0.1551 -1.5136 -0.3741
 1943SOL     OW17290   4.701   2.182   5.215  0.4579 -0.2182 -0.2830
 1943SOL    HW117291   0.051   2.150   5.265 -0.2420 -1.5253 -0.0769
 1943SOL    HW217292   4.629   2.130   5.249  1.2177 -2.3642 -1.9518
 1944SOL     OW17293   0.621   0.040  13.169  0.0951 -0.2224  0.2855
 1944SOL    HW117294   0.699   4.712  13.150  0.2150  0.6368 -1.6044
 1944SOL    HW217295   0.605   0.038  13.263 -0.4919 -1.2495  0.1681
 1945SOL     OW17296   2.381   4.392  15.264  0.5578  0.6619  0.3591
 1945SOL    HW117297   2.360   4.314  15.213  1.3849  0.1801  0.7495
 1945SOL    HW217298   2.457   4.423  15.214 -0.1672  2.9390  0.6693
 1946SOL     OW17299   0.541   3.612   7.146 -0.3282 -0.1275  0.2865
 1946SOL    HW117300   0.547   3.619   7.241  0.5065 -1.3270  0.3205
 1946SOL    HW217301   0.531   3.517   7.136  2.7329 -0.5549  1.3244
 1947SOL     OW17302   4.092   3.194  16.390 -0.9284 -0.3832 -0.7497
 1947SOL    HW117303   4.088   3.289  16.402 -0.0073 -0.2793 -1.3092
 1947SOL    HW217304   4.015   3.175  16.337 -0.6102 -0.1722 -1.2879
 1948SOL     OW17305   2.609   1.915  14.081  0.3472 -0.3089 -0.3393
 1948SOL    HW117306   2.551   1.964  14.024  0.3321 -0.7377 -0.6951
 1948SOL    HW217307   2.672   1.878  14.019  1.7625  0.0088  0.9099
 1949SOL     OW17308   2.811   2.580  13.272  0.3486  0.6874  0.1635
 1949SOL    HW117309   2.779   2.536  13.193  2.1306 -1.8054  0.8096
 1949SOL    HW217310   2.785   2.668  13.247 -0.0139  0.5454  0.0472
 1950SOL     OW17311   3.200   2.494  14.949 -0.0482 -0.5321 -0.0771
 1950SOL    HW117312   3.129   2.446  14.993 -0.7095 -0.2853 -0.8642
 1950SOL    HW217313   3.163   2.533  14.870 -1.1597  0.3261  0.8750
 1951SOL     OW17314   1.049   3.472   3.960  0.0218 -0.1138  0.1326
 1951SOL    HW117315   1.030   3.558   3.996  1.9029  0.3757 -0.0314
 1951SOL    HW217316   1.143   3.474   3.980 -0.3935 -0.7744  2.2259
 1952SOL     OW17317   1.180   3.394   6.063 -0.3013  0.1485  0.6799
 1952SOL    HW117318   1.242   3.360   6.127 -0.1044 -0.2512  0.2780
 1952SOL    HW217319   1.189   3.335   5.988 -0.6960  0.5652  0.3051
 1953SOL     OW17320   4.504   3.368  14.660  0.2271 -0.3527 -0.2228
 1953SOL    HW117321   4.551   3.429  14.603  1.2957 -0.9835 -0.0214
 1953SOL    HW217322   4.444   3.324  14.601  2.0452 -1.8395 -0.9634
 1954SOL     OW17323   2.681   0.976  13.846 -0.3323  0.4536 -0.4302
 1954SOL    HW117324   2.675   1.021  13.931 -0.6521  0.4681 -0.4614
 1954SOL    HW217325   2.652   0.888  13.869  0.9949 -0.8090 -3.6183
 1955SOL     OW17326   3.144   2.860  14.783 -0.5437 -0.3937  0.8004
 1955SOL    HW117327   3.140   2.844  14.877 -0.1447  0.4790  0.9718
 1955SOL    HW217328   3.087   2.793  14.746 -0.6875  0.6830 -0.9381
 1956SOL     OW17329   0.941   3.006   0.546 -0.1701  0.0900  0.7326
 1956SOL    HW117330   0.967   3.077   0.487  2.6162  1.5954  3.7166
 1956SOL    HW217331   0.847   3.018   0.555 -0.2955 -0.4614  0.0721
 1957SOL     OW17332   3.652   3.836  14.337  0.0428 -0.1066 -0.5025
 1957SOL    HW117333   3.701   3.848  14.418  0.0073 -0.3975 -0.4364
 1957SOL    HW217334   3.645   3.926  14.307 -2.0799 -0.3313 -0.6869
 1958SOL     OW17335   1.163   3.675   2.588  0.0277  0.3759 -0.3720
 1958SOL    HW117336   1.170   3.766   2.618 -2.2465  0.9788 -1.6452
 1958SOL    HW217337   1.166   3.627   2.671  0.3797  0.6904 -0.2061
 1959SOL     OW17338   2.941   0.960   5.751 -0.3226  0.2592 -0.0448
 1959SOL    HW117339   2.846   0.970   5.746 -0.3206 -0.3750 -1.5096
 1959SOL    HW217340   2.936   0.865   5.759  0.2284  0.1115 -1.3262
 1960SOL     OW17341   2.073   1.057   4.093  0.3286 -0.6943  0.0914
 1960SOL    HW117342   2.061   1.146   4.125  2.3555 -1.0707  1.8738
 1960SOL    HW217343   2.063   1.062   3.998 -2.2452  1.0398  0.4458
 1961SOL     OW17344   2.130   1.884  11.572  0.4889 -0.4554 -0.1058
 1961SOL    HW117345   2.137   1.830  11.493 -1.1242  0.4705 -0.8811
 1961SOL    HW217346   2.071   1.833  11.629 -0.7801  3.2415  1.8908
 1962SOL     OW17347   2.574   2.112  15.351  0.1178  0.7241 -0.2289
 1962SOL    HW117348   2.608   2.110  15.262  1.5378 -2.9673  0.3943
 1962SOL    HW217349   2.583   2.207  15.362  2.4736  0.6722 -1.8618
 1963SOL     OW17350   4.346   4.022   9.969 -0.2317 -0.2313 -0.5196
 1963SOL    HW117351   4.363   4.028  10.063 -2.0418  1.5960 -0.3114
 1963SOL    HW217352   4.380   4.105   9.935 -1.5386  0.2828 -0.5771
 1964SOL     OW17353   1.964   0.683   8.675  1.1730 -0.1476  0.0277
 1964SOL    HW117354   1.874   0.695   8.705  0.6429 -0.1485 -1.5724
 1964SOL    HW217355   1.996   0.606   8.723  2.2366  1.1629  1.4423
 1965SOL     OW17356   2.381   4.215   8.709  0.0577  0.7250  0.6455
 1965SOL    HW117357   2.368   4.258   8.624 -2.1767  4.0813  2.6792
 1965SOL    HW217358   2.345   4.280   8.769 -2.8467  0.2167 -0.5260
 1966SOL     OW17359   0.549   1.675   4.441 -0.0943 -0.1177 -0.2995
 1966SOL    HW117360   0.573   1.754   4.490  0.4488  0.4039 -1.4067
 1966SOL    HW217361   0.455   1.671   4.455  0.0433 -0.9752  0.3680
 1967SOL     OW17362   2.811   3.080   7.511 -0.1683  0.4711 -0.4813
 1967SOL    HW117363   2.807   3.014   7.441 -1.0291  0.1601 -0.1319
 1967SOL    HW217364   2.731   3.071   7.562  0.5962 -1.5409  0.3469
 1968SOL     OW17365   4.052   3.880   3.864  0.1593 -0.3731 -0.0490
 1968SOL    HW117366   4.095   3.915   3.785 -0.7594 -0.7623 -0.7242
 1968SOL    HW217367   4.062   3.785   3.854 -0.1100 -0.5198  1.1443
 1969SOL     OW17368   0.545   3.421   4.384 -0.6656  0.1404 -0.8094
 1969SOL    HW117369   0.484   3.489   4.412 -1.8469 -0.6593 -1.4211
 1969SOL    HW217370   0.491   3.372   4.322 -0.3193 -0.4571 -0.6372
 1970SOL     OW17371   4.237   0.679   3.649 -0.2042  0.2564  0.5330
 1970SOL    HW117372   4.198   0.736   3.583 -0.9461 -0.3689  0.4245
 1970SOL    HW217373   4.326   0.678   3.615 -0.7147 -4.3767 -0.6594
 1971SOL     OW17374   3.065   2.831   7.770 -0.2124 -0.6002 -0.5278
 1971SOL    HW117375   3.131   2.763   7.775 -0.0479 -0.4648 -0.8961
 1971SOL    HW217376   3.043   2.839   7.863 -0.9420  0.3924 -0.7747
 1972SOL     OW17377   0.261   0.179   3.020 -0.4285 -0.1873 -0.4259
 1972SOL    HW117378   0.327   0.232   3.065 -0.6623 -0.9887  0.8528
 1972SOL    HW217379   0.310   0.098   3.015 -1.7045 -0.9185 -1.1294
 1973SOL     OW17380   4.500   4.590   4.305 -0.6330  0.4130  0.0837
 1973SOL    HW117381   4.566   4.547   4.251 -0.8686 -0.8092  0.7644
 1973SOL    HW217382   4.423   4.561   4.257 -1.2233 -0.8469  1.7938
 1974SOL     OW17383   4.069   1.803   3.228 -0.4654  0.3297 -0.4778
 1974SOL    HW117384   4.109   1.825   3.144  3.7807  0.3223  1.5048
 1974SOL    HW217385   4.002   1.738   3.207 -0.7000 -0.1241  1.6229
 1975SOL     OW17386   4.196   2.662  14.987  0.6787 -0.3043 -0.1654
 1975SOL    HW117387   4.197   2.710  14.904 -0.4135 -0.9093 -0.5263
 1975SOL    HW217388   4.123   2.604  14.967 -0.8362  0.6742  2.5295
 1976SOL     OW17389   3.008   0.832  11.790 -0.0271 -0.1753  0.0438
 1976SOL    HW117390   2.992   0.744  11.822  0.6858 -0.3924 -0.1886
 1976SOL    HW217391   3.008   0.878  11.874  1.8303  0.7198 -0.4250
 1977SOL     OW17392   2.912   0.830  10.153 -0.2715  0.0206 -0.5682
 1977SOL    HW117393   2.894   0.920  10.181 -0.8873 -1.1806  2.9330
 1977SOL    HW217394   2.883   0.775  10.225  0.3430 -1.0555 -1.1496
 1978SOL     OW17395   3.087   3.153  16.232  0.0353  0.6109  0.0083
 1978SOL    HW117396   3.061   3.067  16.200 -0.6316  0.3816  1.1430
 1978SOL    HW217397   3.082   3.213  16.157  0.0092  0.6020  0.0028
 1979SOL     OW17398   1.757   1.150  10.001 -0.3086  0.3121 -0.5240
 1979SOL    HW117399   1.790   1.196  10.078 -0.6751 -1.1466  0.5172
 1979SOL    HW217400   1.718   1.075  10.045 -0.0874  0.4794 -0.0421
 1980SOL     OW17401   0.175   1.632   8.068 -0.3302 -0.1528  0.2927
 1980SOL    HW117402   0.096   1.579   8.057 -0.4467  0.0961 -0.0738
 1980SOL    HW217403   0.187   1.612   8.161 -2.0764  0.6666  0.6971
 1981SOL     OW17404   0.974   0.629   8.064  0.4324  0.1774  0.4966
 1981SOL    HW117405   1.012   0.636   7.976 -2.3941  0.7653 -0.6757
 1981SOL    HW217406   0.973   0.717   8.101  1.8086  0.9943 -1.3851
 1982SOL     OW17407   2.817   3.042   6.579  0.1717  0.2031 -0.0492
 1982SOL    HW117408   2.751   3.110   6.565  1.6793  1.3152 -1.9694
 1982SOL    HW217409   2.871   3.059   6.501 -0.4379  0.7982 -0.3373
 1983SOL     OW17410   0.593   0.107  16.034  0.9436 -0.4102  0.4288
 1983SOL    HW117411   0.568   0.137  15.946 -0.9729 -0.0641  1.0964
 1983SOL    HW217412   0.590   0.185  16.088 -0.9201 -0.3101  0.1872
 1984SOL     OW17413   0.153   2.917  12.443 -0.1383 -0.1734 -0.0712
 1984SOL    HW117414   0.078   2.924  12.385  0.7427 -0.7873 -1.2764
 1984SOL    HW217415   0.141   2.996  12.497 -1.0705 -2.2117  2.7265
 1985SOL     OW17416   1.394   1.861   5.181  0.1656  0.0371 -0.3590
 1985SOL    HW117417   1.446   1.893   5.107 -0.3982 -0.6722 -1.0601
 1985SOL    HW217418   1.336   1.802   5.134  0.1780 -0.9229  0.8188
 1986SOL     OW17419   3.185   0.583   7.431 -0.1842  0.2324  0.0918
 1986SOL    HW117420   3.187   0.536   7.514 -0.7621 -2.0980 -1.2069
 1986SOL    HW217421   3.235   0.527   7.371 -0.0969  0.9398 -0.5007
 1987SOL     OW17422   1.993   3.640  17.670 -0.0420  0.5597  0.3984
 1987SOL    HW117423   1.979   3.546  17.657  0.2755  0.8522 -1.8939
 1987SOL    HW217424   2.026   3.644   0.060  1.3065 -0.6175 -0.0454
 1988SOL     OW17425   2.857   1.007  11.209 -0.9225  0.3171 -0.1687
 1988SOL    HW117426   2.761   1.003  11.214 -0.9949  0.9683 -1.0442
 1988SOL    HW217427   2.880   1.100  11.213  2.2781 -0.4329 -0.9643
 1989SOL     OW17428   2.461   2.542  15.057  0.2573 -0.4407  0.5235
 1989SOL    HW117429   2.521   2.564  14.986 -0.5588 -2.7113 -0.8525
 1989SOL    HW217430   2.489   2.451  15.069  1.6756  0.0389  0.8713
 1990SOL     OW17431   1.585   4.361   7.713 -0.7489 -0.2013  0.2293
 1990SOL    HW117432   1.611   4.323   7.629  0.7988 -2.9183  1.9424
 1990SOL    HW217433   1.656   4.333   7.770 -0.7165 -1.1356 -0.2744
 1991SOL     OW17434   2.569   2.397   3.156 -0.2034  0.2731  0.4631
 1991SOL    HW117435   2.515   2.377   3.080 -0.9965 -1.1229  1.3806
 1991SOL    HW217436   2.658   2.373   3.131  0.3212  1.6023  1.0589
 1992SOL     OW17437   0.322   0.933   8.786 -0.1182  0.1253 -0.0817
 1992SOL    HW117438   0.288   0.897   8.868  0.2666 -1.5965 -0.6998
 1992SOL    HW217439   0.287   1.021   8.800  0.8549  0.6906 -1.2161
 1993SOL     OW17440   3.546   0.547   9.969 -0.5144  0.2048  0.2547
 1993SOL    HW117441   3.613   0.519   9.906 -0.4247  0.6835  0.1379
 1993SOL    HW217442   3.552   0.474  10.030  1.5196  0.5308  0.4387
 1994SOL     OW17443   4.330   4.109   7.202  0.9018  0.1469 -0.4038
 1994SOL    HW117444   4.278   4.029   7.191  2.1247 -0.7895  0.6798
 1994SOL    HW217445   4.353   4.135   7.113 -2.3201  0.8058 -1.0646
 1995SOL     OW17446   2.567   2.379  13.695  0.0073  0.0594  0.3170
 1995SOL    HW117447   2.654   2.414  13.678 -0.0539 -0.8924 -1.8942
 1995SOL    HW217448   2.517   2.458  13.675 -0.0438 -0.3881 -1.3450
 1996SOL     OW17449   1.545   4.334  16.616  0.2955  0.0629 -0.1056
 1996SOL    HW117450   1.541   4.351  16.522  2.4717  1.0353 -0.0274
 1996SOL    HW217451   1.598   4.410  16.641  0.2494  0.4329 -1.1246
 1997SOL     OW17452   3.439   0.463   7.823 -0.1400  0.8355  0.7400
 1997SOL    HW117453   3.501   0.433   7.890  0.2524 -1.9346 -0.8658
 1997SOL    HW217454   3.458   0.405   7.749  0.1744  2.9493 -0.8331
 1998SOL     OW17455   2.776   2.101   0.819  0.4483  0.1809  0.3018
 1998SOL    HW117456   2.798   2.194   0.829 -1.8900  0.6646  0.9613
 1998SOL    HW217457   2.682   2.104   0.839  0.3929 -0.0672  0.0791
 1999SOL     OW17458   1.428   2.103   9.457 -0.0215 -0.2681 -0.6359
 1999SOL    HW117459   1.404   2.166   9.525 -1.6469  1.2153 -2.5772
 1999SOL    HW217460   1.444   2.021   9.504  2.1379  0.9533  0.7704
 2000SOL     OW17461   3.077   0.564   8.669 -0.5534  0.3521 -0.2032
 2000SOL    HW117462   3.132   0.631   8.711  0.1231  0.6826 -1.6109
 2000SOL    HW217463   3.068   0.605   8.583 -2.0101  0.5611  0.0564
 2001SOL     OW17464   4.509   4.624   7.445 -0.0007 -0.2344  0.3091
 2001SOL    HW117465   4.473   4.547   7.489 -1.1187  1.3238  2.1768
 2001SOL    HW217466   4.434   4.638   7.388 -1.7867  0.0694  2.7259
 2002SOL     OW17467   2.795   3.393   6.828 -0.1313  0.0004  0.3441
 2002SOL    HW117468   2.781   3.470   6.772  1.9096  1.9922  2.5399
 2002SOL    HW217469   2.872   3.349   6.793  0.4043  2.6458 -1.8100
 2003SOL     OW17470   2.565   2.181   3.385  0.0538  0.3340 -0.4765
 2003SOL    HW117471   2.651   2.158   3.420 -0.3783 -0.2609  0.1963
 2003SOL    HW217472   2.543   2.102   3.337  1.6481  0.9707 -2.2518
 2004SOL     OW17473   2.582   0.189   6.049 -0.3999  0.5266  0.1004
 2004SOL    HW117474   2.600   0.153   6.136  0.3236  0.0584 -0.2470
 2004SOL    HW217475   2.551   0.278   6.063  2.7383  1.1842  2.8611
 2005SOL     OW17476   1.773   0.276   5.245 -0.4879  0.1298  0.0593
 2005SOL    HW117477   1.757   0.315   5.331  2.7427 -1.0237  1.1914
 2005SOL    HW217478   1.697   0.309   5.197  0.1334  2.6430  0.7696
 2006SOL     OW17479   0.173   2.556  16.297  0.4418  0.2849  0.0311
 2006SOL    HW117480   0.252   2.514  16.261 -0.8886 -1.8257 -0.4320
 2006SOL    HW217481   0.195   2.648  16.284  0.1418  0.2583 -0.6667
 2007SOL     OW17482   4.620   4.271   7.532  0.2561 -0.6241 -0.3532
 2007SOL    HW117483   4.607   4.312   7.447  1.0756  0.8063  0.1987
 2007SOL    HW217484   4.543   4.214   7.538 -1.0797  1.0142 -1.9365
 2008SOL     OW17485   1.602   3.135   6.356 -0.4301 -0.0920  0.1098
 2008SOL    HW117486   1.579   3.093   6.438  0.1525  1.0434  0.8508
 2008SOL    HW217487   1.654   3.210   6.384  1.6510 -0.8209 -1.7569
 2009SOL     OW17488   3.498   2.437   5.318  0.1073  0.1281  0.0977
 2009SOL    HW117489   3.471   2.416   5.408  0.4069 -0.9209 -0.0565
 2009SOL    HW217490   3.448   2.382   5.258 -0.2243 -1.9273  2.2428
 2010SOL     OW17491   4.179   2.581   4.786 -0.0660 -0.0286  0.0176
 2010SOL    HW117492   4.167   2.613   4.696  0.5021 -0.1963 -0.1204
 2010SOL    HW217493   4.092   2.600   4.820 -0.0101  2.8905 -1.4670
 2011SOL     OW17494   1.121   1.295   4.598  0.0113  0.1474  0.3261
 2011SOL    HW117495   1.152   1.304   4.507 -2.2447  0.5726 -0.3965
 2011SOL    HW217496   1.054   1.228   4.588 -1.9381  2.2016 -0.3202
 2012SOL     OW17497   1.005   4.446   7.350  0.2030  0.4728 -0.2439
 2012SOL    HW117498   1.045   4.434   7.436 -1.7966 -1.6904  0.3781
 2012SOL    HW217499   0.918   4.410   7.365  0.3655  0.6089  1.0342
 2013SOL     OW17500   2.194   0.914   5.556 -0.1901 -0.0713  0.0050
 2013SOL    HW117501   2.226   0.994   5.516  0.4211  1.4523  3.5349
 2013SOL    HW217502   2.270   0.904   5.614  1.1322  0.4407 -1.6484
 2014SOL     OW17503   4.514   3.505   7.081  0.5853  0.8112 -0.2949
 2014SOL    HW117504   4.492   3.583   7.029  2.5352 -0.0652 -2.3912
 2014SOL    HW217505   4.431   3.481   7.124  1.4086 -2.2264 -0.3904
 2015SOL     OW17506   0.332   1.974   4.551 -0.3391  0.3138  0.1357
 2015SOL    HW117507   0.425   1.958   4.571 -0.4605 -2.1444 -1.2239
 2015SOL    HW217508   0.330   1.945   4.460 -2.3661  0.9100 -0.0015
 2016SOL     OW17509   4.533   0.088   7.956 -0.3378 -0.5625  0.2022
 2016SOL    HW117510   4.621   0.065   7.986 -0.8540 -2.8428 -0.0428
 2016SOL    HW217511   4.513   0.003   7.916  2.7173 -0.4517 -1.5932
 2017SOL     OW17512   1.202   3.690   7.816  0.2928 -0.3887  0.2640
 2017SOL    HW117513   1.109   3.683   7.797 -0.2268 -1.0287  3.0607
 2017SOL    HW217514   1.199   3.730   7.903  0.7941  0.5168 -0.1408
 2018SOL     OW17515   1.609   1.550  17.149 -0.1314  0.1274 -0.5251
 2018SOL    HW117516   1.572   1.487  17.211 -0.5270  0.1887 -0.6979
 2018SOL    HW217517   1.530   1.604  17.150 -0.5336 -0.4600 -0.1235
 2019SOL     OW17518   2.916   2.245   6.276 -0.4456  0.2758 -0.3389
 2019SOL    HW117519   2.948   2.250   6.366  1.2230  2.0100 -1.0412
 2019SOL    HW217520   2.907   2.150   6.265 -3.0766  0.2543  2.1987
 2020SOL     OW17521   1.802   1.568   0.184 -0.4930 -0.7147 -0.3130
 2020SOL    HW117522   1.848   1.645   0.218  0.1021 -0.9390 -0.6084
 2020SOL    HW217523   1.858   1.498   0.218  1.3711  0.9869  0.1252
 2021SOL     OW17524   1.360   2.390   1.869 -0.0296  0.4599  0.4353
 2021SOL    HW117525   1.297   2.363   1.936  0.6728 -0.6518  0.6416
 2021SOL    HW217526   1.358   2.484   1.890 -0.3912  0.1751  1.7276
 2022SOL     OW17527   3.026   0.104   2.949  0.2751 -0.0577 -0.1251
 2022SOL    HW117528   3.047   0.013   2.972  0.5047  0.0170 -0.0371
 2022SOL    HW217529   2.932   0.107   2.962  0.2340  1.3740 -0.8060
 2023SOL     OW17530   3.240   1.970   7.632 -0.1600 -0.5784 -0.0878
 2023SOL    HW117531   3.279   2.056   7.646  0.2338 -0.8292  0.3272
 2023SOL    HW217532   3.198   1.942   7.714 -0.7203  1.5386  0.3587
 2024SOL     OW17533   4.697   4.395   7.827  0.2782  0.1787 -0.1489
 2024SOL    HW117534   4.683   4.360   7.740  0.3655  1.1806 -0.5706
 2024SOL    HW217535   4.667   4.325   7.885  0.4260 -0.3805 -0.7559
 2025SOL     OW17536   3.757   4.476  16.081 -0.4731  0.3868  0.1089
 2025SOL    HW117537   3.714   4.555  16.114  0.3349  0.7498  0.2806
 2025SOL    HW217538   3.706   4.459  16.002  0.9646  0.7695 -0.8808
 2026SOL     OW17539   0.946   3.842   4.525 -0.5173 -0.8223  0.1609
 2026SOL    HW117540   0.905   3.873   4.444  2.0224 -1.6113 -1.4272
 2026SOL    HW217541   0.965   3.915   4.583 -0.5187 -0.9256  0.2934
 2027SOL     OW17542   2.678   4.484   2.867  0.3347 -0.0651 -0.2142
 2027SOL    HW117543   2.613   4.473   2.936  1.3124 -2.1014  0.3765
 2027SOL    HW217544   2.688   4.396   2.831 -0.0914  0.5462 -1.8240
 2028SOL     OW17545   4.420   0.985   2.349 -0.2451  0.8800  0.1150
 2028SOL    HW117546   4.407   0.952   2.260  1.3648 -1.0101  0.5658
 2028SOL    HW217547   4.449   0.909   2.399 -0.3751 -0.2533 -1.5240
 2029SOL     OW17548   2.186   2.266   6.092  0.2886 -0.1224 -0.5636
 2029SOL    HW117549   2.199   2.178   6.059 -0.3934 -0.3751 -0.1559
 2029SOL    HW217550   2.203   2.308   6.008  1.6537  0.6549  0.0861
 2030SOL     OW17551   2.698   2.806   4.809 -0.1691  0.1433 -0.0904
 2030SOL    HW117552   2.654   2.841   4.732 -1.3161  0.3195  0.6495
 2030SOL    HW217553   2.624   2.772   4.859  0.1840  1.0698  1.0902
 2031SOL     OW17554   2.795   2.464  15.143 -0.0959  0.5167  0.4918
 2031SOL    HW117555   2.725   2.427  15.089 -0.0329  0.7902  0.2221
 2031SOL    HW217556   2.867   2.457  15.081  0.2783  1.5459  0.7997
 2032SOL     OW17557   3.387   2.110  13.193 -0.0909 -0.0960 -0.3220
 2032SOL    HW117558   3.418   2.038  13.248  0.5566  0.0513 -0.4957
 2032SOL    HW217559   3.303   2.119  13.238  0.5017 -0.0246  0.7789
 2033SOL     OW17560   1.771   2.323  14.429  0.4035  0.0318 -1.0396
 2033SOL    HW117561   1.848   2.347  14.481  1.0452 -1.8825 -1.0946
 2033SOL    HW217562   1.736   2.256  14.488 -0.2439  1.7679  0.5300
 2034SOL     OW17563   0.026   0.567   1.443  0.0847 -0.1233  0.3045
 2034SOL    HW117564   4.698   0.620   1.383 -1.4155 -2.2162 -0.2418
 2034SOL    HW217565   0.018   0.618   1.524  1.3112  0.6439 -0.0639
 2035SOL     OW17566   1.850   3.271   6.464  0.1089  0.3622 -0.3220
 2035SOL    HW117567   1.851   3.351   6.516  1.7039 -0.0212  0.2511
 2035SOL    HW217568   1.780   3.225   6.510 -0.9002  0.5913 -1.6114
 2036SOL     OW17569   3.435   2.022   4.427  0.4825  0.0050 -0.2216
 2036SOL    HW117570   3.496   2.075   4.479  0.1690  1.1235 -0.9776
 2036SOL    HW217571   3.404   1.954   4.487 -0.0882  1.3115  1.0022
 2037SOL     OW17572   1.548   2.013   5.598 -0.1363  0.0244  0.2643
 2037SOL    HW117573   1.562   1.933   5.649  1.3465  0.6580  0.8313
 2037SOL    HW217574   1.579   1.986   5.512 -0.4806  0.8874 -0.1271
 2038SOL     OW17575   0.482   4.295   3.658  0.2125 -0.0782 -0.0001
 2038SOL    HW117576   0.504   4.203   3.669  0.5295 -0.2616 -2.0993
 2038SOL    HW217577   0.542   4.322   3.588  1.3381  0.6848  1.2520
 2039SOL     OW17578   3.574   0.555   9.047  0.3887 -0.2557  0.3012
 2039SOL    HW117579   3.659   0.581   9.083  0.3288  3.5802 -2.4308
 2039SOL    HW217580   3.607   0.488   8.987 -0.1863  0.9856 -1.3853
 2040SOL     OW17581   1.178   3.990  13.308 -0.2097  0.1024  0.0074
 2040SOL    HW117582   1.250   4.030  13.260 -0.8118  1.2137  0.0219
 2040SOL    HW217583   1.107   4.043  13.270 -0.6461 -2.1019 -2.2801
 2041SOL     OW17584   3.676   2.328   7.073 -0.6905  0.1237  0.2666
 2041SOL    HW117585   3.722   2.254   7.034  2.0267  1.7878  0.2571
 2041SOL    HW217586   3.727   2.320   7.154  0.3839 -0.1060 -0.4329
 2042SOL     OW17587   2.366   2.289   5.245  0.2892  0.0093  0.5871
 2042SOL    HW117588   2.374   2.377   5.207  1.6247 -0.0232  0.7731
 2042SOL    HW217589   2.275   2.272   5.221  0.5381  1.0133 -1.1133
 2043SOL     OW17590   2.542   0.609   3.237 -0.1864  0.1427 -0.8109
 2043SOL    HW117591   2.613   0.662   3.272 -0.4262 -1.1680  1.6586
 2043SOL    HW217592   2.486   0.594   3.313 -1.9509  0.3968 -2.0553
 2044SOL     OW17593   2.100   3.686   6.255  0.1324 -0.1433  0.1200
 2044SOL    HW117594   2.050   3.765   6.236  0.7649 -0.6324 -3.6865
 2044SOL    HW217595   2.049   3.642   6.322 -0.6046  0.5740  0.0283
 2045SOL     OW17596   3.423   2.235   5.115 -0.4036 -0.1228  0.5018
 2045SOL    HW117597   3.425   2.149   5.158  0.6134 -1.1859 -1.6518
 2045SOL    HW217598   3.507   2.237   5.070 -0.4007  0.7599  0.5582
 2046SOL     OW17599   0.194   1.550   8.321  0.2848  0.1529 -0.5424
 2046SOL    HW117600   0.139   1.560   8.399 -0.0448 -0.5386 -0.6820
 2046SOL    HW217601   0.276   1.575   8.362  0.1943  1.4365 -1.1455
 2047SOL     OW17602   2.514   0.752   2.633  0.0925  0.2481  0.0652
 2047SOL    HW117603   2.577   0.700   2.682  2.2372  1.0642 -1.7987
 2047SOL    HW217604   2.568   0.831   2.624 -0.1906  0.5127  0.6902
 2048SOL     OW17605   3.648   3.870   3.735 -0.4904  1.0331  0.1072
 2048SOL    HW117606   3.665   3.934   3.665 -1.2961 -1.7636 -2.6471
 2048SOL    HW217607   3.554   3.852   3.732 -0.5397  1.3270 -0.1540
 2049SOL     OW17608   1.454   1.600   4.391  0.5388 -0.6986 -0.3475
 2049SOL    HW117609   1.521   1.669   4.390 -1.3418  1.1913  2.1059
 2049SOL    HW217610   1.382   1.647   4.349 -1.4653 -2.7556  0.7620
 2050SOL     OW17611   1.462   0.182   7.317  0.8100  0.0643 -0.2485
 2050SOL    HW117612   1.554   0.157   7.328 -0.0806 -3.3540 -0.6637
 2050SOL    HW217613   1.462   0.265   7.269  3.5284  0.6780  0.7794
 2051SOL     OW17614   4.671   3.327  10.261 -0.4687  0.3007 -0.6475
 2051SOL    HW117615   4.618   3.270  10.316 -1.7569 -0.3158 -2.5447
 2051SOL    HW217616   0.036   3.314  10.292 -0.5821 -1.7714 -1.1849
 2052SOL     OW17617   0.675   2.932  14.252 -0.0926  0.3707 -0.2156
 2052SOL    HW117618   0.672   2.848  14.205 -0.8427  1.0038 -1.2862
 2052SOL    HW217619   0.719   2.987  14.187  0.4192 -0.5127 -0.6207
 2053SOL     OW17620   2.871   1.368   0.304  0.2599  0.0613 -0.4987
 2053SOL    HW117621   2.898   1.328   0.387 -0.2291  1.9184  0.5537
 2053SOL    HW217622   2.956   1.408   0.285  0.1182  0.2674 -0.6962
 2054SOL     OW17623   3.966   3.155   7.393  0.0816 -0.0300 -0.0754
 2054SOL    HW117624   3.947   3.105   7.472 -1.2741  2.7816  1.3695
 2054SOL    HW217625   3.881   3.148   7.349 -0.2409  1.0241  0.3746
 2055SOL     OW17626   3.965   1.837  14.031  0.1091 -0.2186  0.3607
 2055SOL    HW117627   3.970   1.906  14.097  2.9703 -2.1951  2.2070
 2055SOL    HW217628   3.876   1.804  14.045  0.1345  0.5316  2.1639
 2056SOL     OW17629   3.421   2.641  13.026 -0.2235  0.7584  0.2096
 2056SOL    HW117630   3.433   2.644  12.931 -0.0776  0.8669  0.2298
 2056SOL    HW217631   3.451   2.552  13.044  1.6440  1.5176  0.9585
 2057SOL     OW17632   3.437   3.959   9.074 -0.4936 -1.1560  0.0872
 2057SOL    HW117633   3.444   3.901   9.149  0.7571  1.2916  1.8481
 2057SOL    HW217634   3.513   4.016   9.086  0.3233 -2.0607 -0.7714
 2058SOL     OW17635   0.123   1.769  13.422  0.2623 -0.9913  0.0478
 2058SOL    HW117636   0.084   1.697  13.471 -2.4937 -0.7012 -1.7053
 2058SOL    HW217637   0.054   1.792  13.360 -0.6876  0.4323  1.6619
 2059SOL     OW17638   2.526   2.103  11.953  0.4483  0.1106 -0.1691
 2059SOL    HW117639   2.540   2.062  12.038  0.7224 -3.3931 -1.8974
 2059SOL    HW217640   2.435   2.134  11.960  0.0711 -1.2337  0.9984
 2060SOL     OW17641   2.488   2.786   3.419  0.1250  0.0063  0.0035
 2060SOL    HW117642   2.409   2.733   3.430  0.0733 -0.2488 -1.7012
 2060SOL    HW217643   2.512   2.752   3.333 -1.2076  2.3895 -1.3067
 2061SOL     OW17644   1.589   3.074   1.655 -0.7326 -0.0794  0.0228
 2061SOL    HW117645   1.675   3.104   1.624  0.5222 -1.2551  2.3484
 2061SOL    HW217646   1.600   3.074   1.750  0.8743 -0.9593 -0.1583
 2062SOL     OW17647   4.442   3.438  15.695 -0.1939 -0.0416 -0.0890
 2062SOL    HW117648   4.513   3.427  15.631 -1.2905 -0.1512 -1.2953
 2062SOL    HW217649   4.385   3.364  15.675  0.6546 -1.4583  2.7125
 2063SOL     OW17650   2.087   3.978   2.626 -0.2026 -0.0814 -0.2141
 2063SOL    HW117651   2.077   4.073   2.613 -1.2815 -0.3706 -1.5177
 2063SOL    HW217652   2.141   3.981   2.705  0.0798 -0.8569 -0.3759
 2064SOL     OW17653   1.229   1.944  15.726 -0.0400  0.6319 -0.4224
 2064SOL    HW117654   1.220   1.930  15.820 -0.1394  2.0273 -0.2271
 2064SOL    HW217655   1.196   1.861  15.690  1.3096 -0.1232  0.0980
 2065SOL     OW17656   3.618   2.059  17.526  0.4097  0.3476  0.1750
 2065SOL    HW117657   3.596   1.991  17.590 -2.3573  0.7188 -0.4207
 2065SOL    HW217658   3.559   2.124  17.563  1.0601  0.5553  0.8681
 2066SOL     OW17659   4.024   3.703   0.667  0.0189  0.1397 -0.0160
 2066SOL    HW117660   4.032   3.616   0.706  0.5505  0.7522  1.2263
 2066SOL    HW217661   4.088   3.694   0.597 -0.9510 -2.1070 -0.6041
 2067SOL     OW17662   2.635   4.679   0.617 -0.1362 -0.2322 -0.4551
 2067SOL    HW117663   2.580   4.637   0.683 -0.8321 -1.8419 -2.0504
 2067SOL    HW217664   2.713   4.700   0.669 -1.5221 -0.6204  1.7736
 2068SOL     OW17665   2.379   1.806   6.489  0.3785 -1.1357 -0.4588
 2068SOL    HW117666   2.358   1.898   6.473 -1.0496 -0.8896  2.8366
 2068SOL    HW217667   2.290   1.779   6.513  0.5701 -0.1652  1.2692
 2069SOL     OW17668   0.698   2.128   2.150 -0.4140  0.0172 -0.0357
 2069SOL    HW117669   0.616   2.088   2.123 -1.6277  2.1626  0.5146
 2069SOL    HW217670   0.672   2.213   2.185  1.0837 -0.4118  2.1482
 2070SOL     OW17671   4.002   0.602   1.248  0.7326 -0.1457  0.0022
 2070SOL    HW117672   3.958   0.601   1.333  0.1339 -1.1651 -0.3189
 2070SOL    HW217673   4.043   0.516   1.248 -1.1612 -1.0518  1.8774
 2071SOL     OW17674   3.980   2.036   3.374 -0.1462 -1.1714 -0.8193
 2071SOL    HW117675   3.983   1.951   3.329  0.1829 -0.5731 -1.9121
 2071SOL    HW217676   3.915   2.087   3.325 -0.0866 -0.2481  0.0665
 2072SOL     OW17677   4.095   3.645   6.306 -0.4405  0.3597  0.4364
 2072SOL    HW117678   4.073   3.738   6.308  3.9087  1.3658  2.0073
 2072SOL    HW217679   4.185   3.658   6.279 -0.5960  2.5655  0.9862
 2073SOL     OW17680   3.870   1.476  13.031  0.3928 -0.2177 -0.1290
 2073SOL    HW117681   3.836   1.496  12.944  0.4604 -3.0301 -0.7999
 2073SOL    HW217682   3.918   1.558  13.044  0.0843  0.2817 -2.1540
 2074SOL     OW17683   4.658   3.369   3.943  0.3108  0.0857  0.2346
 2074SOL    HW117684   4.632   3.277   3.939 -2.6557  0.9235 -0.0526
 2074SOL    HW217685   4.592   3.401   4.004 -1.0164 -2.3537  0.0761
 2075SOL     OW17686   0.387   4.577   8.724  0.4299  0.2040  0.1515
 2075SOL    HW117687   0.414   4.640   8.790  0.5623 -0.7036  0.9660
 2075SOL    HW217688   0.470   4.533   8.705  0.6876  1.0033 -0.5691
 2076SOL     OW17689   3.954   0.846   6.557  0.1624 -0.7046  0.2088
 2076SOL    HW117690   3.996   0.815   6.637 -0.1191  1.2490  1.1124
 2076SOL    HW217691   3.992   0.933   6.543  1.4942 -1.3807 -0.4521
 2077SOL     OW17692   3.806   0.528   1.067  0.1969 -0.1158 -0.4995
 2077SOL    HW117693   3.777   0.479   1.144 -0.5250  2.4470  0.8835
 2077SOL    HW217694   3.886   0.554   1.113 -0.7961  2.9670 -0.4690
 2078SOL     OW17695   2.086   4.002   5.938 -0.2495  0.0988  0.0109
 2078SOL    HW117696   2.082   4.080   5.882 -0.6504  0.1156  0.0623
 2078SOL    HW217697   2.158   3.955   5.896 -0.3714  1.7640 -2.0921
 2079SOL     OW17698   2.286   1.121   8.197  0.9013 -0.1744  0.0062
 2079SOL    HW117699   2.314   1.030   8.212  4.1351  0.5336 -1.8300
 2079SOL    HW217700   2.245   1.145   8.279 -0.3270 -2.6386  0.1315
 2080SOL     OW17701   1.534   3.995   7.712 -0.3321  0.4696  0.0516
 2080SOL    HW117702   1.489   3.917   7.679  0.2730  0.6470 -1.1914
 2080SOL    HW217703   1.488   4.062   7.661 -0.9789  0.3456  0.4780
 2081SOL     OW17704   2.349   1.064  16.232  0.1331 -0.3314 -0.0246
 2081SOL    HW117705   2.321   1.155  16.224 -0.3998 -0.4538  0.4624
 2081SOL    HW217706   2.434   1.081  16.273 -0.5341 -0.7940  1.5546
 2082SOL     OW17707   3.792   3.920   3.947 -0.2581 -0.1003 -0.1941
 2082SOL    HW117708   3.738   3.903   3.869 -0.5261  0.0801 -0.0478
 2082SOL    HW217709   3.884   3.925   3.919 -0.4217 -1.7195 -1.0236
 2083SOL     OW17710   2.353   3.548   2.551 -0.0214  0.2572  0.6229
 2083SOL    HW117711   2.445   3.566   2.571 -0.3236  0.5897  1.7030
 2083SOL    HW217712   2.317   3.580   2.634 -1.8057  0.9284 -0.4003
 2084SOL     OW17713   0.191   3.679   9.254  0.1790 -0.2420  0.6272
 2084SOL    HW117714   0.259   3.668   9.320 -0.2762 -1.3575  0.9194
 2084SOL    HW217715   0.130   3.612   9.285 -1.7027  0.8140 -0.7725
 2085SOL     OW17716   3.572   2.286   9.461 -0.4926  0.2649  0.0698
 2085SOL    HW117717   3.665   2.304   9.445  0.1125 -1.9635  1.0398
 2085SOL    HW217718   3.565   2.236   9.542  0.4162  3.0627  1.8737
 2086SOL     OW17719   1.818   1.516  10.453  0.1855  0.0322  0.2019
 2086SOL    HW117720   1.819   1.422  10.469 -0.3168 -0.0625 -0.3060
 2086SOL    HW217721   1.904   1.535  10.416 -0.1862  3.6818  1.2243
 2087SOL     OW17722   1.638   3.336   2.352  0.2038  0.8044  0.2670
 2087SOL    HW117723   1.653   3.423   2.315  2.0409  0.3989  0.0531
 2087SOL    HW217724   1.721   3.295   2.327  0.1636  0.3595  0.8564
 2088SOL     OW17725   0.119   0.460  11.944  0.3494  0.1475 -0.2199
 2088SOL    HW117726   0.125   0.414  11.861 -1.6451  0.6568 -0.6444
 2088SOL    HW217727   0.073   0.394  11.997 -0.9551 -0.5443 -2.2121
 2089SOL     OW17728   0.292   3.381   7.131 -0.1280  0.0714  0.0674
 2089SOL    HW117729   0.361   3.379   7.197  1.4573  0.3347 -1.5625
 2089SOL    HW217730   0.234   3.309   7.154 -1.5998  1.1463 -0.2366
 2090SOL     OW17731   0.187   1.831   6.698  0.2577 -0.1841  0.0500
 2090SOL    HW117732   0.244   1.780   6.640  0.4759  0.3502 -0.2090
 2090SOL    HW217733   0.233   1.812   6.779  2.6488  0.5570 -1.1353
 2091SOL     OW17734   0.838   1.136   0.021 -0.3381  0.4061 -0.2838
 2091SOL    HW117735   0.748   1.155  17.695 -1.0439 -1.3574  0.8594
 2091SOL    HW217736   0.882   1.182  17.650 -1.5451 -0.8202 -1.8236
 2092SOL     OW17737   3.984   1.054   6.315 -0.0277 -0.5076  0.5025
 2092SOL    HW117738   4.037   1.112   6.260  0.2882 -2.3358 -1.1040
 2092SOL    HW217739   3.903   1.105   6.307 -1.3683 -2.4483  1.8136
 2093SOL     OW17740   2.863   3.770   8.263 -0.2549  0.4616 -0.3208
 2093SOL    HW117741   2.840   3.828   8.335 -1.2373  0.8230 -0.9336
 2093SOL    HW217742   2.958   3.785   8.267 -0.4039  1.9210 -2.1852
 2094SOL     OW17743   1.928   0.543  10.595  0.0945  0.1136  0.1656
 2094SOL    HW117744   1.989   0.585  10.656 -2.0236 -0.3771  2.6222
 2094SOL    HW217745   1.987   0.531  10.521 -1.2447  1.9389 -1.1925
 2095SOL     OW17746   2.550   2.439  16.118  0.0934 -0.0954  0.4586
 2095SOL    HW117747   2.502   2.476  16.192 -0.2418 -0.2625  0.3255
 2095SOL    HW217748   2.636   2.431  16.161  0.8619  3.6014 -0.3998
 2096SOL     OW17749   3.175   1.742   6.668 -0.2211  0.7056 -0.7499
 2096SOL    HW117750   3.147   1.809   6.731 -1.5974 -3.2041  2.8100
 2096SOL    HW217751   3.108   1.753   6.600  1.6961  1.1839 -2.5715
 2097SOL     OW17752   3.516   0.149   1.536  0.1080  0.4091  0.8392
 2097SOL    HW117753   3.564   0.075   1.499 -1.6419 -0.5042  0.4212
 2097SOL    HW217754   3.430   0.129   1.499  0.1970 -2.0433  1.9824
 2098SOL     OW17755   3.637   0.813  13.711  0.1220  0.4633 -0.1740
 2098SOL    HW117756   3.639   0.872  13.636  1.9571  1.9616  1.0512
 2098SOL    HW217757   3.596   0.878  13.768 -0.2166 -0.2069  0.3490
 2099SOL     OW17758   2.875   3.135  11.347  0.2057 -0.0807  0.3851
 2099SOL    HW117759   2.807   3.201  11.358  1.3116  1.4911 -2.0753
 2099SOL    HW217760   2.940   3.191  11.305 -1.1828 -0.5139 -2.3640
 2100SOL     OW17761   1.258   1.520   8.548  0.4301 -0.1864 -0.8215
 2100SOL    HW117762   1.174   1.481   8.575 -1.7899  2.9035 -3.2637
 2100SOL    HW217763   1.317   1.485   8.615  1.4629  0.3838 -1.4383
 2101SOL     OW17764   2.350   2.098  16.843 -0.1775 -0.1625 -0.2954
 2101SOL    HW117765   2.325   2.091  16.751  2.2511 -2.0167 -0.8417
 2101SOL    HW217766   2.272   2.053  16.876  0.8362 -1.2929  0.5725
 2102SOL     OW17767   4.073   4.086   2.966  0.0437  0.2318 -0.2138
 2102SOL    HW117768   4.020   4.156   2.929 -0.4564 -0.2812 -0.4809
 2102SOL    HW217769   4.146   4.081   2.904  0.7474  1.2607  0.5345
 2103SOL     OW17770   3.686   2.257   3.881  0.7184 -0.4123  0.0940
 2103SOL    HW117771   3.620   2.321   3.905  1.8444  0.9148 -0.3551
 2103SOL    HW217772   3.653   2.213   3.803  2.7084 -0.6713 -0.6209
 2104SOL     OW17773   1.821   3.412  10.357 -0.3119 -0.4367 -0.0025
 2104SOL    HW117774   1.840   3.503  10.380 -2.1317 -0.0085 -0.1479
 2104SOL    HW217775   1.903   3.365  10.345 -0.4880 -0.1419 -2.3154
 2105SOL     OW17776   1.020   1.025   2.991 -0.5403 -0.8133 -0.2092
 2105SOL    HW117777   0.966   1.088   2.943 -0.0338 -2.3968 -2.8755
 2105SOL    HW217778   1.040   1.083   3.065 -1.7361  0.0175 -0.5515
 2106SOL     OW17779   1.712   0.838   2.912  0.0282 -0.4887 -0.3385
 2106SOL    HW117780   1.676   0.751   2.894  0.1301 -0.5297 -0.3403
 2106SOL    HW217781   1.635   0.895   2.920  0.1830 -0.6099  2.1282
 2107SOL     OW17782   4.254   2.630   9.327 -0.2468 -0.7575  0.6003
 2107SOL    HW117783   4.348   2.644   9.312 -0.0748 -1.5049  0.9987
 2107SOL    HW217784   4.227   2.554   9.277 -0.3517 -0.4034  0.1284
 2108SOL     OW17785   4.494   2.512   2.668 -0.2731  0.3249  0.0506
 2108SOL    HW117786   4.587   2.513   2.691 -0.2754  2.9762 -0.1247
 2108SOL    HW217787   4.490   2.543   2.578  2.7714  0.9905  0.1229
 2109SOL     OW17788   4.308   0.168   5.823  0.1421 -0.3862  0.4618
 2109SOL    HW117789   4.404   0.166   5.827  0.2119 -0.1752 -1.1884
 2109SOL    HW217790   4.292   0.074   5.832  2.4403 -0.7393  1.0599
 2110SOL     OW17791   2.846   3.258   5.069 -0.4263  0.3498  0.5537
 2110SOL    HW117792   2.773   3.278   5.010 -0.2218 -2.6881 -0.7556
 2110SOL    HW217793   2.797   3.192   5.118 -0.1718  0.2250  0.6401
 2111SOL     OW17794   0.953   2.454   5.505 -0.4363 -0.0784 -0.3113
 2111SOL    HW117795   1.028   2.471   5.563 -1.2288  1.0355  0.3829
 2111SOL    HW217796   0.973   2.367   5.470 -1.2843 -0.7842  0.9799
 2112SOL     OW17797   1.015   1.784   8.184 -0.2061 -0.1876  0.0728
 2112SOL    HW117798   1.105   1.756   8.173  0.4911  1.7444  0.8254
 2112SOL    HW217799   1.011   1.800   8.279  0.7508 -3.6494  0.6954
 2113SOL     OW17800   1.940   3.734   1.971 -0.4950  0.4821 -0.1712
 2113SOL    HW117801   1.937   3.754   1.877 -0.2555 -1.0564 -0.5005
 2113SOL    HW217802   1.900   3.808   2.017  2.8564  2.5359 -0.5654
 2114SOL     OW17803   0.514   3.607   0.211 -0.1048 -0.6286 -0.4140
 2114SOL    HW117804   0.560   3.580   0.132  0.5698  0.3519 -0.3596
 2114SOL    HW217805   0.486   3.695   0.187  1.6136 -0.6791 -2.5169
 2115SOL     OW17806   4.056   2.267   4.948  0.4204 -0.2921  0.1258
 2115SOL    HW117807   4.141   2.306   4.929 -0.8477  1.4535 -1.8406
 2115SOL    HW217808   4.033   2.300   5.035 -3.0438 -1.2175 -0.4372
 2116SOL     OW17809   0.361   1.422  16.080  0.0924  0.1126 -0.1399
 2116SOL    HW117810   0.269   1.429  16.104  0.1117  1.0554 -0.3229
 2116SOL    HW217811   0.399   1.447  16.165  0.4968  1.1441 -0.6198
 2117SOL     OW17812   0.870   1.861   8.494  0.0361 -0.1502 -1.0665
 2117SOL    HW117813   0.962   1.837   8.503 -0.0389  0.9159  2.7177
 2117SOL    HW217814   0.830   1.776   8.509  0.0733  0.1476  0.7821
 2118SOL     OW17815   2.116   2.043   1.276 -0.0777  1.3557  0.1185
 2118SOL    HW117816   2.193   2.100   1.287  0.0806  1.9682 -4.1313
 2118SOL    HW217817   2.153   1.969   1.324 -2.5379  0.4697  0.6685
 2119SOL     OW17818   2.543   4.241   5.217  0.3322  0.2960 -0.4791
 2119SOL    HW117819   2.607   4.272   5.282 -2.1689  1.0057  1.6402
 2119SOL    HW217820   2.466   4.297   5.228  1.4262  1.4066  1.6358
 2120SOL     OW17821   0.508   1.923  13.287 -0.8858  0.0938 -1.0860
 2120SOL    HW117822   0.460   1.840  13.290 -1.0946  0.1412 -3.0922
 2120SOL    HW217823   0.443   1.992  13.271 -1.0898  0.1393 -0.0461
 2121SOL     OW17824   0.142   4.475   4.257 -0.4999  0.2862  0.4373
 2121SOL    HW117825   0.168   4.564   4.282  0.6713  0.3200 -0.9346
 2121SOL    HW217826   0.207   4.445   4.193 -2.7227 -2.3539 -0.5882
 2122SOL     OW17827   0.132   1.346   8.132 -0.3752  0.1059  0.4025
 2122SOL    HW117828   0.183   1.385   8.203 -0.7547  0.3737  0.5247
 2122SOL    HW217829   0.045   1.386   8.128  0.2988  1.3274 -1.9048
 2123SOL     OW17830   4.570   2.337   5.768  0.3725  0.0050 -0.2889
 2123SOL    HW117831   4.598   2.341   5.859  0.0630 -4.1333 -0.0088
 2123SOL    HW217832   4.562   2.432   5.761  0.7100 -0.0170 -0.9759
 2124SOL     OW17833   3.690   3.738   0.163 -0.1451  0.5771 -0.1519
 2124SOL    HW117834   3.761   3.674   0.156  1.8372  2.9040 -1.4617
 2124SOL    HW217835   3.611   3.690   0.184 -0.5508  1.5626  0.5520
 2125SOL     OW17836   1.399   1.482   9.949  0.0249  0.0734  0.4639
 2125SOL    HW117837   1.387   1.388   9.942 -0.5055  0.2734 -1.3210
 2125SOL    HW217838   1.493   1.482   9.966  0.4343  4.4024 -1.8125
 2126SOL     OW17839   0.417   3.536  11.473 -0.0258 -0.4011  0.1111
 2126SOL    HW117840   0.396   3.465  11.413  0.1575 -0.1977 -0.1961
 2126SOL    HW217841   0.505   3.516  11.504 -0.6640 -1.1085  1.4522
 2127SOL     OW17842   3.145   0.848   2.689  0.1783 -0.2105  0.1217
 2127SOL    HW117843   3.051   0.846   2.672 -0.1417  2.1620  1.6005
 2127SOL    HW217844   3.173   0.769   2.642  1.0262  0.1490  0.0172
 2128SOL     OW17845   1.304   0.468   6.816 -0.3138  0.0377  0.0641
 2128SOL    HW117846   1.381   0.486   6.762  0.6943 -1.4881  1.0025
 2128SOL    HW217847   1.331   0.396   6.873 -0.2716  0.7090  0.9000
 2129SOL     OW17848   1.937   1.487   5.839 -0.5135 -0.5518  0.1703
 2129SOL    HW117849   1.922   1.457   5.749  0.7861  1.3141 -0.6850
 2129SOL    HW217850   1.929   1.406   5.889  0.7103  0.4358  1.9671
 2130SOL     OW17851   2.561   0.731   8.212  0.0720 -0.1493 -0.0061
 2130SOL    HW117852   2.607   0.671   8.271  0.8229  1.4443  1.0609
 2130SOL    HW217853   2.599   0.698   8.131  1.1743  3.3282 -0.9196
 2131SOL     OW17854   0.194   4.365   5.952  0.2397 -0.1105  0.5695
 2131SOL    HW117855   0.274   4.317   5.931  1.2513  1.5830  0.5663
 2131SOL    HW217856   0.141   4.299   5.997  3.1537 -3.7652 -1.2910
 2132SOL     OW17857   1.938   4.108  10.548 -0.1758  0.2042 -0.3005
 2132SOL    HW117858   1.871   4.138  10.609  1.1398 -1.7310  2.0995
 2132SOL    HW217859   1.905   4.133  10.462  1.5562 -1.6210 -1.4920
 2133SOL     OW17860   1.682   1.290   3.541 -0.0302  0.0152  0.1339
 2133SOL    HW117861   1.773   1.279   3.515  0.0162  2.4564 -0.7349
 2133SOL    HW217862   1.665   1.197   3.555  0.0227 -0.3175 -2.0001
 2134SOL     OW17863   3.368   1.476   9.517 -0.2706  0.6011  0.6854
 2134SOL    HW117864   3.330   1.523   9.442  0.7919  1.7856  0.9032
 2134SOL    HW217865   3.303   1.406   9.525 -0.5784  1.0100  1.7421
 2135SOL     OW17866   3.261   1.378  17.110 -0.8070  0.5124 -0.4259
 2135SOL    HW117867   3.343   1.330  17.121 -0.4934  0.5685 -2.5530
 2135SOL    HW217868   3.244   1.395  17.203  0.5533  0.3697 -0.1517
 2136SOL     OW17869   3.788   1.152   3.242  0.2813 -0.2398  0.1578
 2136SOL    HW117870   3.736   1.072   3.246  0.7665 -0.4858  1.4720
 2136SOL    HW217871   3.876   1.126   3.215  1.2010  2.6318  0.3972
 2137SOL     OW17872   1.519   3.932  11.897 -0.2387  0.1740 -0.0610
 2137SOL    HW117873   1.505   4.024  11.920 -0.0031 -0.1775  1.5092
 2137SOL    HW217874   1.587   3.900  11.957 -0.9639  1.1736  1.2919
 2138SOL     OW17875   2.224   0.813   0.896  0.3757  0.1062 -0.0778
 2138SOL    HW117876   2.190   0.846   0.979  2.6194  0.6726  0.6215
 2138SOL    HW217877   2.158   0.749   0.869  0.9862 -1.2728  1.6734
 2139SOL     OW17878   1.646   2.237   9.292 -0.1416  0.1326 -0.9421
 2139SOL    HW117879   1.574   2.240   9.355 -0.2742  0.9523 -1.1311
 2139SOL    HW217880   1.595   2.244   9.211  0.6003 -0.1141 -1.4370
 2140SOL     OW17881   4.411   0.289  16.203  0.3287  0.2382  0.3000
 2140SOL    HW117882   4.428   0.311  16.111 -0.7015  0.5611  0.1902
 2140SOL    HW217883   4.429   0.369  16.252  0.2774  0.6700 -0.3964
 2141SOL     OW17884   1.939   3.124   2.677  0.0748  0.0063  0.3531
 2141SOL    HW117885   2.030   3.154   2.684 -0.6283  1.2719  4.3335
 2141SOL    HW217886   1.893   3.205   2.699 -0.7487  0.7072 -3.9481
 2142SOL     OW17887   2.864   3.478  16.585 -0.1393 -0.0839 -0.4116
 2142SOL    HW117888   2.813   3.455  16.508 -0.3000  0.0987 -0.3589
 2142SOL    HW217889   2.793   3.507  16.643  2.3139 -0.2668  2.6545
 2143SOL     OW17890   0.688   4.281   9.592 -0.7053  0.4663  0.5249
 2143SOL    HW117891   0.644   4.357   9.631  0.7891  2.0232 -0.7608
 2143SOL    HW217892   0.660   4.291   9.500 -0.5063  0.8104  0.5013
 2144SOL     OW17893   2.476   1.122  10.893  0.0904  0.4837 -0.1789
 2144SOL    HW117894   2.391   1.132  10.935 -0.4603  1.3492 -1.4902
 2144SOL    HW217895   2.460   1.059  10.822  0.8162 -0.5449  0.5740
 2145SOL     OW17896   3.973   2.590   2.679 -0.8468 -0.2605  0.5159
 2145SOL    HW117897   3.917   2.597   2.602  0.0226 -0.0857 -0.0999
 2145SOL    HW217898   4.051   2.632   2.644 -0.1574 -1.8441  0.1461
 2146SOL     OW17899   2.144   4.242   5.514 -0.1492  0.0692 -0.8687
 2146SOL    HW117900   2.227   4.216   5.474  1.3882  2.0117  1.0443
 2146SOL    HW217901   2.076   4.204   5.459  0.4053 -1.6861 -0.3336
 2147SOL     OW17902   0.136   2.304   7.170 -0.1739  0.1253  0.1942
 2147SOL    HW117903   0.207   2.254   7.210  0.0349  0.3214  0.0660
 2147SOL    HW217904   0.104   2.341   7.252  0.2509 -1.4847  1.0860
 2148SOL     OW17905   0.380   4.590   4.766 -0.4558  0.1339  0.1775
 2148SOL    HW117906   0.402   4.516   4.708  0.9427 -0.2538  1.1975
 2148SOL    HW217907   0.379   4.661   4.702  2.1160  0.3223  0.3568
 2149SOL     OW17908   2.616   4.430   6.241 -0.2862  0.1865  1.1122
 2149SOL    HW117909   2.609   4.477   6.158 -3.0963  0.5601  1.5632
 2149SOL    HW217910   2.541   4.371   6.229 -0.4352  0.8112 -1.0489
 2150SOL     OW17911   0.669   3.058  10.580  0.1437 -0.4311  0.2175
 2150SOL    HW117912   0.694   3.111  10.656  0.2525 -0.9491  0.5453
 2150SOL    HW217913   0.737   2.990  10.589  1.2362  0.7317  0.7179
 2151SOL     OW17914   2.440   2.641   8.082  0.2087 -0.5353  0.3517
 2151SOL    HW117915   2.400   2.728   8.084  0.8596 -0.3378  3.5228
 2151SOL    HW217916   2.522   2.657   8.036 -0.3496  1.4022  0.0224
 2152SOL     OW17917   4.232   0.914   6.162  0.1948 -0.3675 -0.1220
 2152SOL    HW117918   4.162   0.934   6.100  1.9070  1.9661 -1.3110
 2152SOL    HW217919   4.194   0.836   6.203  0.5320 -0.9920 -0.9910
 2153SOL     OW17920   4.418   0.339   3.995  0.6877  0.6344 -0.0664
 2153SOL    HW117921   4.498   0.345   4.047 -0.1144  1.2842  1.1043
 2153SOL    HW217922   4.393   0.253   4.029  3.0340  0.2618  0.7169
 2154SOL     OW17923   3.586   2.683  13.306 -0.1610  0.2808 -0.2706
 2154SOL    HW117924   3.578   2.693  13.401 -0.6450 -1.3609 -0.1361
 2154SOL    HW217925   3.503   2.637  13.292 -1.0683  1.7486  0.3283
 2155SOL     OW17926   1.391   2.137  16.540  0.8394 -0.5377  0.0973
 2155SOL    HW117927   1.472   2.116  16.494  1.5605  0.0050  1.1035
 2155SOL    HW217928   1.422   2.196  16.609  0.0944  2.0076 -1.7236
 2156SOL     OW17929   3.071   3.421   4.830  0.2477  0.5348 -0.3542
 2156SOL    HW117930   3.008   3.365   4.784  0.4937 -0.1564  0.1532
 2156SOL    HW217931   3.049   3.414   4.923 -2.4742 -0.1361 -1.0451
 2157SOL     OW17932   0.074   4.339  13.046 -0.1354 -0.2418 -0.1301
 2157SOL    HW117933   0.031   4.308  13.126  1.8553 -3.3392 -0.2721
 2157SOL    HW217934   0.038   4.427  13.041 -0.3365 -0.3623 -0.8328
 2158SOL     OW17935   0.581   4.539   7.911 -0.6105 -0.1882  0.0239
 2158SOL    HW117936   0.518   4.606   7.939  0.3121 -0.2455  2.1974
 2158SOL    HW217937   0.530   4.460   7.889  1.2058 -1.0410 -1.1579
 2159SOL     OW17938   1.973   2.417   3.861 -0.0263 -0.3745 -0.7728
 2159SOL    HW117939   2.058   2.375   3.852  0.0927 -0.8404  2.2777
 2159SOL    HW217940   1.984   2.491   3.802 -0.6380 -1.1502 -1.8445
 2160SOL     OW17941   2.599   2.823   5.769  0.3308  0.0690 -0.7389
 2160SOL    HW117942   2.536   2.895   5.772  0.1416 -0.1342  0.2614
 2160SOL    HW217943   2.639   2.827   5.856  0.4252 -1.8525 -0.7055
 2161SOL     OW17944   1.289   4.454   9.211 -0.5959  0.0060  0.2823
 2161SOL    HW117945   1.289   4.477   9.304  0.2950  1.7327 -0.1529
 2161SOL    HW217946   1.268   4.361   9.220  3.1896 -0.7329  1.6862
 2162SOL     OW17947   4.632   0.386   2.700 -0.0608 -0.5035 -0.0174
 2162SOL    HW117948   4.666   0.306   2.740 -0.4769 -1.7752 -2.2162
 2162SOL    HW217949   4.597   0.361   2.615  1.8456  1.6270 -1.4059
 2163SOL     OW17950   4.501   0.711   6.021  0.0431  0.2928  0.1766
 2163SOL    HW117951   4.506   0.803   6.047 -0.3132  0.2185  0.5027
 2163SOL    HW217952   4.551   0.721   5.940 -0.4719 -0.4543 -0.2368
 2164SOL     OW17953   4.698   4.153  13.233 -0.5002 -0.3617  0.2350
 2164SOL    HW117954   4.610   4.150  13.271 -1.6010  0.1761 -2.2526
 2164SOL    HW217955   4.713   4.086  13.167  0.8109  0.0464  0.1220
 2165SOL     OW17956   1.285   0.531   4.065 -0.1147 -0.3598  0.3216
 2165SOL    HW117957   1.323   0.617   4.048  1.3287 -1.1665 -0.5833
 2165SOL    HW217958   1.320   0.476   3.994 -1.8279  0.0972 -0.8808
 2166SOL     OW17959   3.064   3.435   7.080 -0.0713 -0.0124 -0.0653
 2166SOL    HW117960   3.078   3.407   6.990  1.5261  0.2541  0.0918
 2166SOL    HW217961   3.011   3.365   7.118  0.1930 -0.0075  0.3161
 2167SOL     OW17962   0.803   2.226  14.023 -0.0223  1.1100  0.6844
 2167SOL    HW117963   0.746   2.185  14.088 -2.9252  1.0649 -1.9009
 2167SOL    HW217964   0.759   2.194  13.945 -0.3366  0.5119  1.1096
 2168SOL     OW17965   3.879   3.879   6.666  0.2739 -0.7743  0.2807
 2168SOL    HW117966   3.938   3.835   6.727 -0.3444 -1.9240  0.0555
 2168SOL    HW217967   3.918   3.873   6.579 -0.3612  3.0777 -0.2695
 2169SOL     OW17968   2.578   3.935   5.272 -0.1693 -0.1617 -0.5589
 2169SOL    HW117969   2.579   4.029   5.290  1.4460 -0.5862  1.5509
 2169SOL    HW217970   2.486   3.909   5.266 -0.4855  0.8798 -0.1871
 2170SOL     OW17971   1.227   0.494  16.197  0.5644  0.0948  0.3501
 2170SOL    HW117972   1.154   0.469  16.254  1.8177 -2.6166  0.7555
 2170SOL    HW217973   1.254   0.576  16.238  2.0575 -1.0659  1.7175
 2171SOL     OW17974   3.872   0.651   9.912  0.5463  0.2810  0.2598
 2171SOL    HW117975   3.840   0.628   9.999  0.8337 -1.9695 -0.2354
 2171SOL    HW217976   3.799   0.639   9.852  1.3920 -0.4285 -0.6483
 2172SOL     OW17977   1.132   0.490   4.674 -0.2785  0.2664  0.4128
 2172SOL    HW117978   1.109   0.558   4.610 -0.8384 -0.7880 -0.4997
 2172SOL    HW217979   1.154   0.414   4.621 -1.0420 -1.4126  2.4925
 2173SOL     OW17980   2.381   2.137   3.110 -0.5104 -0.4366  0.2330
 2173SOL    HW117981   2.292   2.106   3.129 -0.1636 -0.4305  1.8841
 2173SOL    HW217982   2.430   2.057   3.130  0.5505  0.0613 -0.3756
 2174SOL     OW17983   1.794   3.296   7.997 -0.1876 -0.4791 -0.5919
 2174SOL    HW117984   1.798   3.229   7.929  1.8223 -0.6358 -0.3258
 2174SOL    HW217985   1.787   3.238   8.072  0.4349 -0.0966 -0.2335
 2175SOL     OW17986   0.191   2.865   7.741 -0.7926 -0.3309 -0.8100
 2175SOL    HW117987   0.226   2.942   7.695 -0.8693 -0.2544 -0.7392
 2175SOL    HW217988   0.267   2.809   7.756 -1.1874 -0.8967 -0.9361
 2176SOL     OW17989   2.443   2.665  11.185 -0.4330  0.0073  0.0917
 2176SOL    HW117990   2.490   2.683  11.103  1.2932  0.3370  1.1468
 2176SOL    HW217991   2.350   2.661  11.162 -0.6951  3.2119  0.6429
 2177SOL     OW17992   3.064   3.275   6.839  0.4058 -0.3322  0.0751
 2177SOL    HW117993   3.066   3.182   6.817 -0.7901 -0.4511  0.4857
 2177SOL    HW217994   3.126   3.307   6.773 -1.8033  1.9896 -0.8632
 2178SOL     OW17995   3.555   0.275  12.832  0.5768  0.0176 -0.4548
 2178SOL    HW117996   3.575   0.181  12.839  0.4001  0.2512  3.1722
 2178SOL    HW217997   3.602   0.293  12.751 -0.4966  0.1266 -1.0516
 2179SOL     OW17998   1.628   2.515   2.619  0.0309  0.1537 -0.0234
 2179SOL    HW117999   1.684   2.441   2.596  0.1134  0.3409 -0.4186
 2179SOL    HW218000   1.701   2.577   2.628  0.7178 -0.5852 -0.5048
 2180SOL     OW18001   2.305   0.399   5.935  0.3599  0.0690  0.6711
 2180SOL    HW118002   2.264   0.412   6.020  0.0544 -1.3192  0.7424
 2180SOL    HW218003   2.311   0.493   5.918  1.0490 -0.5763 -2.5494
 2181SOL     OW18004   2.926   3.189   8.166 -0.3165  0.5044  0.0656
 2181SOL    HW118005   2.856   3.198   8.101  1.1404  1.2546 -1.4025
 2181SOL    HW218006   2.904   3.252   8.234 -0.0678  0.9292 -0.2468
 2182SOL     OW18007   3.507   4.062   5.298 -0.4050 -0.0714 -0.1788
 2182SOL    HW118008   3.560   4.124   5.247 -1.3429  1.1203  0.2884
 2182SOL    HW218009   3.458   4.020   5.227 -2.7545  0.2281  1.2751
 2183SOL     OW18010   0.405   0.396   7.037 -0.2252  0.1443 -0.3227
 2183SOL    HW118011   0.406   0.490   7.055  0.5753 -0.2766  1.8303
 2183SOL    HW218012   0.498   0.381   7.025 -0.4155 -1.4136  0.1449
 2184SOL     OW18013   3.461   3.558   4.279  0.3058 -0.1938 -0.5600
 2184SOL    HW118014   3.388   3.573   4.219  0.0466  0.4956 -0.0741
 2184SOL    HW218015   3.499   3.481   4.236 -1.7246 -1.2077 -0.5502
 2185SOL     OW18016   2.855   0.522  16.840 -0.1145  0.0590  0.8042
 2185SOL    HW118017   2.778   0.580  16.837  0.0419  0.2051 -0.4104
 2185SOL    HW218018   2.879   0.529  16.932 -3.1380  2.0605  1.4436
 2186SOL     OW18019   2.076   1.546  11.442 -0.4361 -0.5012 -0.2131
 2186SOL    HW118020   2.026   1.615  11.399 -0.3506 -1.2195 -1.4637
 2186SOL    HW218021   2.130   1.529  11.365  1.5424 -1.7049  1.4388
 2187SOL     OW18022   2.835   1.943  14.295 -0.0084  0.1040  0.1341
 2187SOL    HW118023   2.897   1.900  14.355  0.9035  1.3477  0.0615
 2187SOL    HW218024   2.764   1.878  14.304  1.7439 -1.5486  2.1256
 2188SOL     OW18025   4.018   4.614   6.166 -0.1214  0.2583  0.2523
 2188SOL    HW118026   4.102   4.652   6.141  0.5996 -0.4993  1.5012
 2188SOL    HW218027   3.962   4.645   6.094  1.2414  0.3555 -0.7702
 2189SOL     OW18028   0.890   4.655  15.338  0.6480  0.1949 -0.3179
 2189SOL    HW118029   0.895   0.002  15.402  0.5723  0.2347 -0.3557
 2189SOL    HW218030   0.957   4.607  15.386  1.8822  0.8676 -1.4059
 2190SOL     OW18031   4.034   0.612  15.695 -0.8182  0.0183 -0.0571
 2190SOL    HW118032   4.019   0.676  15.764 -0.0208 -0.0249  0.1663
 2190SOL    HW218033   3.945   0.581  15.682 -0.7036 -0.1828 -0.3704
 2191SOL     OW18034   4.066   4.252   6.484  0.1344 -0.0164 -0.1863
 2191SOL    HW118035   4.090   4.320   6.421  2.2050 -0.4072  0.1949
 2191SOL    HW218036   3.998   4.198   6.443 -0.8307  0.5120  0.7060
 2192SOL     OW18037   0.516   3.087   2.742 -0.7575 -0.1637 -0.3794
 2192SOL    HW118038   0.424   3.113   2.750 -1.4145 -2.5424 -0.2495
 2192SOL    HW218039   0.508   3.029   2.666  0.7189 -1.4031  0.4195
 2193SOL     OW18040   1.114   3.501  11.524  0.2952  0.4849 -0.0932
 2193SOL    HW118041   1.125   3.467  11.435  0.2708 -0.5535  0.3013
 2193SOL    HW218042   1.190   3.557  11.536 -1.0080  1.9406  1.2496
 2194SOL     OW18043   2.521   3.223  11.783  0.4751 -0.2385 -0.3185
 2194SOL    HW118044   2.464   3.147  11.795 -0.8476  1.1289  2.0514
 2194SOL    HW218045   2.512   3.267  11.867  0.6964 -2.8883  1.0606
 2195SOL     OW18046   1.392   4.272   0.799  0.5223  0.0336 -0.4084
 2195SOL    HW118047   1.380   4.230   0.884 -2.8632  0.2524 -0.7440
 2195SOL    HW218048   1.416   4.207   0.734  2.1311  0.5511 -0.3165
 2196SOL     OW18049   0.088   0.370   5.868  0.1632  0.1526  0.8974
 2196SOL    HW118050   0.038   0.399   5.792 -1.6445 -1.0965  1.6070
 2196SOL    HW218051   0.160   0.430   5.887  1.0924 -0.7599  0.2803
 2197SOL     OW18052   1.102   0.566   4.988  0.3816 -0.2216 -0.1254
 2197SOL    HW118053   1.161   0.563   4.912  0.4530 -0.7911 -0.0465
 2197SOL    HW218054   1.160   0.514   5.043 -1.2639 -1.2420  0.6192
 2198SOL     OW18055   1.381   2.277   8.764  0.1196 -0.7231  0.3649
 2198SOL    HW118056   1.290   2.254   8.781 -0.0866 -0.1462  0.0364
 2198SOL    HW218057   1.421   2.190   8.769  1.0398 -0.5321 -4.1003
 2199SOL     OW18058   1.025   3.787   8.054 -0.0409 -0.2426 -0.1967
 2199SOL    HW118059   1.111   3.753   8.082  0.4860  0.5229 -0.8825
 2199SOL    HW218060   1.001   3.824   8.138 -0.3442 -1.4121  0.2348
 2200SOL     OW18061   3.995   1.800  13.734 -0.2345  0.0354  0.0590
 2200SOL    HW118062   3.984   1.893  13.753  0.2916  0.0416  0.3358
 2200SOL    HW218063   3.907   1.768  13.753  0.1223 -1.7326 -1.2074
 2201SOL     OW18064   4.698   2.060  11.493 -0.0184  0.4719  0.0442
 2201SOL    HW118065   0.004   2.102  11.573 -3.4336  0.1155  1.5159
 2201SOL    HW218066   0.039   1.992  11.477 -0.5346  0.0686 -0.3681
 2202SOL     OW18067   1.802   3.289   1.536 -0.1557 -0.6076  0.1369
 2202SOL    HW118068   1.888   3.253   1.515  0.7615  0.2773  2.3023
 2202SOL    HW218069   1.813   3.339   1.617  0.0356  0.2809 -0.4349
 2203SOL     OW18070   4.212   3.847   7.181  0.3062  0.6479  0.0780
 2203SOL    HW118071   4.235   3.807   7.097 -1.2198 -2.1695  0.9767
 2203SOL    HW218072   4.120   3.819   7.182  0.6784 -0.5860  0.1119
 2204SOL     OW18073   1.262   3.279   4.372 -0.2503 -0.3229  0.3030
 2204SOL    HW118074   1.198   3.313   4.310 -0.8753  1.3951  1.8779
 2204SOL    HW218075   1.243   3.336   4.447 -1.4628  0.1410 -0.3460
 2205SOL     OW18076   0.561   3.784   5.099 -0.5144 -0.4441  0.0582
 2205SOL    HW118077   0.521   3.698   5.114 -0.1704 -0.4035  1.1987
 2205SOL    HW218078   0.523   3.814   5.016 -0.6558  1.8689  0.9541
 2206SOL     OW18079   1.295   1.782   1.860 -0.2021 -0.0101  0.2735
 2206SOL    HW118080   1.371   1.726   1.876 -0.1622  0.3076  1.1697
 2206SOL    HW218081   1.226   1.723   1.893  1.5466 -1.9318  0.4962
 2207SOL     OW18082   1.551   1.652   5.294  0.3887 -0.1310 -0.1989
 2207SOL    HW118083   1.549   1.598   5.215 -1.3107  0.7366 -0.7643
 2207SOL    HW218084   1.501   1.730   5.268  0.9818 -0.0206 -1.0049
 2208SOL     OW18085   1.847   2.041   0.743  0.5004  0.2820 -0.0634
 2208SOL    HW118086   1.779   2.009   0.804 -1.3949  2.8800 -0.8048
 2208SOL    HW218087   1.909   2.071   0.809  0.6073 -1.1497  0.5036
 2209SOL     OW18088   2.786   4.397   7.484 -0.3984 -0.4812  0.5336
 2209SOL    HW118089   2.777   4.399   7.579  0.5890  2.1382  0.5705
 2209SOL    HW218090   2.724   4.461   7.449  0.4573 -0.7244 -1.4368
 2210SOL     OW18091   2.138   3.490   4.825 -0.2158  0.3979  0.0173
 2210SOL    HW118092   2.076   3.418   4.816 -0.7276  0.4393  3.4237
 2210SOL    HW218093   2.162   3.500   4.917  0.0064  2.1808 -0.2209
 2211SOL     OW18094   2.343   0.071   1.696 -0.1551 -0.1089  0.3123
 2211SOL    HW118095   2.317   0.154   1.655 -1.0870  0.2730  1.6612
 2211SOL    HW218096   2.261   0.026   1.718 -0.4785  1.3905  2.2708
 2212SOL     OW18097   1.993   2.474  10.254  0.6560  0.3571 -0.4587
 2212SOL    HW118098   2.053   2.510  10.189 -1.0762  0.1063 -2.1778
 2212SOL    HW218099   1.967   2.393  10.212 -1.5096  1.1164 -0.6052
 2213SOL     OW18100   2.005   1.033   3.832  0.4815  0.3673  0.7741
 2213SOL    HW118101   2.095   1.010   3.812 -0.4151  0.6836 -3.5926
 2213SOL    HW218102   1.952   1.025   3.753 -1.2398  0.7522  1.8744
 2214SOL     OW18103   3.119   3.517   2.223  0.1794 -0.8897  0.0873
 2214SOL    HW118104   3.035   3.524   2.177  1.0456 -2.3823 -1.7182
 2214SOL    HW218105   3.152   3.439   2.180  1.5062 -0.5542  0.4944
 2215SOL     OW18106   0.771   4.246   2.745  0.6997 -0.2849 -0.0022
 2215SOL    HW118107   0.709   4.262   2.674  2.8975 -0.1969 -1.8961
 2215SOL    HW218108   0.836   4.186   2.708 -0.0166  0.4766 -2.4851
 2216SOL     OW18109   1.737   2.769  17.339  1.2651  0.2422  0.1485
 2216SOL    HW118110   1.675   2.835  17.368 -0.2250 -0.1727 -2.1059
 2216SOL    HW218111   1.824   2.804  17.359  0.4650  2.7139 -0.7911
 2217SOL     OW18112   2.922   0.148   9.643 -0.6992 -0.5300 -0.4666
 2217SOL    HW118113   2.832   0.180   9.643 -0.9450 -1.2292 -1.5690
 2217SOL    HW218114   2.957   0.209   9.709 -2.0218  0.3920 -0.6210
 2218SOL     OW18115   2.622   4.106   4.754  0.3292 -0.5249  0.1661
 2218SOL    HW118116   2.649   4.170   4.820  0.8769  0.2489 -0.8153
 2218SOL    HW218117   2.709   4.081   4.722  0.3829  1.1708 -1.0544
 2219SOL     OW18118   3.450   4.045   8.177  0.3989  0.0529  0.3885
 2219SOL    HW118119   3.374   4.024   8.231  0.3274  0.5688  0.4876
 2219SOL    HW218120   3.480   4.130   8.207  1.3575  0.4575 -1.7508
 2220SOL     OW18121   3.904   2.382   1.610  0.5195 -0.7683 -0.7524
 2220SOL    HW118122   3.947   2.377   1.525 -0.1725 -3.6208 -0.9543
 2220SOL    HW218123   3.823   2.430   1.592  0.6240 -0.0663  0.6834
 2221SOL     OW18124   3.883   2.949   5.794  0.0028 -0.3444  0.5950
 2221SOL    HW118125   3.795   2.988   5.795  1.7829  3.5626  0.6439
 2221SOL    HW218126   3.855   2.859   5.775 -4.4154  0.9001  1.2084
 2222SOL     OW18127   2.904   3.905  12.730 -0.3681 -0.4960 -0.2968
 2222SOL    HW118128   2.861   3.896  12.645 -0.7590 -0.2567 -0.1224
 2222SOL    HW218129   2.955   3.824  12.733  0.5134  0.1329  1.2866
 2223SOL     OW18130   0.891   1.541   3.426 -0.0381 -0.0291 -0.4971
 2223SOL    HW118131   0.896   1.466   3.485  0.5296 -0.4160 -1.0388
 2223SOL    HW218132   0.922   1.491   3.351 -0.4593 -0.8610 -0.1146
 2224SOL     OW18133   4.202   1.182   8.639  0.2648  0.3345  0.4611
 2224SOL    HW118134   4.235   1.269   8.661 -0.4397  0.3826  1.3309
 2224SOL    HW218135   4.131   1.174   8.703 -1.3508  1.8927 -1.1379
 2225SOL     OW18136   4.132   0.972   6.947 -0.2849  0.5977 -0.0262
 2225SOL    HW118137   4.167   1.009   7.028  2.1886 -0.9196 -0.4244
 2225SOL    HW218138   4.060   1.035   6.941  1.1065  2.0355 -1.5317
 2226SOL     OW18139   3.897   3.623   2.304  0.4839 -0.1865  0.5139
 2226SOL    HW118140   3.838   3.672   2.248 -1.9303 -0.9858  2.3527
 2226SOL    HW218141   3.964   3.689   2.322  0.7197  0.2546 -1.9624
 2227SOL     OW18142   0.276   3.500   2.291  0.1599 -0.3128  0.1182
 2227SOL    HW118143   0.350   3.453   2.252  0.5861  0.4190  0.0391
 2227SOL    HW218144   0.231   3.522   2.210 -1.4082 -1.8316  0.5872
 2228SOL     OW18145   4.458   1.434   5.397 -0.2715 -0.0259  0.4579
 2228SOL    HW118146   4.405   1.372   5.447 -1.4887  0.9236  0.3265
 2228SOL    HW218147   4.536   1.378   5.400 -0.3720 -0.1818  0.1305
 2229SOL     OW18148   1.146   0.854   1.738 -0.1030  0.0579 -0.0237
 2229SOL    HW118149   1.129   0.760   1.736  1.2396 -0.1685 -1.2982
 2229SOL    HW218150   1.058   0.884   1.716 -0.3833  0.7302  2.0411
 2230SOL     OW18151   2.076   1.742   2.414  0.3786  0.3513  0.2048
 2230SOL    HW118152   2.075   1.824   2.462 -2.4104 -1.0815  2.6440
 2230SOL    HW218153   1.994   1.695   2.432  0.6626 -0.4052 -0.4660
 2231SOL     OW18154   0.357   3.823   7.872  0.2866 -0.7811 -0.1541
 2231SOL    HW118155   0.339   3.866   7.788 -0.3842  2.0832  1.4641
 2231SOL    HW218156   0.384   3.902   7.919 -0.1457 -1.1219  0.6632
 2232SOL     OW18157   1.061   0.382   6.699  0.2992  0.3532  0.2606
 2232SOL    HW118158   1.025   0.351   6.782  2.5850  0.1474  1.1562
 2232SOL    HW218159   1.145   0.413   6.732  1.8787 -3.0257 -0.6408
 2233SOL     OW18160   1.711   0.521  15.577 -0.2524  0.3279 -1.0527
 2233SOL    HW118161   1.650   0.453  15.607 -0.0278  0.3922 -0.4437
 2233SOL    HW218162   1.760   0.542  15.657 -0.5191  2.0372 -1.3376
 2234SOL     OW18163   3.715   0.409   3.317  0.3580  0.2346  0.2789
 2234SOL    HW118164   3.803   0.398   3.281  0.4984 -0.2825  0.7892
 2234SOL    HW218165   3.716   0.358   3.397 -1.8992  0.9497  0.7601
 2235SOL     OW18166   0.207   1.739  12.640 -0.1568  0.0530 -0.2721
 2235SOL    HW118167   0.248   1.825  12.649  0.5915 -0.4688  1.3592
 2235SOL    HW218168   0.239   1.695  12.718  1.3832  0.8224 -0.4781
 2236SOL     OW18169   0.694   2.826  13.906  0.0170 -0.3694  0.5507
 2236SOL    HW118170   0.663   2.768  13.976 -0.2733  1.0940  1.6391
 2236SOL    HW218171   0.656   2.776  13.834 -2.0076 -1.5540  2.4529
 2237SOL     OW18172   2.958   2.483   6.823  0.1690  0.0934 -0.1858
 2237SOL    HW118173   3.009   2.436   6.756  0.6225  0.5606 -0.1683
 2237SOL    HW218174   3.026   2.544   6.849  0.6773 -1.0523  1.1715
 2238SOL     OW18175   0.164   1.432   1.490  0.1579 -0.3295  0.4842
 2238SOL    HW118176   0.088   1.477   1.527 -0.4748 -0.4353 -0.6982
 2238SOL    HW218177   0.218   1.510   1.473  1.2974 -1.3534 -0.5851
 2239SOL     OW18178   2.602   0.391  11.657  0.2955 -0.1972 -0.2753
 2239SOL    HW118179   2.510   0.372  11.642  0.2374  1.3044 -1.8521
 2239SOL    HW218180   2.603   0.465  11.716 -0.6198 -0.8684  0.5785
 2240SOL     OW18181   2.098   1.803   4.408 -0.2550 -0.4443  0.3903
 2240SOL    HW118182   2.141   1.849   4.336  0.0457  1.7047  1.9713
 2240SOL    HW218183   2.170   1.784   4.468 -0.9818  0.9085  1.6844
 2241SOL     OW18184   2.403   0.052   2.927 -0.1918  0.2501  0.1779
 2241SOL    HW118185   2.443   0.093   2.850  0.1733  0.7736  0.6434
 2241SOL    HW218186   2.316   0.091   2.938 -0.2086  0.1871  0.2642
 2242SOL     OW18187   0.016   4.048   7.400 -0.2355  0.2280  0.5475
 2242SOL    HW118188   4.652   4.031   7.430 -0.4165 -1.3105 -0.8474
 2242SOL    HW218189   0.028   4.128   7.452  2.1755 -0.3900  0.9670
 2243SOL     OW18190   3.004   0.679   5.733 -0.3131 -0.2461 -0.3028
 2243SOL    HW118191   3.004   0.643   5.821  0.3689 -0.9445 -0.5920
 2243SOL    HW218192   3.022   0.595   5.691  2.0137  0.0393  0.1621
 2244SOL     OW18193   4.537   0.559  13.200 -0.2661 -0.6108  0.2223
 2244SOL    HW118194   4.630   0.582  13.198 -1.8091  5.0107 -4.5327
 2244SOL    HW218195   4.498   0.636  13.240  3.7464  1.0776  0.8774
 2245SOL     OW18196   2.593   3.490   1.192  0.1279 -0.6486  0.2194
 2245SOL    HW118197   2.606   3.463   1.283 -1.0674 -0.3801  0.4692
 2245SOL    HW218198   2.645   3.571   1.195  1.1711 -1.3549  1.4744
 2246SOL     OW18199   4.495   1.439   5.122 -0.2209  0.5362 -0.2921
 2246SOL    HW118200   4.407   1.458   5.092 -0.6113 -1.8050 -0.5907
 2246SOL    HW218201   4.476   1.409   5.211  0.1465  0.2317 -0.3188
 2247SOL     OW18202   3.840   1.864   6.599 -0.2479  0.1243  0.3303
 2247SOL    HW118203   3.858   1.956   6.620  0.1545  0.1738 -0.2542
 2247SOL    HW218204   3.838   1.824   6.686 -2.4532  0.3603  0.3923
 2248SOL     OW18205   2.002   2.765  11.479 -0.2609 -0.1509  0.0240
 2248SOL    HW118206   2.085   2.810  11.460 -0.0003 -0.5418  0.2192
 2248SOL    HW218207   1.959   2.792  11.398  0.3052 -0.5600 -0.4132
 2249SOL     OW18208   4.030   2.978   8.717 -0.2844  0.2293 -0.4365
 2249SOL    HW118209   4.083   3.017   8.786  1.9626 -0.7301 -1.6221
 2249SOL    HW218210   4.043   3.031   8.638  1.6237 -0.6855 -0.7487
 2250SOL     OW18211   1.332   4.679   5.725 -0.6492  0.2679  0.6014
 2250SOL    HW118212   1.292   4.601   5.686 -0.0905  0.7420 -0.8837
 2250SOL    HW218213   1.417   4.674   5.683 -1.0012  0.5473 -0.1479
 2251SOL     OW18214   0.615   1.243   8.703  0.0170 -0.0343  0.3598
 2251SOL    HW118215   0.672   1.170   8.727  1.2808  0.7025 -0.4068
 2251SOL    HW218216   0.599   1.297   8.780 -0.8364 -1.4710  1.1895
 2252SOL     OW18217   4.230   0.842   7.557 -0.1028  0.1297  0.1345
 2252SOL    HW118218   4.229   0.746   7.560 -2.1456  0.1556 -0.0037
 2252SOL    HW218219   4.238   0.859   7.651 -1.3864  3.4927 -0.3780
 2253SOL     OW18220   0.241   0.823  13.307 -0.3678 -0.3370  0.5903
 2253SOL    HW118221   0.324   0.839  13.353  0.9729 -0.8415 -1.6408
 2253SOL    HW218222   0.253   0.893  13.243  0.3043 -0.1166  0.9480
 2254SOL     OW18223   3.860   1.538   7.488 -0.0169  0.2234  0.3310
 2254SOL    HW118224   3.955   1.552   7.487  0.1562 -1.1087 -2.9362
 2254SOL    HW218225   3.842   1.631   7.476  2.2176  0.4694 -1.1603
 2255SOL     OW18226   2.703   1.225   7.854  0.6897  0.6160  0.7236
 2255SOL    HW118227   2.717   1.138   7.816  0.4840  1.7743 -2.0048
 2255SOL    HW218228   2.757   1.209   7.932  1.1281 -0.3111  0.2357
 2256SOL     OW18229   3.659   1.116   4.153  1.0553  0.1417  0.5800
 2256SOL    HW118230   3.657   1.205   4.187  0.0868  0.7015 -0.9251
 2256SOL    HW218231   3.730   1.123   4.090 -0.4480 -0.2773 -1.1537
 2257SOL     OW18232   1.176   1.073   8.914  0.0583  0.6243 -0.5452
 2257SOL    HW118233   1.160   1.167   8.920  1.9473  0.9187  0.0369
 2257SOL    HW218234   1.262   1.068   8.957 -0.7432 -0.4129  0.9364
 2258SOL     OW18235   4.663   2.580  15.282 -0.2912  0.1798  0.0253
 2258SOL    HW118236   4.689   2.637  15.210  0.8819  1.5413  1.5236
 2258SOL    HW218237   4.581   2.622  15.306 -0.2980 -0.1324  0.5563
 2259SOL     OW18238   2.810   2.398   5.889  0.0353  0.1084  0.0215
 2259SOL    HW118239   2.773   2.326   5.941 -0.0322 -0.5339 -0.9184
 2259SOL    HW218240   2.740   2.401   5.825 -1.5179 -1.9512  1.6106
 2260SOL     OW18241   4.354   4.284  16.715  0.3384 -0.7863 -0.4777
 2260SOL    HW118242   4.414   4.216  16.745  0.6292 -0.9177 -1.3556
 2260SOL    HW218243   4.373   4.369  16.755  0.5008 -0.5755 -1.0025
 2261SOL     OW18244   2.136   2.898   2.577  0.0413  0.5835  0.4631
 2261SOL    HW118245   2.223   2.889   2.538 -1.0886 -1.0732 -1.6320
 2261SOL    HW218246   2.153   2.962   2.646  2.5111  0.5109 -0.0774
 2262SOL     OW18247   0.156   3.064   2.686 -0.3728 -0.3855  0.0294
 2262SOL    HW118248   0.138   3.137   2.745 -0.4376 -0.1217 -0.3214
 2262SOL    HW218249   0.143   3.104   2.600  1.0147  0.5901  0.2852
 2263SOL     OW18250   2.193   2.919   4.312  0.4945  0.0657  0.0095
 2263SOL    HW118251   2.211   2.835   4.270  0.1809  0.2992 -0.5927
 2263SOL    HW218252   2.098   2.915   4.306  0.5355 -0.2364 -0.4416
 2264SOL     OW18253   3.876   0.467   2.830 -0.4658 -0.0070 -0.0619
 2264SOL    HW118254   3.909   0.384   2.796 -1.2153 -0.5957  0.6327
 2264SOL    HW218255   3.826   0.423   2.899  2.7870 -2.5365  0.6586
 2265SOL     OW18256   3.021   1.760   3.628 -0.3285  0.2525  0.0469
 2265SOL    HW118257   3.068   1.779   3.709  3.8332  0.1376 -2.3307
 2265SOL    HW218258   2.958   1.698   3.664 -0.3714  0.2841  0.0253
 2266SOL     OW18259   2.450   2.045   5.124 -0.2205 -0.7716 -0.2604
 2266SOL    HW118260   2.390   2.030   5.051 -1.5124 -1.0391  0.8572
 2266SOL    HW218261   2.422   2.129   5.160 -2.7685 -0.4188 -3.0850
 2267SOL     OW18262   0.601   2.646  16.976  0.0906 -0.2340 -0.6636
 2267SOL    HW118263   0.517   2.630  17.020  0.0754 -1.3471 -1.0940
 2267SOL    HW218264   0.660   2.619  17.046  0.6879  0.6962 -0.8117
 2268SOL     OW18265   4.689   0.006  11.844 -0.7370  0.0697  0.7695
 2268SOL    HW118266   0.041   4.691  11.801 -0.7850 -0.8626  1.5424
 2268SOL    HW218267   4.630   4.656  11.856  1.5762 -2.2429 -2.0601
 2269SOL     OW18268   0.078   0.341  11.706  0.1506 -0.0864 -0.2376
 2269SOL    HW118269   4.714   0.315  11.730  0.7625 -2.0968 -0.1353
 2269SOL    HW218270   0.071   0.406  11.637  2.4944 -1.1344 -1.4693
 2270SOL     OW18271   1.752   0.860  15.928  0.2287 -0.1431  0.4441
 2270SOL    HW118272   1.722   0.852  15.837 -0.1742  1.2176  0.4537
 2270SOL    HW218273   1.835   0.904  15.911  0.2070 -0.2460  0.0740
 2271SOL     OW18274   0.233   1.106  12.951 -0.0214  0.1776 -0.2923
 2271SOL    HW118275   0.292   1.053  13.005 -0.3475  1.7661  1.5962
 2271SOL    HW218276   0.293   1.170  12.913 -0.0500 -0.0249 -0.6795
 2272SOL     OW18277   0.008   3.769   6.378 -0.0361 -0.2773 -0.2677
 2272SOL    HW118278   4.672   3.816   6.321 -3.0286 -3.4575  0.3173
 2272SOL    HW218279   0.059   3.720   6.314  1.4227  0.3785  0.3827
 2273SOL     OW18280   2.926   3.885  17.377 -0.1221  0.1821 -0.2312
 2273SOL    HW118281   2.920   3.957  17.440 -1.8707 -1.5513  1.5968
 2273SOL    HW218282   2.987   3.829  17.425 -1.4057 -1.2106 -0.2221
 2274SOL     OW18283   4.327   0.054   1.265 -0.1401  0.0576  0.4666
 2274SOL    HW118284   4.349   0.147   1.253  0.8826 -0.4142 -1.4138
 2274SOL    HW218285   4.288   0.056   1.352 -0.0736  1.6229  0.4558
 2275SOL     OW18286   2.424   3.306   4.237 -0.0315  0.6160  0.5253
 2275SOL    HW118287   2.362   3.378   4.230  0.1781  0.7661  0.2271
 2275SOL    HW218288   2.489   3.328   4.170  0.8400 -0.9098  0.8774
 2276SOL     OW18289   0.800   1.739   7.389 -0.7784  0.4576 -0.4519
 2276SOL    HW118290   0.830   1.679   7.457 -0.7706  1.4527  0.4290
 2276SOL    HW218291   0.736   1.770   7.454  0.8581  3.5519 -0.2938
 2277SOL     OW18292   4.492   1.823   0.326 -0.1191 -0.0233 -0.2314
 2277SOL    HW118293   4.522   1.735   0.303  2.4228  0.8177 -0.1271
 2277SOL    HW218294   4.424   1.806   0.391 -0.4771  0.6368 -0.4260
 2278SOL     OW18295   3.635   4.595  17.352 -0.2572 -0.1575  0.5364
 2278SOL    HW118296   3.607   4.588  17.261  0.9092  2.5763 -0.0415
 2278SOL    HW218297   3.709   4.655  17.344 -1.5525  1.2956 -0.5233
 2279SOL     OW18298   1.923   2.646   3.196 -0.0107 -0.4308 -0.0321
 2279SOL    HW118299   1.868   2.660   3.119 -0.4642 -0.0860  0.3549
 2279SOL    HW218300   1.941   2.728   3.241 -1.5446 -1.1604  1.8713
 2280SOL     OW18301   1.494   2.720   4.755 -0.5943 -0.2700  0.0504
 2280SOL    HW118302   1.499   2.813   4.777  3.7087 -0.5835  0.3932
 2280SOL    HW218303   1.416   2.696   4.806  0.8326 -0.2144  2.2436
 2281SOL     OW18304   3.387   0.959  11.591  0.2583 -0.6396 -0.1645
 2281SOL    HW118305   3.475   0.990  11.615 -0.8749  1.7290  0.9586
 2281SOL    HW218306   3.338   0.985  11.669  0.2375 -0.8411 -0.1121
 2282SOL     OW18307   2.323   1.470   6.964  0.2252  0.1894  0.8484
 2282SOL    HW118308   2.409   1.431   6.949 -0.6549 -0.5804 -2.0226
 2282SOL    HW218309   2.284   1.468   6.877 -0.3800  0.3729  1.1136
 2283SOL     OW18310   2.044   4.648   6.317  0.1813 -0.0854 -0.5083
 2283SOL    HW118311   2.044   4.689   6.230 -1.7207  1.0723  0.0296
 2283SOL    HW218312   1.962   4.686   6.348  0.3771 -1.2511  1.4307
 2284SOL     OW18313   2.107   3.941   6.824  0.5951 -0.0076 -0.2754
 2284SOL    HW118314   2.087   3.863   6.772  3.0135 -0.7577 -0.0955
 2284SOL    HW218315   2.202   3.952   6.815  0.9746 -1.4809  1.9238
 2285SOL     OW18316   4.548   3.814   9.857 -0.4779 -0.4947  0.0772
 2285SOL    HW118317   4.525   3.727   9.824 -0.4403 -0.5362  0.1609
 2285SOL    HW218318   4.479   3.857   9.807 -0.9750 -0.6508  0.6361
 2286SOL     OW18319   4.150   0.348  13.720 -0.0910  0.1655 -0.3562
 2286SOL    HW118320   4.172   0.340  13.628 -0.3602  0.4869 -0.4468
 2286SOL    HW218321   4.055   0.355  13.720 -0.3288 -2.8867  3.6389
 2287SOL     OW18322   2.452   0.846   6.040 -0.1712 -0.2307 -0.1845
 2287SOL    HW118323   2.398   0.840   5.961 -0.8058  0.8034  0.1748
 2287SOL    HW218324   2.392   0.819   6.110 -0.1341 -1.0340 -0.4666
 2288SOL     OW18325   0.351   4.711   5.981 -0.2092  0.0143  0.5288
 2288SOL    HW118326   0.326   4.636   6.035  1.0380 -0.8199 -0.0456
 2288SOL    HW218327   0.446   4.708   5.993 -0.3352  0.7277  1.7298
 2289SOL     OW18328   0.777   2.739   7.325 -0.1149  0.3303  0.0380
 2289SOL    HW118329   0.782   2.813   7.265 -1.3346 -0.2563 -0.8018
 2289SOL    HW218330   0.800   2.673   7.259  0.2857 -0.5274  1.0239
 2290SOL     OW18331   0.462   2.924  13.591 -0.1487  0.0720 -0.0309
 2290SOL    HW118332   0.493   2.840  13.626 -0.5606 -0.1877 -0.2942
 2290SOL    HW218333   0.548   2.944  13.553  0.3944 -2.8498 -0.3782
 2291SOL     OW18334   2.627   4.374  12.243 -0.6200  0.0914  0.2586
 2291SOL    HW118335   2.544   4.419  12.228 -1.3238 -0.3260  3.0484
 2291SOL    HW218336   2.654   4.341  12.157 -1.3120  0.2238 -0.0059
 2292SOL     OW18337   1.579   2.507   4.603 -0.6331  0.2886 -0.0451
 2292SOL    HW118338   1.552   2.579   4.659  0.1234  1.1467 -0.7763
 2292SOL    HW218339   1.622   2.554   4.532 -0.7582  0.1204 -0.2355
 2293SOL     OW18340   4.141   3.520   8.470 -0.3884  0.5296 -0.2731
 2293SOL    HW118341   4.205   3.473   8.416  0.8973  0.3238  1.4407
 2293SOL    HW218342   4.068   3.500   8.412  1.6733 -1.9551 -1.9849
 2294SOL     OW18343   1.044   4.623   5.199 -0.1745  0.3384  0.3827
 2294SOL    HW118344   1.089   4.702   5.168 -1.6699  0.7118 -0.8936
 2294SOL    HW218345   0.982   4.665   5.258 -0.7149  0.3910 -0.2225
 2295SOL     OW18346   2.405   4.021   6.700  0.5546 -0.4187 -0.1145
 2295SOL    HW118347   2.492   3.988   6.723  0.1320 -0.6525  1.1424
 2295SOL    HW218348   2.365   3.934   6.699 -2.4195  0.9348  1.6018
 2296SOL     OW18349   2.797   1.628   7.955  0.3501  0.0551  0.1476
 2296SOL    HW118350   2.739   1.596   8.025 -1.7807 -0.4412 -1.8359
 2296SOL    HW218351   2.851   1.551   7.935 -0.5580  0.2668 -3.0706
 2297SOL     OW18352   4.165   4.216   2.339  0.4745 -0.1367 -0.4981
 2297SOL    HW118353   4.073   4.207   2.363  1.2207 -0.8209  2.1476
 2297SOL    HW218354   4.194   4.128   2.363 -2.3743 -0.9378 -0.0429
 2298SOL     OW18355   0.674   1.697   6.676  0.5282  0.6432  0.0343
 2298SOL    HW118356   0.676   1.665   6.766  0.7639  0.1611 -0.1430
 2298SOL    HW218357   0.580   1.712   6.666  0.2292 -0.2067  1.6745
 2299SOL     OW18358   3.265   1.765   0.675 -0.6787 -0.1226 -0.3014
 2299SOL    HW118359   3.335   1.812   0.630  0.3657 -1.8719 -0.4956
 2299SOL    HW218360   3.206   1.834   0.704  0.6453  1.4203 -1.2782
 2300SOL     OW18361   1.685   0.987   8.135  0.0531  0.5953  0.3097
 2300SOL    HW118362   1.735   0.939   8.201 -3.2321  2.0385  3.9031
 2300SOL    HW218363   1.612   0.927   8.118  0.4891 -0.0058  0.5542
 2301SOL     OW18364   4.391   1.514   0.985  0.1727  0.2856  0.3962
 2301SOL    HW118365   4.297   1.510   0.972  0.3946  0.4594 -1.3267
 2301SOL    HW218366   4.403   1.540   1.077  0.6525  0.6638  0.2310
 2302SOL     OW18367   4.294   0.423   2.055 -0.0771 -0.0390 -0.4229
 2302SOL    HW118368   4.239   0.348   2.078 -0.5973  0.3345 -0.4438
 2302SOL    HW218369   4.270   0.450   1.966  0.6056 -1.8134 -1.1443
 2303SOL     OW18370   2.007   3.936   7.071  0.0190  0.3073 -0.3189
 2303SOL    HW118371   1.913   3.956   7.075 -0.5660 -2.3365 -0.8228
 2303SOL    HW218372   2.012   3.956   6.978 -0.7884  0.7358 -0.2713
 2304SOL     OW18373   1.654   2.267   3.430  0.1530 -0.5296 -0.3311
 2304SOL    HW118374   1.695   2.297   3.349  1.8508  0.8543  1.0439
 2304SOL    HW218375   1.571   2.313   3.420  0.6755  0.7021  1.0040
 2305SOL     OW18376   2.911   1.007   2.960  0.1881  0.0447 -0.4704
 2305SOL    HW118377   2.816   1.005   2.974  0.2577 -0.8906 -0.1404
 2305SOL    HW218378   2.941   0.917   2.949  1.0251  0.0643  1.6780
 2306SOL     OW18379   3.496   3.416   3.676  0.1264  0.0511 -0.1161
 2306SOL    HW118380   3.569   3.384   3.622 -0.8859  0.3895 -1.6756
 2306SOL    HW218381   3.421   3.428   3.619 -0.2131  1.2831  0.5763
 2307SOL     OW18382   1.535   2.986   0.930  0.3234 -0.5816 -0.4291
 2307SOL    HW118383   1.545   2.891   0.938 -1.7608 -0.7132  0.4298
 2307SOL    HW218384   1.440   2.996   0.938  0.1651 -0.6139 -2.1559
 2308SOL     OW18385   1.217   2.174   8.441  0.5923  0.3709  0.1278
 2308SOL    HW118386   1.281   2.118   8.484  0.3818  1.1530  1.4910
 2308SOL    HW218387   1.136   2.153   8.489 -0.4646 -0.0754 -1.8458
 2309SOL     OW18388   2.970   1.858   3.915  0.0934 -0.2565  0.6153
 2309SOL    HW118389   2.910   1.784   3.919 -1.0912  0.5578 -1.9108
 2309SOL    HW218390   2.953   1.903   3.998  0.7948  0.8985  0.1368
 2310SOL     OW18391   0.232   1.197  10.936  0.0792 -0.2400  0.3666
 2310SOL    HW118392   0.179   1.206  10.857 -0.1054 -1.0428  0.4062
 2310SOL    HW218393   0.199   1.116  10.973 -1.8372  0.3317 -0.1004
 2311SOL     OW18394   0.677   4.552   9.272 -0.6255  0.2061 -0.0811
 2311SOL    HW118395   0.708   4.603   9.347  0.0702 -0.7769  0.3085
 2311SOL    HW218396   0.585   4.543   9.294 -0.4270 -0.4792  0.5028
 2312SOL     OW18397   1.431   3.175   6.794  0.2587  0.3549 -0.3836
 2312SOL    HW118398   1.365   3.128   6.744 -1.5694  0.6814  1.7311
 2312SOL    HW218399   1.412   3.144   6.882  2.2127 -2.9275 -1.1277
 2313SOL     OW18400   1.048   3.497   9.920 -0.1640  0.0373  0.2310
 2313SOL    HW118401   1.061   3.592   9.923 -1.9097  0.2300  1.3825
 2313SOL    HW218402   0.953   3.495   9.928 -0.1789  0.0659  0.0668
 2314SOL     OW18403   4.489   1.938   5.785 -0.1875  0.7038 -0.0581
 2314SOL    HW118404   4.441   2.003   5.836  1.9122  2.2861 -0.0830
 2314SOL    HW218405   4.544   1.899   5.854 -0.3383  1.6554  0.5907
 2315SOL     OW18406   3.504   3.893   4.276 -0.1103 -0.4451 -0.2095
 2315SOL    HW118407   3.538   3.875   4.364 -0.7275  0.1263  0.1433
 2315SOL    HW218408   3.536   3.826   4.216  1.1173 -0.9284  0.9779
 2316SOL     OW18409   2.132   0.421  13.722 -0.0197  1.0037  0.3630
 2316SOL    HW118410   2.210   0.467  13.695 -0.7341  2.5891  0.9981
 2316SOL    HW218411   2.120   0.363  13.647  1.2686 -1.3611  1.9971
 2317SOL     OW18412   2.801   4.035   3.470 -0.5015 -0.1788 -0.2307
 2317SOL    HW118413   2.708   4.035   3.444  0.3144  0.3259 -3.1087
 2317SOL    HW218414   2.806   3.970   3.540  1.0028 -0.5022 -0.6475
 2318SOL     OW18415   3.503   2.578  17.082  0.5590  0.1484  0.1506
 2318SOL    HW118416   3.567   2.511  17.105 -1.0090 -1.5297 -0.4096
 2318SOL    HW218417   3.552   2.655  17.112  1.1620 -0.7140  1.3445
 2319SOL     OW18418   4.121   1.385  11.343  0.0412 -0.6518 -0.3639
 2319SOL    HW118419   4.027   1.407  11.348  0.8334  3.3457 -3.0124
 2319SOL    HW218420   4.149   1.449  11.278 -0.2435  0.4022  0.5390
 2320SOL     OW18421   1.541   4.388   3.308  0.5331 -0.0537 -0.3515
 2320SOL    HW118422   1.597   4.431   3.243 -0.3763 -1.8212 -2.3310
 2320SOL    HW218423   1.538   4.302   3.264  0.3705 -0.0159 -0.4140
 2321SOL     OW18424   0.145   0.597   4.869 -0.0473  0.4377 -0.0250
 2321SOL    HW118425   0.123   0.612   4.778 -1.2776  1.7939  0.5079
 2321SOL    HW218426   0.101   0.516   4.896 -1.2185  1.0891 -0.0220
 2322SOL     OW18427   4.596   1.334  13.347  0.5393  0.4440 -0.0960
 2322SOL    HW118428   4.544   1.323  13.267  0.0864  0.0492  0.2504
 2322SOL    HW218429   4.641   1.250  13.347 -2.2155 -1.0171  3.1267
 2323SOL     OW18430   4.509   2.077   1.539 -0.7523  0.4376  0.7495
 2323SOL    HW118431   4.571   2.027   1.486 -3.4256 -0.6998 -1.3615
 2323SOL    HW218432   4.466   2.004   1.584 -0.5591  1.8047  3.1338
 2324SOL     OW18433   0.830   4.365   7.562  0.2474 -0.2038  0.2948
 2324SOL    HW118434   0.840   4.395   7.652  1.1519  0.7128 -0.1148
 2324SOL    HW218435   0.880   4.284   7.568  0.0997 -0.1330  2.4646
 2325SOL     OW18436   1.792   4.050   0.856 -0.5980  0.5979 -0.4593
 2325SOL    HW118437   1.814   3.958   0.871  1.3415  1.1098 -0.1566
 2325SOL    HW218438   1.765   4.046   0.764  0.0529  1.3730 -0.6816
 2326SOL     OW18439   4.592   3.984  14.050 -0.4367 -0.6298 -0.0195
 2326SOL    HW118440   4.548   3.931  13.984  0.2436 -0.4858 -0.5813
 2326SOL    HW218441   4.574   3.922  14.121  1.9659 -0.0599  1.0893
 2327SOL     OW18442   2.014   0.749   6.043 -0.4900 -0.1679 -0.1065
 2327SOL    HW118443   1.992   0.812   6.111  0.9448 -0.1112  0.2996
 2327SOL    HW218444   2.060   0.679   6.090 -1.1560  0.7733  1.9343
 2328SOL     OW18445   3.339   2.633   5.866  0.1465  0.7287  0.3017
 2328SOL    HW118446   3.269   2.589   5.817  0.5693 -0.4555  0.7713
 2328SOL    HW218447   3.288   2.644   5.946 -0.0317 -2.7021  0.6596
 2329SOL     OW18448   4.367   3.350   5.328  0.3317 -0.3240 -0.4486
 2329SOL    HW118449   4.325   3.313   5.251 -0.9480  2.4154 -1.0619
 2329SOL    HW218450   4.299   3.408   5.364 -0.7426 -3.0333  1.8710
 2330SOL     OW18451   3.878   3.852   5.080 -0.0754 -0.2128  0.6620
 2330SOL    HW118452   3.959   3.824   5.123 -0.9912 -3.5966  0.1755
 2330SOL    HW218453   3.911   3.901   5.005  0.9763 -2.3943 -0.2839
 2331SOL     OW18454   4.034   4.704   2.330 -0.1923  0.1744  0.4716
 2331SOL    HW118455   4.004   4.704   2.421  0.7375  0.6522  0.7734
 2331SOL    HW218456   3.947   4.711   2.291 -1.5722  2.1278  3.9008
 2332SOL     OW18457   4.081   0.278   9.620 -0.6787 -0.0166 -0.0262
 2332SOL    HW118458   4.131   0.357   9.640 -0.7425  0.4281 -1.5722
 2332SOL    HW218459   4.151   0.214   9.604 -0.0180  0.8412 -0.5749
 2333SOL     OW18460   1.139   3.764   6.865 -0.1917  0.1168 -0.0475
 2333SOL    HW118461   1.122   3.856   6.844 -0.4732  0.2314  0.6729
 2333SOL    HW218462   1.066   3.722   6.820 -0.8063  1.5218 -0.3748
 2334SOL     OW18463   1.949   0.960   2.873  0.0618  0.1276 -0.8728
 2334SOL    HW118464   1.873   0.903   2.858 -0.5414  0.5637  0.4860
 2334SOL    HW218465   2.006   0.890   2.905  2.0422  2.7649  1.3084
 2335SOL     OW18466   0.912   2.771   8.710  0.6047  0.3979 -0.4687
 2335SOL    HW118467   0.840   2.736   8.657 -0.9487  1.0090  1.2451
 2335SOL    HW218468   0.880   2.851   8.750 -0.0222 -0.1218  0.0675
 2336SOL     OW18469   3.902   3.183  13.388  0.4382 -0.3463 -0.1796
 2336SOL    HW118470   3.983   3.234  13.394 -0.1130  0.2964  1.6226
 2336SOL    HW218471   3.933   3.100  13.426 -0.0215 -0.0212  0.9017
 2337SOL     OW18472   4.614   1.345   6.112 -0.1123 -0.7354  0.6426
 2337SOL    HW118473   4.538   1.297   6.079  1.5681 -1.6274 -1.8881
 2337SOL    HW218474   4.621   1.415   6.047  0.8725 -0.6701  0.8148
 2338SOL     OW18475   1.307   1.012   5.946  1.7777 -0.0166  0.0236
 2338SOL    HW118476   1.384   1.026   5.891  0.0009  1.7628 -1.9987
 2338SOL    HW218477   1.344   0.936   5.992  2.8534 -1.5872 -3.3780
 2339SOL     OW18478   4.645   2.119   4.250  0.1508  0.0582  0.1523
 2339SOL    HW118479   4.576   2.057   4.225  0.5581 -0.2074 -0.2833
 2339SOL    HW218480   0.001   2.073   4.229  1.4995  3.2910 -1.5515
 2340SOL     OW18481   2.546   2.410   7.645 -0.1896  1.1970 -0.7172
 2340SOL    HW118482   2.491   2.397   7.722 -0.5776  0.6366 -1.0925
 2340SOL    HW218483   2.620   2.463   7.677 -0.6983 -0.0665  2.4316
 2341SOL     OW18484   1.167   3.647   5.601  0.0146  0.3825  0.2306
 2341SOL    HW118485   1.229   3.607   5.540  0.6363  2.0053 -0.1819
 2341SOL    HW218486   1.122   3.566   5.627  0.4059 -0.1960 -0.8919
 2342SOL     OW18487   2.987   0.708   2.023 -0.0983  0.5742 -0.1599
 2342SOL    HW118488   2.923   0.730   2.090  0.0560 -0.4217  0.3176
 2342SOL    HW218489   3.015   0.624   2.060  0.4519  0.3748 -1.0160
 2343SOL     OW18490   1.849   3.084  11.896 -0.6562 -0.6052  0.1599
 2343SOL    HW118491   1.942   3.093  11.878 -1.1203  3.1572 -0.3059
 2343SOL    HW218492   1.818   3.148  11.831  0.0150 -0.4308  0.0162
 2344SOL     OW18493   2.015   3.965  11.742  0.3784  0.2422  0.1783
 2344SOL    HW118494   2.015   4.060  11.733  0.8535  0.1090 -1.3518
 2344SOL    HW218495   1.958   3.940  11.669 -0.5686  0.2460  0.9221
 2345SOL     OW18496   2.593   2.239   2.619 -0.1636  0.0452 -0.0865
 2345SOL    HW118497   2.676   2.198   2.642 -0.2943 -0.3119 -0.2452
 2345SOL    HW218498   2.550   2.229   2.704 -0.4755  2.3684  0.0398
 2346SOL     OW18499   2.568   2.441  11.316 -1.0006 -0.1817  0.2724
 2346SOL    HW118500   2.645   2.493  11.340  0.7469 -2.6753 -0.0392
 2346SOL    HW218501   2.520   2.518  11.283 -0.4335  0.4696  0.9770
 2347SOL     OW18502   0.599   3.157  11.083  0.5326 -0.7173 -0.0805
 2347SOL    HW118503   0.639   3.144  11.169  0.6220  0.3349  0.0256
 2347SOL    HW218504   0.563   3.071  11.059 -0.8812  0.1287 -0.9331
 2348SOL     OW18505   3.576   1.657   7.468 -0.1295 -0.2697  0.0830
 2348SOL    HW118506   3.612   1.627   7.384  0.8182  2.4785 -0.5002
 2348SOL    HW218507   3.549   1.570   7.496  1.1309 -1.2439 -1.7513
 2349SOL     OW18508   4.517   3.971  10.244 -0.3301 -0.0319 -0.6404
 2349SOL    HW118509   4.588   3.942  10.186 -1.3650 -0.6209 -1.6104
 2349SOL    HW218510   4.494   3.887  10.284 -0.1300  1.2210  2.1178
 2350SOL     OW18511   0.543   2.111   9.254  0.3166  0.6272  0.3472
 2350SOL    HW118512   0.563   2.200   9.284  0.5309 -0.1458  2.4353
 2350SOL    HW218513   0.591   2.109   9.171 -1.3297  0.1507 -0.6034
 2351SOL     OW18514   2.219   4.047   2.358 -0.0388  0.1813  0.4207
 2351SOL    HW118515   2.172   4.110   2.413  0.5026  0.5311  0.4894
 2351SOL    HW218516   2.204   3.966   2.406 -1.0071 -0.3215 -0.7595
 2352SOL     OW18517   1.301   1.842   2.290  0.6217 -0.1759  0.1194
 2352SOL    HW118518   1.313   1.933   2.261  2.6013 -0.1575  0.9722
 2352SOL    HW218519   1.352   1.791   2.227  0.9521 -1.2529  1.2639
 2353SOL     OW18520   1.305   3.866   8.358 -0.5135 -0.1470 -0.4582
 2353SOL    HW118521   1.344   3.907   8.435 -1.3548  2.4231 -1.4037
 2353SOL    HW218522   1.306   3.934   8.291  2.2324  0.7517  0.4791
 2354SOL     OW18523   1.942   0.674   6.885  0.2052  0.0617  0.4089
 2354SOL    HW118524   2.011   0.732   6.852  0.7947 -0.3171  0.9915
 2354SOL    HW218525   1.867   0.732   6.894 -0.4801 -0.8389  0.4307
 2355SOL     OW18526   0.302   2.019   7.162 -0.5119  0.2684 -0.4072
 2355SOL    HW118527   0.373   2.008   7.224 -0.9322 -1.7415 -0.2716
 2355SOL    HW218528   0.233   1.961   7.195  0.9467 -0.9360  0.5014
 2356SOL     OW18529   2.193   2.946   6.899  0.4942  0.4682 -0.1373
 2356SOL    HW118530   2.274   2.911   6.938  0.5989  1.4755  0.5613
 2356SOL    HW218531   2.132   2.907   6.961 -0.4394  1.2497 -0.5679
 2357SOL     OW18532   0.197   4.638  11.741 -0.4775  0.1041 -0.2235
 2357SOL    HW118533   0.230   4.610  11.826 -2.0874 -1.5985 -0.1518
 2357SOL    HW218534   0.252   4.581  11.687 -1.1814  0.0304 -0.8787
 2358SOL     OW18535   0.591   4.619   5.686  0.0690 -0.4038  0.0006
 2358SOL    HW118536   0.514   4.563   5.675 -0.6627  0.8269 -1.0068
 2358SOL    HW218537   0.658   4.575   5.634  1.0651  1.3507 -0.1947
 2359SOL     OW18538   1.294   3.700   8.079  0.5257  0.3680  0.4821
 2359SOL    HW118539   1.302   3.650   8.160  0.3941 -0.7270 -0.1838
 2359SOL    HW218540   1.385   3.722   8.060  0.3867  1.0101  0.5700
 2360SOL     OW18541   0.986   1.265   2.580 -0.0483  0.3660 -0.3785
 2360SOL    HW118542   0.967   1.282   2.488 -3.0964  2.4017  0.6518
 2360SOL    HW218543   0.988   1.349   2.625 -0.1879 -0.3801  1.0383
 2361SOL     OW18544   2.552   4.352  10.096 -0.7501  0.3284 -0.7417
 2361SOL    HW118545   2.500   4.294  10.041 -2.7745 -0.1946  1.6865
 2361SOL    HW218546   2.628   4.297  10.111  0.2488  2.0738  0.6761
 2362SOL     OW18547   1.369   1.587   9.669 -0.1206 -0.3885  0.2296
 2362SOL    HW118548   1.413   1.507   9.698  0.1557 -0.5773 -0.7322
 2362SOL    HW218549   1.301   1.543   9.618 -0.3051  0.3888 -0.1939
 2363SOL     OW18550   0.204   4.023  10.303  0.2720  0.3085  0.4293
 2363SOL    HW118551   0.156   4.018  10.221  3.1998  0.1586 -1.2828
 2363SOL    HW218552   0.261   4.098  10.285 -0.1197  0.4606 -0.1628
 2364SOL     OW18553   1.262   0.613   0.694  0.1969 -0.3595 -0.6931
 2364SOL    HW118554   1.315   0.663   0.632 -1.2960  3.8890  1.4852
 2364SOL    HW218555   1.258   0.669   0.771 -2.3708 -1.4165 -0.0703
 2365SOL     OW18556   3.442   3.278   6.383  0.9184 -0.0272 -0.4793
 2365SOL    HW118557   3.465   3.304   6.473 -0.3590 -2.0378  0.4180
 2365SOL    HW218558   3.526   3.255   6.343  1.7626  2.1596  0.0285
 2366SOL     OW18559   2.375   2.042  11.495 -0.6651 -0.3493  0.1180
 2366SOL    HW118560   2.285   2.015  11.515 -1.1537 -0.7947 -2.7169
 2366SOL    HW218561   2.359   2.118  11.439  1.5735  0.1015  0.0750
 2367SOL     OW18562   2.211   1.381   3.840 -0.5971 -0.0462 -0.2399
 2367SOL    HW118563   2.153   1.396   3.915 -0.9184 -0.1230 -0.4691
 2367SOL    HW218564   2.189   1.452   3.779 -1.4381 -0.0678  0.0326
 2368SOL     OW18565   4.602   2.294   6.701 -0.4791 -0.7835  0.6112
 2368SOL    HW118566   4.683   2.250   6.729  1.7135  0.6661 -3.3957
 2368SOL    HW218567   4.621   2.347   6.623 -2.5798  0.5463  1.0117
 2369SOL     OW18568   4.496   1.780   7.296 -0.0841 -0.1507 -0.4771
 2369SOL    HW118569   4.499   1.798   7.202 -0.3589 -0.5643 -0.5608
 2369SOL    HW218570   4.572   1.832   7.324  1.2046 -1.6247 -1.2675
 2370SOL     OW18571   0.681   0.985   1.586  0.0310  0.0379 -0.2395
 2370SOL    HW118572   0.714   0.901   1.554  2.0492  0.5844  0.4170
 2370SOL    HW218573   0.593   0.968   1.552  0.5616 -0.4984 -1.3109
 2371SOL     OW18574   4.596   0.008  15.038 -0.2855 -0.2892 -0.4133
 2371SOL    HW118575   4.557   4.651  15.005 -2.1208  0.3170  0.2410
 2371SOL    HW218576   4.527   0.074  15.029 -0.8627 -0.5094  2.3259
 2372SOL     OW18577   3.066   4.321   7.018  0.3431 -0.2687 -0.1268
 2372SOL    HW118578   3.126   4.275   7.077 -0.0285 -0.1931  0.3072
 2372SOL    HW218579   3.050   4.254   6.951  3.1208 -1.5553  0.5214
 2373SOL     OW18580   2.032   3.009   7.955  0.1353 -0.1601  0.2303
 2373SOL    HW118581   2.002   3.068   8.024 -2.8220 -0.3242 -0.9093
 2373SOL    HW218582   1.972   3.029   7.883  0.3042  0.9560  0.4102
 2374SOL     OW18583   0.997   3.576   3.560  0.1210 -0.0074  0.2822
 2374SOL    HW118584   1.082   3.618   3.569 -0.8983  1.7987  1.6024
 2374SOL    HW218585   1.009   3.490   3.601 -2.4016 -0.5888 -0.1762
 2375SOL     OW18586   3.044   1.426   5.329  0.3820  0.6820  0.1409
 2375SOL    HW118587   3.103   1.498   5.308  0.5718 -0.1269 -2.1287
 2375SOL    HW218588   3.025   1.444   5.421  0.8901  1.7376  0.0372
 2376SOL     OW18589   2.128   1.580   3.657  0.1402 -0.0443  0.0970
 2376SOL    HW118590   2.178   1.572   3.576  0.3366 -1.6754  0.3739
 2376SOL    HW218591   2.070   1.651   3.632  0.3657 -1.2931 -3.8954
 2377SOL     OW18592   0.705   1.223   7.388 -0.1550  0.3312  0.5003
 2377SOL    HW118593   0.758   1.173   7.451  0.6101  1.1302  0.4901
 2377SOL    HW218594   0.668   1.145   7.346 -0.4046 -0.1615  1.6183
 2378SOL     OW18595   4.076   1.732   0.679 -0.2985 -0.5202  0.3788
 2378SOL    HW118596   4.126   1.651   0.671  1.1622  0.0564  3.4319
 2378SOL    HW218597   4.074   1.736   0.775  0.8015  2.2279  0.3040
 2379SOL     OW18598   0.961   0.022   7.875 -0.1332 -0.1577  0.2177
 2379SOL    HW118599   0.883   0.057   7.917  0.1431  2.1129 -1.2129
 2379SOL    HW218600   0.987   0.094   7.818 -2.6400  0.0234 -0.7021
 2380SOL     OW18601   2.561   4.178   8.346  0.2566 -0.4889 -0.1647
 2380SOL    HW118602   2.514   4.107   8.389  1.8710 -0.8138  1.0341
 2380SOL    HW218603   2.639   4.173   8.401 -0.3659 -0.9412  0.6803
 2381SOL     OW18604   3.427   0.537   9.391  0.7690 -0.8344 -0.1848
 2381SOL    HW118605   3.367   0.464   9.374  1.5511 -1.2228 -1.2695
 2381SOL    HW218606   3.363   0.581   9.448  0.5796 -0.5808 -0.5932
 2382SOL     OW18607   0.305   4.152   2.092 -0.1540  0.4035 -0.3029
 2382SOL    HW118608   0.236   4.160   2.025 -0.5983 -0.5799  0.0309
 2382SOL    HW218609   0.265   4.209   2.158  0.0381  0.1782  0.0094
 2383SOL     OW18610   4.055   0.797   2.430 -0.3926  0.2175 -0.1879
 2383SOL    HW118611   4.146   0.782   2.404 -1.0856 -0.2853 -2.3306
 2383SOL    HW218612   4.010   0.778   2.348  0.9790 -0.9076 -0.6646
 2384SOL     OW18613   1.810   2.723  14.302  0.3473 -0.1747 -0.2789
 2384SOL    HW118614   1.901   2.753  14.312 -0.1481  1.0432  0.5713
 2384SOL    HW218615   1.769   2.773  14.372 -1.4386 -0.1818 -1.3402
 2385SOL     OW18616   2.467   2.152   4.156  0.2821 -0.0967  0.2928
 2385SOL    HW118617   2.547   2.193   4.189 -0.4879  1.9803 -0.3739
 2385SOL    HW218618   2.495   2.092   4.087 -0.0990  0.5556 -0.4328
 2386SOL     OW18619   3.456   3.663   2.932 -0.3473  0.2442  0.4836
 2386SOL    HW118620   3.544   3.628   2.946  0.9074  2.2692 -2.3033
 2386SOL    HW218621   3.464   3.663   2.837  1.4773  1.3788  0.6223
 2387SOL     OW18622   1.114   0.854   4.226 -0.4474 -0.1452 -0.0153
 2387SOL    HW118623   1.032   0.850   4.177  2.2672 -2.0054 -4.5290
 2387SOL    HW218624   1.159   0.923   4.177  0.7570 -1.2257 -0.4471
 2388SOL     OW18625   3.976   4.279  12.797  0.6179 -0.3516  0.0124
 2388SOL    HW118626   3.948   4.195  12.760  0.5230 -1.0481  1.6575
 2388SOL    HW218627   3.896   4.310  12.839  0.3451  1.2193 -1.6820
 2389SOL     OW18628   1.798   2.792  14.749  0.0230 -0.0204 -0.1754
 2389SOL    HW118629   1.799   2.703  14.714  0.2666  0.0033 -0.2320
 2389SOL    HW218630   1.852   2.775  14.826  0.9084 -0.6304 -0.9218
 2390SOL     OW18631   1.579   1.542   3.280  0.2101 -0.8119 -0.2382
 2390SOL    HW118632   1.555   1.462   3.234 -2.3896 -1.0757  1.5726
 2390SOL    HW218633   1.608   1.593   3.205 -2.0777 -0.2594 -0.7378
 2391SOL     OW18634   0.503   0.650   2.644 -0.1241 -0.1578 -0.0980
 2391SOL    HW118635   0.449   0.705   2.700  1.1193 -1.0167  1.9578
 2391SOL    HW218636   0.449   0.572   2.633 -1.0126  0.1558  2.1779
 2392SOL     OW18637   2.743   4.632   5.164 -0.4481  0.3902 -0.0149
 2392SOL    HW118638   2.801   4.696   5.205 -0.2918 -0.3970  1.0107
 2392SOL    HW218639   2.662   4.682   5.162 -0.7704 -0.0847  0.9465
 2393SOL     OW18640   3.456   2.379   0.427 -0.4652  0.0581 -0.0710
 2393SOL    HW118641   3.388   2.391   0.361 -0.6214  1.4617  0.3458
 2393SOL    HW218642   3.406   2.322   0.484 -0.3556  0.2359  0.2060
 2394SOL     OW18643   1.636   0.507   4.083 -0.0710 -0.0142  0.1751
 2394SOL    HW118644   1.558   0.452   4.074  1.0407 -1.3393 -1.2465
 2394SOL    HW218645   1.665   0.528   3.995 -0.5982 -1.8739 -0.4266
 2395SOL     OW18646   1.640   0.376   9.365 -0.3821 -0.3995  0.5253
 2395SOL    HW118647   1.697   0.301   9.379 -0.3094 -0.7061 -1.4291
 2395SOL    HW218648   1.709   0.440   9.349  0.0042 -0.9370  0.0653
 2396SOL     OW18649   1.531   1.078   0.564  0.1257  0.2155 -0.4780
 2396SOL    HW118650   1.442   1.063   0.533 -0.3313  1.5003  0.2208
 2396SOL    HW218651   1.578   1.001   0.532 -0.0386 -0.0006 -0.1987
 2397SOL     OW18652   3.242   4.426   7.845  0.1654  0.0845  0.3286
 2397SOL    HW118653   3.166   4.379   7.880  0.7554  0.1983  1.7365
 2397SOL    HW218654   3.305   4.375   7.896 -1.3558 -1.6778  0.4668
 2398SOL     OW18655   2.110   2.261   6.379 -0.1328  0.1124 -0.0002
 2398SOL    HW118656   2.059   2.331   6.339 -1.3505 -1.2870 -0.9193
 2398SOL    HW218657   2.166   2.233   6.307  0.1846 -0.4538  0.4626
 2399SOL     OW18658   1.722   0.261   5.888  0.0186  0.0609 -0.3638
 2399SOL    HW118659   1.670   0.238   5.811  0.2316 -1.9638  0.1020
 2399SOL    HW218660   1.692   0.207   5.961 -0.4257 -0.7503 -1.1451
 2400SOL     OW18661   1.283   2.081   9.211 -0.0707 -0.5696  0.2487
 2400SOL    HW118662   1.316   2.092   9.300  1.1312 -0.2316 -0.2440
 2400SOL    HW218663   1.321   2.157   9.167  2.4805 -0.8634  1.9461
 2401SOL     OW18664   1.373   2.463   7.412  0.3804 -0.2779  0.0485
 2401SOL    HW118665   1.368   2.547   7.457 -0.8134  0.4146 -1.3687
 2401SOL    HW218666   1.339   2.490   7.327 -0.0592  0.8390  0.5832
 2402SOL     OW18667   1.368   4.307  12.194 -0.2142  0.7556 -0.0545
 2402SOL    HW118668   1.293   4.366  12.189  1.3057  2.7563  0.6425
 2402SOL    HW218669   1.353   4.276  12.283  0.4202 -2.2307 -0.9745
 2403SOL     OW18670   3.170   1.900   8.355  0.4521  0.4102  0.5010
 2403SOL    HW118671   3.217   1.827   8.315 -0.9214  0.0581 -0.4395
 2403SOL    HW218672   3.226   1.973   8.327  1.4631 -0.4853  0.1856
 2404SOL     OW18673   3.250   3.186  13.801 -0.1697 -0.3343 -0.3653
 2404SOL    HW118674   3.316   3.211  13.867  1.0301 -3.0654 -0.5310
 2404SOL    HW218675   3.178   3.191  13.864  0.4756  0.1945  0.3371
 2405SOL     OW18676   4.530   1.741   9.111  0.3794 -0.1670 -0.2576
 2405SOL    HW118677   4.501   1.735   9.202 -1.1037 -2.9052 -0.9160
 2405SOL    HW218678   4.506   1.833   9.102 -0.2453 -0.4038 -1.0333
 2406SOL     OW18679   2.204   2.680   1.001  0.4151 -0.1185  0.0834
 2406SOL    HW118680   2.218   2.753   1.061 -1.8841  0.6039 -0.2693
 2406SOL    HW218681   2.126   2.696   0.948  2.4806 -0.3272 -3.0879
 2407SOL     OW18682   3.740   3.804  16.078 -0.1256 -0.5899  0.0648
 2407SOL    HW118683   3.669   3.852  16.035 -0.0109 -0.6901 -0.2407
 2407SOL    HW218684   3.767   3.877  16.134  1.5193 -1.0699 -0.0977
 2408SOL     OW18685   0.852   4.302  14.445  0.7309 -0.2569 -0.3857
 2408SOL    HW118686   0.802   4.321  14.365  0.0988  0.3506  0.1624
 2408SOL    HW218687   0.838   4.372  14.508  2.0543 -0.2661 -0.0820
 2409SOL     OW18688   1.727   0.325  15.377 -0.7879 -0.6230  0.0264
 2409SOL    HW118689   1.768   0.239  15.386  1.2848  0.6922  2.9497
 2409SOL    HW218690   1.675   0.328  15.456 -2.3077 -0.5579 -0.9809
 2410SOL     OW18691   2.074   2.446   8.620 -0.1755  0.3085  0.3309
 2410SOL    HW118692   2.107   2.425   8.708 -0.7874  0.3671  0.5732
 2410SOL    HW218693   1.988   2.472   8.652  0.3548  1.9663  0.4080
 2411SOL     OW18694   2.913   1.426  17.281  0.2600 -0.0538  0.0237
 2411SOL    HW118695   2.886   1.518  17.281 -2.0529 -0.7029  1.8518
 2411SOL    HW218696   2.917   1.420  17.186  0.7882 -2.0034  0.1581
 2412SOL     OW18697   4.041   1.612   1.321  0.0571 -0.1100  0.1209
 2412SOL    HW118698   4.136   1.614   1.315  0.1629  0.5701  1.9984
 2412SOL    HW218699   4.031   1.575   1.408  0.5803  2.3735  1.2326
 2413SOL     OW18700   2.234   2.115   0.710 -0.3359 -0.1172 -0.3557
 2413SOL    HW118701   2.211   2.201   0.747  4.1546  1.4260 -1.1739
 2413SOL    HW218702   2.222   2.057   0.784  1.8106  2.8277  2.3125
 2414SOL     OW18703   2.474   3.652   1.590  0.4875  1.2406  0.5583
 2414SOL    HW118704   2.396   3.669   1.643 -0.0041  0.8184 -0.0333
 2414SOL    HW218705   2.444   3.682   1.504  1.0149 -0.9505 -0.3843
 2415SOL     OW18706   3.145   0.897   3.380 -0.5474 -0.1735 -0.2269
 2415SOL    HW118707   3.231   0.907   3.419 -0.9829  1.1535  0.3962
 2415SOL    HW218708   3.174   0.884   3.290  0.9800 -0.9707  0.3899
 2416SOL     OW18709   4.097   2.381   2.788 -0.1637 -0.2993  0.1094
 2416SOL    HW118710   4.047   2.444   2.735 -0.0975  1.2108  1.8559
 2416SOL    HW218711   4.182   2.425   2.798 -1.3552  1.5959  2.0777
 2417SOL     OW18712   0.372   1.934   5.251  0.5886 -0.1027  0.1669
 2417SOL    HW118713   0.299   1.878   5.276  0.7938  0.2293  1.5074
 2417SOL    HW218714   0.407   1.939   5.340  0.1915 -0.2303  0.3298
 2418SOL     OW18715   3.652   2.670  11.096 -0.2979  0.2947 -0.6021
 2418SOL    HW118716   3.585   2.666  11.165 -2.1512  4.6125 -2.1747
 2418SOL    HW218717   3.709   2.601  11.130 -1.5212  0.6212  2.1222
 2419SOL     OW18718   4.181   0.087   8.479 -0.5997  0.0059 -0.2992
 2419SOL    HW118719   4.263   0.040   8.466 -1.5589 -2.5678  2.8370
 2419SOL    HW218720   4.195   0.180   8.459  0.1606 -0.6894 -2.9623
 2420SOL     OW18721   4.397   1.356   8.126  0.1644  0.6604 -0.2575
 2420SOL    HW118722   4.327   1.404   8.083 -1.2519  0.7849  2.2250
 2420SOL    HW218723   4.409   1.285   8.062 -0.5798  0.3224 -0.0225
 2421SOL     OW18724   0.387   1.711   1.615 -0.8695  0.2932 -0.4470
 2421SOL    HW118725   0.329   1.671   1.680  0.3964  0.2511  0.6559
 2421SOL    HW218726   0.340   1.694   1.534  0.0502 -1.3184 -0.6425
 2422SOL     OW18727   4.539   3.443   3.720  0.1455 -0.2681  0.2221
 2422SOL    HW118728   4.557   3.351   3.701 -1.0288 -0.1527 -1.4702
 2422SOL    HW218729   4.586   3.448   3.803  0.4905  1.8707 -0.1157
 2423SOL     OW18730   1.058   2.848   5.352  0.2939  0.3021 -0.0017
 2423SOL    HW118731   1.091   2.923   5.302 -2.3464  0.4010 -1.6029
 2423SOL    HW218732   0.969   2.840   5.320  0.2545  0.1605  0.1433
 2424SOL     OW18733   1.676   1.797   5.696  0.2100 -0.3723  0.1133
 2424SOL    HW118734   1.642   1.713   5.665  0.5240 -0.5488  0.2523
 2424SOL    HW218735   1.718   1.779   5.780 -0.9973  2.8613  1.4176
 2425SOL     OW18736   4.380   3.213   6.607  0.3819 -0.2380 -0.0073
 2425SOL    HW118737   4.301   3.257   6.577 -0.0013 -0.3216  0.8881
 2425SOL    HW218738   4.432   3.286   6.638 -4.1186  2.9948 -0.1405
 2426SOL     OW18739   1.976   2.006  13.465 -0.1767  0.6578 -0.4323
 2426SOL    HW118740   2.010   1.973  13.548  2.2283 -0.1514 -1.7310
 2426SOL    HW218741   2.030   1.956  13.404 -0.8890  0.6758 -1.0736
 2427SOL     OW18742   2.703   2.288   4.247 -0.2607  0.1275 -0.2038
 2427SOL    HW118743   2.776   2.226   4.254 -0.8055 -0.4724  0.1684
 2427SOL    HW218744   2.720   2.347   4.320  1.4952 -0.2077 -0.3343
 2428SOL     OW18745   0.329   4.565  16.032 -0.5871 -0.4051 -0.0054
 2428SOL    HW118746   0.330   4.471  16.053  1.5809 -0.3524  0.1661
 2428SOL    HW218747   0.371   4.568  15.946 -0.9604  0.5056 -0.1502
 2429SOL     OW18748   3.656   1.498   4.933  0.3431  0.2396  0.2420
 2429SOL    HW118749   3.618   1.500   4.845  0.4475  1.0301  0.2155
 2429SOL    HW218750   3.741   1.463   4.910  0.5041  0.0703  1.0847
 2430SOL     OW18751   1.556   4.536  15.694  0.2633 -0.1010  0.1305
 2430SOL    HW118752   1.609   4.466  15.734 -0.4330  0.2132  1.5798
 2430SOL    HW218753   1.475   4.488  15.678  0.8422 -0.7075 -1.0583
 2431SOL     OW18754   2.102   1.598   1.207  0.5433  0.6245  0.2175
 2431SOL    HW118755   2.101   1.622   1.114  1.2091 -0.7345 -0.1437
 2431SOL    HW218756   2.048   1.520   1.194  1.3397  0.2188 -0.6593
 2432SOL     OW18757   0.822   1.899  15.575  0.6127  0.1895  0.2945
 2432SOL    HW118758   0.754   1.832  15.561 -0.8885  1.6781  0.4429
 2432SOL    HW218759   0.815   1.942  15.490 -2.4996  0.3010  0.5859
 2433SOL     OW18760   4.456   2.747   6.345 -0.0109  0.7061  0.3709
 2433SOL    HW118761   4.422   2.682   6.284  1.0714  0.4515  0.0355
 2433SOL    HW218762   4.509   2.801   6.287 -0.4418 -0.0220 -0.6960
 2434SOL     OW18763   3.075   3.930   3.639  0.4346 -0.5088 -0.0810
 2434SOL    HW118764   3.025   3.848   3.630  0.2467 -0.2252 -1.6722
 2434SOL    HW218765   3.144   3.907   3.576  0.5889  0.7865 -0.3759
 2435SOL     OW18766   4.710   4.297   0.531  0.2875  0.0697 -0.3114
 2435SOL    HW118767   0.081   4.293   0.533  0.1726 -2.8409 -0.1976
 2435SOL    HW218768   4.691   4.218   0.481  1.1928 -0.8124  0.7204
 2436SOL     OW18769   4.211   4.497  15.661  0.2340 -0.0185  0.4688
 2436SOL    HW118770   4.181   4.588  15.666 -0.8168 -0.2094 -2.1912
 2436SOL    HW218771   4.208   4.477  15.754  0.4289 -1.5283  0.1475
 2437SOL     OW18772   2.426   4.090   7.103 -0.2853  0.2591  0.2140
 2437SOL    HW118773   2.333   4.102   7.126 -0.3982  0.5682 -0.3895
 2437SOL    HW218774   2.443   4.178   7.069 -0.1082  0.1507  0.0285
 2438SOL     OW18775   0.810   4.035   0.362 -0.1304  0.3116  0.0119
 2438SOL    HW118776   0.718   4.063   0.365  0.3859  2.1679 -1.2961
 2438SOL    HW218777   0.818   4.031   0.457  1.7716 -1.1047 -0.2133
 2439SOL     OW18778   0.530   0.328   2.831  0.1292  0.1206  0.2391
 2439SOL    HW118779   0.615   0.307   2.871 -1.1713 -2.5045  1.6013
 2439SOL    HW218780   0.532   0.422   2.845 -1.4636  0.1311  0.3500
 2440SOL     OW18781   4.532   1.958   5.336 -0.0751 -0.0820  0.0860
 2440SOL    HW118782   4.484   1.984   5.414  1.0685  0.5133  0.5705
 2440SOL    HW218783   4.565   1.876   5.374  1.1607 -0.8096 -2.5365
 2441SOL     OW18784   3.869   1.199   4.323 -0.2676 -0.2102 -0.0123
 2441SOL    HW118785   3.797   1.208   4.386  1.7273  0.6359  2.1517
 2441SOL    HW218786   3.875   1.103   4.322  1.0736 -0.1131 -1.1707
 2442SOL     OW18787   4.133   1.393   7.277 -0.3397 -0.1431  0.4129
 2442SOL    HW118788   4.185   1.404   7.197  0.1254  1.7321  0.9719
 2442SOL    HW218789   4.127   1.487   7.295  1.7992  0.4019 -1.6942
 2443SOL     OW18790   3.118   1.104   6.825 -0.3797 -0.2519 -0.4683
 2443SOL    HW118791   3.036   1.153   6.824  1.2884  2.5669  1.0170
 2443SOL    HW218792   3.154   1.113   6.736  0.0972 -0.1016 -0.2619
 2444SOL     OW18793   2.217   0.846   7.669 -0.0835 -0.7604  0.4398
 2444SOL    HW118794   2.138   0.875   7.622  0.1825  2.0772  1.7546
 2444SOL    HW218795   2.272   0.924   7.670  1.7483 -2.0713 -0.2614
 2445SOL     OW18796   4.384   3.031   8.488  0.1725 -0.0995 -0.2848
 2445SOL    HW118797   4.379   2.969   8.561  0.5445  0.9770  0.6497
 2445SOL    HW218798   4.467   3.073   8.511  1.0643 -2.0693  0.0950
 2446SOL     OW18799   0.056   2.034   4.591  0.4259 -0.1234 -0.3320
 2446SOL    HW118800   0.095   2.121   4.583 -2.3408  1.1044 -0.2308
 2446SOL    HW218801   0.135   1.979   4.589  0.4445 -0.1466  1.0968
 2447SOL     OW18802   4.608   3.645   2.824  0.5680 -0.3484 -0.1867
 2447SOL    HW118803   4.637   3.718   2.771  0.3064  1.5032  2.2252
 2447SOL    HW218804   4.521   3.645   2.784  0.3441  1.4996  0.3099
 2448SOL     OW18805   1.316   4.041   4.090  0.0683 -0.4378 -0.6852
 2448SOL    HW118806   1.268   4.051   4.172  0.0949  0.7201 -0.8104
 2448SOL    HW218807   1.301   4.129   4.053 -0.4675 -0.4270 -0.4450
 2449SOL     OW18808   2.761   0.652  15.040 -0.0778  0.0953  0.0328
 2449SOL    HW118809   2.740   0.729  15.092  0.1097 -0.1339  0.4534
 2449SOL    HW218810   2.830   0.684  14.981  0.7054  0.7254  1.2789
 2450SOL     OW18811   1.211   2.772   8.969  0.2020 -0.6172  0.4705
 2450SOL    HW118812   1.189   2.859   9.002 -0.5350 -0.4515 -0.4752
 2450SOL    HW218813   1.122   2.737   8.973  0.0909 -0.5760 -1.7406
 2451SOL     OW18814   3.566   4.482   0.079  0.5338 -0.4909  0.3070
 2451SOL    HW118815   3.653   4.444   0.078  1.1758  0.9477  0.7642
 2451SOL    HW218816   3.564   4.543   0.153  0.6503 -1.0201  0.7457
 2452SOL     OW18817   0.921   4.231   3.648 -0.0353  0.3442 -0.1483
 2452SOL    HW118818   0.990   4.248   3.712 -0.4410  1.1392  0.0874
 2452SOL    HW218819   0.872   4.314   3.652 -3.3570 -1.7049  1.7078
 2453SOL     OW18820   4.700   3.002   8.320 -0.5417  0.0839  0.2115
 2453SOL    HW118821   0.038   3.072   8.301  0.1793 -0.4115  0.7480
 2453SOL    HW218822   4.663   3.027   8.405  2.3404  0.0176  1.4896
 2454SOL     OW18823   4.111   3.459  16.424  0.0651  0.6169 -0.3409
 2454SOL    HW118824   4.179   3.500  16.477 -0.0219 -2.0676  1.8095
 2454SOL    HW218825   4.148   3.472  16.336 -1.0938 -0.8778 -1.0393
 2455SOL     OW18826   3.204   2.402   9.161  0.2085 -0.3043  0.2017
 2455SOL    HW118827   3.144   2.330   9.177 -0.5449  0.2716 -0.0315
 2455SOL    HW218828   3.254   2.408   9.242 -1.9654  1.3851  1.4173
 2456SOL     OW18829   0.421   1.662   4.785  0.2515  0.1803  0.3831
 2456SOL    HW118830   0.420   1.604   4.709  0.2194 -1.0303  1.3049
 2456SOL    HW218831   0.359   1.733   4.771  0.5718  0.7938  2.0706
 2457SOL     OW18832   2.280   0.621  13.585 -0.2116  0.1456 -0.2228
 2457SOL    HW118833   2.347   0.564  13.546 -0.0647  1.7289 -2.3002
 2457SOL    HW218834   2.221   0.636  13.511  0.9132 -0.2821 -1.2036
 2458SOL     OW18835   1.584   3.868   3.393  0.1360  0.0068 -0.0669
 2458SOL    HW118836   1.513   3.829   3.342  0.1382 -0.4471  0.2874
 2458SOL    HW218837   1.652   3.879   3.326 -0.4668  1.6950 -0.4227
 2459SOL     OW18838   0.950   2.539   7.799 -0.1279  0.0968  0.1400
 2459SOL    HW118839   0.920   2.450   7.781  0.1054  0.0452  0.0102
 2459SOL    HW218840   1.043   2.519   7.790 -0.5192 -1.3074 -0.8444
 2460SOL     OW18841   2.687   4.448  16.653 -0.0834  0.2884  0.0224
 2460SOL    HW118842   2.621   4.509  16.687  0.1193  0.7652 -0.4389
 2460SOL    HW218843   2.763   4.472  16.705 -0.4632  1.4333  0.0671
 2461SOL     OW18844   0.748   3.252   3.351 -0.0719 -0.6901 -0.1017
 2461SOL    HW118845   0.709   3.165   3.343 -1.7754  0.2370 -1.9823
 2461SOL    HW218846   0.696   3.291   3.421  0.7119 -0.4674  0.3542
 2462SOL     OW18847   0.742   0.638  10.803 -0.0722 -0.6605  0.0475
 2462SOL    HW118848   0.735   0.553  10.760 -2.1612  0.0508 -1.0274
 2462SOL    HW218849   0.778   0.626  10.891 -0.0588 -1.8644 -0.1325
 2463SOL     OW18850   3.203   2.154   6.599 -0.0677  0.7542  0.4697
 2463SOL    HW118851   3.251   2.113   6.671  1.6524  0.5376 -0.7922
 2463SOL    HW218852   3.247   2.109   6.527 -1.6499  1.2604 -0.8166
 2464SOL     OW18853   2.982   4.692   4.556  0.0986  0.4976  0.2672
 2464SOL    HW118854   2.970   0.057   4.585 -1.0371  0.5118 -0.2298
 2464SOL    HW218855   2.892   4.659   4.560  0.4078 -0.2767  0.8242
 2465SOL     OW18856   1.147   3.025   9.084 -0.3802 -0.1169  0.4071
 2465SOL    HW118857   1.224   3.062   9.127 -0.4228  2.0209 -1.4236
 2465SOL    HW218858   1.109   2.987   9.163 -0.3529  0.9770  0.9413
 2466SOL     OW18859   2.304   3.201   1.853 -0.3769  0.2112  0.5633
 2466SOL    HW118860   2.322   3.256   1.777 -0.5670 -3.0318 -1.7857
 2466SOL    HW218861   2.336   3.256   1.925 -0.8655  0.3459  0.6741
 2467SOL     OW18862   2.528   1.451   3.950 -0.3799 -0.2803  0.4095
 2467SOL    HW118863   2.470   1.377   3.966 -0.1185 -0.1034  2.1475
 2467SOL    HW218864   2.513   1.513   4.021  0.9682 -1.0254  1.3366
 2468SOL     OW18865   3.937   2.603  14.226  0.0282 -0.3576 -0.2225
 2468SOL    HW118866   3.955   2.697  14.225 -0.8348 -0.2084 -1.0680
 2468SOL    HW218867   3.971   2.580  14.313  0.3039  1.7992  0.2476
 2469SOL     OW18868   1.914   4.343  14.577  0.3137  0.9268 -0.7017
 2469SOL    HW118869   1.947   4.322  14.664 -0.5927 -2.7489 -1.2170
 2469SOL    HW218870   1.820   4.333  14.594 -0.0347 -0.6770 -3.5548
 2470SOL     OW18871   1.329   0.375   9.766  0.8719  0.0769 -0.2309
 2470SOL    HW118872   1.256   0.314   9.757  2.1385 -1.5695  0.4854
 2470SOL    HW218873   1.394   0.323   9.814 -1.5525 -0.4338  2.4648
 2471SOL     OW18874   2.515   1.327   1.163  0.1543 -0.0145  0.6445
 2471SOL    HW118875   2.547   1.252   1.212 -1.2893 -1.4612 -0.6458
 2471SOL    HW218876   2.582   1.328   1.095  1.2841 -1.6363  1.7550
 2472SOL     OW18877   0.562   2.369   7.310  0.2986 -0.1038  0.4692
 2472SOL    HW118878   0.561   2.370   7.214  3.6393 -2.5486  0.4164
 2472SOL    HW218879   0.504   2.441   7.334 -0.0882  0.4754 -2.2457
 2473SOL     OW18880   4.394   1.641   8.895  0.4049  0.2186 -0.5032
 2473SOL    HW118881   4.450   1.682   8.960 -0.6542 -0.0939  0.6089
 2473SOL    HW218882   4.426   1.674   8.811 -0.0044  0.8599 -0.4088
 2474SOL     OW18883   2.924   2.811   1.911 -0.2126  0.1382  0.6319
 2474SOL    HW118884   2.957   2.747   1.974 -0.3711 -0.2971  0.2763
 2474SOL    HW218885   2.833   2.826   1.936 -0.4334  0.3597 -0.3076
 2475SOL     OW18886   4.330   1.587  14.371 -0.3389  0.3926  0.0266
 2475SOL    HW118887   4.380   1.587  14.453 -0.9349  0.1270  0.3889
 2475SOL    HW218888   4.249   1.548  14.404 -0.1370 -0.9824 -1.1237
 2476SOL     OW18889   2.347   3.847   4.722 -0.1276  0.7447  0.1152
 2476SOL    HW118890   2.368   3.783   4.791  1.6057  1.3274  0.1286
 2476SOL    HW218891   2.438   3.860   4.695  0.4912 -3.3221  0.2331
 2477SOL     OW18892   1.971   0.433   7.248 -0.7245 -0.1422  0.2176
 2477SOL    HW118893   1.913   0.506   7.222 -0.5811 -0.4769 -1.0231
 2477SOL    HW218894   1.972   0.390   7.162  1.5905  1.4214 -0.5326
 2478SOL     OW18895   2.696   1.129   5.447 -0.1415  0.1174 -0.3758
 2478SOL    HW118896   2.778   1.149   5.491  0.0177 -0.5618 -0.3516
 2478SOL    HW218897   2.664   1.215   5.421 -0.0919  0.3104  0.2113
 2479SOL     OW18898   3.903   4.017   0.967  0.0013 -0.0691 -0.1395
 2479SOL    HW118899   3.953   3.937   0.980  0.1781  0.0935  0.1845
 2479SOL    HW218900   3.871   4.013   0.877 -0.1622 -0.6723 -0.0536
 2480SOL     OW18901   4.334   3.621  16.586  0.1826 -0.1176  0.1178
 2480SOL    HW118902   4.368   3.587  16.669  2.4176  0.7169 -0.4453
 2480SOL    HW218903   4.367   3.709  16.602  1.4748 -0.7315  0.8876
 2481SOL     OW18904   4.658   0.701  13.824 -0.2217  0.2947 -0.1482
 2481SOL    HW118905   4.672   0.660  13.910  0.5489 -0.6119 -0.7007
 2481SOL    HW218906   0.026   0.699  13.799 -0.1696  3.3630 -0.1222
 2482SOL     OW18907   1.346   0.338   3.805 -0.1176  0.0227  0.5537
 2482SOL    HW118908   1.288   0.279   3.853 -0.0141  0.3669  1.1102
 2482SOL    HW218909   1.414   0.282   3.769  0.7697  0.2708  1.8397
 2483SOL     OW18910   4.279   1.083   8.370  0.3288 -0.0991  0.2226
 2483SOL    HW118911   4.373   1.090   8.356 -0.0077  1.1661 -1.3919
 2483SOL    HW218912   4.270   1.116   8.460 -0.9545 -0.1031  0.0951
 2484SOL     OW18913   2.938   2.703   6.542 -0.2924  0.5492 -0.4356
 2484SOL    HW118914   2.855   2.672   6.579  0.4829 -0.8096  0.1790
 2484SOL    HW218915   2.995   2.705   6.619 -0.1218 -2.1999 -0.4998
 2485SOL     OW18916   0.845   3.284   3.888  0.6018 -0.0044  0.6866
 2485SOL    HW118917   0.761   3.320   3.858  1.4323 -0.5038 -2.1809
 2485SOL    HW218918   0.884   3.367   3.915  0.8893  0.8310 -2.3313
 2486SOL     OW18919   1.411   0.027   8.611 -0.1546 -0.5345 -0.5391
 2486SOL    HW118920   1.384   0.085   8.540  0.2600 -0.0130 -0.2742
 2486SOL    HW218921   1.378   0.066   8.692  0.7404  1.4448 -1.1106
 2487SOL     OW18922   1.692   2.719   5.018  0.0593 -0.0132  0.8195
 2487SOL    HW118923   1.619   2.757   5.067 -1.8687 -0.9520 -1.2851
 2487SOL    HW218924   1.759   2.705   5.084 -0.1950  3.1256  1.7561
 2488SOL     OW18925   2.088   3.724  11.930  0.2765  0.0860 -0.6633
 2488SOL    HW118926   1.999   3.705  11.960  0.9988  0.9681  2.0049
 2488SOL    HW218927   2.126   3.637  11.942 -2.3476 -1.0540 -0.7099
 2489SOL     OW18928   2.192   2.089   7.286 -0.5775  0.5841 -0.3095
 2489SOL    HW118929   2.134   2.130   7.350 -1.5916 -2.2607  0.5818
 2489SOL    HW218930   2.238   2.031   7.347  2.0625  1.1438 -1.7625
 2490SOL     OW18931   3.716   0.061   9.607  0.0435 -0.4513  0.0650
 2490SOL    HW118932   3.691   4.706   9.655 -0.4225 -2.3235 -3.2982
 2490SOL    HW218933   3.638   0.086   9.559  0.4191 -0.7633 -0.7063
 2491SOL     OW18934   4.066   0.244   1.957 -0.6599 -0.5780 -0.6568
 2491SOL    HW118935   4.110   0.277   1.879  1.4300 -0.4396  0.5771
 2491SOL    HW218936   4.077   0.149   1.946  0.2533 -0.4276 -1.0937
 2492SOL     OW18937   0.380   3.689   8.378 -0.1816 -0.3174  0.0233
 2492SOL    HW118938   0.365   3.756   8.444  0.8533 -0.5258  0.4820
 2492SOL    HW218939   0.387   3.750   8.304 -2.2161  1.3971  1.2478
 2493SOL     OW18940   2.002   4.610   4.000  0.5173 -0.7796  0.1652
 2493SOL    HW118941   2.038   4.698   3.988  1.2598 -0.8206  2.0215
 2493SOL    HW218942   2.083   4.559   3.997  0.8614 -0.2984  1.1662
 2494SOL     OW18943   0.596   3.455   7.480  0.1868 -0.2346 -0.3095
 2494SOL    HW118944   0.506   3.485   7.465 -0.4347 -1.7612  0.3261
 2494SOL    HW218945   0.615   3.515   7.553 -0.4427 -2.0998  1.3931
 2495SOL     OW18946   1.531   3.510   7.182 -0.3593 -0.4378 -0.3060
 2495SOL    HW118947   1.472   3.444   7.147 -0.3235 -0.3870 -0.4611
 2495SOL    HW218948   1.582   3.466   7.250  1.3391 -1.8858 -2.5373
 2496SOL     OW18949   0.154   0.274  13.925 -0.0841  0.2012 -0.6600
 2496SOL    HW118950   0.219   0.341  13.945 -1.8728  2.3130 -2.0052
 2496SOL    HW218951   0.183   0.265  13.835 -0.0330 -0.4682 -0.5787
 2497SOL     OW18952   2.998   4.103   1.482  0.0572  0.1946 -0.4453
 2497SOL    HW118953   3.083   4.067   1.457  0.2534 -0.0314  0.5524
 2497SOL    HW218954   3.002   4.103   1.577 -1.5488 -3.3937 -0.3728
 2498SOL     OW18955   0.491   0.581   2.932  0.4030  0.1149 -0.1545
 2498SOL    HW118956   0.433   0.645   2.891  0.6399  1.8011  2.1914
 2498SOL    HW218957   0.435   0.556   3.006 -2.4912  0.9065 -2.0873
 2499SOL     OW18958   1.332   2.595   8.284 -0.4058 -0.3458  0.0778
 2499SOL    HW118959   1.266   2.538   8.322 -1.3177  0.4865 -0.2661
 2499SOL    HW218960   1.412   2.549   8.310  0.1714 -0.0284 -1.1068
 2500SOL     OW18961   4.059   1.875  11.121 -0.2379 -0.3302 -0.4899
 2500SOL    HW118962   4.120   1.846  11.189  0.3945  0.6876 -0.6292
 2500SOL    HW218963   4.054   1.791  11.075  0.1354 -0.9054  0.5085
 2501SOL     OW18964   4.057   0.003   6.941  0.2304  0.0808  0.3776
 2501SOL    HW118965   4.061   4.669   6.866  2.4681  0.4524  0.1996
 2501SOL    HW218966   3.995   4.670   6.987 -0.6215 -0.4356 -1.3997
 2502SOL     OW18967   2.585   2.143   5.531 -0.5678 -0.5056 -0.2602
 2502SOL    HW118968   2.639   2.064   5.538 -1.2489 -0.9182  0.3934
 2502SOL    HW218969   2.498   2.110   5.507  0.5867 -2.2187 -2.0928
 2503SOL     OW18970   4.513   0.272   2.475  0.1637  0.1689  0.1198
 2503SOL    HW118971   4.482   0.281   2.385  1.5758  3.0441 -0.0668
 2503SOL    HW218972   4.548   0.183   2.481  1.7161  0.7630  0.0856
 2504SOL     OW18973   1.503   2.314   5.159  0.3084 -0.5384 -0.5669
 2504SOL    HW118974   1.594   2.332   5.183  0.2085  0.6879 -1.1124
 2504SOL    HW218975   1.464   2.401   5.161  0.8955 -0.2952  0.3357
 2505SOL     OW18976   1.708   1.541   1.304 -0.1615  0.6350 -0.1072
 2505SOL    HW118977   1.621   1.515   1.333  0.5796 -0.2382  1.2964
 2505SOL    HW218978   1.692   1.604   1.233  0.4881 -1.4069 -2.0554
 2506SOL     OW18979   4.009   2.571   8.220 -0.0826 -0.1040 -0.3946
 2506SOL    HW118980   4.090   2.544   8.175 -0.5024  0.2008 -1.3244
 2506SOL    HW218981   3.990   2.483   8.252  1.1335 -0.4144 -0.4963
 2507SOL     OW18982   4.559   4.262   6.736  0.2211 -0.1962 -0.0547
 2507SOL    HW118983   4.578   4.179   6.694  0.0680 -1.0987  1.6322
 2507SOL    HW218984   4.501   4.309   6.677  0.5308 -0.4752 -0.5756
 2508SOL     OW18985   1.556   2.968   1.393  0.1886 -0.0039  0.4779
 2508SOL    HW118986   1.555   2.985   1.487 -2.2188 -0.7272  0.6031
 2508SOL    HW218987   1.538   3.057   1.363 -0.5178 -0.0296  0.8196
 2509SOL     OW18988   4.420   1.087   7.676 -0.4197  0.2795  0.3533
 2509SOL    HW118989   4.337   1.072   7.631  1.5016 -1.1080 -2.7442
 2509SOL    HW218990   4.438   1.168   7.630  0.9703 -0.5741 -0.6214
 2510SOL     OW18991   1.550   2.630  10.253  0.2003  0.8993  0.0835
 2510SOL    HW118992   1.581   2.644  10.164  0.5270  0.3989  0.1170
 2510SOL    HW218993   1.629   2.655  10.301 -0.6700  0.5388  1.7225
 2511SOL     OW18994   2.824   0.978  15.652  0.0966  0.3329 -0.4475
 2511SOL    HW118995   2.765   1.018  15.588 -0.2935 -1.3428 -1.1338
 2511SOL    HW218996   2.801   0.886  15.639  2.7666 -0.5511  1.0072
 2512SOL     OW18997   4.084   1.504  12.749 -0.3646  0.5358  0.5553
 2512SOL    HW118998   4.005   1.455  12.773  0.8776 -0.8677  1.8079
 2512SOL    HW218999   4.152   1.452  12.793 -0.5458  0.6366  0.9578
 2513SOL     OW19000   1.193   3.991  15.213  0.0064  0.2598  0.5051
 2513SOL    HW119001   1.279   4.003  15.253  0.2874 -1.9366  0.5519
 2513SOL    HW219002   1.208   3.971  15.121  1.6650 -0.8818  1.0160
 2514SOL     OW19003   0.488   3.399  11.021 -0.5398 -0.4316 -0.1978
 2514SOL    HW119004   0.443   3.368  10.943 -0.1631  1.6332 -1.2168
 2514SOL    HW219005   0.533   3.320  11.053 -0.1578  0.0208  0.3896
 2515SOL     OW19006   4.686   3.628   0.940 -0.3072  0.1285 -0.1358
 2515SOL    HW119007   4.639   3.567   0.883 -1.8197  0.7815  0.4191
 2515SOL    HW219008   4.613   3.646   0.999  1.3332  0.9893  1.6205
 2516SOL     OW19009   0.892   4.107   2.318  0.0769 -0.3635  0.0400
 2516SOL    HW119010   0.914   4.030   2.371 -1.1946 -0.4249  0.4745
 2516SOL    HW219011   0.800   4.099   2.341 -0.1258 -0.6499 -0.8783
 2517SOL     OW19012   2.791   3.227   7.890 -0.4359  0.5883 -0.2198
 2517SOL    HW119013   2.780   3.255   7.799  0.0496 -0.1147 -0.4988
 2517SOL    HW219014   2.734   3.151   7.888  1.7068 -1.0798  2.0539
 2518SOL     OW19015   3.919   2.925   4.172  0.4307  0.4718 -0.2691
 2518SOL    HW119016   3.947   2.954   4.085  3.1180  0.2445  0.5108
 2518SOL    HW219017   3.826   2.915   4.151  0.7196 -2.7158 -0.0277
 2519SOL     OW19018   3.406   2.369   4.774  0.2162 -0.1965  0.0658
 2519SOL    HW119019   3.426   2.447   4.827  1.8689 -0.3485 -0.3112
 2519SOL    HW219020   3.337   2.324   4.822  0.9247 -0.2192  1.0802
 2520SOL     OW19021   2.473   0.017   4.468  0.7145  0.1201  0.1990
 2520SOL    HW119022   2.394   0.070   4.474  1.2283  0.5003  3.2195
 2520SOL    HW219023   2.521   0.067   4.402 -1.7020  0.5934 -1.2202
 2521SOL     OW19024   0.419   1.778  10.942  0.2282  0.6499 -0.2204
 2521SOL    HW119025   0.364   1.749  10.869 -1.8482  0.2989  1.5078
 2521SOL    HW219026   0.367   1.854  10.967 -1.0527 -1.1374  2.4393
 2522SOL     OW19027   0.732   3.840   6.091  0.1310 -0.3333  0.1895
 2522SOL    HW119028   0.772   3.833   6.178 -1.0569  0.0791  0.7674
 2522SOL    HW219029   0.759   3.758   6.050  1.0926  0.0825 -0.0220
 2523SOL     OW19030   3.533   4.074   9.551 -0.0556 -0.2039  0.1678
 2523SOL    HW119031   3.513   4.087   9.644 -1.6716 -2.4439  0.1517
 2523SOL    HW219032   3.476   4.138   9.508  0.2086 -0.6574 -0.8613
 2524SOL     OW19033   0.925   2.276   5.783 -0.5504  0.5192  0.2831
 2524SOL    HW119034   0.885   2.323   5.709 -1.4109 -1.7963 -0.7104
 2524SOL    HW219035   1.004   2.245   5.740 -0.3763 -0.1295  1.0739
 2525SOL     OW19036   1.137   3.002  12.811 -0.0379 -0.3188 -0.0002
 2525SOL    HW119037   1.042   2.992  12.807  0.2192 -3.1049  0.8498
 2525SOL    HW219038   1.162   2.998  12.719 -0.3440  1.9788 -0.1849
 2526SOL     OW19039   2.271   4.652   7.940 -0.0913 -0.2094  0.1323
 2526SOL    HW119040   2.291   0.021   7.936  0.9082 -0.5454 -2.4434
 2526SOL    HW219041   2.210   4.652   7.866 -1.3377  0.7886  1.1540
 2527SOL     OW19042   2.217   4.663   2.480 -0.8554  0.5390 -1.0827
 2527SOL    HW119043   2.253   0.027   2.486 -0.4602  0.4064 -1.4575
 2527SOL    HW219044   2.202   4.650   2.573 -0.3684 -1.5832 -1.2918
 2528SOL     OW19045   3.442   2.413   8.256 -0.3179 -0.1309  0.1517
 2528SOL    HW119046   3.435   2.495   8.304  0.9113  1.0468 -1.7089
 2528SOL    HW219047   3.457   2.337   8.312 -0.3754 -1.1670 -1.2302
 2529SOL     OW19048   1.439   1.610   7.216  0.2678 -0.7306 -0.1771
 2529SOL    HW119049   1.449   1.600   7.121  1.3207  0.3695 -0.1748
 2529SOL    HW219050   1.375   1.541   7.236 -0.7089 -0.5185 -2.4831
 2530SOL     OW19051   1.708   2.626   4.123  0.2200  0.4720  0.4404
 2530SOL    HW119052   1.696   2.543   4.076  0.0172  1.8901 -1.9763
 2530SOL    HW219053   1.617   2.656   4.127  0.2243  0.1238  3.3668
 2531SOL     OW19054   1.622   3.301   2.818  0.0129  0.0763 -0.1718
 2531SOL    HW119055   1.661   3.387   2.806  1.6828 -0.4904  1.2103
 2531SOL    HW219056   1.568   3.294   2.739 -1.3872  0.1007  0.7924
 2532SOL     OW19057   0.788   3.363   5.169 -0.3090  0.0943  0.3040
 2532SOL    HW119058   0.750   3.317   5.095  0.1758 -1.7129  1.1782
 2532SOL    HW219059   0.807   3.443   5.120  2.2287  0.4284  1.8432
 2533SOL     OW19060   2.439   4.606  17.094 -0.3672 -0.0089 -0.5845
 2533SOL    HW119061   2.442   4.628  17.187  0.6446 -1.1141 -0.3550
 2533SOL    HW219062   2.494   4.528  17.087  1.4838  1.1059  1.4074
 2534SOL     OW19063   0.110   1.859   5.414  0.2618  0.1854 -0.0864
 2534SOL    HW119064   0.045   1.838   5.481  0.2202 -0.8301 -0.4505
 2534SOL    HW219065   0.112   1.955   5.410 -0.7154  0.1684 -0.9017
 2535SOL     OW19066   3.600   4.596  12.705 -0.1652 -0.6719  0.6484
 2535SOL    HW119067   3.635   4.518  12.749  0.2544 -0.7347  0.2092
 2535SOL    HW219068   3.627   4.664  12.767 -0.5837  0.7828 -0.7754
 2536SOL     OW19069   0.451   2.906   2.514  0.4358 -0.0731 -0.2205
 2536SOL    HW119070   0.457   2.964   2.439  0.1437 -0.3976 -0.4970
 2536SOL    HW219071   0.499   2.831   2.480 -0.4652  0.3811 -2.4737
 2537SOL     OW19072   1.286   4.596   4.876  0.3923 -0.0098 -0.1383
 2537SOL    HW119073   1.320   4.656   4.810  0.1878  0.7748  0.4668
 2537SOL    HW219074   1.357   4.585   4.938 -0.6565 -0.3290  1.0017
 2538SOL     OW19075   1.617   4.262   5.905  0.3065  0.4182  0.7733
 2538SOL    HW119076   1.534   4.272   5.858  0.4048 -0.2649  0.4524
 2538SOL    HW219077   1.674   4.227   5.836 -0.6429  1.7281 -0.6827
 2539SOL     OW19078   0.052   0.918   9.045 -0.0322 -0.3349  0.6817
 2539SOL    HW119079   0.030   0.902   9.137  1.3581  0.1607  1.1088
 2539SOL    HW219080   0.134   0.870   9.032 -0.3746 -0.7432  0.0861
 2540SOL     OW19081   0.651   2.820   7.546 -0.2520  0.4064  0.0230
 2540SOL    HW119082   0.712   2.780   7.609 -0.3976 -0.0835 -0.1424
 2540SOL    HW219083   0.685   2.792   7.461  0.9086  1.4824  0.1413
 2541SOL     OW19084   3.915   3.418   7.193 -0.5524  0.4732  0.5525
 2541SOL    HW119085   3.851   3.484   7.170  2.4866  2.5338 -1.9676
 2541SOL    HW219086   3.864   3.352   7.241  1.2184 -1.2504  0.0786
 2542SOL     OW19087   1.289   0.533   2.485  0.1985  0.4623 -0.6343
 2542SOL    HW119088   1.322   0.593   2.419 -1.0590  0.4290 -1.2955
 2542SOL    HW219089   1.205   0.576   2.502  0.4529  0.5807  0.3314
 2543SOL     OW19090   0.901   0.929   4.966 -0.3176  0.2664 -0.1276
 2543SOL    HW119091   0.929   1.009   4.922  0.9760  0.3367  0.8213
 2543SOL    HW219092   0.838   0.975   5.021  0.9337  1.7961  0.0298
 2544SOL     OW19093   3.211   3.965   8.327  0.4925 -0.6686  0.4877
 2544SOL    HW119094   3.190   3.993   8.416 -2.6346  0.9387 -0.7484
 2544SOL    HW219095   3.203   3.870   8.339 -0.5587 -0.4449  1.5120
 2545SOL     OW19096   2.335   0.396  12.591  0.4580 -0.3655  0.1223
 2545SOL    HW119097   2.254   0.395  12.539  0.9999 -4.1032 -0.6806
 2545SOL    HW219098   2.331   0.478  12.640  1.9138  0.6017 -1.4007
 2546SOL     OW19099   3.290   2.406   2.623 -1.0624 -0.2372  0.0695
 2546SOL    HW119100   3.273   2.488   2.577 -0.2631 -0.7000 -1.0438
 2546SOL    HW219101   3.330   2.430   2.707  2.2328  0.9479 -1.8364
 2547SOL     OW19102   3.249   2.633  15.186  0.3781 -0.2488  0.4003
 2547SOL    HW119103   3.266   2.551  15.141  1.4061  1.4533 -2.3484
 2547SOL    HW219104   3.325   2.642  15.244 -0.3029  0.1478  1.2464
 2548SOL     OW19105   4.532   0.723  17.283  0.0786 -0.1368 -0.2369
 2548SOL    HW119106   4.458   0.666  17.304  0.2141  0.4074  1.7576
 2548SOL    HW219107   4.501   0.780  17.213 -0.7711  0.2489  0.4631
 2549SOL     OW19108   0.311   4.208   6.576  0.1379 -0.1149 -0.6302
 2549SOL    HW119109   0.248   4.276   6.549 -0.3229  0.5562  2.0815
 2549SOL    HW219110   0.246   4.137   6.573  1.7831 -1.8279  4.4916
 2550SOL     OW19111   0.469   3.914   4.844  0.8294  1.1588 -0.0057
 2550SOL    HW119112   0.458   3.922   4.749  1.8113  2.1270 -0.0360
 2550SOL    HW219113   0.549   3.963   4.857  0.3455  2.0920 -0.5670
 2551SOL     OW19114   2.429   1.047   5.446 -0.0990 -0.0966  0.1179
 2551SOL    HW119115   2.441   0.960   5.408 -1.3116 -0.6920  1.1239
 2551SOL    HW219116   2.521   1.072   5.432  0.1692 -0.9584  0.3576
 2552SOL     OW19117   1.901   3.931  11.386 -1.1017 -0.1452  0.4473
 2552SOL    HW119118   1.855   3.874  11.448 -1.0684  0.6938  1.2465
 2552SOL    HW219119   1.860   3.901  11.305  0.5198 -0.6884 -0.1858
 2553SOL     OW19120   3.197   3.242   8.169  0.3035 -0.2729 -0.1029
 2553SOL    HW119121   3.107   3.221   8.192 -0.4719  2.9652 -0.2679
 2553SOL    HW219122   3.196   3.193   8.086  0.1342 -2.2057  1.0272
 2554SOL     OW19123   4.568   1.026   1.978 -0.8530 -0.1394 -0.4181
 2554SOL    HW119124   4.582   0.975   1.898 -0.3901  1.3469 -1.2998
 2554SOL    HW219125   4.517   0.963   2.028  0.5161 -0.5220  0.5121
 2555SOL     OW19126   1.284   1.852   1.511  0.0685  0.0626 -0.5763
 2555SOL    HW119127   1.267   1.808   1.428 -1.7994  1.0921 -0.7395
 2555SOL    HW219128   1.379   1.848   1.518 -0.1639 -0.4574  2.3443
 2556SOL     OW19129   4.239   0.290   9.338  0.6744  0.3254 -0.1309
 2556SOL    HW119130   4.238   0.216   9.399  1.7321  0.7553  0.4199
 2556SOL    HW219131   4.148   0.288   9.311  1.8588 -1.5414 -3.9947
 2557SOL     OW19132   2.283   0.455   3.201 -0.2935  0.1663  0.1456
 2557SOL    HW119133   2.345   0.424   3.267 -1.6633 -0.9468  0.9110
 2557SOL    HW219134   2.237   0.372   3.190 -0.8825  0.7085 -1.5135
 2558SOL     OW19135   4.488   2.372   1.164 -0.5832  0.5393  0.5162
 2558SOL    HW119136   4.547   2.307   1.203  1.2361  0.8773 -1.6722
 2558SOL    HW219137   4.410   2.367   1.219 -0.1584  1.1752  1.1712
 2559SOL     OW19138   3.794   3.715   9.515 -0.0395 -0.1051  0.6266
 2559SOL    HW119139   3.888   3.704   9.500 -0.1528  0.6540 -0.6399
 2559SOL    HW219140   3.802   3.685   9.605  0.4390 -0.7854  0.3573
 2560SOL     OW19141   1.627   2.657   7.260 -0.3132 -0.3366 -0.1816
 2560SOL    HW119142   1.619   2.632   7.352 -0.2651  2.1545  0.4977
 2560SOL    HW219143   1.721   2.663   7.242  0.2913 -3.1075  2.1400
 2561SOL     OW19144   0.906   2.853   3.308 -0.5629  0.0208  0.1612
 2561SOL    HW119145   0.945   2.935   3.338  0.5673  0.0396 -1.3697
 2561SOL    HW219146   0.904   2.864   3.213  0.7373 -2.3112 -0.1258
 2562SOL     OW19147   4.097   1.195   6.117  0.5619 -0.7185  0.5202
 2562SOL    HW119148   4.093   1.282   6.076  0.6954 -0.9485  0.0149
 2562SOL    HW219149   4.098   1.133   6.043 -0.9962  1.4887 -1.3705
 2563SOL     OW19150   0.183   4.717   3.401 -0.1637 -0.4387  0.1735
 2563SOL    HW119151   0.250   0.009   3.467 -1.9856 -0.0739  1.8993
 2563SOL    HW219152   0.206   4.632   3.363  0.6693  0.3355 -1.0806
 2564SOL     OW19153   3.607   0.127   6.663 -0.0471 -0.2943 -0.2863
 2564SOL    HW119154   3.611   0.221   6.676 -2.1534  0.0567 -2.2014
 2564SOL    HW219155   3.557   0.135   6.582 -0.1335 -1.0907 -0.3163
 2565SOL     OW19156   3.712   2.372   1.305  0.2536 -0.1811 -0.0610
 2565SOL    HW119157   3.657   2.302   1.339  0.7805 -0.4756  0.1848
 2565SOL    HW219158   3.701   2.441   1.370 -1.4863 -0.2865 -0.2362
 2566SOL     OW19159   4.620   3.315   2.393 -0.0932  0.0382  0.1425
 2566SOL    HW119160   4.586   3.330   2.481 -2.2134  0.4035 -0.7346
 2566SOL    HW219161   4.695   3.260   2.415 -1.8886 -2.2092  0.6142
 2567SOL     OW19162   0.938   4.344   9.469  0.4249 -0.3498 -0.5737
 2567SOL    HW119163   0.954   4.272   9.408  0.0346  0.6162 -1.8120
 2567SOL    HW219164   0.880   4.314   9.539 -0.7203 -0.4824 -1.5716
 2568SOL     OW19165   4.013   3.646  10.511 -0.2041 -0.1323 -0.0561
 2568SOL    HW119166   4.103   3.680  10.514  0.0906 -0.9917  0.9372
 2568SOL    HW219167   4.018   3.593  10.591  0.1028  2.6056  1.7473
 2569SOL     OW19168   0.007   0.750   2.092 -0.8790  0.5444  0.7899
 2569SOL    HW119169   0.038   0.756   2.001 -0.1838 -1.3498  0.8995
 2569SOL    HW219170   0.010   0.843   2.116 -2.3549  0.7300  0.2505
 2570SOL     OW19171   2.742   1.293   4.806 -0.0074  0.3791 -0.0096
 2570SOL    HW119172   2.782   1.361   4.753  1.7094  0.2507  1.1083
 2570SOL    HW219173   2.654   1.323   4.830 -0.7486  0.5677 -2.9677
 2571SOL     OW19174   4.067   2.845   9.147 -0.3004  0.3160  0.2560
 2571SOL    HW119175   4.045   2.935   9.170  0.6809  0.4799  0.5427
 2571SOL    HW219176   3.979   2.809   9.134 -1.3871  3.2103 -0.3310
 2572SOL     OW19177   1.202   3.024  11.222 -0.8836  0.1178 -0.7442
 2572SOL    HW119178   1.121   3.075  11.212 -0.4322  0.3646 -3.2628
 2572SOL    HW219179   1.166   2.945  11.261  0.0770  0.2087  0.3003
 2573SOL     OW19180   0.599   1.155   4.464  0.0188  0.0403  0.2070
 2573SOL    HW119181   0.538   1.121   4.399  1.6324 -1.1894 -0.6684
 2573SOL    HW219182   0.665   1.085   4.470  0.2541  0.1326 -1.4353
 2574SOL     OW19183   0.387   0.622   0.438 -0.3488  0.6547  0.0436
 2574SOL    HW119184   0.320   0.690   0.424 -1.0620 -0.2673 -1.0285
 2574SOL    HW219185   0.413   0.642   0.528  3.1251  0.2543 -0.8613
 2575SOL     OW19186   0.654   0.086   2.250 -0.1709 -0.1986  0.4000
 2575SOL    HW119187   0.677   0.115   2.338  1.2460 -1.1936  0.3417
 2575SOL    HW219188   0.589   0.024   2.284 -0.4685 -0.0544  0.0931
 2576SOL     OW19189   1.743   3.981  11.635  0.1462 -0.5555 -0.1982
 2576SOL    HW119190   1.694   3.923  11.577  1.3556 -1.9877  0.1862
 2576SOL    HW219191   1.702   3.960  11.719  0.5166  0.8605  0.3290
 2577SOL     OW19192   3.368   4.380   8.111  0.1355  0.3826  0.2059
 2577SOL    HW119193   3.395   4.461   8.153  0.2667  0.9320 -0.9290
 2577SOL    HW219194   3.451   4.335   8.094  0.0584  0.8467 -1.4849
 2578SOL     OW19195   2.092   0.711   8.203  0.3621 -0.5472  0.2179
 2578SOL    HW119196   2.075   0.645   8.269 -2.1898  0.0486  0.1533
 2578SOL    HW219197   2.178   0.744   8.230 -0.1927 -0.4531  1.8461
 2579SOL     OW19198   4.247   0.771   9.634  0.0925 -0.0923  0.1249
 2579SOL    HW119199   4.213   0.749   9.721  1.2329 -0.8968  0.3605
 2579SOL    HW219200   4.305   0.844   9.653 -2.1689  1.1764  2.1463
 2580SOL     OW19201   3.646   0.248  11.084 -0.1624  0.0550 -0.0021
 2580SOL    HW119202   3.652   0.338  11.051 -0.5249  0.2089  0.3542
 2580SOL    HW219203   3.676   0.244  11.175 -0.6636 -1.7591  0.0718
 2581SOL     OW19204   4.124   3.308   3.806 -0.4774  0.5462 -0.2966
 2581SOL    HW119205   4.122   3.214   3.822  1.4335  0.6700  0.7116
 2581SOL    HW219206   4.073   3.318   3.726  3.0846 -1.5884 -2.8558
 2582SOL     OW19207   0.466   1.021   7.746  0.4156 -0.2892 -0.3105
 2582SOL    HW119208   0.553   1.056   7.727  1.5573 -2.3863  1.0692
 2582SOL    HW219209   0.466   1.032   7.841 -0.3997  0.2397 -0.3623
 2583SOL     OW19210   0.048   1.461   7.511  0.1041 -0.2787 -0.1155
 2583SOL    HW119211   0.129   1.483   7.558  0.0727  0.6422 -0.5083
 2583SOL    HW219212   4.701   1.491   7.567 -0.5483 -0.1420 -1.0357
 2584SOL     OW19213   3.736   0.688   6.092  0.4322  0.6040 -0.0900
 2584SOL    HW119214   3.680   0.711   6.018 -1.3907  0.8939  1.3882
 2584SOL    HW219215   3.730   0.768   6.143  1.5808  0.9136 -0.4274
 2585SOL     OW19216   0.912   1.800   5.536 -0.1590 -0.1340  0.2888
 2585SOL    HW119217   0.938   1.756   5.617  0.2027  1.0017  0.7975
 2585SOL    HW219218   0.817   1.797   5.543 -0.0055 -0.7968  2.1873
 2586SOL     OW19219   3.422   0.524   2.971  0.3397 -0.4027 -0.5595
 2586SOL    HW119220   3.486   0.572   2.919 -0.9074 -0.2198 -1.9319
 2586SOL    HW219221   3.385   0.467   2.904 -1.1691  2.0625 -1.8174
 2587SOL     OW19222   1.811   3.489   9.654 -0.0796  0.3620 -0.3909
 2587SOL    HW119223   1.813   3.408   9.705  0.0130  1.3476  1.1809
 2587SOL    HW219224   1.744   3.539   9.700  1.4451  0.3614  1.8523
 2588SOL     OW19225   4.514   0.753  11.273  0.1449  0.0934 -0.7186
 2588SOL    HW119226   4.606   0.740  11.298 -0.4308 -0.9057  0.9261
 2588SOL    HW219227   4.477   0.677  11.318  1.2913  0.1765  0.3877
 2589SOL     OW19228   1.729   0.256  12.261 -0.2616 -0.3743  0.3234
 2589SOL    HW119229   1.789   0.275  12.188 -0.4716  1.8672  0.7292
 2589SOL    HW219230   1.731   0.161  12.272  2.7844 -0.2990  0.2447
 2590SOL     OW19231   0.743   3.873   7.531 -0.3402  0.3249  0.1037
 2590SOL    HW119232   0.791   3.893   7.451  0.0910  0.6257  0.4356
 2590SOL    HW219233   0.698   3.954   7.552 -0.1140  0.1530  1.2628
 2591SOL     OW19234   2.142   2.017   3.086  0.2441 -0.0357  0.0244
 2591SOL    HW119235   2.093   1.969   3.152  0.9457  0.4030  0.8715
 2591SOL    HW219236   2.189   1.945   3.043  1.3087  1.4627 -1.3195
 2592SOL     OW19237   3.887   1.419  16.979 -0.0100 -0.5777  0.0218
 2592SOL    HW119238   3.908   1.338  17.025  0.1805  0.4044  1.6904
 2592SOL    HW219239   3.795   1.430  17.000  0.3342  1.7486  0.4054
 2593SOL     OW19240   1.079   3.598   4.476  0.8953  0.0277  0.8032
 2593SOL    HW119241   1.048   3.673   4.525 -0.6959 -0.1887  0.1258
 2593SOL    HW219242   1.072   3.533   4.546 -1.3918 -1.2572 -0.6043
 2594SOL     OW19243   3.441   0.619   8.445  0.2401  0.3195  0.0287
 2594SOL    HW119244   3.477   0.591   8.361  0.4035 -0.2204  0.2766
 2594SOL    HW219245   3.357   0.645   8.408 -0.4616 -1.3027  0.4854
 2595SOL     OW19246   4.433   4.488  14.584  0.3014 -0.1903  0.4517
 2595SOL    HW119247   4.407   4.396  14.579 -0.5035  0.0385  0.3327
 2595SOL    HW219248   4.521   4.475  14.618  1.2758  0.2664 -1.9347
 2596SOL     OW19249   0.653   4.610   0.466  0.3351  0.0134  0.6625
 2596SOL    HW119250   0.698   4.549   0.525 -1.9292 -0.8048  1.5344
 2596SOL    HW219251   0.711   4.640   0.396 -0.6778 -0.2317 -0.2741
 2597SOL     OW19252   4.439   4.263   6.986  0.0125 -0.2425 -0.2616
 2597SOL    HW119253   4.463   4.218   6.905  0.6857  0.2176 -0.3195
 2597SOL    HW219254   4.442   4.349   6.942 -0.2491 -0.4184 -0.6249
 2598SOL     OW19255   2.321   0.135  16.714 -0.3824  0.2816  0.3010
 2598SOL    HW119256   2.308   0.229  16.704  0.5094  0.4650  0.8124
 2598SOL    HW219257   2.239   0.110  16.756  0.2008 -0.4458  1.0132
 2599SOL     OW19258   3.086   3.393   3.943 -0.5649  0.3614  0.2414
 2599SOL    HW119259   3.107   3.390   3.850 -0.8067 -4.3063  0.3345
 2599SOL    HW219260   3.003   3.440   3.943 -1.2986 -0.9664 -1.2303
 2600SOL     OW19261   2.717   3.042   4.201 -0.3838  0.0772  0.3197
 2600SOL    HW119262   2.734   2.983   4.127 -1.4920 -0.4746  0.5087
 2600SOL    HW219263   2.767   2.998   4.270  1.5436 -1.1985 -1.8837
 2601SOL     OW19264   3.458   1.675   6.604  0.4611  0.3199  0.2922
 2601SOL    HW119265   3.481   1.747   6.545 -0.5475 -0.2864 -0.8446
 2601SOL    HW219266   3.363   1.684   6.612  0.5781  2.1913 -0.5840
 2602SOL     OW19267   0.433   1.707  11.366 -0.4478 -0.0142  0.0815
 2602SOL    HW119268   0.487   1.672  11.294 -0.3135  1.0011 -0.3218
 2602SOL    HW219269   0.400   1.622  11.394  0.5114 -1.2846 -2.5787
 2603SOL     OW19270   1.348   0.088   8.880 -0.0617 -0.5929  0.0602
 2603SOL    HW119271   1.319   0.165   8.928  1.4949  0.6572 -1.0121
 2603SOL    HW219272   1.391   0.029   8.942 -1.1849 -1.8367 -0.3253
 2604SOL     OW19273   0.849   4.198   7.112  0.2910 -0.2740  0.5988
 2604SOL    HW119274   0.782   4.185   7.178 -1.5153 -0.1821 -1.2221
 2604SOL    HW219275   0.810   4.153   7.037 -1.0434  1.2014  0.3997
 2605SOL     OW19276   3.613   2.654   5.962  0.1014 -0.0455 -0.6916
 2605SOL    HW119277   3.554   2.673   5.889 -2.1886  0.6454  1.3258
 2605SOL    HW219278   3.680   2.718   5.940 -1.1670  0.8819 -1.7969
 2606SOL     OW19279   2.342   0.752  12.937 -0.1076  0.3219 -0.2350
 2606SOL    HW119280   2.414   0.804  12.973  1.9969 -0.8296 -2.7835
 2606SOL    HW219281   2.322   0.808  12.861 -1.4962  0.2743  0.1013
 2607SOL     OW19282   2.864   0.547   2.563 -0.1398  0.0742 -0.4567
 2607SOL    HW119283   2.865   0.642   2.556 -0.7887  0.1528  0.5035
 2607SOL    HW219284   2.780   0.529   2.605 -0.4965  0.7035 -0.8983
 2608SOL     OW19285   3.730   1.639   0.806 -0.2782  0.2229  0.8978
 2608SOL    HW119286   3.758   1.555   0.841 -0.7237 -0.5703 -0.6346
 2608SOL    HW219287   3.648   1.620   0.761  1.2921 -0.8326 -1.5368
 2609SOL     OW19288   0.006   2.744  17.090  0.1583 -0.3919 -0.0567
 2609SOL    HW119289   4.681   2.664  17.071  2.7867 -1.6596 -1.6873
 2609SOL    HW219290   0.077   2.742  17.025  1.0330  3.3499  0.7853
 2610SOL     OW19291   0.472   1.239   3.029  0.0322 -0.4892 -0.2077
 2610SOL    HW119292   0.562   1.254   3.057  0.8278 -2.2815 -1.7896
 2610SOL    HW219293   0.489   1.225   2.936  0.5777  2.8691 -0.6307
 2611SOL     OW19294   1.891   2.723   6.428  0.4994  0.0484  0.0794
 2611SOL    HW119295   1.818   2.697   6.483  0.3780  0.7222  0.2379
 2611SOL    HW219296   1.844   2.750   6.349 -1.6019 -1.0483  0.9839
 2612SOL     OW19297   0.140   2.381   4.951 -0.0031  0.5896  0.6395
 2612SOL    HW119298   0.190   2.320   5.005 -0.5597  0.2446  0.7614
 2612SOL    HW219299   0.071   2.327   4.912 -1.4665  0.6538  3.1616
 2613SOL     OW19300   1.642   3.811   0.520  1.0035 -0.1279  0.5179
 2613SOL    HW119301   1.559   3.802   0.567  0.3877 -1.9921 -0.9056
 2613SOL    HW219302   1.615   3.819   0.428 -0.2390 -0.6291  0.8363
 2614SOL     OW19303   1.167   4.122  11.920 -0.3171 -0.1872 -0.3802
 2614SOL    HW119304   1.179   4.204  11.872  0.7346  0.2963  0.7040
 2614SOL    HW219305   1.128   4.148  12.003 -1.2430  2.5673 -1.6709
 2615SOL     OW19306   1.538   2.895  16.146  0.1348  0.2809 -0.4526
 2615SOL    HW119307   1.551   2.978  16.099  0.8195 -0.3146 -1.3314
 2615SOL    HW219308   1.512   2.929  16.231 -1.5645 -1.9774 -0.0758
 2616SOL     OW19309   4.032   2.197   7.023  0.1014 -0.2455 -0.0436
 2616SOL    HW119310   4.020   2.258   6.951 -0.1065 -0.2825 -0.0404
 2616SOL    HW219311   4.126   2.178   7.020  0.7569  2.6633  2.0307
 2617SOL     OW19312   0.939   0.111   2.120 -0.3437  0.5081 -0.0112
 2617SOL    HW119313   0.892   0.119   2.203 -0.7602  0.5548 -0.2520
 2617SOL    HW219314   0.965   0.202   2.107  0.2974  0.2095 -0.8059
 2618SOL     OW19315   4.018   0.319   2.499 -0.0950  0.1040  0.5263
 2618SOL    HW119316   3.930   0.292   2.524 -0.2836 -1.6977 -2.0484
 2618SOL    HW219317   4.013   0.309   2.404  2.0215  2.4843  0.1551
 2619SOL     OW19318   1.017   4.304  12.043 -0.1928  0.4130 -0.5099
 2619SOL    HW119319   1.026   4.362  11.967 -1.0816  0.5109 -0.5429
 2619SOL    HW219320   1.074   4.336  12.113 -0.5780 -0.7426  0.3308
 2620SOL     OW19321   1.493   2.796  10.592 -0.1200  0.1766  0.2664
 2620SOL    HW119322   1.423   2.766  10.533  0.0298  0.3158  0.0168
 2620SOL    HW219323   1.441   2.811  10.671 -1.2432  0.1008 -0.4510
 2621SOL     OW19324   0.059   0.639  13.202 -0.2535 -0.1906 -0.4286
 2621SOL    HW119325   0.125   0.602  13.143 -1.3630 -1.4456 -0.8864
 2621SOL    HW219326   0.112   0.707  13.242  0.1083 -1.7352  1.7398
 2622SOL     OW19327   1.459   0.510   2.746  0.2254  0.1382  0.3634
 2622SOL    HW119328   1.411   0.437   2.708  0.2016  0.1398  0.3905
 2622SOL    HW219329   1.385   0.569   2.763 -0.5005 -1.2268  1.9664
 2623SOL     OW19330   1.745   0.163   7.311  0.1715  0.3072  0.2515
 2623SOL    HW119331   1.777   0.211   7.387 -0.9477  0.0148  0.9079
 2623SOL    HW219332   1.779   0.220   7.242 -3.5626  2.9439  0.6283
 2624SOL     OW19333   0.608   0.337   7.263 -0.5421  0.2843 -0.1422
 2624SOL    HW119334   0.589   0.244   7.275 -0.7471  0.4580  0.8712
 2624SOL    HW219335   0.528   0.376   7.297 -1.5651  0.7739 -3.0978
 2625SOL     OW19336   3.950   2.416   1.187 -0.3755  0.7171 -0.0919
 2625SOL    HW119337   3.862   2.405   1.224  0.4279 -3.3157  0.5829
 2625SOL    HW219338   3.927   2.499   1.144  0.4889  0.1613 -1.6306
 2626SOL     OW19339   2.092   3.678  14.524  0.2343 -0.0466  0.0558
 2626SOL    HW119340   2.148   3.647  14.453  0.9541 -1.3812  1.2032
 2626SOL    HW219341   2.110   3.605  14.583  0.6745  0.6347  0.7730
 2627SOL     OW19342   0.295   0.031   1.923  0.2585  0.2344 -0.4297
 2627SOL    HW119343   0.385   0.031   1.891  0.7129  0.8567  0.8532
 2627SOL    HW219344   0.246   0.049   1.842  0.4816  2.2444 -0.1220
 2628SOL     OW19345   4.623   0.441   9.400  0.0050  0.3874 -0.1194
 2628SOL    HW119346   4.714   0.417   9.415 -0.9050 -2.5812  0.6170
 2628SOL    HW219347   4.628   0.501   9.326 -0.0546  1.8284  1.0520
 2629SOL     OW19348   2.048   0.286   6.111  0.0388  0.3692  0.7206
 2629SOL    HW119349   1.966   0.264   6.155 -1.3036 -1.3525 -2.6261
 2629SOL    HW219350   2.050   0.235   6.030 -1.4897  1.8507 -0.2588
 2630SOL     OW19351   0.295   3.167   3.760 -0.3228 -0.2427  0.0645
 2630SOL    HW119352   0.258   3.080   3.743 -0.5205 -0.1175 -0.1353
 2630SOL    HW219353   0.283   3.173   3.855 -0.2785  1.1100 -0.0241
 2631SOL     OW19354   3.411   0.204   8.610 -0.1383 -0.1443  0.3016
 2631SOL    HW119355   3.387   0.291   8.643  2.9142  0.4522  0.9532
 2631SOL    HW219356   3.507   0.200   8.612 -0.2075 -1.1785  1.1202
 2632SOL     OW19357   1.282   4.046   5.656  0.3785  0.3925 -0.2059
 2632SOL    HW119358   1.331   4.011   5.581 -1.2184  1.5277 -1.7777
 2632SOL    HW219359   1.190   4.059   5.636  0.9664  1.7082 -2.1210
 2633SOL     OW19360   0.138   3.568   3.902  0.1910 -0.0666 -0.0577
 2633SOL    HW119361   0.109   3.477   3.892  0.4864 -0.0747 -0.8189
 2633SOL    HW219362   0.061   3.598   3.951 -1.9489 -2.3568 -1.9963
 2634SOL     OW19363   1.761   2.306   8.436  0.2884 -0.1359 -0.2835
 2634SOL    HW119364   1.814   2.347   8.505 -0.0236  1.5402 -1.0500
 2634SOL    HW219365   1.714   2.239   8.487  0.9279  2.1526  3.3160
 2635SOL     OW19366   4.124   3.820   8.187  0.1304 -0.0157  0.3290
 2635SOL    HW119367   4.071   3.751   8.146  0.3120  0.5975 -0.9485
 2635SOL    HW219368   4.214   3.787   8.180  0.9652  2.3105  0.3708
 2636SOL     OW19369   2.824   1.510  17.036  0.7282 -0.1910 -0.0472
 2636SOL    HW119370   2.792   1.484  16.950  0.8318 -1.8547  0.4212
 2636SOL    HW219371   2.744   1.552  17.069  1.5274 -0.3530  2.0667
 2637SOL     OW19372   0.993   3.061   0.835  0.2084 -0.4068  0.3084
 2637SOL    HW119373   1.030   3.148   0.817  1.9114 -1.8646 -3.1590
 2637SOL    HW219374   0.942   3.042   0.757 -0.2657  1.2288  0.2159
 2638SOL     OW19375   0.390   3.047  10.586 -0.4775 -0.2354 -0.2791
 2638SOL    HW119376   0.368   3.010  10.500 -2.3526  0.2749 -0.0257
 2638SOL    HW219377   0.479   3.014  10.600  0.2843  1.4044 -1.2470
 2639SOL     OW19378   0.664   2.435  13.792 -0.0516 -0.2846  0.0635
 2639SOL    HW119379   0.749   2.471  13.768 -0.4266  0.3388 -0.3101
 2639SOL    HW219380   0.681   2.340  13.793 -3.1360 -0.8579 -2.0193
 2640SOL     OW19381   2.682   1.331  10.964  0.2814  0.1444  0.1388
 2640SOL    HW119382   2.627   1.270  10.916  2.6701 -1.4102 -0.6307
 2640SOL    HW219383   2.620   1.393  11.002 -0.7179 -0.1756 -1.0033
 2641SOL     OW19384   3.859   4.316   4.265  0.0305  0.1531  0.4586
 2641SOL    HW119385   3.818   4.280   4.186 -0.1768  2.0874 -0.3241
 2641SOL    HW219386   3.805   4.395   4.266 -3.0412 -1.9125  0.5303
 2642SOL     OW19387   4.168   0.737   7.122 -0.1705 -0.6809 -0.0988
 2642SOL    HW119388   4.235   0.706   7.183  0.5766  2.1285  0.4956
 2642SOL    HW219389   4.142   0.810   7.177  1.6198 -0.0717 -0.0591
 2643SOL     OW19390   1.905   3.179   3.368  0.3385  1.0304 -0.3108
 2643SOL    HW119391   1.824   3.205   3.411  2.7739  2.3079  3.4997
 2643SOL    HW219392   1.972   3.240   3.397  0.4047  1.6845 -1.8060
 2644SOL     OW19393   1.912   2.643  13.520 -0.4487  0.2165  0.4120
 2644SOL    HW119394   1.850   2.700  13.566 -0.4417  0.8579 -0.3748
 2644SOL    HW219395   1.949   2.602  13.598 -2.5884  0.0484  1.3151
 2645SOL     OW19396   3.244   1.626   5.262  0.1931 -0.1843  0.5630
 2645SOL    HW119397   3.302   1.656   5.192  0.2184 -3.1854 -0.6796
 2645SOL    HW219398   3.169   1.685   5.263  0.1657 -0.1617 -2.5834
 2646SOL     OW19399   3.876   2.847   5.085  0.0054 -0.2438  0.7007
 2646SOL    HW119400   3.898   2.937   5.061  0.6801 -1.1655 -2.0933
 2646SOL    HW219401   3.874   2.846   5.181  0.4185 -2.9688  0.6748
 2647SOL     OW19402   1.336   4.486   4.598  0.6185  0.0232  0.2357
 2647SOL    HW119403   1.323   4.562   4.654 -0.7816  0.0322 -0.0865
 2647SOL    HW219404   1.400   4.521   4.536 -0.9194  0.6951 -0.9777
 2648SOL     OW19405   0.868   4.052   3.192  0.4299  0.2941 -0.0564
 2648SOL    HW119406   0.832   4.082   3.275 -0.1054 -1.2694  0.2633
 2648SOL    HW219407   0.785   4.041   3.145 -0.0528 -0.6266  1.0360
 2649SOL     OW19408   1.564   1.284   3.137  0.0705  0.0796 -0.1587
 2649SOL    HW119409   1.635   1.241   3.184 -1.4571 -1.7551  0.5002
 2649SOL    HW219410   1.595   1.271   3.047  1.8856 -0.5209  0.5486
 2650SOL     OW19411   2.397   4.574   8.398 -0.2772  0.1838  0.0241
 2650SOL    HW119412   2.315   4.583   8.446 -0.7106  0.9886 -0.8606
 2650SOL    HW219413   2.381   4.492   8.350 -0.7101  0.3294 -0.0775
 2651SOL     OW19414   3.666   1.640  15.088 -0.4536  0.5486 -0.3638
 2651SOL    HW119415   3.618   1.712  15.047 -1.6300 -0.2696 -0.4397
 2651SOL    HW219416   3.686   1.587  15.010  1.3628  1.2232 -0.3401
 2652SOL     OW19417   0.872   3.626   5.280  0.1114 -0.2289  0.0821
 2652SOL    HW119418   0.813   3.586   5.344  0.5441 -0.7004  0.1887
 2652SOL    HW219419   0.830   3.711   5.266  0.1478 -0.3862 -0.9594
 2653SOL     OW19420   1.663   3.186   1.078  0.3622 -0.7522 -0.1353
 2653SOL    HW119421   1.648   3.246   1.005 -0.3158  0.4126  0.9602
 2653SOL    HW219422   1.603   3.111   1.068 -0.2431 -0.5030  1.6871
 2654SOL     OW19423   3.705   0.736   3.062  0.1524  0.4182  0.6633
 2654SOL    HW119424   3.801   0.739   3.072  0.1104 -1.1302  1.4762
 2654SOL    HW219425   3.675   0.683   3.136  0.6287  0.3427  0.8038
 2655SOL     OW19426   4.531   4.336   8.287 -0.9754  0.3695 -0.2806
 2655SOL    HW119427   4.581   4.386   8.222 -1.2150 -0.8971 -1.4512
 2655SOL    HW219428   4.499   4.260   8.238  0.2555 -0.5701  0.4011
 2656SOL     OW19429   0.754   3.675   9.417  0.0927 -0.2434  0.1055
 2656SOL    HW119430   0.826   3.690   9.357 -0.2012  1.6320  0.2335
 2656SOL    HW219431   0.778   3.728   9.493  1.0345 -1.0752  0.3916
 2657SOL     OW19432   2.413   1.956   7.971 -0.1329  0.4825 -1.0233
 2657SOL    HW119433   2.337   1.913   8.010  0.3473  0.2280 -0.3840
 2657SOL    HW219434   2.456   1.980   8.052  0.3643 -1.5792 -0.6655
 2658SOL     OW19435   1.293   0.158   2.898  0.5792  0.1704  0.5984
 2658SOL    HW119436   1.224   0.093   2.904  0.9963 -0.3008  0.2511
 2658SOL    HW219437   1.251   0.213   2.831 -1.1432 -1.8474  0.0329
 2659SOL     OW19438   1.180   3.383   4.632 -0.0546  0.2973  0.5644
 2659SOL    HW119439   1.229   3.459   4.664  0.2362  0.0297  0.7609
 2659SOL    HW219440   1.214   3.320   4.696  2.7428 -1.5397 -2.7014
 2660SOL     OW19441   4.566   4.274   6.076  0.3829  0.1276  0.1446
 2660SOL    HW119442   4.658   4.272   6.103  0.2805 -0.6986  0.4301
 2660SOL    HW219443   4.567   4.356   6.026  1.1955 -1.4268 -2.3583
 2661SOL     OW19444   2.205   3.707   3.345 -0.2823 -0.2919 -0.3224
 2661SOL    HW119445   2.184   3.619   3.315  0.5662  0.0950 -2.0775
 2661SOL    HW219446   2.274   3.729   3.282 -0.1485  2.8439  0.9018
 2662SOL     OW19447   4.201   0.734   4.781 -0.0498  0.5928  0.0072
 2662SOL    HW119448   4.277   0.696   4.737 -1.3386  1.1904 -2.7391
 2662SOL    HW219449   4.162   0.665   4.834 -1.8778  1.7596  0.1891
 2663SOL     OW19450   1.319   4.316   7.806 -0.3430 -0.1035  0.2709
 2663SOL    HW119451   1.256   4.370   7.855 -1.3498 -1.6156  0.6433
 2663SOL    HW219452   1.382   4.373   7.761  1.4708 -1.4202  1.1565
 2664SOL     OW19453   3.611   4.637   8.526  0.7077  0.7333 -0.1225
 2664SOL    HW119454   3.558   4.631   8.447 -0.4426  0.7851  0.6463
 2664SOL    HW219455   3.627   4.547   8.554  2.0700  1.6652  2.1283
 2665SOL     OW19456   4.459   0.420   7.229 -0.4283 -0.1429 -0.4882
 2665SOL    HW119457   4.369   0.436   7.199 -0.9224 -0.8175  0.6692
 2665SOL    HW219458   4.450   0.351   7.294 -3.5501 -0.8998 -1.6910
 2666SOL     OW19459   3.521   3.057  10.151  0.5391  0.4993 -0.1962
 2666SOL    HW119460   3.556   3.131  10.102 -0.0957  0.2326 -1.0561
 2666SOL    HW219461   3.596   2.997  10.150 -0.0942 -0.3441  3.1298
 2667SOL     OW19462   4.661   4.685  12.593  0.7795 -0.3015 -0.2296
 2667SOL    HW119463   4.704   4.681  12.508 -0.0216 -0.4669 -0.6273
 2667SOL    HW219464   0.006   4.647  12.647  0.7870 -0.7494 -0.5570
 2668SOL     OW19465   4.063   0.728   6.810 -0.1903  0.0332  0.1574
 2668SOL    HW119466   4.110   0.800   6.853  1.4629 -0.6133 -0.5810
 2668SOL    HW219467   4.115   0.655   6.842 -0.9239  0.4472  2.2908
 2669SOL     OW19468   2.789   2.954   0.155 -0.3823 -0.1673  0.3269
 2669SOL    HW119469   2.874   2.993   0.176 -0.2313 -0.1940 -0.2358
 2669SOL    HW219470   2.814   2.911   0.073 -1.5054 -1.0832  0.4550
 2670SOL     OW19471   4.589   4.143   7.892  0.4734  0.1978  0.3400
 2670SOL    HW119472   4.665   4.087   7.877  1.6588  1.1664  2.7264
 2670SOL    HW219473   4.516   4.081   7.897 -0.3572  1.0905 -0.7992
 2671SOL     OW19474   3.010   4.276   7.968  0.1893 -0.0967 -0.5721
 2671SOL    HW119475   2.964   4.218   7.906  1.5196 -0.6725 -1.0292
 2671SOL    HW219476   3.062   4.217   8.022  1.6026  2.4839  0.8611
 2672SOL     OW19477   2.572   3.411   8.641  0.7820  0.4208 -0.2817
 2672SOL    HW119478   2.485   3.450   8.648  0.9823  1.1433 -1.9123
 2672SOL    HW219479   2.590   3.391   8.733 -0.0175  0.1197 -0.1982
 2673SOL     OW19480   1.816   3.015   0.837 -0.1827 -0.2586 -0.1348
 2673SOL    HW119481   1.739   2.979   0.881 -1.3138  2.1000 -0.1470
 2673SOL    HW219482   1.770   3.059   0.766  2.3983  1.8944 -0.4886
 2674SOL     OW19483   3.932   0.323  10.368  0.0013  0.1364 -0.3711
 2674SOL    HW119484   3.930   0.294  10.277  0.1413  0.8144 -0.5918
 2674SOL    HW219485   3.986   0.401  10.360 -1.3906  0.9434 -1.9560
 2675SOL     OW19486   2.700   2.318   2.363  0.1522  0.6506  0.0114
 2675SOL    HW119487   2.639   2.290   2.431  0.7039 -3.1241 -1.0411
 2675SOL    HW219488   2.752   2.244   2.329 -0.7087 -0.5585  1.3188
 2676SOL     OW19489   1.503   4.179  15.778  0.1017  0.6258  0.0775
 2676SOL    HW119490   1.464   4.132  15.852 -0.2585  2.8216  1.2783
 2676SOL    HW219491   1.429   4.192  15.719 -0.2193  1.3952  0.6457
 2677SOL     OW19492   3.379   2.160   2.964 -0.0785 -0.2192 -0.1464
 2677SOL    HW119493   3.340   2.235   3.009 -1.3250 -0.8951 -0.1056
 2677SOL    HW219494   3.423   2.125   3.042  0.3041  0.0170 -0.2571
 2678SOL     OW19495   3.507   4.723  13.216 -0.5204 -0.4589  0.2556
 2678SOL    HW119496   3.520   0.079  13.266 -0.6240 -3.1208  4.6403
 2678SOL    HW219497   3.417   0.010  13.187  0.7412  1.7184 -2.7510
 2679SOL     OW19498   4.517   3.360   2.151  0.5876 -0.0787  0.0199
 2679SOL    HW119499   4.560   3.349   2.236  1.7086 -0.2909 -0.5718
 2679SOL    HW219500   4.540   3.451   2.135 -1.4514  0.0447 -2.1683
 2680SOL     OW19501   1.094   0.457   8.286 -0.2294  0.2314 -0.1579
 2680SOL    HW119502   1.046   0.490   8.210 -0.5029  2.1468  0.8511
 2680SOL    HW219503   1.188   0.455   8.266 -0.5886  0.5902 -1.8811
 2681SOL     OW19504   4.415   1.414   4.293 -0.2637  0.0815  0.1632
 2681SOL    HW119505   4.373   1.352   4.233 -1.0022 -1.5496  2.3667
 2681SOL    HW219506   4.341   1.436   4.349  0.4582  0.2152  1.0649
 2682SOL     OW19507   3.952   0.167   7.537  0.5005  0.1075  0.6055
 2682SOL    HW119508   3.984   0.078   7.549  0.4112 -0.2154 -1.5023
 2682SOL    HW219509   3.857   0.152   7.534  0.6020 -0.5856  1.0074
 2683SOL     OW19510   0.168   0.937  11.458  0.4165  0.4999 -0.1431
 2683SOL    HW119511   0.127   0.869  11.511  1.2176  1.2132  1.4002
 2683SOL    HW219512   0.094   0.991  11.432  0.3560 -0.2656 -1.5749
 2684SOL     OW19513   0.066   4.152  17.509  0.0282  0.0843  0.3801
 2684SOL    HW119514   0.091   4.097  17.584 -2.6446  0.2211  1.3490
 2684SOL    HW219515   0.155   4.176  17.483 -0.8877  0.9447 -1.9419
 2685SOL     OW19516   1.188   1.739   1.302 -0.6368 -0.1655  0.0759
 2685SOL    HW119517   1.159   1.790   1.227  0.1676 -0.0401 -0.1517
 2685SOL    HW219518   1.106   1.690   1.311 -0.0008 -1.4847 -1.2276
 2686SOL     OW19519   2.871   0.103  16.594  0.3021 -0.0551 -0.7512
 2686SOL    HW119520   2.791   0.070  16.635  0.7299 -1.5137 -1.0921
 2686SOL    HW219521   2.907   0.166  16.656 -0.6195  0.4994 -0.7856
 2687SOL     OW19522   3.405   2.690   4.695  0.2997  0.3139 -0.4314
 2687SOL    HW119523   3.466   2.743   4.745  0.3401 -0.6126  0.4972
 2687SOL    HW219524   3.423   2.730   4.610  2.2405  2.5464  1.0392
 2688SOL     OW19525   0.432   4.674   3.021 -0.0298 -0.0799 -0.2425
 2688SOL    HW119526   0.526   4.668   3.040 -0.2593 -0.9368  0.6128
 2688SOL    HW219527   0.436   4.610   2.949  2.0087  1.8897 -1.8698
 2689SOL     OW19528   4.469   1.705   5.297 -0.1480 -0.1193 -0.3973
 2689SOL    HW119529   4.486   1.614   5.318  0.6738  0.1536  0.1022
 2689SOL    HW219530   4.378   1.709   5.326 -0.0281 -0.6315  0.0402
 2690SOL     OW19531   2.677   0.977   9.863 -0.0063 -0.0119  0.0933
 2690SOL    HW119532   2.656   0.887   9.884  0.5564  0.1171  1.2042
 2690SOL    HW219533   2.704   0.964   9.772  0.3678  0.8844  0.0693
 2691SOL     OW19534   0.391   2.677   7.797 -0.4969  0.4199 -0.0127
 2691SOL    HW119535   0.465   2.722   7.838 -0.9052 -0.2230  1.4288
 2691SOL    HW219536   0.410   2.589   7.829 -0.4167 -0.2982 -2.0211
 2692SOL     OW19537   4.346   2.235   2.588  0.3269  0.4252  0.7751
 2692SOL    HW119538   4.364   2.329   2.588  0.2494  0.4338 -4.1691
 2692SOL    HW219539   4.364   2.202   2.500  0.0229  0.7009  0.6092
 2693SOL     OW19540   3.840   4.266   5.739 -0.0936 -0.1959 -0.0399
 2693SOL    HW119541   3.784   4.189   5.733  2.3135 -1.9296  0.0223
 2693SOL    HW219542   3.811   4.293   5.827  1.1074  0.6156  0.1057
 2694SOL     OW19543   0.850   0.808   3.584  0.1112 -0.1021 -0.5032
 2694SOL    HW119544   0.782   0.840   3.642 -0.4694 -0.7117 -0.8509
 2694SOL    HW219545   0.927   0.864   3.597 -0.7502  0.8828  0.2618
 2695SOL     OW19546   3.097   0.277   7.511  0.2341  0.6582 -0.1112
 2695SOL    HW119547   3.171   0.228   7.545 -1.3188 -0.8783  1.0251
 2695SOL    HW219548   3.082   0.239   7.424 -1.3566  1.9709 -0.4183
 2696SOL     OW19549   4.197   1.674   5.430  0.0077  0.7500  0.1522
 2696SOL    HW119550   4.213   1.673   5.524 -1.7332 -0.9541  0.4064
 2696SOL    HW219551   4.111   1.715   5.426 -0.2908  0.1955  0.9242
 2697SOL     OW19552   3.825   2.467   4.900  0.2984 -0.1610  0.4328
 2697SOL    HW119553   3.885   2.423   4.840  0.6941  1.3922 -0.3219
 2697SOL    HW219554   3.864   2.555   4.901  0.1797 -0.0728 -2.4833
 2698SOL     OW19555   0.366   2.883  16.918 -0.1601 -0.4020  0.0254
 2698SOL    HW119556   0.374   2.928  17.002 -0.5656  0.3036 -0.3071
 2698SOL    HW219557   0.304   2.813  16.938 -1.7488  1.3085  1.1016
 2699SOL     OW19558   3.168   1.233   0.733 -0.0262  0.3729  0.7485
 2699SOL    HW119559   3.137   1.317   0.768 -0.3460  0.5560  0.0321
 2699SOL    HW219560   3.258   1.248   0.704 -0.0298 -1.0462  0.0008
 2700SOL     OW19561   1.672   3.573   8.354  0.3167  0.2110 -0.2169
 2700SOL    HW119562   1.592   3.595   8.305 -0.6766 -0.3864  1.1355
 2700SOL    HW219563   1.634   3.589   8.441  1.1192 -0.6262  0.2884
 2701SOL     OW19564   1.502   2.842   4.419 -0.4209 -0.0234 -0.0470
 2701SOL    HW119565   1.590   2.836   4.457 -0.6028  1.3246  0.5855
 2701SOL    HW219566   1.511   2.883   4.333 -2.2441  1.9415  0.6755
 2702SOL     OW19567   0.034   3.333   4.629 -0.3097  0.5731  0.2290
 2702SOL    HW119568   0.082   3.325   4.712 -1.1909 -0.3042  0.6510
 2702SOL    HW219569   4.711   3.415   4.642  0.1038  1.1364 -1.7504
 2703SOL     OW19570   2.230   1.345   6.203 -0.0465 -0.0704 -0.2012
 2703SOL    HW119571   2.226   1.440   6.213  1.0470 -0.1577  0.9899
 2703SOL    HW219572   2.296   1.327   6.269  0.9097 -1.0545 -1.4491
 2704SOL     OW19573   3.322   0.108   7.548  0.0279  0.7399  0.0137
 2704SOL    HW119574   3.415   0.122   7.564  0.0992 -0.3583  0.5674
 2704SOL    HW219575   3.281   0.072   7.627  0.0797 -0.5517 -0.5562
 2705SOL     OW19576   2.976   0.853  13.215 -0.2898 -0.0505  0.1698
 2705SOL    HW119577   3.003   0.808  13.135  2.0516 -0.4476  1.1783
 2705SOL    HW219578   2.983   0.775  13.269 -1.2560 -0.0503  0.2926
 2706SOL     OW19579   3.874   4.067  10.392 -0.3691  0.1362  0.6223
 2706SOL    HW119580   3.836   4.124  10.459  0.2665 -0.4271  1.4687
 2706SOL    HW219581   3.899   4.128  10.323  1.3587 -0.8213  0.4047
 2707SOL     OW19582   1.081   1.170   6.817  0.2896  0.5997 -0.6092
 2707SOL    HW119583   1.159   1.215   6.850 -1.6836  2.6720  1.2433
 2707SOL    HW219584   1.075   1.087   6.864 -1.4927  0.5277 -0.9811
 2708SOL     OW19585   1.236   2.591   7.211 -0.3668  0.1130 -0.1060
 2708SOL    HW119586   1.191   2.536   7.147 -1.4059  0.6100  0.2050
 2708SOL    HW219587   1.168   2.588   7.279 -0.3497  0.8570 -0.0622
 2709SOL     OW19588   2.902   3.733   4.437 -0.3461 -0.0220  0.6086
 2709SOL    HW119589   2.863   3.661   4.487  0.5720  0.8374  2.5710
 2709SOL    HW219590   2.958   3.764   4.508 -1.3464  0.9850  0.9637
 2710SOL     OW19591   1.048   1.533   7.268  0.1046  0.0999  0.1207
 2710SOL    HW119592   1.118   1.469   7.278 -0.3486 -0.5394 -0.8106
 2710SOL    HW219593   0.980   1.474   7.236 -0.4423  2.2027 -2.5792
 2711SOL     OW19594   2.104   4.392   4.269  0.5217  0.2637  0.0196
 2711SOL    HW119595   2.077   4.440   4.191  1.1048  0.8122  0.1458
 2711SOL    HW219596   2.188   4.434   4.290 -0.2617  1.6719  0.3485
 2712SOL     OW19597   1.099   2.254   3.563 -0.2362 -0.1873  0.3186
 2712SOL    HW119598   1.095   2.211   3.648 -1.8373 -0.3643  0.1578
 2712SOL    HW219599   1.164   2.193   3.529  0.1292  0.8583 -0.8806
 2713SOL     OW19600   4.364   4.207   8.600 -0.0755 -0.2997  0.1830
 2713SOL    HW119601   4.314   4.207   8.518 -0.1061  0.0775  0.2017
 2713SOL    HW219602   4.423   4.132   8.593  0.7095  0.4563 -1.2571
 2714SOL     OW19603   1.926   3.289   6.161  0.6706 -0.1946  0.4238
 2714SOL    HW119604   1.906   3.271   6.253 -0.8462 -1.6748 -0.1789
 2714SOL    HW219605   1.887   3.376   6.151 -1.7274 -1.1571  1.2489
 2715SOL     OW19606   4.161   2.329   8.788 -0.4965 -0.2839 -0.2165
 2715SOL    HW119607   4.206   2.316   8.872 -1.1444 -0.9659  0.0285
 2715SOL    HW219608   4.110   2.409   8.797  0.3832  0.0523  1.8147
 2716SOL     OW19609   2.565   0.810  17.683 -0.4847 -0.2304  0.4408
 2716SOL    HW119610   2.553   0.763   0.065 -1.9303 -1.6136 -0.5588
 2716SOL    HW219611   2.594   0.740  17.624 -0.8707 -1.2177  1.4219
 2717SOL     OW19612   1.956   2.915   1.647  0.3736  0.3192 -0.4590
 2717SOL    HW119613   2.025   2.873   1.698  1.2040  0.3197 -1.5932
 2717SOL    HW219614   1.976   3.006   1.669  0.7346  0.2868 -0.6504
 2718SOL     OW19615   1.808   3.086   7.124  0.4863 -0.8514 -0.3639
 2718SOL    HW119616   1.718   3.116   7.130  1.8410  3.0676  0.2082
 2718SOL    HW219617   1.814   3.034   7.204 -1.9217 -2.3942 -1.2028
 2719SOL     OW19618   2.356   4.429  16.858  0.6478  0.3718 -0.2142
 2719SOL    HW119619   2.334   4.465  16.944 -2.0380  3.5507 -2.2217
 2719SOL    HW219620   2.391   4.499  16.804  0.4024  1.8246  1.4849
 2720SOL     OW19621   0.519   2.078   7.361  1.0670 -0.0635  0.4316
 2720SOL    HW119622   0.570   2.063   7.282  0.8314 -0.8420  0.4265
 2720SOL    HW219623   0.530   2.172   7.371 -0.6723  0.1104  0.8278
 2721SOL     OW19624   0.899   3.675   6.746 -0.3567  0.2183  0.2619
 2721SOL    HW119625   0.855   3.646   6.826 -2.0682  0.3581 -0.6330
 2721SOL    HW219626   0.863   3.616   6.680  0.5038  1.4154 -1.2752
 2722SOL     OW19627   0.054   3.848   8.528 -0.7553  0.1629 -0.1776
 2722SOL    HW119628   0.039   3.859   8.434 -2.8856 -2.5687 -0.1454
 2722SOL    HW219629   0.148   3.865   8.532 -0.7793  0.4446 -0.8670
 2723SOL     OW19630   4.558   2.545  13.642 -0.3094 -0.1627 -0.4445
 2723SOL    HW119631   4.589   2.607  13.576 -1.4334  0.5884 -0.2671
 2723SOL    HW219632   4.574   2.466  13.590 -0.1683 -0.2238 -0.3055
 2724SOL     OW19633   2.530   2.412   1.182 -0.0489  0.4370 -0.0073
 2724SOL    HW119634   2.613   2.458   1.166  0.5028 -1.4058 -2.5147
 2724SOL    HW219635   2.521   2.380   1.092  0.1056  0.0475  0.1198
 2725SOL     OW19636   0.801   0.263  12.522  0.1388  0.1228 -0.0671
 2725SOL    HW119637   0.740   0.299  12.458 -0.2282  0.7091  0.6056
 2725SOL    HW219638   0.844   0.196  12.470 -0.7371 -0.0954 -0.5110
 2726SOL     OW19639   4.309   3.722   9.220 -0.1601 -0.2516  0.4258
 2726SOL    HW119640   4.350   3.666   9.286  1.5842 -0.2713 -0.6927
 2726SOL    HW219641   4.221   3.686   9.209  0.2466 -1.5345  1.3584
 2727SOL     OW19642   1.221   4.337   6.332 -0.1550  0.6467  0.5347
 2727SOL    HW119643   1.301   4.334   6.281 -0.1584 -0.1525  0.5838
 2727SOL    HW219644   1.255   4.385   6.408 -0.6679  1.8159  0.0197
 2728SOL     OW19645   2.219   3.914   7.895  0.1423 -0.0243 -0.1047
 2728SOL    HW119646   2.259   3.948   7.816 -0.1120  2.1699  0.7319
 2728SOL    HW219647   2.186   3.830   7.861  0.6374 -0.3221  0.1519
 2729SOL     OW19648   1.424   4.596   3.703  0.3069 -0.1048 -0.3285
 2729SOL    HW119649   1.470   4.528   3.655  3.5104  2.5972 -1.0622
 2729SOL    HW219650   1.436   4.668   3.640  1.8277  2.2092  2.5962
 2730SOL     OW19651   3.240   4.711   8.676 -0.2056 -0.6080 -0.3259
 2730SOL    HW119652   3.291   0.055   8.635  0.9048 -0.7808  0.7830
 2730SOL    HW219653   3.266   4.639   8.619  2.9336 -1.1846  1.8724
 2731SOL     OW19654   1.428   3.503   1.409  0.1840 -0.9047 -0.4731
 2731SOL    HW119655   1.440   3.417   1.368  0.6503 -0.4903 -1.2059
 2731SOL    HW219656   1.502   3.550   1.372 -0.3466  0.6407  0.4286
 2732SOL     OW19657   3.531   0.773  14.539 -0.2570  0.3027 -0.5362
 2732SOL    HW119658   3.620   0.809  14.545 -0.4514  0.0953  3.5552
 2732SOL    HW219659   3.549   0.719  14.615 -2.8957 -0.6254 -0.5992
 2733SOL     OW19660   3.184   4.280  16.486 -0.0904  0.2529 -0.1207
 2733SOL    HW119661   3.154   4.252  16.400 -2.2308  2.1907 -0.0267
 2733SOL    HW219662   3.241   4.349  16.454 -0.0821  0.2296 -0.1564
 2734SOL     OW19663   1.055   1.094   5.930 -0.4713 -0.1865  0.2281
 2734SOL    HW119664   1.146   1.065   5.923 -0.0367  0.9513  1.1937
 2734SOL    HW219665   1.029   1.048   6.010 -3.8681  0.9894 -0.2215
 2735SOL     OW19666   0.925   2.028   1.354 -0.0864  0.0526 -0.6544
 2735SOL    HW119667   0.836   2.063   1.341 -1.0982 -1.1605  2.9555
 2735SOL    HW219668   0.905   1.943   1.315  0.5220 -0.5566  0.3696
 2736SOL     OW19669   4.367   0.567   8.404  0.4009  0.7443  0.5391
 2736SOL    HW119670   4.335   0.629   8.339  1.3293 -0.1485 -0.7620
 2736SOL    HW219671   4.453   0.553   8.365 -0.0447  1.2650 -0.6398
 2737SOL     OW19672   2.234   3.163   2.783 -0.5180 -0.3353 -0.2692
 2737SOL    HW119673   2.311   3.129   2.827  0.1128  0.1430 -0.9875
 2737SOL    HW219674   2.186   3.193   2.860  2.0277 -0.6273  1.4091
 2738SOL     OW19675   1.632   1.277  12.407  0.5103  0.2373  0.4983
 2738SOL    HW119676   1.669   1.268  12.495  0.0188  2.9573  0.9840
 2738SOL    HW219677   1.677   1.361  12.395  0.5658  0.1817  0.3209
 2739SOL     OW19678   2.421   0.758   6.733 -0.0017  0.5027  0.4917
 2739SOL    HW119679   2.438   0.813   6.656 -1.1434 -0.8887 -0.7630
 2739SOL    HW219680   2.485   0.796   6.793  0.6131 -0.0620  0.1994
 2740SOL     OW19681   3.224   2.977  12.925  0.8182 -0.3470 -0.0779
 2740SOL    HW119682   3.256   3.022  13.003 -0.4662  2.3174 -1.1208
 2740SOL    HW219683   3.296   2.977  12.862  1.5477  1.6646  0.7715
 2741SOL     OW19684   0.984   1.102   9.388  0.1723 -0.1687 -0.9198
 2741SOL    HW119685   0.977   1.193   9.414 -1.7257 -0.4177 -0.5561
 2741SOL    HW219686   0.935   1.059   9.457  3.9362  0.2477  2.0203
 2742SOL     OW19687   0.195   2.569   7.559 -0.3780 -0.0261  0.6643
 2742SOL    HW119688   0.235   2.554   7.645 -0.5668 -0.4302  0.6813
 2742SOL    HW219689   0.124   2.629   7.576  0.5749  1.5075 -0.7526
 2743SOL     OW19690   3.792   3.743   3.284  0.7638  0.3100  0.5345
 2743SOL    HW119691   3.849   3.792   3.225  1.1175 -1.4434 -0.6000
 2743SOL    HW219692   3.836   3.658   3.288  0.2325  0.0677  1.2410
 2744SOL     OW19693   1.651   1.142  14.978  0.0565 -0.3191  0.0655
 2744SOL    HW119694   1.626   1.206  14.911  0.7511  0.6292  0.7133
 2744SOL    HW219695   1.745   1.130  14.964 -0.1060  0.5717 -1.7916
 2745SOL     OW19696   1.845   1.259  10.427  0.2284  0.4754  0.5758
 2745SOL    HW119697   1.928   1.233  10.468  0.2257  0.8743  0.8351
 2745SOL    HW219698   1.803   1.173  10.425 -1.1528  1.1269  1.5830
 2746SOL     OW19699   1.115   2.294   7.826 -0.0992  0.4355  0.4628
 2746SOL    HW119700   1.143   2.322   7.913 -2.4579  0.7981  1.1116
 2746SOL    HW219701   1.057   2.219   7.844  1.3633 -1.4452 -2.6994
 2747SOL     OW19702   4.321   2.498   0.056  0.0760 -0.2126  0.3953
 2747SOL    HW119703   4.352   2.427   0.112 -0.2482 -1.2155 -0.7225
 2747SOL    HW219704   4.235   2.515   0.095  0.4923  2.6058  0.0822
 2748SOL     OW19705   1.251   0.247   1.545  0.4365 -0.6993  0.4123
 2748SOL    HW119706   1.235   0.178   1.611 -2.6145  1.6538  2.1260
 2748SOL    HW219707   1.179   0.221   1.488  0.5750  1.7001 -0.8216
 2749SOL     OW19708   3.285   4.446   8.811  0.6097 -0.1303  0.2763
 2749SOL    HW119709   3.192   4.424   8.800  0.5230  0.0030  0.7390
 2749SOL    HW219710   3.296   4.513   8.744  0.7781  1.4392  1.8926
 2750SOL     OW19711   1.268   3.533   2.863  0.2714 -0.2077  0.4229
 2750SOL    HW119712   1.258   3.438   2.868 -1.4429 -0.1296 -1.3230
 2750SOL    HW219713   1.236   3.565   2.947 -1.2029 -3.0635  0.9222
 2751SOL     OW19714   2.987   2.813   2.818  0.0443 -0.4209  0.3958
 2751SOL    HW119715   2.933   2.884   2.783 -1.1864 -1.6629 -0.2067
 2751SOL    HW219716   2.954   2.806   2.907 -3.3851 -1.8094 -0.9765
 2752SOL     OW19717   0.482   1.982   3.763 -0.0791 -0.5250  0.0377
 2752SOL    HW119718   0.555   1.944   3.812 -1.1160  0.3277  2.2543
 2752SOL    HW219719   0.452   2.050   3.824  1.0431  1.4180 -1.6024
 2753SOL     OW19720   2.990   3.943   2.235  0.4158  0.0227  0.1416
 2753SOL    HW119721   2.925   3.873   2.227 -0.0636  0.4858  0.0159
 2753SOL    HW219722   3.063   3.884   2.250  0.5039 -0.0510 -0.5742
 2754SOL     OW19723   0.135   0.073  14.979  0.0741  0.3620 -0.0320
 2754SOL    HW119724   0.108   0.163  14.996  0.8102  0.4728  0.5227
 2754SOL    HW219725   0.052   0.035  15.007 -0.8323  1.1621 -1.6384
 2755SOL     OW19726   0.997   3.066   8.865  0.1683 -0.4001 -0.0093
 2755SOL    HW119727   1.044   3.044   8.946 -1.5377  1.4908  1.4933
 2755SOL    HW219728   1.054   3.030   8.797 -1.8299 -1.8282 -0.9464
 2756SOL     OW19729   2.785   1.143   0.691 -0.0708  0.3728 -0.0569
 2756SOL    HW119730   2.778   1.053   0.660 -1.5831  0.1725  0.8596
 2756SOL    HW219731   2.696   1.151   0.727  0.2006  2.0553  0.2309
 2757SOL     OW19732   2.140   3.707   4.645 -0.1019 -0.0800  0.2918
 2757SOL    HW119733   2.214   3.730   4.701 -0.6032  1.7881  0.1730
 2757SOL    HW219734   2.117   3.624   4.686  2.3734 -0.9073 -0.0047
 2758SOL     OW19735   2.296   0.556   4.247 -0.1592  0.2608  0.4767
 2758SOL    HW119736   2.275   0.619   4.178  1.4884 -0.1353 -0.4002
 2758SOL    HW219737   2.207   0.528   4.266  0.3117  0.4430  2.9027
 2759SOL     OW19738   4.627   3.583   4.361  0.1344  0.3117  0.8141
 2759SOL    HW119739   4.681   3.652   4.322 -0.3363  1.3000  1.8685
 2759SOL    HW219740   4.661   3.501   4.327  0.1796  0.2477  1.0110
 2760SOL     OW19741   2.872   1.463   4.564 -0.2306 -0.0322 -0.3932
 2760SOL    HW119742   2.949   1.436   4.614 -1.3208  1.4332  2.0907
 2760SOL    HW219743   2.871   1.551   4.601  0.0308  0.6685 -2.0441
 2761SOL     OW19744   1.391   2.434   7.754 -0.2414 -0.3104 -0.0137
 2761SOL    HW119745   1.458   2.395   7.812 -0.8491 -0.6778  0.4443
 2761SOL    HW219746   1.309   2.387   7.773  0.1536 -0.9002  0.2648
 2762SOL     OW19747   1.373   1.156  10.451 -0.3686  0.8298 -0.0398
 2762SOL    HW119748   1.404   1.073  10.415 -1.8725 -0.4313  1.5992
 2762SOL    HW219749   1.422   1.215  10.395 -0.6691  0.8291 -0.3064
 2763SOL     OW19750   2.055   1.090   6.531  0.3246 -0.1739 -0.1093
 2763SOL    HW119751   2.022   1.116   6.445 -2.1299 -0.0455  0.8819
 2763SOL    HW219752   1.980   1.110   6.587 -1.3773  0.1042 -2.5263
 2764SOL     OW19753   4.249   0.604  12.469  0.2220 -0.5654 -0.1146
 2764SOL    HW119754   4.290   0.519  12.483 -2.1048 -1.6297  0.1953
 2764SOL    HW219755   4.208   0.609  12.555  0.6005  0.1893  0.0211
 2765SOL     OW19756   2.772   0.713   6.945  0.2162  0.5245  0.0103
 2765SOL    HW119757   2.752   0.712   7.039  2.6960  1.9239  0.5766
 2765SOL    HW219758   2.853   0.764   6.954  0.5018  0.1191 -0.2760
 2766SOL     OW19759   1.441   1.492   2.389 -0.1255  0.0497 -0.1688
 2766SOL    HW119760   1.448   1.413   2.335 -1.5107  1.5839 -2.6248
 2766SOL    HW219761   1.525   1.480   2.432 -0.8905 -0.7544  1.1256
 2767SOL     OW19762   3.357   2.747   7.453  0.4593 -0.3225 -0.1032
 2767SOL    HW119763   3.279   2.775   7.406  1.0091  1.6910  0.1902
 2767SOL    HW219764   3.334   2.675   7.511  0.2976  0.4681  0.8052
 2768SOL     OW19765   3.726   0.916   9.470  0.0938  0.3447  0.0120
 2768SOL    HW119766   3.653   0.911   9.532  0.9084  0.1136  0.9519
 2768SOL    HW219767   3.737   0.824   9.446  1.8683  0.8780 -1.2611
 2769SOL     OW19768   0.790   0.513   5.630  0.8801 -0.1423  0.3515
 2769SOL    HW119769   0.824   0.453   5.564  0.3883 -0.1001  0.0580
 2769SOL    HW219770   0.698   0.505   5.604  1.0547 -1.3003  0.1178
 2770SOL     OW19771   4.530   3.802  13.859  0.4293 -0.0734 -0.6236
 2770SOL    HW119772   4.625   3.797  13.869  0.1428  0.1720  2.2173
 2770SOL    HW219773   4.508   3.708  13.863  1.2703 -0.2319  0.3751
 2771SOL     OW19774   0.263   0.940   5.619 -0.1598 -0.0240 -0.1535
 2771SOL    HW119775   0.309   0.876   5.565  0.0501 -0.3222  0.3686
 2771SOL    HW219776   0.270   0.888   5.699  2.5785  3.2780  1.7850
 2772SOL     OW19777   1.324   3.424   9.930  0.1443  0.3874 -0.2304
 2772SOL    HW119778   1.230   3.436   9.919 -0.3367  0.5300  3.9984
 2772SOL    HW219779   1.359   3.512   9.914  0.9089  0.4148  1.5168
 2773SOL     OW19780   0.556   1.547   5.613 -0.3235  0.3673  0.3364
 2773SOL    HW119781   0.563   1.622   5.554  0.7110  0.3965  0.4972
 2773SOL    HW219782   0.501   1.484   5.566  0.1867 -0.6726  1.1180
 2774SOL     OW19783   2.095   4.304   6.600  0.4161 -0.4652 -0.0048
 2774SOL    HW119784   2.072   4.222   6.644 -1.0828  0.2856  0.6220
 2774SOL    HW219785   2.120   4.358   6.675 -0.9485 -0.6500  0.5761
 2775SOL     OW19786   1.414   1.864   6.159  0.4242  0.2742  0.0999
 2775SOL    HW119787   1.481   1.925   6.128 -0.6091  0.3720 -2.0065
 2775SOL    HW219788   1.452   1.778   6.142 -1.7917 -0.8721  1.0419
 2776SOL     OW19789   2.749   1.888  10.373 -0.1006  0.1164 -0.4092
 2776SOL    HW119790   2.796   1.966  10.343  0.5885 -0.6125 -1.2102
 2776SOL    HW219791   2.672   1.931  10.411  1.2635  1.2434  1.0951
 2777SOL     OW19792   4.102   0.026  12.683 -0.1385 -0.1007 -0.3005
 2777SOL    HW119793   4.195   0.031  12.704 -0.0440  0.2948 -0.8216
 2777SOL    HW219794   4.097   4.656  12.667 -0.0124 -0.1249 -0.1971
 2778SOL     OW19795   0.027   3.872   1.578 -0.1103 -0.6877 -0.0653
 2778SOL    HW119796   4.712   3.803   1.526 -2.3230 -0.4994  1.3970
 2778SOL    HW219797   0.036   3.827   1.661  1.8521 -0.2572 -0.0421
 2779SOL     OW19798   1.922   3.040   6.078 -0.1436 -0.1262 -1.1146
 2779SOL    HW119799   1.898   3.128   6.107  0.6075  0.5414 -2.4773
 2779SOL    HW219800   1.864   2.985   6.130  0.0574 -0.3054 -1.0798
 2780SOL     OW19801   3.477   0.509   8.172  0.1373 -0.1181 -0.7153
 2780SOL    HW119802   3.564   0.471   8.160  1.5002  2.2560  1.7055
 2780SOL    HW219803   3.497   0.593   8.131  1.1976  0.1738  0.3765
 2781SOL     OW19804   2.559   3.573   4.464  0.2185  0.4908  0.3818
 2781SOL    HW119805   2.653   3.559   4.468  0.1172 -0.0516  0.8464
 2781SOL    HW219806   2.533   3.481   4.473  1.2484  0.2633  1.0168
 2782SOL     OW19807   2.352   4.402   4.508 -0.4761 -0.4357 -0.2506
 2782SOL    HW119808   2.383   4.431   4.593  0.4486  0.3401 -0.8472
 2782SOL    HW219809   2.386   4.312   4.507  2.2643  0.6078  0.0657
 2783SOL     OW19810   4.155   0.620   4.168  0.3086 -0.5692  0.0879
 2783SOL    HW119811   4.202   0.627   4.251  0.0188 -1.0857  0.2928
 2783SOL    HW219812   4.158   0.708   4.130  1.3635  0.4501  2.5507
 2784SOL     OW19813   1.483   3.615   2.745 -0.2778 -0.1686 -0.0558
 2784SOL    HW119814   1.487   3.683   2.812 -1.9550 -2.9900  2.9514
 2784SOL    HW219815   1.410   3.569   2.786 -0.8793  0.2434 -0.6736
 2785SOL     OW19816   4.001   3.698   8.949  0.0762 -0.0943  0.3171
 2785SOL    HW119817   4.035   3.680   8.861 -1.0792  1.7642 -0.5098
 2785SOL    HW219818   3.912   3.679   8.920 -0.4402  0.5034  1.5446
 2786SOL     OW19819   3.003   1.016   9.911 -0.1696 -0.5668 -0.1058
 2786SOL    HW119820   2.914   0.985   9.928 -0.5047  1.7525  2.2458
 2786SOL    HW219821   3.031   0.928   9.886 -2.6038 -1.2817 -0.2805
 2787SOL     OW19822   3.576   2.274   6.144  0.1539  0.0016  0.6925
 2787SOL    HW119823   3.485   2.250   6.161 -0.2687 -1.2073 -3.3173
 2787SOL    HW219824   3.587   2.332   6.220  1.6413  0.9754 -0.2483
 2788SOL     OW19825   3.376   2.484  16.829 -0.1459  0.0832  0.3658
 2788SOL    HW119826   3.369   2.398  16.869 -2.7493 -0.4502 -1.2945
 2788SOL    HW219827   3.423   2.538  16.893 -0.0835 -0.8521  1.1067
 2789SOL     OW19828   4.562   3.402   6.711  0.3084  0.3523 -0.3297
 2789SOL    HW119829   4.622   3.398   6.785 -2.3813  0.6467  1.8711
 2789SOL    HW219830   4.627   3.401   6.641  0.0539 -0.4514 -0.5492
 2790SOL     OW19831   4.453   1.902   2.682  0.4400 -0.4100 -0.4014
 2790SOL    HW119832   4.393   1.846   2.730  1.7944 -0.6687  0.9963
 2790SOL    HW219833   4.403   1.983   2.675  1.0535 -0.1581 -1.8033
 2791SOL     OW19834   3.604   3.242   6.022 -0.0558  0.3570  0.1790
 2791SOL    HW119835   3.651   3.185   5.960 -1.0267 -2.0014  1.6034
 2791SOL    HW219836   3.516   3.204   6.032  0.7587 -2.0650 -1.6453
 2792SOL     OW19837   3.749   0.813   3.425 -0.0747  0.7383 -0.3995
 2792SOL    HW119838   3.813   0.850   3.486  0.1626  1.4433 -1.0666
 2792SOL    HW219839   3.787   0.728   3.405 -0.6334  0.5490 -0.6730
 2793SOL     OW19840   0.591   4.128   7.196 -0.5394  0.7959  0.0699
 2793SOL    HW119841   0.543   4.207   7.172  0.2291  0.8638 -1.2821
 2793SOL    HW219842   0.528   4.060   7.171 -0.7246  0.6867  0.8398
 2794SOL     OW19843   4.462   1.415   8.498  0.4004  0.1305  0.1408
 2794SOL    HW119844   4.518   1.416   8.575 -4.5194 -0.4554  3.7506
 2794SOL    HW219845   4.479   1.328   8.463 -0.3447 -0.8141  2.1876
 2795SOL     OW19846   3.140   0.199   2.062  0.0019 -0.0015  0.9665
 2795SOL    HW119847   3.050   0.230   2.063  0.8230  2.4053 -1.7521
 2795SOL    HW219848   3.178   0.275   2.019  1.1430 -1.1272 -0.0453
 2796SOL     OW19849   0.194   4.096   8.074  0.2956 -0.0606  0.4947
 2796SOL    HW119850   0.146   4.047   8.007  2.2530 -2.1222  0.5611
 2796SOL    HW219851   0.235   4.176   8.041  1.8445 -0.0012  2.5168
 2797SOL     OW19852   1.214   0.469   5.596 -0.0968  0.8538 -0.2540
 2797SOL    HW119853   1.132   0.419   5.603  0.8318 -0.5683  0.3687
 2797SOL    HW219854   1.258   0.443   5.677 -0.9748 -0.4840 -0.1980
 2798SOL     OW19855   1.625   2.160   6.029 -0.5840 -0.1314  0.2447
 2798SOL    HW119856   1.683   2.207   6.089 -0.5359  1.1851 -0.8488
 2798SOL    HW219857   1.680   2.156   5.951 -0.5084 -0.4847  0.3154
 2799SOL     OW19858   0.527   1.549   4.206 -0.8121  0.4260 -0.3569
 2799SOL    HW119859   0.563   1.553   4.294  1.1884 -3.5347 -0.9761
 2799SOL    HW219860   0.432   1.550   4.217 -0.8399  0.3326 -0.5828
 2800SOL     OW19861   1.342   0.754   3.418 -0.6853  0.1617 -0.1812
 2800SOL    HW119862   1.295   0.746   3.501  0.3591  0.8863  0.4783
 2800SOL    HW219863   1.295   0.690   3.364 -1.6298  0.1490  0.6517
 2801SOL     OW19864   1.706   4.204   0.508 -0.4362 -0.9401 -0.3145
 2801SOL    HW119865   1.723   4.193   0.415  0.6391  3.8892 -0.6811
 2801SOL    HW219866   1.615   4.183   0.530  0.1481 -3.2016 -0.0462
 2802SOL     OW19867   4.230   2.841   3.192 -0.0472 -0.2881 -0.1713
 2802SOL    HW119868   4.199   2.758   3.157  0.0269  0.2994 -1.6229
 2802SOL    HW219869   4.155   2.871   3.244 -0.2839 -2.0705  0.5194
 2803SOL     OW19870   2.025   2.995   3.699  0.1665 -0.1857  0.9711
 2803SOL    HW119871   1.942   2.996   3.747 -0.9298 -0.7641 -0.9272
 2803SOL    HW219872   2.033   3.089   3.680 -0.0781  0.0545  2.0337
 2804SOL     OW19873   3.715   0.332  12.597  0.1319 -0.3351  0.6084
 2804SOL    HW119874   3.777   0.405  12.604 -0.3053  0.4708 -3.5171
 2804SOL    HW219875   3.780   0.267  12.624  0.3131 -0.8724 -1.1159
 2805SOL     OW19876   3.753   1.047   5.764 -0.0545  0.5179  0.0235
 2805SOL    HW119877   3.691   1.120   5.769  1.2703  1.5672  1.1919
 2805SOL    HW219878   3.837   1.092   5.751  0.0327  0.5192  0.5805
 2806SOL     OW19879   3.257   1.045  11.803  0.5948  0.1267 -0.6467
 2806SOL    HW119880   3.206   1.126  11.804  1.2720  0.5338  1.0136
 2806SOL    HW219881   3.185   0.983  11.816  1.3526 -0.6767 -0.2543
 2807SOL     OW19882   3.098   0.792   5.499  0.7207 -0.2654 -0.5326
 2807SOL    HW119883   3.017   0.839   5.477  0.9687 -0.3623 -1.6537
 2807SOL    HW219884   3.068   0.748   5.579  1.9731 -0.5665 -0.2341
 2808SOL     OW19885   2.672   1.945   1.592  0.1679  0.7417  0.3695
 2808SOL    HW119886   2.734   1.880   1.626  0.4310  1.6303  1.6023
 2808SOL    HW219887   2.731   2.020   1.602  2.1235 -0.8996  1.2189
 2809SOL     OW19888   0.120   0.261   2.406 -0.1970 -0.0829  0.5738
 2809SOL    HW119889   0.047   0.231   2.351 -0.2702 -0.8683  1.1047
 2809SOL    HW219890   0.170   0.180   2.393  0.4960  0.3325  0.6873
 2810SOL     OW19891   0.996   0.246  16.673  0.2463 -0.0027  0.1289
 2810SOL    HW119892   0.919   0.190  16.681 -0.6233  0.9720 -1.5097
 2810SOL    HW219893   1.010   0.282  16.761  2.1227 -0.0807 -0.1537
 2811SOL     OW19894   2.082   2.081   5.505 -0.7134  0.0317 -0.1416
 2811SOL    HW119895   2.079   2.056   5.598  2.4553 -0.9568 -0.2943
 2811SOL    HW219896   1.995   2.055   5.476 -0.9411  0.7104 -0.0618
 2812SOL     OW19897   2.571   1.216   7.506 -0.0536 -0.4076 -0.2967
 2812SOL    HW119898   2.506   1.197   7.574 -1.5914  0.6769 -1.4357
 2812SOL    HW219899   2.611   1.296   7.538 -0.2637 -0.1102 -0.7734
 2813SOL     OW19900   0.156   2.945   8.628  0.1424 -0.2450  0.2202
 2813SOL    HW119901   0.170   2.851   8.617 -0.9649 -0.5086  0.9874
 2813SOL    HW219902   0.162   2.939   8.724  0.2277 -0.3398  0.2093
 2814SOL     OW19903   3.567   0.947   3.212 -0.1987 -0.8182 -0.2304
 2814SOL    HW119904   3.625   0.882   3.172 -0.2148 -1.3426  0.6014
 2814SOL    HW219905   3.494   0.946   3.151 -0.1095  1.0005 -0.3533
 2815SOL     OW19906   4.447   1.038   8.605 -0.1654  0.3024  0.0777
 2815SOL    HW119907   4.504   1.059   8.679  0.3264 -1.6169  0.2310
 2815SOL    HW219908   4.359   1.054   8.638  0.0708 -1.0303  1.3775
 2816SOL     OW19909   1.240   0.042   6.568  0.1532 -0.2477  0.1928
 2816SOL    HW119910   1.145   0.047   6.560  0.2136 -0.5413 -0.6935
 2816SOL    HW219911   1.260   0.049   6.662 -1.7204 -1.9377  0.7209
 2817SOL     OW19912   3.768   2.419   3.097 -0.4763 -0.2888 -0.3968
 2817SOL    HW119913   3.796   2.482   3.030 -1.4032  0.0944 -0.4157
 2817SOL    HW219914   3.717   2.473   3.158  0.6570  2.0475 -1.5075
 2818SOL     OW19915   4.706   0.441  14.315  0.2027 -0.0118  0.0455
 2818SOL    HW119916   4.645   0.378  14.275  0.8818 -0.6701  0.0518
 2818SOL    HW219917   0.011   0.390  14.391  1.5062 -0.2653 -0.6443
 2819SOL     OW19918   2.665   1.417   7.675 -0.4827 -0.3180 -0.5533
 2819SOL    HW119919   2.576   1.448   7.694 -0.3450  0.3115 -0.9213
 2819SOL    HW219920   2.681   1.354   7.745  1.7590 -0.3448 -1.0869
 2820SOL     OW19921   1.093   0.277  12.267  0.2135 -0.4048  0.5219
 2820SOL    HW119922   1.092   0.248  12.176 -0.9982 -1.5035  0.8695
 2820SOL    HW219923   1.001   0.261  12.289 -0.3250 -0.6469 -1.9481
 2821SOL     OW19924   1.016   3.834   6.561  0.1731  0.0171 -0.5736
 2821SOL    HW119925   0.966   3.772   6.614  1.1200  0.2298  0.5760
 2821SOL    HW219926   1.035   3.906   6.621 -1.5574  1.4087 -1.7033
 2822SOL     OW19927   2.346   0.817   3.145  0.7380  0.2202  0.1066
 2822SOL    HW119928   2.296   0.766   3.081  0.8873 -1.8207  1.6207
 2822SOL    HW219929   2.403   0.748   3.179  1.0248 -0.4118 -1.6446
 2823SOL     OW19930   2.562   0.301   9.245 -0.1636 -0.1896  0.3779
 2823SOL    HW119931   2.646   0.265   9.274 -1.3079 -1.7865  1.7685
 2823SOL    HW219932   2.511   0.222   9.226  1.4803 -0.5997 -2.2888
 2824SOL     OW19933   4.031   0.659  16.899 -0.4882 -0.5094 -0.5229
 2824SOL    HW119934   4.046   0.642  16.806  2.2812  0.0395 -0.1690
 2824SOL    HW219935   4.003   0.750  16.896  0.7575 -0.1008  0.6718
 2825SOL     OW19936   2.528   4.399   1.937 -0.6206  0.3444  0.1704
 2825SOL    HW119937   2.595   4.467   1.929 -0.0409 -0.4029 -1.2483
 2825SOL    HW219938   2.578   4.319   1.954  1.0112  0.5048 -3.7761
 2826SOL     OW19939   0.526   0.029  10.529  0.0919 -1.0950  0.2067
 2826SOL    HW119940   0.491   0.106  10.574  0.4383 -0.2743 -0.9316
 2826SOL    HW219941   0.445   4.714  10.496 -0.5517  0.0462  0.4366
 2827SOL     OW19942   2.560   1.111   2.201 -0.2956  0.4481 -0.1058
 2827SOL    HW119943   2.556   1.141   2.292 -0.3197  4.2060 -1.3472
 2827SOL    HW219944   2.537   1.193   2.157  0.6163 -0.4830 -2.3111
 2828SOL     OW19945   1.590   3.404  15.038  0.5992 -0.5735  0.5822
 2828SOL    HW119946   1.558   3.328  15.087  0.4303 -0.5268  0.5434
 2828SOL    HW219947   1.634   3.459  15.103  0.7828 -0.7130  0.5772
 2829SOL     OW19948   1.056   0.303  11.988 -0.2165 -0.3125 -0.7610
 2829SOL    HW119949   1.010   0.282  11.907  1.7797 -1.6930 -1.5508
 2829SOL    HW219950   1.036   0.396  11.987  1.0762 -0.0101  0.5146
 2830SOL     OW19951   0.265   4.512   6.187 -0.5606 -0.1664  0.3072
 2830SOL    HW119952   0.238   4.450   6.119 -0.5621  3.3998 -2.9871
 2830SOL    HW219953   0.189   4.519   6.244  0.4811 -0.0936  1.6669
 2831SOL     OW19954   1.893   2.879   3.352  0.9608  0.3347  0.5981
 2831SOL    HW119955   1.878   2.971   3.372 -1.6802 -0.1251  0.7380
 2831SOL    HW219956   1.987   2.881   3.331  0.9268  0.8853  0.4977
 2832SOL     OW19957   0.105   3.081   3.464 -0.2364 -0.0944 -0.5198
 2832SOL    HW119958   0.157   3.159   3.448 -1.3528  0.4434 -1.5919
 2832SOL    HW219959   0.173   3.024   3.500 -0.5123 -0.8799 -1.2384
 2833SOL     OW19960   4.648   1.533   3.253  0.0510  1.3395  0.0323
 2833SOL    HW119961   4.576   1.582   3.291  1.5300  3.1319  0.5724
 2833SOL    HW219962   0.005   1.550   3.300  0.1486  0.4474  0.1769
 2834SOL     OW19963   3.691   2.705   9.400  0.1047  0.4310  0.2432
 2834SOL    HW119964   3.618   2.765   9.415 -1.2872 -0.9252 -1.1745
 2834SOL    HW219965   3.670   2.641   9.469  1.2752  0.3158  0.4900
 2835SOL     OW19966   4.406   0.663   3.206 -0.3649 -0.2557  0.1111
 2835SOL    HW119967   4.460   0.596   3.165 -1.4308 -0.0340 -1.6482
 2835SOL    HW219968   4.420   0.731   3.139 -0.8817  1.0262  1.3050
 2836SOL     OW19969   0.674   2.989   3.373  0.2159 -0.6586  0.3445
 2836SOL    HW119970   0.739   2.919   3.369 -0.7986 -1.5909  0.0884
 2836SOL    HW219971   0.604   2.954   3.428 -0.5862  1.8438  0.9003
 2837SOL     OW19972   3.172   3.276  10.620  0.1216  0.0750  0.0708
 2837SOL    HW119973   3.217   3.340  10.566  1.8795 -0.1696  1.2601
 2837SOL    HW219974   3.185   3.315  10.707  3.2323 -2.7482  0.8765
 2838SOL     OW19975   4.274   0.357   6.428 -0.3022  0.0032 -0.2823
 2838SOL    HW119976   4.260   0.266   6.403 -1.4494  1.0494 -3.3998
 2838SOL    HW219977   4.357   0.370   6.384 -0.7902 -2.1040 -1.7823
 2839SOL     OW19978   3.624   4.145   9.121 -0.0405  0.5831 -0.1041
 2839SOL    HW119979   3.586   4.214   9.176 -1.4864  1.3447 -2.0445
 2839SOL    HW219980   3.710   4.185   9.107  0.2052 -0.2812 -1.0338
 2840SOL     OW19981   2.673   0.401   3.823 -0.1923 -0.2587  0.3178
 2840SOL    HW119982   2.699   0.477   3.771 -2.2939  0.0811 -0.2466
 2840SOL    HW219983   2.585   0.429   3.846 -0.2028  1.2905 -1.5751
 2841SOL     OW19984   2.884   0.987   3.311 -0.1796  0.7411 -0.2138
 2841SOL    HW119985   2.973   0.965   3.339 -0.0612  0.7032 -0.6323
 2841SOL    HW219986   2.880   0.942   3.227  2.2038  2.2605 -1.1514
 2842SOL     OW19987   1.876   4.530   5.277  0.3280  0.2086 -0.0068
 2842SOL    HW119988   1.820   4.605   5.298 -0.6181 -0.8671  1.2725
 2842SOL    HW219989   1.825   4.477   5.216 -1.0526  2.6833 -1.0476
 2843SOL     OW19990   4.009   3.519  10.768  0.0848 -0.7516  0.6759
 2843SOL    HW119991   3.919   3.553  10.775  0.5146 -0.0453  2.9305
 2843SOL    HW219992   4.029   3.478  10.853 -0.3264  1.4464  1.8497
 2844SOL     OW19993   3.517   0.220   3.014 -0.2914 -0.2159 -0.4760
 2844SOL    HW119994   3.443   0.262   3.057 -0.5977  0.2017 -1.3922
 2844SOL    HW219995   3.533   0.144   3.070  0.6874 -0.1152 -0.6176
 2845SOL     OW19996   3.351   0.911   2.425  0.3076  0.3913 -0.1402
 2845SOL    HW119997   3.323   0.877   2.509 -1.6733 -0.4979 -1.1541
 2845SOL    HW219998   3.318   0.849   2.360 -1.6548  0.0295  1.2082
 2846SOL     OW19999   4.268   2.231   4.436 -0.0868  0.3205 -0.3632
 2846SOL    HW120000   4.327   2.178   4.490 -1.1570 -1.1761 -0.6737
 2846SOL    HW220001   4.314   2.245   4.352 -0.6082  2.5368 -0.2615
 2847SOL     OW20002   1.157   1.409  10.059 -0.1595 -0.0001 -0.5981
 2847SOL    HW120003   1.113   1.489  10.087  0.3979  0.5251 -1.2107
 2847SOL    HW220004   1.218   1.449   9.997  0.1098  0.0595 -0.2975
 2848SOL     OW20005   4.324   2.382  17.510  0.6933  0.1919 -0.2967
 2848SOL    HW120006   4.323   2.454  17.572 -1.1169 -3.5404  4.0213
 2848SOL    HW220007   4.408   2.401  17.467  1.2503  0.7433  1.0331
 2849SOL     OW20008   3.145   3.693   6.793  0.3230 -0.0610  0.5900
 2849SOL    HW120009   3.192   3.612   6.774  3.6529  1.8414  0.7569
 2849SOL    HW220010   3.205   3.735   6.855  0.1456 -1.9515  2.0524
 2850SOL     OW20011   3.627   2.326  10.598  0.1077  0.4450  0.2314
 2850SOL    HW120012   3.674   2.387  10.541 -1.5534  1.3007 -0.2435
 2850SOL    HW220013   3.606   2.259  10.533 -0.2723  0.7668  0.0214
 2851SOL     OW20014   0.430   4.111  13.481 -0.2343  0.4273 -0.7226
 2851SOL    HW120015   0.442   4.115  13.575 -1.9403 -1.3181 -0.4404
 2851SOL    HW220016   0.444   4.018  13.463 -1.0465  0.3489 -0.9485
 2852SOL     OW20017   2.193   0.020   6.688  0.0525 -0.0583 -0.0592
 2852SOL    HW120018   2.194   0.079   6.764 -0.5243 -1.3045  0.9209
 2852SOL    HW220019   2.274   4.699   6.705 -0.8518 -0.3667  3.3892
 2853SOL     OW20020   4.261   1.260   8.947  0.0601 -0.4942  0.0964
 2853SOL    HW120021   4.276   1.182   9.001  2.1816 -0.3182 -0.2352
 2853SOL    HW220022   4.196   1.226   8.885 -0.8260 -0.4508  1.0131
 2854SOL     OW20023   2.415   1.668   2.782 -0.4985  0.1852 -0.4396
 2854SOL    HW120024   2.375   1.632   2.703 -0.2130  0.5546 -0.7503
 2854SOL    HW220025   2.477   1.729   2.742  0.1750  1.0567  1.9475
 2855SOL     OW20026   2.940   1.407  10.943  0.2620  0.8449 -0.1241
 2855SOL    HW120027   2.858   1.359  10.944 -0.2685  1.7651  0.2841
 2855SOL    HW220028   2.926   1.481  10.885  1.6620  0.6899 -0.6594
 2856SOL     OW20029   0.933   0.241   2.732  0.1270 -0.2627 -0.4269
 2856SOL    HW120030   0.911   0.237   2.825  0.2562 -0.7076 -0.4186
 2856SOL    HW220031   0.976   0.327   2.727  1.7270 -1.0090  0.3803
 2857SOL     OW20032   4.341   3.733   6.938 -0.4439  0.0172  0.2045
 2857SOL    HW120033   4.403   3.790   6.892 -0.2171 -3.2663 -3.5116
 2857SOL    HW220034   4.312   3.673   6.870  1.3010 -0.9923  0.3621
 2858SOL     OW20035   0.268   0.915   0.605  0.5744 -0.5693 -0.0824
 2858SOL    HW120036   0.359   0.897   0.580  0.7594  0.4152 -0.1173
 2858SOL    HW220037   0.219   0.871   0.535 -0.5423  3.0575 -1.6037
 2859SOL     OW20038   0.414   2.146   5.652 -0.5924 -0.9613 -0.0592
 2859SOL    HW120039   0.499   2.176   5.621 -1.4843  2.4606  0.7835
 2859SOL    HW220040   0.407   2.057   5.617 -0.6786 -0.5331 -1.1039
 2860SOL     OW20041   2.409   3.677   2.835  0.7802  0.4148  0.7266
 2860SOL    HW120042   2.393   3.738   2.908  1.9020 -0.7808  1.9795
 2860SOL    HW220043   2.440   3.734   2.765 -0.2476  2.8082  2.1930
 2861SOL     OW20044   0.168   2.131   0.310  0.7237  0.6926 -0.2230
 2861SOL    HW120045   0.260   2.153   0.327  1.0851 -0.7820 -0.2928
 2861SOL    HW220046   0.139   2.222   0.311 -0.4036  0.3938 -4.9334
 2862SOL     OW20047   3.603   1.255   9.592  0.5639 -0.2882 -0.1364
 2862SOL    HW120048   3.586   1.161   9.594  0.4959 -0.3231 -1.8992
 2862SOL    HW220049   3.529   1.287   9.643 -1.5030 -1.4199 -2.3938
 2863SOL     OW20050   4.297   0.812  10.031 -0.1746  0.4542 -0.1089
 2863SOL    HW120051   4.371   0.753  10.050  0.1887  1.9669  3.2378
 2863SOL    HW220052   4.245   0.750   9.979  1.1745 -0.3887 -0.4575
 2864SOL     OW20053   2.002   2.121   1.526  0.3930 -0.2078 -0.2401
 2864SOL    HW120054   2.035   2.071   1.451 -0.0328 -0.8959  0.0383
 2864SOL    HW220055   1.970   2.200   1.482 -0.8786 -1.5324 -1.6999
 2865SOL     OW20056   4.358   1.109   6.323  0.4416  0.0707 -0.7897
 2865SOL    HW120057   4.438   1.066   6.291 -0.6674 -2.2527 -0.4160
 2865SOL    HW220058   4.296   1.050   6.280 -0.0553  0.6823 -0.9056
 2866SOL     OW20059   4.338   1.215  11.402  0.5001 -0.4089  0.1510
 2866SOL    HW120060   4.257   1.257  11.373  1.8480  1.6210 -0.6940
 2866SOL    HW220061   4.302   1.180  11.483  0.8221 -1.8324 -0.3123
 2867SOL     OW20062   4.496   4.551   7.897  0.1414 -0.1797 -0.2009
 2867SOL    HW120063   4.447   4.470   7.903  0.4854 -0.2407  1.6345
 2867SOL    HW220064   4.565   4.520   7.838  0.3385  0.6911 -0.4331
 2868SOL     OW20065   4.674   3.691   1.381  0.8001 -0.2981 -0.0787
 2868SOL    HW120066   4.625   3.610   1.370 -1.6713  1.4311 -1.6972
 2868SOL    HW220067   0.035   3.671   1.342 -1.0206  0.5012 -4.5462
 2869SOL     OW20068   3.206   1.832  12.515  0.5277 -0.0051  0.2341
 2869SOL    HW120069   3.230   1.890  12.443  0.3697  0.6161  0.6803
 2869SOL    HW220070   3.227   1.749  12.472  2.4095  0.6809 -0.1891
 2870SOL     OW20071   1.612   1.894   9.816  0.1676  0.1871  0.6281
 2870SOL    HW120072   1.538   1.873   9.874 -0.6502  0.3490 -0.3581
 2870SOL    HW220073   1.675   1.830   9.849  2.7805  0.8254 -3.1536
 2871SOL     OW20074   0.453   1.019   8.017  0.0283 -0.1199  0.0955
 2871SOL    HW120075   0.434   0.958   8.088  3.0386 -1.7521 -0.5205
 2871SOL    HW220076   0.470   1.097   8.069  1.0959 -0.2678 -0.0366
 2872SOL     OW20077   1.781   2.729   1.091  0.3477  0.5639  0.0584
 2872SOL    HW120078   1.833   2.664   1.137 -2.0961 -3.4510 -2.8942
 2872SOL    HW220079   1.759   2.788   1.163 -0.4629  2.7557 -1.9613
 2873SOL     OW20080   0.996   4.277   6.629 -0.1122  0.0211  0.3088
 2873SOL    HW120081   0.980   4.362   6.589 -2.2165 -1.4580 -1.9638
 2873SOL    HW220082   0.914   4.270   6.677 -0.1851 -2.7609 -0.1939
 2874SOL     OW20083   2.293   3.587   8.146  0.1250  0.2942  0.2573
 2874SOL    HW120084   2.364   3.605   8.084  0.7467 -1.3229  0.5111
 2874SOL    HW220085   2.259   3.503   8.115  2.5057  0.1452 -1.9509
 2875SOL     OW20086   3.065   3.043   7.048  0.2851 -0.1575  0.1843
 2875SOL    HW120087   2.998   3.111   7.037  1.3322  1.6168  4.6664
 2875SOL    HW220088   3.138   3.075   6.996 -0.9854  0.0374 -1.4747
 2876SOL     OW20089   0.278   3.744   0.037 -0.4745 -0.1217 -0.6962
 2876SOL    HW120090   0.251   3.695   0.115  1.5807 -2.6499 -1.5781
 2876SOL    HW220091   0.359   3.786   0.067 -0.8149  0.9911 -1.3433
 2877SOL     OW20092   1.022   2.370   2.302 -0.4400 -0.0680 -0.4239
 2877SOL    HW120093   0.931   2.379   2.276 -0.6831 -0.7086  0.2163
 2877SOL    HW220094   1.021   2.327   2.387  1.2504  0.4726 -0.1131
 2878SOL     OW20095   1.646   3.014   3.607  0.0259 -0.2606  0.0718
 2878SOL    HW120096   1.561   2.979   3.635 -0.5744  1.6782  0.7157
 2878SOL    HW220097   1.678   2.934   3.567  0.3978 -0.0565 -0.0374
 2879SOL     OW20098   3.320   2.414  17.204 -0.3088 -0.3229 -0.1787
 2879SOL    HW120099   3.373   2.477  17.154 -2.0343  0.2944 -1.2279
 2879SOL    HW220100   3.266   2.365  17.141  0.8011 -1.5534 -0.1902
 2880SOL     OW20101   1.019   3.682   3.301  0.1800 -0.1452 -0.7137
 2880SOL    HW120102   1.005   3.657   3.392 -0.4137 -3.5198 -1.7247
 2880SOL    HW220103   1.024   3.776   3.318 -2.0515 -0.4980  1.8901
 2881SOL     OW20104   4.605   4.251   2.218 -0.5399 -0.0363 -0.3070
 2881SOL    HW120105   4.528   4.285   2.174 -0.2113  1.0606 -0.0504
 2881SOL    HW220106   4.674   4.307   2.181 -1.2413  0.4983 -0.8101
 2882SOL     OW20107   1.529   0.129   2.516  0.3725 -0.1593 -0.3416
 2882SOL    HW120108   1.562   0.105   2.429 -0.7621  0.0539 -0.8246
 2882SOL    HW220109   1.437   0.116   2.496 -0.2281 -0.7392  2.7564
 2883SOL     OW20110   2.818   3.802   4.752 -0.2793  0.3400 -0.3608
 2883SOL    HW120111   2.737   3.805   4.700 -0.7920  0.0430  0.4217
 2883SOL    HW220112   2.888   3.831   4.694  0.5963 -1.1165 -0.0204
 2884SOL     OW20113   2.188   0.526   6.132 -0.0309  0.1129 -0.1838
 2884SOL    HW120114   2.241   0.541   6.210 -1.9561  0.9335  0.9646
 2884SOL    HW220115   2.130   0.452   6.151  0.7969 -0.1432  1.2801
 2885SOL     OW20116   0.873   2.131  13.530 -0.7843 -0.8922 -0.2749
 2885SOL    HW120117   0.777   2.131  13.530 -0.7858 -0.8639  0.7332
 2885SOL    HW220118   0.883   2.212  13.481 -0.1881 -0.3500  0.7327
 2886SOL     OW20119   3.637   0.427   1.498 -0.0144  0.1873  0.2108
 2886SOL    HW120120   3.576   0.497   1.472  0.4003  0.5437  0.2060
 2886SOL    HW220121   3.582   0.354   1.526  0.4271 -1.2922 -2.7544
 2887SOL     OW20122   0.834   0.974   8.436  0.2675 -0.6198  0.0677
 2887SOL    HW120123   0.863   1.058   8.400  1.1126 -0.9565 -0.0315
 2887SOL    HW220124   0.916   0.943   8.474 -0.2396 -0.5418  1.2230
 2888SOL     OW20125   4.609   2.987   8.068 -0.3723 -0.7115  0.6527
 2888SOL    HW120126   4.644   2.905   8.032  1.2548  0.2975 -0.0649
 2888SOL    HW220127   4.636   2.983   8.160 -0.4225  0.3532  0.7152
 2889SOL     OW20128   2.212   0.531   4.545  0.1670 -0.0934  0.1705
 2889SOL    HW120129   2.135   0.485   4.514 -0.9510  1.0765  1.2326
 2889SOL    HW220130   2.166   0.551   4.627  0.1933 -0.3943  0.2580
 2890SOL     OW20131   4.035   3.833   2.164 -0.2785 -0.0291  0.4028
 2890SOL    HW120132   4.051   3.775   2.090 -3.2570 -2.9705  2.0746
 2890SOL    HW220133   3.969   3.900   2.146  1.2039  1.6677  1.2737
 2891SOL     OW20134   4.191   4.348  12.994  0.3121 -0.4909  0.5670
 2891SOL    HW120135   4.143   4.347  13.076 -2.4418 -0.8168 -1.0576
 2891SOL    HW220136   4.129   4.323  12.926 -1.2130 -0.4026  1.9556
 2892SOL     OW20137   2.879   3.358   2.668  0.3606 -0.2922 -0.3440
 2892SOL    HW120138   2.888   3.287   2.604  0.0265  0.8681 -1.6924
 2892SOL    HW220139   2.853   3.313   2.748 -1.8257  0.8118 -0.4233
 2893SOL     OW20140   2.743   2.494   7.035 -0.4343 -0.5711 -0.2481
 2893SOL    HW120141   2.812   2.519   7.097 -1.2665 -1.0426  0.8615
 2893SOL    HW220142   2.801   2.462   6.965 -1.1158  0.1726 -1.1539
 2894SOL     OW20143   4.505   4.133  16.890 -0.6938  0.0119  0.0782
 2894SOL    HW120144   4.565   4.060  16.902 -2.0834 -1.4126 -1.6446
 2894SOL    HW220145   4.558   4.195  16.940 -0.8250  1.2133 -1.2760
 2895SOL     OW20146   1.615   3.618   2.251  0.1612 -0.5475  0.9044
 2895SOL    HW120147   1.701   3.653   2.228 -0.4384  0.1669 -0.2316
 2895SOL    HW220148   1.577   3.676   2.317 -0.0760 -0.2248  0.4825
 2896SOL     OW20149   2.240   4.017   2.831 -0.2296 -0.2157  0.5720
 2896SOL    HW120150   2.264   3.963   2.907  2.8252 -0.3156 -0.4556
 2896SOL    HW220151   2.312   3.993   2.773 -1.7447  0.1788 -1.4372
 2897SOL     OW20152   1.516   4.539   4.328 -0.3766 -0.1852  0.8558
 2897SOL    HW120153   1.448   4.500   4.273  1.7702 -1.0655 -1.1744
 2897SOL    HW220154   1.591   4.514   4.274  0.9974  2.2507  1.6158
 2898SOL     OW20155   1.068   1.292   0.388  0.0987 -0.0376  0.1476
 2898SOL    HW120156   0.987   1.314   0.433  0.5765 -1.3667  1.6888
 2898SOL    HW220157   1.123   1.299   0.466 -0.7863  0.0615  0.7584
 2899SOL     OW20158   4.182   2.784   7.628  0.2109  0.7565  0.8069
 2899SOL    HW120159   4.150   2.748   7.711 -0.0482 -0.6856  0.0837
 2899SOL    HW220160   4.248   2.843   7.663  0.1621  1.1862  0.1708
 2900SOL     OW20161   1.148   3.516   7.367  0.2370 -0.0205 -0.1881
 2900SOL    HW120162   1.069   3.547   7.324 -1.1673 -1.9574  0.9835
 2900SOL    HW220163   1.112   3.502   7.455  2.4417  1.1394  0.9013
 2901SOL     OW20164   4.690   1.866   6.278  0.3262 -0.4612 -0.0305
 2901SOL    HW120165   4.619   1.841   6.337 -0.3324  1.0624 -0.1669
 2901SOL    HW220166   4.707   1.958   6.299  1.7647 -0.6489 -0.4091
 2902SOL     OW20167   0.695   3.315   8.773 -0.3208 -0.4591  0.3719
 2902SOL    HW120168   0.753   3.368   8.828 -1.3641 -0.7570  1.7603
 2902SOL    HW220169   0.625   3.305   8.838  1.2038 -0.5102  2.0293
 2903SOL     OW20170   1.942   1.195   3.524 -0.2149 -0.1403 -0.3938
 2903SOL    HW120171   1.978   1.257   3.460  1.5100 -1.7478 -0.9936
 2903SOL    HW220172   2.015   1.191   3.586  0.7999  0.1416 -1.5634
 2904SOL     OW20173   2.347   0.803  16.322 -0.3074 -0.0789  0.2630
 2904SOL    HW120174   2.327   0.883  16.274  1.2453  0.7981  1.0693
 2904SOL    HW220175   2.401   0.830  16.397 -0.6893 -0.2945  0.6151
 2905SOL     OW20176   3.526   2.253   9.771 -0.2936  0.4240  0.2285
 2905SOL    HW120177   3.456   2.304   9.811 -0.2649  0.4689  0.2222
 2905SOL    HW220178   3.584   2.252   9.846 -0.3275  0.2642  0.2520
 2906SOL     OW20179   1.241   4.498   9.462  0.0063  0.5900 -0.9836
 2906SOL    HW120180   1.247   4.549   9.543  2.3683  1.0207 -1.4235
 2906SOL    HW220181   1.150   4.471   9.468 -0.0031  0.8004 -0.1395
 2907SOL     OW20182   3.426   1.744   7.692 -0.9801 -0.1775  0.3026
 2907SOL    HW120183   3.377   1.813   7.647  1.7195  0.3741 -1.8009
 2907SOL    HW220184   3.472   1.706   7.616 -2.6853 -0.1712 -0.7247
 2908SOL     OW20185   4.035   0.608   9.361  0.4205 -0.0189 -0.1178
 2908SOL    HW120186   4.024   0.692   9.405  0.7810  0.4583 -0.9446
 2908SOL    HW220187   4.129   0.588   9.355 -0.0181 -2.4496  0.9845
 2909SOL     OW20188   3.542   1.891   4.962  0.8777  0.0622  0.4209
 2909SOL    HW120189   3.490   1.811   4.958 -0.9100  1.0167  4.2136
 2909SOL    HW220190   3.546   1.909   4.869 -0.1133  2.6016  0.8879
 2910SOL     OW20191   1.260   2.897  14.387 -0.0740 -0.3475  0.8607
 2910SOL    HW120192   1.229   2.980  14.349  2.2619  0.1247  0.0043
 2910SOL    HW220193   1.192   2.831  14.373 -0.1355  0.4173 -2.6370
 2911SOL     OW20194   0.308   3.430   6.404  0.7007  0.2791  1.0023
 2911SOL    HW120195   0.278   3.339   6.400  0.6943  0.3023  0.4921
 2911SOL    HW220196   0.295   3.451   6.311 -0.1404  0.0101  1.0565
 2912SOL     OW20197   2.161   2.153  11.216  0.1655 -0.1461 -0.2153
 2912SOL    HW120198   2.253   2.180  11.216  0.3752 -0.8485  0.7456
 2912SOL    HW220199   2.118   2.189  11.294 -0.0181 -1.0795  0.1090
 2913SOL     OW20200   0.283   3.095   4.555  0.1456 -0.2496  0.1920
 2913SOL    HW120201   0.310   3.166   4.614 -0.8922 -0.4441  0.9138
 2913SOL    HW220202   0.258   3.137   4.473  1.2251 -3.2751 -1.6755
 2914SOL     OW20203   4.195   0.018  11.995  0.1238  0.4457  0.1328
 2914SOL    HW120204   4.286   4.714  11.984 -0.1602 -0.4046 -0.0090
 2914SOL    HW220205   4.198   0.113  12.007 -0.4169  0.4302  0.3839
 2915SOL     OW20206   2.143   3.958   5.581  0.3657  0.1744  0.4584
 2915SOL    HW120207   2.185   3.902   5.645  1.5541 -0.7362 -1.1226
 2915SOL    HW220208   2.212   4.024   5.568 -0.4863  1.0660  0.4347
 2916SOL     OW20209   3.659   1.757   8.985 -0.5457 -0.1127 -0.3099
 2916SOL    HW120210   3.743   1.763   8.938 -0.5586  3.3316  0.1688
 2916SOL    HW220211   3.665   1.812   9.062  1.3931 -0.4336 -0.2173
 2917SOL     OW20212   1.929   3.309   4.818  0.2790  0.9285  0.2101
 2917SOL    HW120213   1.873   3.338   4.746 -1.1648  1.0484  1.3571
 2917SOL    HW220214   1.931   3.215   4.801  0.4424  0.8773  0.5015
 2918SOL     OW20215   0.511   0.945   5.227  0.5032  0.6271 -0.7227
 2918SOL    HW120216   0.551   0.939   5.314 -0.3746  0.1560 -0.3598
 2918SOL    HW220217   0.538   0.862   5.189  2.9791  0.4397  1.4454
 2919SOL     OW20218   1.892   1.553   9.262 -0.0350  0.0152 -0.6680
 2919SOL    HW120219   1.938   1.484   9.310  0.1637  1.2007  0.8281
 2919SOL    HW220220   1.806   1.518   9.240 -0.0355 -0.1582 -0.3811
 2920SOL     OW20221   2.697   0.240   2.522  0.4942 -0.0285 -0.1473
 2920SOL    HW120222   2.760   0.207   2.458 -0.5687  0.1282 -1.2697
 2920SOL    HW220223   2.638   0.287   2.464  0.0547 -0.3008  0.0742
 2921SOL     OW20224   4.133   2.241  14.261  0.3344  0.1535  0.3555
 2921SOL    HW120225   4.103   2.295  14.334 -2.1980 -0.0935 -0.5030
 2921SOL    HW220226   4.198   2.300  14.223  1.0162 -2.5877 -2.6815
 2922SOL     OW20227   0.044   4.379   9.349  0.6770 -0.3176 -0.6684
 2922SOL    HW120228   0.016   4.325   9.275  1.9557 -1.8895  0.0109
 2922SOL    HW220229   0.132   4.402   9.318  0.6958  0.8269  0.2211
 2923SOL     OW20230   0.441   0.838   7.002 -0.5627 -0.7434 -0.1441
 2923SOL    HW120231   0.510   0.806   6.944 -0.4182  0.4082 -0.6127
 2923SOL    HW220232   0.449   0.762   7.059  2.1097 -1.3768 -1.3721
 2924SOL     OW20233   1.631   4.618   7.887 -0.2265  0.2523 -0.2184
 2924SOL    HW120234   1.560   4.655   7.836 -2.3278 -0.9345  1.8297
 2924SOL    HW220235   1.607   4.525   7.880 -1.0779  0.6352 -2.1991
 2925SOL     OW20236   1.738   0.475   6.165  0.0864  0.2754  0.2933
 2925SOL    HW120237   1.745   0.386   6.131 -0.4294  0.5068 -0.4342
 2925SOL    HW220238   1.793   0.480   6.243  0.0186  1.3629  0.2734
 2926SOL     OW20239   4.023   3.252   2.641 -0.2717 -0.0892 -0.1562
 2926SOL    HW120240   4.082   3.309   2.692  0.0957  0.2405 -0.9545
 2926SOL    HW220241   3.960   3.224   2.708  0.0630  0.7264  0.5078
 2927SOL     OW20242   2.905   0.886  13.563  0.6737 -0.5988 -0.1906
 2927SOL    HW120243   2.975   0.935  13.520  0.2792  0.6703  0.6197
 2927SOL    HW220244   2.941   0.803  13.532  0.9587  0.2220 -2.0675
 2928SOL     OW20245   4.062   4.462   5.147  0.5743 -0.6129  0.0781
 2928SOL    HW120246   4.023   4.535   5.195 -2.2764 -0.8506 -1.9162
 2928SOL    HW220247   4.033   4.494   5.062 -2.2475  0.5317  1.4813
 2929SOL     OW20248   2.057   3.648   3.041 -0.0608  0.3901 -0.2727
 2929SOL    HW120249   2.000   3.682   2.972 -0.6764  2.8780  1.4524
 2929SOL    HW220250   2.017   3.690   3.117  1.9910 -0.2639  1.1516
 2930SOL     OW20251   3.825   0.387   5.199  0.3300 -0.0020  0.6822
 2930SOL    HW120252   3.883   0.367   5.272 -0.4646 -1.2566  0.9726
 2930SOL    HW220253   3.785   0.468   5.230 -0.9581 -1.3399  2.5202
 2931SOL     OW20254   3.327   2.491  11.041  0.0208  0.2509 -0.5565
 2931SOL    HW120255   3.282   2.487  11.125 -2.6702 -1.6061 -2.0704
 2931SOL    HW220256   3.363   2.402  11.043 -2.6207 -0.8773 -2.9592
 2932SOL     OW20257   2.676   0.036   3.943 -0.3843 -0.0605  0.3013
 2932SOL    HW120258   2.604   4.711   3.906  0.4384  0.3807 -1.8747
 2932SOL    HW220259   2.655   0.051   4.036  0.4863  1.0176  0.3356
 2933SOL     OW20260   3.611   4.527   4.851  0.0932 -0.6567 -0.3150
 2933SOL    HW120261   3.666   4.541   4.928  1.8021 -1.1617 -1.4555
 2933SOL    HW220262   3.537   4.477   4.886  0.8362 -2.1459 -0.8744
 2934SOL     OW20263   2.907   1.994   5.890 -0.7378  0.7876 -0.1227
 2934SOL    HW120264   2.990   2.037   5.908 -0.0992 -1.3788  2.0699
 2934SOL    HW220265   2.855   2.049   5.947 -1.6820 -1.2491  0.9963
 2935SOL     OW20266   0.474   0.414  16.037 -0.4229 -0.3469 -0.1455
 2935SOL    HW120267   0.403   0.466  16.074 -0.0641 -1.4487  2.0682
 2935SOL    HW220268   0.420   0.358  15.980 -2.1940 -0.3122  1.4925
 2936SOL     OW20269   3.328   3.423   8.636 -0.8061 -0.2692  0.0801
 2936SOL    HW120270   3.246   3.439   8.683 -1.0164 -2.0313  0.3039
 2936SOL    HW220271   3.379   3.368   8.695  2.0409  0.7943 -1.3952
 2937SOL     OW20272   4.046   0.470   6.395 -0.2656 -0.8066 -0.1410
 2937SOL    HW120273   4.127   0.426   6.420 -0.0887 -0.7440 -0.6058
 2937SOL    HW220274   4.000   0.467   6.479  1.4157  0.3555  0.8164
 2938SOL     OW20275   4.036   0.237  11.170 -0.0672  0.0786 -0.0897
 2938SOL    HW120276   4.039   0.197  11.083 -2.1657 -0.7842  0.2299
 2938SOL    HW220277   3.944   0.261  11.181 -0.0258 -0.0504  0.5469
 2939SOL     OW20278   4.396   1.573   4.863  0.4371 -0.0988  1.0581
 2939SOL    HW120279   4.471   1.551   4.919 -0.4211  0.6287  2.4847
 2939SOL    HW220280   4.444   1.577   4.780 -0.9887 -0.9084  0.1916
 2940SOL     OW20281   4.334   4.415   2.501  0.2202  0.1869  0.5007
 2940SOL    HW120282   4.279   4.348   2.461  0.2978 -0.0426  0.7835
 2940SOL    HW220283   4.282   4.442   2.577 -0.7811 -0.4506  0.0480
 2941SOL     OW20284   1.443   2.294   9.113 -0.0977 -0.4452 -0.0092
 2941SOL    HW120285   1.480   2.260   9.032 -1.7115  0.4325 -1.0983
 2941SOL    HW220286   1.387   2.366   9.086  0.0173  0.1640  1.3785
 2942SOL     OW20287   4.608   3.609   7.802  0.3018 -0.3993  1.0783
 2942SOL    HW120288   4.540   3.566   7.855 -0.9519 -1.9611 -1.8216
 2942SOL    HW220289   4.675   3.542   7.793  1.1104  0.6451 -0.5618
 2943SOL     OW20290   0.560   0.272   3.423 -0.1413  0.4448  0.0508
 2943SOL    HW120291   0.499   0.212   3.465  3.0521 -0.8141  2.8866
 2943SOL    HW220292   0.647   0.235   3.441 -0.6473 -0.3091  0.9558
 2944SOL     OW20293   0.569   1.450   5.869 -0.0224  0.1962 -0.3326
 2944SOL    HW120294   0.488   1.498   5.883 -0.4499 -0.1729 -1.6128
 2944SOL    HW220295   0.585   1.466   5.776 -1.2871  1.2754 -0.3595
 2945SOL     OW20296   2.450   1.355   2.115 -0.1210 -0.6512  0.3694
 2945SOL    HW120297   2.499   1.429   2.151 -1.1542  0.0182  0.3919
 2945SOL    HW220298   2.363   1.377   2.148  0.2828  0.8394  0.4719
 2946SOL     OW20299   2.750   0.006   2.959  0.6797 -0.2727  0.2359
 2946SOL    HW120300   2.723   4.652   2.912  0.6521  0.1213 -0.4160
 2946SOL    HW220301   2.702   0.074   2.911  1.0836  0.0337  0.2621
 2947SOL     OW20302   2.824   0.400   7.113  0.5793  0.5313  0.0580
 2947SOL    HW120303   2.889   0.446   7.060 -0.5201  2.3475  0.2905
 2947SOL    HW220304   2.763   0.473   7.116  2.9085  2.5086 -1.4109
 2948SOL     OW20305   1.398   4.311   5.120  0.4857  0.1969  0.5975
 2948SOL    HW120306   1.311   4.302   5.160  0.5280  3.0113  1.2913
 2948SOL    HW220307   1.445   4.247   5.173  1.9321  0.9654  0.2532
 2949SOL     OW20308   3.326   3.113  16.342 -0.0347  0.5183 -0.6370
 2949SOL    HW120309   3.344   3.064  16.262  0.4152 -0.2298 -0.0776
 2949SOL    HW220310   3.239   3.149  16.322  0.0211  1.2197  0.3510
 2950SOL     OW20311   1.471   0.202   0.525  0.1894  0.6148 -0.0558
 2950SOL    HW120312   1.407   0.180   0.458 -0.0549 -1.9861  1.0222
 2950SOL    HW220313   1.489   0.296   0.518 -0.1410  0.6901  0.1579
 2951SOL     OW20314   3.275   3.531  17.381  0.5514 -0.1182  0.6294
 2951SOL    HW120315   3.325   3.451  17.367 -1.7019 -1.1271 -1.6112
 2951SOL    HW220316   3.188   3.493  17.377  0.2442  0.8704 -2.0490
 2952SOL     OW20317   4.440   4.214   3.184  0.6279 -0.0674  0.7713
 2952SOL    HW120318   4.535   4.215   3.173  0.5906  0.0575  0.4559
 2952SOL    HW220319   4.413   4.133   3.140 -0.8499  0.1500  1.3001
 2953SOL     OW20320   0.512   3.723  17.060 -0.1106  0.0019 -0.4296
 2953SOL    HW120321   0.547   3.688  16.978  0.0975 -1.6227  0.3408
 2953SOL    HW220322   0.597   3.740  17.101 -0.1039  1.8818 -1.2207
 2954SOL     OW20323   0.114   2.319   4.532 -0.1508 -0.4379  0.1722
 2954SOL    HW120324   0.082   2.314   4.442 -2.1719 -3.4541  1.0507
 2954SOL    HW220325   0.116   2.414   4.540  0.6917 -0.5497  1.3124
 2955SOL     OW20326   1.901   3.982  13.329 -0.6340 -0.2654 -0.0744
 2955SOL    HW120327   1.824   4.036  13.343 -2.2936 -2.4216 -0.8554
 2955SOL    HW220328   1.863   3.931  13.257 -0.5933 -2.4603  1.4759
 2956SOL     OW20329   2.783   3.292   4.139  0.2632 -0.2069  0.4127
 2956SOL    HW120330   2.874   3.293   4.168 -0.2024 -2.4633  1.9076
 2956SOL    HW220331   2.748   3.207   4.165  0.4178 -1.3195 -3.0360
 2957SOL     OW20332   1.434   2.928  10.073  0.2601  0.3989  0.2659
 2957SOL    HW120333   1.473   2.920  10.160  3.9375  0.7831 -1.3366
 2957SOL    HW220334   1.418   3.022  10.073  0.5379  0.4542 -1.1771
 2958SOL     OW20335   0.258   2.229   2.388  0.8508  0.9428 -0.9915
 2958SOL    HW120336   0.275   2.160   2.453 -0.1391  1.6655  0.0321
 2958SOL    HW220337   0.290   2.306   2.435 -1.6552  0.6298  1.2671
 2959SOL     OW20338   2.155   1.606   3.133  0.0843 -0.7352 -0.2642
 2959SOL    HW120339   2.148   1.538   3.066 -1.6204 -1.4990  0.7040
 2959SOL    HW220340   2.151   1.561   3.218  1.8177 -1.2261 -0.4386
 2960SOL     OW20341   3.712   4.087   3.599  0.1432 -0.0741 -0.6063
 2960SOL    HW120342   3.727   4.156   3.664  1.0745  0.5587 -1.4968
 2960SOL    HW220343   3.648   4.118   3.535  0.4252  1.7559  0.0097
 2961SOL     OW20344   4.126   2.947   7.289  0.1524  0.6148  0.4825
 2961SOL    HW120345   4.039   2.933   7.252  1.0801 -0.2003 -1.3994
 2961SOL    HW220346   4.106   3.025   7.341 -2.3426 -0.0686  0.5415
 2962SOL     OW20347   4.173   2.161   3.819 -0.2748 -0.5530 -0.0968
 2962SOL    HW120348   4.099   2.187   3.875  0.0272 -0.1473  0.1108
 2962SOL    HW220349   4.129   2.150   3.735 -0.7351  0.8181 -0.0331
 2963SOL     OW20350   4.122   0.072  16.409  0.1209  0.5857  0.4744
 2963SOL    HW120351   4.161   0.026  16.483  0.4950 -1.1628 -0.8096
 2963SOL    HW220352   4.122   0.001  16.346 -2.0127 -0.1418  1.2820
 2964SOL     OW20353   4.420   1.038   3.975  0.4076 -0.6532 -0.1387
 2964SOL    HW120354   4.514   1.043   3.990  0.3283 -0.4213  0.2894
 2964SOL    HW220355   4.392   1.094   4.048  1.1349 -1.6097  0.8909
 2965SOL     OW20356   1.699   2.182   0.537 -0.6604 -0.0798  0.1155
 2965SOL    HW120357   1.778   2.216   0.496 -0.3490 -0.5910  0.2844
 2965SOL    HW220358   1.743   2.125   0.599  1.9058  0.0869 -1.5512
 2966SOL     OW20359   1.615   1.459   1.977  1.0952 -0.3988  0.2627
 2966SOL    HW120360   1.552   1.469   1.906 -0.0807  1.9309  1.6866
 2966SOL    HW220361   1.579   1.383   2.022 -1.0030  0.6116  0.2677
 2967SOL     OW20362   2.439   2.528   2.112  0.0769 -0.3450 -0.5241
 2967SOL    HW120363   2.383   2.508   2.036 -0.5388 -0.4873 -0.0294
 2967SOL    HW220364   2.521   2.523   2.063  0.3433  1.0672 -0.2007
 2968SOL     OW20365   4.542   1.814   6.572 -0.3144  0.4471 -0.0356
 2968SOL    HW120366   4.529   1.724   6.543 -0.1085  1.0203 -1.9205
 2968SOL    HW220367   4.594   1.799   6.651  1.9106  3.7706 -0.8733
 2969SOL     OW20368   1.089   2.314   0.783  0.2258  0.1524  0.3747
 2969SOL    HW120369   1.155   2.366   0.736  0.3022  0.1895  0.5233
 2969SOL    HW220370   1.088   2.373   0.858  1.5942  1.1744 -0.4047
 2970SOL     OW20371   1.333   0.374   5.053  0.5695  0.9235  0.4697
 2970SOL    HW120372   1.346   0.338   4.966 -1.5248  1.7050 -0.1668
 2970SOL    HW220373   1.424   0.377   5.080 -0.0152 -1.2561  2.6735
 2971SOL     OW20374   1.293   3.123   0.395 -0.0135  0.5787  1.0701
 2971SOL    HW120375   1.286   3.071   0.475 -1.8107  1.2164  1.3191
 2971SOL    HW220376   1.214   3.175   0.409 -0.4933  0.3814 -0.8939
 2972SOL     OW20377   2.873   0.204   4.299 -0.1388  0.3594 -0.4981
 2972SOL    HW120378   2.939   0.138   4.277 -1.1894 -1.2394  1.1644
 2972SOL    HW220379   2.931   0.256   4.354 -1.6145 -0.2029  1.5878
 2973SOL     OW20380   3.271   2.223   6.136 -0.3948 -0.4831  0.2737
 2973SOL    HW120381   3.259   2.191   6.047  0.2017 -1.3149  0.4943
 2973SOL    HW220382   3.214   2.300   6.131 -2.3254 -2.0796 -1.9619
 2974SOL     OW20383   1.367   1.613  15.647  0.8714  0.4628  0.2667
 2974SOL    HW120384   1.292   1.607  15.707 -0.3497 -2.5486 -1.5576
 2974SOL    HW220385   1.436   1.645  15.705  0.0931  0.0838  1.4117
 2975SOL     OW20386   3.158   2.072   4.063 -0.0837  0.7473  0.3158
 2975SOL    HW120387   3.206   2.154   4.072  2.0042 -0.3306 -0.9871
 2975SOL    HW220388   3.181   2.056   3.972 -1.9587  0.6549 -0.1580
 2976SOL     OW20389   3.997   2.250   2.996  0.1501 -0.2373 -0.0136
 2976SOL    HW120390   4.040   2.306   2.932 -1.8633 -1.2482 -2.2556
 2976SOL    HW220391   3.957   2.316   3.053 -1.9645 -0.9531 -0.6667
 2977SOL     OW20392   1.274   0.608   3.666 -0.4657 -0.1643  0.0293
 2977SOL    HW120393   1.266   0.516   3.693  0.9319  0.1707  1.5631
 2977SOL    HW220394   1.210   0.657   3.718 -0.3630  0.1441 -0.1344
 2978SOL     OW20395   1.143   4.595  12.111 -0.4070 -0.1106  0.3237
 2978SOL    HW120396   1.206   4.649  12.158 -0.6708 -0.1929  0.7686
 2978SOL    HW220397   1.123   4.648  12.034  1.0511 -0.7858 -0.5124
 2979SOL     OW20398   2.482   0.558   2.972  0.5112  0.4002 -0.5041
 2979SOL    HW120399   2.436   0.476   2.987  3.2490 -1.1724 -0.6310
 2979SOL    HW220400   2.508   0.584   3.060 -1.0278  1.5640 -0.3952
 2980SOL     OW20401   0.121   0.044   6.409  0.3749 -0.7075  0.2777
 2980SOL    HW120402   0.115   4.680   6.372 -2.1979 -0.1886 -0.5999
 2980SOL    HW220403   0.029   0.073   6.404  0.4038 -1.0708 -2.3262
 2981SOL     OW20404   2.934   0.437   3.307  0.5861 -0.4922  1.1917
 2981SOL    HW120405   2.924   0.389   3.226  1.8691 -0.2247  0.8644
 2981SOL    HW220406   3.030   0.439   3.311  0.7100  0.6708 -2.4146
 2982SOL     OW20407   4.464   2.141   5.542  0.3299 -0.3042 -0.3516
 2982SOL    HW120408   4.490   2.160   5.632 -0.2158 -0.4841 -0.1599
 2982SOL    HW220409   4.381   2.094   5.548  0.5721 -0.9635 -1.9490
 2983SOL     OW20410   3.072   2.704  17.504 -0.1732  0.7488  0.2990
 2983SOL    HW120411   3.128   2.640  17.460  0.5488  0.6252  1.4085
 2983SOL    HW220412   3.081   2.672  17.593  0.0291  0.2779  0.1088
 2984SOL     OW20413   1.241   3.160  15.258 -0.4485 -0.2293  0.3259
 2984SOL    HW120414   1.323   3.203  15.279  1.1481 -2.6574 -0.9302
 2984SOL    HW220415   1.216   3.133  15.346  2.9444 -3.2689  0.3156
 2985SOL     OW20416   1.128   3.228   5.791 -0.0653  0.4496  1.0546
 2985SOL    HW120417   1.121   3.137   5.821 -0.6148 -0.1759 -0.9989
 2985SOL    HW220418   1.221   3.246   5.794 -0.2410  1.6030 -0.4765
 2986SOL     OW20419   0.875   3.217   7.286 -0.4710  0.2051 -0.0704
 2986SOL    HW120420   0.966   3.205   7.258 -0.5683  0.1033 -0.3333
 2986SOL    HW220421   0.864   3.148   7.351  0.0311  0.4372  0.2643
 2987SOL     OW20422   0.307   3.167   8.645  0.4478 -0.4051  0.8122
 2987SOL    HW120423   0.317   3.155   8.740  0.8340  4.5100  1.4274
 2987SOL    HW220424   0.226   3.117   8.637  0.4455  0.0820 -2.0994
 2988SOL     OW20425   4.312   2.259   5.326 -0.6169 -0.2628  0.3257
 2988SOL    HW120426   4.290   2.185   5.269 -0.5386 -0.8421  1.0591
 2988SOL    HW220427   4.359   2.213   5.395  1.2276 -0.5042 -1.1064
 2989SOL     OW20428   1.145   2.000   6.195 -0.2379  0.2097  0.0382
 2989SOL    HW120429   1.152   1.968   6.105  0.6286  0.7993 -0.0994
 2989SOL    HW220430   1.229   1.967   6.225 -0.6498  0.0349  0.9884
 2990SOL     OW20431   2.672   0.275  14.039  0.1142  0.0242  0.0368
 2990SOL    HW120432   2.665   0.180  14.028  1.0393 -0.0522  0.1005
 2990SOL    HW220433   2.684   0.294  13.946 -1.5437 -0.0472 -0.1927
 2991SOL     OW20434   0.803   1.979   4.303 -0.5552  0.1746 -0.3439
 2991SOL    HW120435   0.772   2.059   4.346  1.1393  0.5764  0.1562
 2991SOL    HW220436   0.730   1.949   4.249  1.5923  1.3447 -3.8585
 2992SOL     OW20437   3.111   2.848   4.547  0.2538 -0.2315  0.0078
 2992SOL    HW120438   3.110   2.807   4.633  1.7902  0.5058  0.3699
 2992SOL    HW220439   3.154   2.783   4.491 -0.0146  0.0659 -0.5411
 2993SOL     OW20440   2.518   0.016  17.431 -0.2601 -0.2022  0.0864
 2993SOL    HW120441   2.504   4.648  17.452  1.4790 -0.9756 -2.1934
 2993SOL    HW220442   2.471   0.067  17.497 -2.2117  2.1012 -3.1159
 2994SOL     OW20443   1.750   2.842   6.213  0.3365  0.1904 -0.0087
 2994SOL    HW120444   1.662   2.875   6.230  0.5451  1.1821 -0.8772
 2994SOL    HW220445   1.729   2.787   6.137 -2.3416  0.1484  0.7470
 2995SOL     OW20446   3.449   0.866   5.558  0.8569 -0.2560  0.4420
 2995SOL    HW120447   3.416   0.925   5.490  0.0553  1.2377  2.1481
 2995SOL    HW220448   3.536   0.846   5.524 -0.4722 -0.5707 -2.7632
 2996SOL     OW20449   0.554   1.816  12.134 -0.4742  0.0375 -0.4367
 2996SOL    HW120450   0.623   1.753  12.155 -0.9539 -0.3639 -0.0667
 2996SOL    HW220451   0.575   1.891  12.189  0.7878 -0.4487 -0.2648
 2997SOL     OW20452   1.176   1.916  13.469 -0.1136  0.2259  0.9105
 2997SOL    HW120453   1.204   1.942  13.557  1.0224  1.6093  0.1520
 2997SOL    HW220454   1.119   1.841  13.487  0.6731 -0.0925  2.1269
 2998SOL     OW20455   1.404   1.117   2.714 -0.2500 -0.0425 -0.2887
 2998SOL    HW120456   1.431   1.081   2.799  0.3814 -0.2580 -0.5834
 2998SOL    HW220457   1.322   1.071   2.697  0.1787 -1.1459  0.5710
 2999SOL     OW20458   2.062   2.594   4.899  0.0179  0.0096 -0.1046
 2999SOL    HW120459   2.020   2.517   4.937  2.7055 -1.8991 -1.0185
 2999SOL    HW220460   2.126   2.549   4.844 -1.0135 -1.9359  0.3008
 3000SOL     OW20461   3.852   0.623   2.623  0.1473  0.2021 -0.3623
 3000SOL    HW120462   3.896   0.561   2.681  0.3951  1.6130  0.9572
 3000SOL    HW220463   3.923   0.668   2.578 -0.2231 -0.3731 -1.5166
 3001SOL     OW20464   0.863   2.385   8.837 -0.0297  0.0063  0.0729
 3001SOL    HW120465   0.825   2.310   8.792  0.5191 -0.3247  0.1603
 3001SOL    HW220466   0.784   2.438   8.850 -1.1126 -2.2918  2.9237
 3002SOL     OW20467   0.389   4.168   0.250 -0.0296  0.2982 -0.7794
 3002SOL    HW120468   0.460   4.204   0.196  0.3237  0.8983  0.0930
 3002SOL    HW220469   0.370   4.090   0.198 -0.3971  0.0781 -0.3114
 3003SOL     OW20470   2.336   1.803   1.957 -0.3963 -0.0270 -0.7503
 3003SOL    HW120471   2.426   1.837   1.958 -0.3985 -0.0666  0.4544
 3003SOL    HW220472   2.303   1.842   2.038 -1.1726  0.9402 -1.5220
 3004SOL     OW20473   3.983   2.488   7.819 -0.8945 -0.0178  0.1995
 3004SOL    HW120474   3.980   2.497   7.724 -0.7537  0.9537  0.2864
 3004SOL    HW220475   4.064   2.536   7.840  0.3772 -3.4328  3.0882
 3005SOL     OW20476   1.089   1.501   5.236 -0.6929  0.2118  0.5274
 3005SOL    HW120477   1.112   1.423   5.185 -1.7934  0.2966 -0.1162
 3005SOL    HW220478   1.013   1.538   5.190  0.5178  2.2961  0.2482
 3006SOL     OW20479   3.382   2.889  12.163  0.7830  0.0345 -0.2267
 3006SOL    HW120480   3.423   2.860  12.081  0.2724 -1.6322  0.1112
 3006SOL    HW220481   3.336   2.809  12.187  1.3820  0.2260  1.5697
 3007SOL     OW20482   2.642   1.561   7.452  0.3845 -0.1203  0.1967
 3007SOL    HW120483   2.611   1.637   7.501 -0.3347 -1.1509  1.3255
 3007SOL    HW220484   2.709   1.526   7.510  1.5350  1.7355 -0.0104
 3008SOL     OW20485   1.619   3.347   5.060 -0.6515  0.2385  0.5077
 3008SOL    HW120486   1.623   3.439   5.037  0.1486  0.7298  2.5579
 3008SOL    HW220487   1.529   3.351   5.092  0.0388  0.4533  2.4468
 3009SOL     OW20488   0.278   4.484   1.869 -0.0436  0.3241  0.1203
 3009SOL    HW120489   0.355   4.501   1.814  0.7597 -2.5365  0.3478
 3009SOL    HW220490   0.266   4.575   1.894 -0.0290  0.9805 -2.2792
 3010SOL     OW20491   1.400   3.419  16.466 -0.0664 -0.0153 -0.3164
 3010SOL    HW120492   1.307   3.428  16.446 -0.0755  0.5749  0.0071
 3010SOL    HW220493   1.431   3.509  16.474  0.3265 -0.1938  0.1387
 3011SOL     OW20494   0.097   0.980   7.896 -0.5390  0.9879 -0.0716
 3011SOL    HW120495   0.010   0.967   7.857 -0.5469 -1.7513  0.8434
 3011SOL    HW220496   0.115   1.073   7.885  0.0571  0.9880  0.9257
 3012SOL     OW20497   0.931   0.310   2.981 -0.5333 -0.1742 -0.1571
 3012SOL    HW120498   0.928   0.308   3.077 -0.1312  1.4541 -0.1045
 3012SOL    HW220499   0.933   0.406   2.973 -0.5700 -0.3138 -1.6828
 3013SOL     OW20500   0.263   4.237   1.799 -0.2598 -0.4276 -0.1191
 3013SOL    HW120501   0.316   4.226   1.720 -1.1922 -0.3651 -0.7553
 3013SOL    HW220502   0.253   4.332   1.805 -2.1476 -0.7704  2.3157
 3014SOL     OW20503   0.290   4.196   0.932 -0.4467  0.0751 -0.0477
 3014SOL    HW120504   0.371   4.244   0.948  0.1242 -1.2680  1.1589
 3014SOL    HW220505   0.310   4.117   0.983  0.2196  0.3447  0.1030
 3015SOL     OW20506   4.358   2.528   8.394  0.3754 -0.6255  0.4261
 3015SOL    HW120507   4.308   2.601   8.430  1.3429 -0.1757  0.8605
 3015SOL    HW220508   4.358   2.465   8.466  1.0245 -1.6402 -0.4736
 3016SOL     OW20509   4.524   0.061   6.387 -0.4711 -0.7990 -0.8747
 3016SOL    HW120510   4.508   0.146   6.429  0.7592 -0.6532 -0.7195
 3016SOL    HW220511   4.463   0.009   6.439 -0.7289  0.1818 -0.2048
 3017SOL     OW20512   0.925   3.393  15.582 -0.3074 -0.3613  0.3588
 3017SOL    HW120513   0.859   3.326  15.572  2.2152 -3.3009  3.4480
 3017SOL    HW220514   0.876   3.468  15.617 -0.6579 -0.7735  0.7460
 3018SOL     OW20515   0.054   3.388   6.910 -0.1616  0.0795 -0.3616
 3018SOL    HW120516   0.041   3.453   6.979 -3.1117  1.8285 -2.5442
 3018SOL    HW220517   0.149   3.378   6.908 -0.2967 -1.4465  1.1431
 3019SOL     OW20518   3.918   0.861   8.844 -0.4062  0.5179 -0.1896
 3019SOL    HW120519   3.894   0.775   8.809  0.0488  0.1090  0.5086
 3019SOL    HW220520   4.013   0.871   8.836 -0.4703 -0.0555 -1.6654
 3020SOL     OW20521   2.165   0.145   2.883 -0.6682 -0.3659 -0.0601
 3020SOL    HW120522   2.140   0.223   2.834 -1.0759  1.0672  2.4059
 3020SOL    HW220523   2.108   0.081   2.842  1.0326  0.4162 -3.5901
 3021SOL     OW20524   0.751   4.539  15.924 -0.0151 -0.6391 -0.7347
 3021SOL    HW120525   0.730   4.446  15.914 -0.4991 -0.7494  1.4724
 3021SOL    HW220526   0.686   4.571  15.987  1.5159 -0.0782  0.5557
 3022SOL     OW20527   0.798   3.382   9.919 -0.1199  0.8199 -0.3459
 3022SOL    HW120528   0.800   3.322   9.993 -0.7514  2.9901  1.4411
 3022SOL    HW220529   0.773   3.324   9.847  0.5691 -1.4427  1.2568
 3023SOL     OW20530   2.619   1.721  13.330 -0.3819  0.2157  0.3291
 3023SOL    HW120531   2.532   1.711  13.293  1.0249 -0.2983 -2.8404
 3023SOL    HW220532   2.601   1.789  13.394 -0.4170 -1.5992  2.2372
 3024SOL     OW20533   3.393   2.227   3.497 -0.4415  0.2629 -0.3437
 3024SOL    HW120534   3.409   2.292   3.429  2.5380 -0.8229 -0.6581
 3024SOL    HW220535   3.298   2.240   3.499 -0.8920 -2.8793 -1.0391
 3025SOL     OW20536   1.582   1.757   9.234  0.1207 -0.1296  0.0550
 3025SOL    HW120537   1.512   1.773   9.298  0.2114  1.8478 -0.3316
 3025SOL    HW220538   1.642   1.830   9.251 -0.6956  1.1638 -2.7231
 3026SOL     OW20539   2.203   4.181  15.140 -0.1351 -0.0392 -0.4218
 3026SOL    HW120540   2.152   4.135  15.073  1.7006 -2.0519 -0.4528
 3026SOL    HW220541   2.134   4.199  15.205  0.8060  0.7554  0.3635
 3027SOL     OW20542   4.509   3.501  13.618 -0.4391  0.4972  0.1974
 3027SOL    HW120543   4.456   3.579  13.629  1.0611  1.3938  1.0408
 3027SOL    HW220544   4.547   3.500  13.706 -0.2675  1.4134  0.1324
 3028SOL     OW20545   1.616   2.726   0.851  0.1066  0.0613 -0.1393
 3028SOL    HW120546   1.533   2.683   0.868 -1.0564  1.3957 -2.3923
 3028SOL    HW220547   1.668   2.718   0.931  3.0032  0.3837 -1.9699
 3029SOL     OW20548   3.106   2.081   2.834  0.1042 -0.1235  0.1528
 3029SOL    HW120549   3.193   2.109   2.863  1.2048 -0.5033 -2.7682
 3029SOL    HW220550   3.104   2.130   2.752  0.5295 -1.1548 -0.4817
 3030SOL     OW20551   2.183   1.306   4.496 -0.0055  0.0438 -0.6430
 3030SOL    HW120552   2.245   1.282   4.565 -0.7053 -0.9937 -0.3711
 3030SOL    HW220553   2.214   1.252   4.423 -1.7326 -0.8514 -0.7174
 3031SOL     OW20554   2.772   1.861   7.342 -0.0058  0.0408  0.7511
 3031SOL    HW120555   2.826   1.829   7.270 -1.4867  0.7016 -0.6369
 3031SOL    HW220556   2.826   1.859   7.421  0.7957  2.0644  0.2532
 3032SOL     OW20557   0.474   2.481   2.747 -0.4128 -0.3607  0.3513
 3032SOL    HW120558   0.565   2.474   2.718 -0.6042 -2.1650  0.1647
 3032SOL    HW220559   0.429   2.487   2.663 -1.2680 -0.4428  0.7969
 3033SOL     OW20560   3.034   4.498   5.849 -0.4227  0.1407  0.1448
 3033SOL    HW120561   2.964   4.553   5.884 -0.8178 -1.2479  1.4952
 3033SOL    HW220562   3.079   4.563   5.795 -0.5786  0.3463  0.2623
 3034SOL     OW20563   4.146   4.671   4.042  0.4792  0.4987 -0.1813
 3034SOL    HW120564   4.136   0.041   4.034 -1.1587  0.2368 -1.1683
 3034SOL    HW220565   4.237   4.657   4.013 -0.0640 -2.5952 -0.4142
 3035SOL     OW20566   4.206   0.262   4.854  0.4051  0.6536 -0.4043
 3035SOL    HW120567   4.243   0.173   4.847 -2.0728 -0.4032  0.0604
 3035SOL    HW220568   4.253   0.288   4.933  0.4608  0.4637 -0.3727
 3036SOL     OW20569   2.436   2.994   2.007 -0.3357  0.2736  0.4414
 3036SOL    HW120570   2.390   3.053   1.947  1.4997  2.0898  0.7946
 3036SOL    HW220571   2.364   2.963   2.061  0.2419  0.5521  1.3827
 3037SOL     OW20572   1.192   0.909  10.037  0.4985  0.0658 -0.0005
 3037SOL    HW120573   1.102   0.885  10.014  0.5409 -0.0660 -0.0325
 3037SOL    HW220574   1.184   0.984  10.095 -0.3547 -0.0066 -0.0328
 3038SOL     OW20575   2.686   1.133   0.403 -0.1255 -0.7008 -0.5036
 3038SOL    HW120576   2.682   1.041   0.429  1.2145 -1.0739 -1.5958
 3038SOL    HW220577   2.779   1.150   0.388 -0.2238 -0.2755 -0.6404
 3039SOL     OW20578   3.424   0.847   7.457  0.0617  0.1446  0.3238
 3039SOL    HW120579   3.511   0.834   7.419  1.0620 -0.7714  2.9208
 3039SOL    HW220580   3.371   0.794   7.397  0.6629  2.5662 -2.3722
 3040SOL     OW20581   0.119   2.293   5.703  0.9581 -0.2522  0.2201
 3040SOL    HW120582   0.027   2.305   5.725  0.0564  0.3081 -3.8008
 3040SOL    HW220583   0.139   2.205   5.735  3.2742 -0.2057 -1.0733
 3041SOL     OW20584   0.584   0.139   9.181 -0.2788  0.4927 -0.0951
 3041SOL    HW120585   0.559   0.095   9.262 -1.3799 -1.5917 -1.5474
 3041SOL    HW220586   0.679   0.133   9.187 -0.3741 -2.4306 -1.3631
 3042SOL     OW20587   0.892   2.813   6.395 -0.5464  0.0014  0.6957
 3042SOL    HW120588   0.957   2.775   6.336 -0.4662  1.4129 -0.1272
 3042SOL    HW220589   0.837   2.851   6.327  0.0163  2.4357  1.5949
 3043SOL     OW20590   0.313   2.051   2.610 -0.2070 -0.5091 -0.2138
 3043SOL    HW120591   0.330   1.995   2.686 -0.2625 -0.0286  0.1559
 3043SOL    HW220592   0.289   2.136   2.647  0.9705  1.2235 -3.4745
 3044SOL     OW20593   1.568   1.383   1.577  0.7936  0.0302  0.1021
 3044SOL    HW120594   1.567   1.301   1.626 -0.0856 -0.0062  0.0341
 3044SOL    HW220595   1.659   1.405   1.593  0.6073  0.0418  1.1201
 3045SOL     OW20596   0.907   1.122   4.618 -0.4611  0.0788 -0.0557
 3045SOL    HW120597   0.923   1.028   4.615 -1.1825 -0.0606  0.4651
 3045SOL    HW220598   0.843   1.136   4.687  1.2649 -3.6036  2.2730
 3046SOL     OW20599   2.505   3.645   6.890  0.3975  0.0221 -0.5409
 3046SOL    HW120600   2.571   3.641   6.822  0.9106 -1.8633  0.0540
 3046SOL    HW220601   2.525   3.728   6.934 -0.4490  1.3578 -2.6912
 3047SOL     OW20602   4.268   1.627   2.250 -0.1389 -0.4242  0.0192
 3047SOL    HW120603   4.310   1.660   2.329  0.3945  1.2655 -0.9718
 3047SOL    HW220604   4.341   1.622   2.189  0.2364 -1.5043  0.5435
 3048SOL     OW20605   0.930   2.500  16.193 -0.6863 -0.1479 -0.0025
 3048SOL    HW120606   0.936   2.521  16.099  2.0881 -1.1036 -0.0262
 3048SOL    HW220607   0.977   2.562  16.248  1.4184 -2.0616  0.3467
 3049SOL     OW20608   0.128   2.064   5.914 -0.1276  0.0559  0.2105
 3049SOL    HW120609   0.155   2.133   5.975 -1.9184  1.3745 -0.5170
 3049SOL    HW220610   0.034   2.081   5.919 -0.3598 -1.2134  0.2383
 3050SOL     OW20611   3.239   0.545  10.127  0.0630  0.0835 -0.1660
 3050SOL    HW120612   3.183   0.482  10.082  1.3345 -0.8071 -0.4870
 3050SOL    HW220613   3.273   0.588  10.049  1.6456  2.3544  1.7577
 3051SOL     OW20614   0.804   0.559   6.104  0.0808 -0.1996 -0.2993
 3051SOL    HW120615   0.814   0.604   6.189  2.4822  1.6149 -1.5409
 3051SOL    HW220616   0.709   0.552   6.106  0.0814 -0.4321 -1.4572
 3052SOL     OW20617   4.650   0.264   1.296  0.2225  0.5004  0.0611
 3052SOL    HW120618   4.696   0.329   1.243  1.6371  0.7255  1.5506
 3052SOL    HW220619   4.567   0.287   1.255 -0.5870  0.2003  1.5398
 3053SOL     OW20620   1.438   3.846   2.000  0.3832  0.2123  0.2752
 3053SOL    HW120621   1.382   3.912   2.040  0.1056 -0.2187  0.6051
 3053SOL    HW220622   1.383   3.772   1.972  0.6333  0.9017 -2.0661
 3054SOL     OW20623   1.470   1.122   7.791  0.3413  0.2605 -0.3468
 3054SOL    HW120624   1.402   1.077   7.741 -0.9877 -0.2988  1.9718
 3054SOL    HW220625   1.492   1.059   7.859  0.9106  0.3947 -0.4105
 3055SOL     OW20626   1.952   4.267   3.793 -0.2541  0.3012 -0.5261
 3055SOL    HW120627   1.896   4.215   3.851  0.5970 -0.0324  0.0120
 3055SOL    HW220628   1.979   4.191   3.741 -0.0500 -0.0040  0.0193
 3056SOL     OW20629   4.324   3.248   9.658 -0.3572 -0.1622  0.0715
 3056SOL    HW120630   4.325   3.257   9.753 -1.8802  1.7537 -0.0929
 3056SOL    HW220631   4.258   3.313   9.632  0.3333 -0.2999 -2.0751
 3057SOL     OW20632   2.780   0.319   8.643  0.1044 -0.5875  0.3405
 3057SOL    HW120633   2.786   0.408   8.677 -0.9135 -0.8154  1.1241
 3057SOL    HW220634   2.872   0.302   8.663  0.3695  0.3810 -0.0772
 3058SOL     OW20635   2.489   4.578   6.443  0.1563 -0.3220  0.2096
 3058SOL    HW120636   2.538   4.513   6.392 -1.7757 -0.8659 -0.9649
 3058SOL    HW220637   2.422   4.600   6.378  0.2968  0.6053  0.3863
 3059SOL     OW20638   2.954   1.306   0.539  0.0128 -0.2898 -0.3770
 3059SOL    HW120639   3.044   1.295   0.569  0.1450 -1.9817 -1.4046
 3059SOL    HW220640   2.904   1.268   0.612 -0.0415 -0.9299 -0.7497
 3060SOL     OW20641   0.669   2.285   1.633  0.0023 -0.4346  0.0989
 3060SOL    HW120642   0.604   2.307   1.566 -0.1635  1.1249  0.7612
 3060SOL    HW220643   0.630   2.207   1.674  0.8468 -0.4994  0.7798
 3061SOL     OW20644   3.874   4.496   1.609 -0.0106  0.4846 -0.2772
 3061SOL    HW120645   3.926   4.465   1.683  0.0441 -1.3278 -1.0900
 3061SOL    HW220646   3.876   4.420   1.551 -0.0261  0.3355 -0.0800
 3062SOL     OW20647   2.136   4.468  15.389 -0.4735  0.0664 -0.2501
 3062SOL    HW120648   2.228   4.454  15.367 -0.0988  1.3788  0.4618
 3062SOL    HW220649   2.112   4.508  15.305 -1.0101 -1.4686 -0.8211
 3063SOL     OW20650   2.882   0.919   5.376 -0.0969 -0.6315 -0.4916
 3063SOL    HW120651   2.817   0.851   5.354 -0.4227  0.5888 -3.3287
 3063SOL    HW220652   2.832   0.982   5.427  2.8360  1.6190 -0.4168
 3064SOL     OW20653   3.753   4.378   4.652 -0.6903  0.5086  0.4109
 3064SOL    HW120654   3.692   4.427   4.707  1.1378  2.3281  0.8032
 3064SOL    HW220655   3.825   4.440   4.660 -0.1768  0.0046 -0.2935
 3065SOL     OW20656   2.741   1.007   3.978 -0.3046  0.3077  0.2458
 3065SOL    HW120657   2.763   0.988   3.887 -0.1611 -1.5224  0.6558
 3065SOL    HW220658   2.792   0.940   4.023 -0.8839  1.4972  2.6742
 3066SOL     OW20659   2.812   2.275   8.094 -0.3369 -0.2825 -0.1374
 3066SOL    HW120660   2.771   2.252   8.177 -0.0855  1.6022  0.4974
 3066SOL    HW220661   2.811   2.196   8.040  1.1418  0.3089 -1.0396
 3067SOL     OW20662   2.923   3.679  15.031  0.1624 -0.0204 -0.5504
 3067SOL    HW120663   2.896   3.770  15.019 -0.8760  0.0253  1.9972
 3067SOL    HW220664   2.999   3.673  14.974 -0.7621 -0.7224 -1.6824
 3068SOL     OW20665   0.254   1.932  11.429 -0.5617  0.1016  0.9277
 3068SOL    HW120666   0.329   1.873  11.439  0.3242  0.6984 -1.9577
 3068SOL    HW220667   0.257   1.938  11.333 -1.6550  0.6782  0.9292
 3069SOL     OW20668   2.642   1.107  15.473  0.7698  0.3978  0.7926
 3069SOL    HW120669   2.547   1.102  15.463  1.0910 -0.2223 -2.0941
 3069SOL    HW220670   2.656   1.195  15.438 -2.6731  1.1984  1.3878
 3070SOL     OW20671   4.091   2.371   9.269 -0.0836  0.2845  0.0446
 3070SOL    HW120672   4.011   2.405   9.227  0.5321  2.1370  0.3624
 3070SOL    HW220673   4.070   2.395   9.359 -1.2948 -0.3759 -0.0616
 3071SOL     OW20674   0.455   3.625  11.787 -0.1979  0.0434  0.0563
 3071SOL    HW120675   0.469   3.531  11.781 -2.2663 -0.4722  3.1095
 3071SOL    HW220676   0.374   3.639  11.739 -0.3368 -1.7376 -0.2296
 3072SOL     OW20677   4.278   1.244   3.116  0.4843  0.6222 -0.1162
 3072SOL    HW120678   4.298   1.242   3.023 -0.8812 -0.7862 -0.3749
 3072SOL    HW220679   4.368   1.250   3.147  0.8444 -2.1599 -0.6054
 3073SOL     OW20680   0.709   3.196  10.817 -0.5327  1.0833 -0.1025
 3073SOL    HW120681   0.771   3.251  10.769 -0.4034  0.6296 -0.4624
 3073SOL    HW220682   0.765   3.168  10.890  0.4941  2.6152 -0.2975
 3074SOL     OW20683   4.547   0.645  10.135  0.1840 -0.2709  0.3336
 3074SOL    HW120684   4.575   0.728  10.174  0.0497 -0.1236  0.1186
 3074SOL    HW220685   4.578   0.649  10.044 -1.4100 -0.3902 -0.2091
 3075SOL     OW20686   3.611   0.627  12.767 -0.3769  0.4106  0.0046
 3075SOL    HW120687   3.699   0.665  12.761 -0.2029  0.0120  0.0338
 3075SOL    HW220688   3.575   0.672  12.690 -0.2476  0.1090 -0.2312
 3076SOL     OW20689   3.031   2.066   3.739  0.4639 -0.7293 -0.4008
 3076SOL    HW120690   3.124   2.043   3.733  0.8851  1.2896 -1.4382
 3076SOL    HW220691   3.010   1.994   3.799  0.4077 -2.0701 -1.9956
 3077SOL     OW20692   4.503   3.627   2.196 -0.4028  0.1277  0.0131
 3077SOL    HW120693   4.573   3.646   2.258  0.6356 -0.4262 -0.9927
 3077SOL    HW220694   4.534   3.675   2.119  4.1484 -1.1918  1.0454
 3078SOL     OW20695   4.507   0.531   4.386  0.3699 -0.6944 -0.4871
 3078SOL    HW120696   4.570   0.465   4.359  0.9451 -0.5037  0.3816
 3078SOL    HW220697   4.499   0.586   4.308  1.7002  0.7121  0.3726
 3079SOL     OW20698   0.905   0.434   2.435  0.6839 -0.3462 -0.2207
 3079SOL    HW120699   0.968   0.504   2.451 -1.7463  1.4978  1.1160
 3079SOL    HW220700   0.829   0.484   2.463  0.4602 -1.1407  0.6184
 3080SOL     OW20701   1.399   4.612   2.321  0.2144 -0.6533  0.1197
 3080SOL    HW120702   1.329   4.671   2.291 -1.0147 -2.0438  0.2625
 3080SOL    HW220703   1.358   4.560   2.390  0.8558  0.1719  1.1143
 3081SOL     OW20704   0.045   2.930   6.572  1.1217  0.1543 -0.5538
 3081SOL    HW120705   0.100   2.862   6.532  1.3419  0.6110 -1.0426
 3081SOL    HW220706   4.708   2.950   6.502  1.9741  0.5257 -1.2030
 3082SOL     OW20707   4.508   2.024   6.416 -0.4877 -0.0805  0.3092
 3082SOL    HW120708   4.413   2.032   6.427 -0.3460 -0.7702  2.0230
 3082SOL    HW220709   4.525   1.946   6.469 -1.6391  0.2082  1.0983
 3083SOL     OW20710   3.860   1.359   3.580 -0.7603  0.2472 -0.0254
 3083SOL    HW120711   3.914   1.304   3.523 -0.7816  0.3906 -0.1859
 3083SOL    HW220712   3.791   1.300   3.610  0.6399 -0.9324  0.8536
 3084SOL     OW20713   2.912   1.333   6.041 -0.4444  0.2647 -0.2980
 3084SOL    HW120714   2.928   1.327   6.135  2.4499 -0.2442 -0.8542
 3084SOL    HW220715   2.914   1.238   6.030  2.3411  0.2576  0.5301
 3085SOL     OW20716   4.188   1.050  11.171  0.3035 -0.2165 -0.2018
 3085SOL    HW120717   4.252   1.077  11.237  1.0588 -1.2897 -0.4899
 3085SOL    HW220718   4.231   0.976  11.128  1.3533 -0.3453  1.0720
 3086SOL     OW20719   3.788   4.426   3.423  0.0348  0.0374 -0.3694
 3086SOL    HW120720   3.880   4.453   3.428 -0.0283  0.1989 -0.0442
 3086SOL    HW220721   3.756   4.454   3.337 -1.2231  1.0137  0.4181
 3087SOL     OW20722   3.184   4.570   4.719 -0.1227 -0.2228  0.3246
 3087SOL    HW120723   3.212   4.659   4.741 -2.1382  1.0917 -2.3214
 3087SOL    HW220724   3.110   4.595   4.663  0.3729 -0.0639 -0.2607
 3088SOL     OW20725   3.260   0.318   8.879 -0.1981 -0.1950 -0.0233
 3088SOL    HW120726   3.184   0.338   8.935  1.7226 -0.3243  2.6394
 3088SOL    HW220727   3.327   0.347   8.941 -0.0263 -0.9107  0.1233
 3089SOL     OW20728   1.862   3.425   1.996  0.3103  0.0339  0.0302
 3089SOL    HW120729   1.773   3.462   1.998  0.6758  0.9841 -1.4221
 3089SOL    HW220730   1.847   3.337   2.031  2.8287  0.2672  1.6523
 3090SOL     OW20731   1.825   2.768   4.771 -0.5915 -0.1009 -0.6406
 3090SOL    HW120732   1.885   2.743   4.841 -1.5849  1.3802  0.7237
 3090SOL    HW220733   1.740   2.764   4.815 -0.0679  0.1502  0.3799
 3091SOL     OW20734   1.148   0.946   5.183 -0.0306 -0.0183  0.0899
 3091SOL    HW120735   1.105   0.943   5.097 -2.7173 -2.0629  1.5111
 3091SOL    HW220736   1.232   0.903   5.173  0.5620  1.3234 -0.7437
 3092SOL     OW20737   1.056   0.876   8.513  0.4111 -0.2802 -0.5098
 3092SOL    HW120738   1.135   0.905   8.559 -0.2476  0.1291  0.3680
 3092SOL    HW220739   1.056   0.782   8.532  2.1177  0.0404  1.0483
 3093SOL     OW20740   1.966   1.780  11.345 -0.4612  0.0632 -0.0303
 3093SOL    HW120741   1.892   1.818  11.297 -1.0059 -0.1685  0.6261
 3093SOL    HW220742   2.037   1.829  11.304 -0.4325  1.0822  1.2516
 3094SOL     OW20743   2.477   1.622   4.637 -0.3561  0.0069 -0.4257
 3094SOL    HW120744   2.508   1.711   4.654  0.9509 -0.0876 -2.2327
 3094SOL    HW220745   2.543   1.587   4.577  1.3390  1.6154  0.4985
 3095SOL     OW20746   1.712   0.347   2.516  0.0378  0.0060 -0.1638
 3095SOL    HW120747   1.649   0.277   2.533  1.1628 -0.3128  2.6551
 3095SOL    HW220748   1.669   0.412   2.459  1.1005  1.4457  0.6825
 3096SOL     OW20749   3.460   4.679   2.359 -0.5858  0.0624  0.4644
 3096SOL    HW120750   3.473   4.668   2.265  2.3970 -0.2780  0.9166
 3096SOL    HW220751   3.520   0.028   2.370  0.1006 -0.7686  2.2423
 3097SOL     OW20752   1.019   4.184   8.341  0.0518  0.0270  0.0020
 3097SOL    HW120753   0.986   4.239   8.412 -0.1868  0.3619 -0.3691
 3097SOL    HW220754   1.077   4.245   8.295  1.1493 -0.1749  1.0971
 3098SOL     OW20755   3.643   0.265   3.964  0.0823 -0.1353 -0.0732
 3098SOL    HW120756   3.550   0.281   3.980  0.0972 -0.6621  0.5113
 3098SOL    HW220757   3.644   0.180   3.922 -0.2780 -0.5450  0.7412
 3099SOL     OW20758   4.046   0.904   7.319 -0.4115  0.4760  0.0692
 3099SOL    HW120759   4.088   0.888   7.403  0.7867  2.2769 -0.1817
 3099SOL    HW220760   4.087   0.985   7.287 -1.0118 -0.7196 -3.6423
 3100SOL     OW20761   1.137   3.913   7.197 -0.1489  0.1954 -0.1464
 3100SOL    HW120762   1.047   3.884   7.181 -0.1388  0.0733  0.0187
 3100SOL    HW220763   1.137   3.935   7.291 -0.9621 -1.3157  0.2013
 3101SOL     OW20764   1.073   0.705  13.082 -0.6598  0.0151  0.4984
 3101SOL    HW120765   1.163   0.697  13.051 -1.2854 -1.4849 -0.9111
 3101SOL    HW220766   1.097   0.781  13.134 -0.6458  1.7697 -2.0657
 3102SOL     OW20767   3.870   3.175   5.067  0.0138  0.0248 -0.8203
 3102SOL    HW120768   3.917   3.202   5.146  1.6741 -1.8560 -1.1573
 3102SOL    HW220769   3.941   3.165   5.002  0.1581 -0.5936 -0.5618
 3103SOL     OW20770   3.204   3.242   5.764 -0.4356 -0.4047 -0.1964
 3103SOL    HW120771   3.129   3.186   5.745  0.9167 -2.2402 -0.1504
 3103SOL    HW220772   3.211   3.204   5.851  1.3317  0.1156 -0.1093
 3104SOL     OW20773   4.646   1.238  11.476  0.2916 -0.3273 -0.1058
 3104SOL    HW120774   4.553   1.260  11.475 -0.2254 -2.5632 -0.9374
 3104SOL    HW220775   4.691   1.320  11.498  0.7705 -1.1392  2.0160
 3105SOL     OW20776   2.782   0.997  15.908 -0.1739 -0.4679 -0.0092
 3105SOL    HW120777   2.787   0.983  15.813 -1.3167 -4.1964  0.4603
 3105SOL    HW220778   2.751   0.912  15.940  1.5515 -0.7849  0.7912
 3106SOL     OW20779   1.324   1.625   4.705 -0.0260  0.3164  0.1680
 3106SOL    HW120780   1.260   1.570   4.750  1.5591 -3.2158 -1.8134
 3106SOL    HW220781   1.392   1.565   4.674  0.3122  1.3297 -1.0501
 3107SOL     OW20782   0.683   2.118   1.379  0.1375 -0.2262  0.0510
 3107SOL    HW120783   0.617   2.187   1.384  1.1853  0.7296  0.7779
 3107SOL    HW220784   0.640   2.060   1.441 -0.8596  0.5944  0.1354
 3108SOL     OW20785   1.952   3.533   2.299 -0.1747  0.2593  0.0099
 3108SOL    HW120786   1.999   3.556   2.379  2.6105 -0.8013 -1.2995
 3108SOL    HW220787   1.881   3.596   2.310  1.2729  1.9621 -0.3453
 3109SOL     OW20788   2.257   1.009  14.291 -0.6125 -0.2416  0.1664
 3109SOL    HW120789   2.275   0.930  14.342  0.6495  0.6849  1.1258
 3109SOL    HW220790   2.229   1.062  14.365  2.0860 -1.5037  2.0928
 3110SOL     OW20791   4.693   0.089   2.231 -0.4295  0.4463 -0.2972
 3110SOL    HW120792   4.721   0.131   2.149  0.0275 -1.8684 -1.3182
 3110SOL    HW220793   4.600   0.098   2.209 -0.9022 -0.7496  1.3201
 3111SOL     OW20794   1.269   4.002   0.746 -0.5364  0.5269 -0.1343
 3111SOL    HW120795   1.241   3.911   0.756 -2.8908  1.0517 -1.7077
 3111SOL    HW220796   1.287   3.990   0.653 -0.7719 -0.6798 -0.0227
 3112SOL     OW20797   3.101   0.203   2.707  0.0944 -0.0197 -0.3808
 3112SOL    HW120798   3.096   0.167   2.796 -1.8754  0.0343 -0.4787
 3112SOL    HW220799   3.108   0.132   2.643 -1.8778  0.4263 -1.0643
 3113SOL     OW20800   0.234   0.107  12.207  0.7045  0.2675 -0.3075
 3113SOL    HW120801   0.285   0.144  12.134 -0.6499 -0.8460 -1.8373
 3113SOL    HW220802   0.308   0.090  12.264 -1.2292 -1.3278  1.7210
 3114SOL     OW20803   3.677   3.763   2.205 -0.4710 -0.4596 -0.4725
 3114SOL    HW120804   3.643   3.849   2.180  0.1268 -0.6079 -1.8148
 3114SOL    HW220805   3.596   3.712   2.202 -0.4105 -0.5309 -0.8841
 3115SOL     OW20806   1.675   4.656   1.701 -0.1765  0.0654  0.4476
 3115SOL    HW120807   1.612   4.697   1.642 -1.0116 -0.5952  0.8797
 3115SOL    HW220808   1.716   0.005   1.748 -0.3613  0.7911 -0.5409
 3116SOL     OW20809   0.345   1.921  10.499 -0.4940 -0.2655  0.0526
 3116SOL    HW120810   0.262   1.923  10.451 -2.0384 -1.7341  2.6191
 3116SOL    HW220811   0.396   1.956  10.427 -1.8735  1.1789 -0.2385
 3117SOL     OW20812   4.308   2.286   7.796 -0.6449 -0.1073  0.1521
 3117SOL    HW120813   4.327   2.192   7.788 -1.9190 -0.5150  2.1321
 3117SOL    HW220814   4.275   2.287   7.885  1.6026  0.0700  0.9844
 3118SOL     OW20815   3.297   2.664   9.359  0.2157 -0.3314  0.2398
 3118SOL    HW120816   3.334   2.632   9.277  0.6817  1.1289 -0.1005
 3118SOL    HW220817   3.314   2.579   9.402 -0.1457 -0.3191  0.4160
 3119SOL     OW20818   1.379   3.080  17.475  0.0715  0.3128 -0.0504
 3119SOL    HW120819   1.456   3.137  17.484 -1.3693  2.1764  0.3436
 3119SOL    HW220820   1.308   3.118  17.526  0.0236 -1.7212  1.4207
 3120SOL     OW20821   3.518   3.085   7.899  0.0615 -0.3530  0.0812
 3120SOL    HW120822   3.581   3.025   7.858  1.1342  1.4494 -0.9111
 3120SOL    HW220823   3.443   3.083   7.840 -1.0549 -0.4692  1.5078
 3121SOL     OW20824   4.067   1.233   3.476 -0.2883  0.5836 -0.3019
 3121SOL    HW120825   4.047   1.158   3.420  1.8201 -1.7456  2.0636
 3121SOL    HW220826   4.075   1.305   3.413 -0.6519  1.1626  0.3261
 3122SOL     OW20827   2.996   2.094  16.053 -0.8307 -0.2428 -0.0347
 3122SOL    HW120828   2.974   2.153  16.126  0.4633  0.8119 -0.4891
 3122SOL    HW220829   3.062   2.145  16.006 -0.4307 -0.3473  0.4161
 3123SOL     OW20830   3.059   0.823  10.539  0.1455  0.0175  0.0850
 3123SOL    HW120831   2.975   0.845  10.498  0.3655 -0.2740 -0.5310
 3123SOL    HW220832   3.119   0.808  10.466  0.9303 -0.8223  0.9016
 3124SOL     OW20833   3.367   0.735   5.764  0.4290  0.5448 -0.7562
 3124SOL    HW120834   3.409   0.768   5.684  2.6763 -0.8968 -0.1731
 3124SOL    HW220835   3.315   0.662   5.730  0.3724  0.7790 -1.1688
 3125SOL     OW20836   3.631   3.326  16.912 -0.5202  0.0349  0.4125
 3125SOL    HW120837   3.717   3.368  16.907 -0.0690 -1.1448 -1.8756
 3125SOL    HW220838   3.626   3.271  16.834  1.8697  0.9454 -0.3643
 3126SOL     OW20839   2.428   0.044  11.193  0.0684  0.1477  0.2527
 3126SOL    HW120840   2.522   0.048  11.211  0.2757  2.1405 -1.2896
 3126SOL    HW220841   2.388   0.016  11.275 -0.4583 -0.3969 -0.1936
 3127SOL     OW20842   0.265   3.622   2.515  0.2271 -0.5081  0.2430
 3127SOL    HW120843   0.228   3.564   2.582  1.4805 -2.0303 -0.3665
 3127SOL    HW220844   0.271   3.567   2.437 -0.0572 -0.5707  0.2658
 3128SOL     OW20845   1.777   3.837   0.007  0.3950 -0.1609  0.1464
 3128SOL    HW120846   1.741   3.828  17.619  5.5601  0.0509 -2.0214
 3128SOL    HW220847   1.853   3.780  17.695  1.4260  1.3978 -0.7832
 3129SOL     OW20848   1.551   3.056   2.924 -0.4217 -0.0075 -0.4913
 3129SOL    HW120849   1.557   3.147   2.895 -1.9081 -0.5423 -2.5001
 3129SOL    HW220850   1.599   3.070   3.006 -1.4785 -0.2497  0.1701
 3130SOL     OW20851   3.184   4.554   4.060 -0.0693 -0.4380 -0.0246
 3130SOL    HW120852   3.137   4.479   4.023 -1.7443  0.4849  0.2897
 3130SOL    HW220853   3.155   4.571   4.150 -0.0450  2.7828 -0.6337
 3131SOL     OW20854   2.632   1.730   7.713 -0.6272 -0.0442 -0.1594
 3131SOL    HW120855   2.678   1.674   7.775 -0.5857 -0.7632 -0.8461
 3131SOL    HW220856   2.696   1.801   7.712 -0.6826  0.0150  1.2045
 3132SOL     OW20857   3.526   0.735   8.031 -0.5167 -0.3820  0.1905
 3132SOL    HW120858   3.577   0.775   7.961 -0.0321 -0.7529  0.3371
 3132SOL    HW220859   3.584   0.733   8.107 -0.4174 -0.4330  0.1136
 3133SOL     OW20860   2.504   2.651   5.034 -0.2194  0.0720 -0.2799
 3133SOL    HW120861   2.487   2.629   5.126 -1.3344  0.0783 -0.4936
 3133SOL    HW220862   2.528   2.574   4.982  3.5152  1.0787 -0.0773
 3134SOL     OW20863   1.346   2.222  13.522  0.0456  0.3279  0.0262
 3134SOL    HW120864   1.329   2.130  13.502 -0.1387 -0.0085  1.7295
 3134SOL    HW220865   1.286   2.249  13.592  1.7198  1.5022  1.0094
 3135SOL     OW20866   3.617   2.792   4.860  0.2093 -0.0089  0.2040
 3135SOL    HW120867   3.562   2.867   4.839 -0.1078  0.6243  3.2799
 3135SOL    HW220868   3.653   2.814   4.946  2.3839 -0.2481 -0.6444
 3136SOL     OW20869   1.957   3.870   1.727 -0.1648  0.0045 -0.3057
 3136SOL    HW120870   1.877   3.910   1.761 -0.5244 -1.7061  0.8567
 3136SOL    HW220871   2.018   3.934   1.764 -1.5821  1.0986  0.1252
 3137SOL     OW20872   4.362   1.566   7.165 -0.1596  0.4160  0.5443
 3137SOL    HW120873   4.449   1.563   7.124  0.0695  0.7757  1.0097
 3137SOL    HW220874   4.359   1.655   7.199  1.2527  1.4479 -2.0676
 3138SOL     OW20875   4.021   2.790   3.842  0.2880 -0.0860 -0.8632
 3138SOL    HW120876   4.035   2.735   3.919 -0.5531  1.1030  0.1360
 3138SOL    HW220877   4.045   2.724   3.777  0.6574 -0.9865  0.1912
 3139SOL     OW20878   3.977   2.194   2.642 -0.3271  0.1541 -0.4272
 3139SOL    HW120879   3.884   2.200   2.666 -0.5809 -1.7975 -0.9761
 3139SOL    HW220880   4.016   2.263   2.697  1.4051 -1.2394  0.0839
 3140SOL     OW20881   1.255   2.699   4.912 -0.3238 -0.4565 -0.0895
 3140SOL    HW120882   1.165   2.731   4.908  0.0436  0.6867  1.0548
 3140SOL    HW220883   1.257   2.667   5.002 -0.8856 -1.1280 -0.3143
 3141SOL     OW20884   2.573   1.471  10.315 -0.4080 -0.0017 -0.0478
 3141SOL    HW120885   2.620   1.508  10.240 -2.0031 -1.0732 -1.5852
 3141SOL    HW220886   2.638   1.459  10.384 -0.0306 -1.6470 -0.6959
 3142SOL     OW20887   3.290   1.344   5.075 -0.1971 -0.4138 -0.5450
 3142SOL    HW120888   3.283   1.297   5.158 -1.5144  2.6177  1.0989
 3142SOL    HW220889   3.206   1.389   5.079 -0.4556 -0.9474  0.0134
 3143SOL     OW20890   1.304   4.013   5.132 -0.1992 -0.2019 -0.1181
 3143SOL    HW120891   1.220   3.967   5.124 -1.5848  2.1648  1.0223
 3143SOL    HW220892   1.287   4.092   5.081 -0.4770 -0.2387 -0.0792
 3144SOL     OW20893   0.067   3.973   7.835  0.6842  0.3229 -0.2837
 3144SOL    HW120894   0.009   3.910   7.793 -0.1229 -0.5445  2.1167
 3144SOL    HW220895   0.135   3.988   7.769 -0.1811 -2.0351 -1.7067
 3145SOL     OW20896   0.376   0.331  16.999 -0.5320  0.1915 -0.0239
 3145SOL    HW120897   0.387   0.363  17.088 -1.2157 -0.0136  0.1324
 3145SOL    HW220898   0.464   0.340  16.962 -0.2066  1.1339  1.0110
 3146SOL     OW20899   0.181   4.565   0.549  0.6058 -0.2175 -0.2977
 3146SOL    HW120900   0.221   4.520   0.623 -0.1515 -1.1979 -0.4856
 3146SOL    HW220901   0.240   4.548   0.476 -0.3972  0.7325 -1.3360
 3147SOL     OW20902   1.719   2.371   7.211 -0.7635  0.5242 -0.2932
 3147SOL    HW120903   1.640   2.389   7.261 -0.5803 -1.7032  0.8233
 3147SOL    HW220904   1.708   2.278   7.190 -0.6523  0.2085  1.0294
 3148SOL     OW20905   2.058   0.775  10.277 -0.0593  0.6154 -0.6540
 3148SOL    HW120906   2.006   0.700  10.306 -0.4296  0.4337 -1.8228
 3148SOL    HW220907   2.093   0.749  10.192  0.3886  1.4756 -0.7318
 3149SOL     OW20908   0.765   0.080  12.716 -0.6465  0.1556  0.1107
 3149SOL    HW120909   0.789   0.154  12.660  0.5835 -0.5208 -0.2640
 3149SOL    HW220910   0.690   0.042  12.671 -0.2932 -0.2697 -0.1246
 3150SOL     OW20911   3.855   1.422   4.143  0.1495 -0.1049 -0.8698
 3150SOL    HW120912   3.864   1.339   4.191 -2.4255 -1.0826 -2.0533
 3150SOL    HW220913   3.764   1.447   4.159  0.0443  0.1921 -1.9647
 3151SOL     OW20914   0.334   0.835   8.248  0.3590  0.3484  0.0317
 3151SOL    HW120915   0.287   0.899   8.302 -2.9487 -1.3670 -0.8339
 3151SOL    HW220916   0.281   0.758   8.268 -0.0549  0.5328 -0.3738
 3152SOL     OW20917   2.158   3.453   5.116 -0.1779 -0.1918  0.0087
 3152SOL    HW120918   2.234   3.482   5.166  0.2269 -1.3982  0.0800
 3152SOL    HW220919   2.176   3.359   5.116 -2.2664 -0.5901 -2.8833
 3153SOL     OW20920   4.289   1.786   0.504 -0.6731  0.1397 -0.2579
 3153SOL    HW120921   4.198   1.769   0.527 -0.2544 -0.2336  1.1260
 3153SOL    HW220922   4.324   1.708   0.546 -0.2198 -1.3260 -3.3257
 3154SOL     OW20923   3.938   1.247   6.971  0.2464  0.5355 -0.2988
 3154SOL    HW120924   3.901   1.283   7.052 -2.0382  2.4410 -2.1704
 3154SOL    HW220925   4.006   1.310   6.946  1.3603 -0.2988  0.6864
 3155SOL     OW20926   3.599   2.588  17.442 -0.0623  0.5045  0.3719
 3155SOL    HW120927   3.692   2.577  17.460 -0.0705 -1.2216 -0.6148
 3155SOL    HW220928   3.574   2.646  17.514 -0.4322  2.3922 -1.2811
 3156SOL     OW20929   0.112   2.681   8.716  0.0941 -0.4339 -0.2334
 3156SOL    HW120930   0.065   2.707   8.795 -1.1564  0.0857 -1.1514
 3156SOL    HW220931   0.031   2.656   8.672  0.8318 -0.1753 -1.7393
 3157SOL     OW20932   1.744   2.764  10.717  0.6873 -0.5241  0.5189
 3157SOL    HW120933   1.749   2.856  10.741 -2.9089 -0.9796  2.9088
 3157SOL    HW220934   1.667   2.769  10.660  0.8593 -2.0641  0.1561
 3158SOL     OW20935   4.139   3.898   8.615  0.4916 -0.6366 -0.3063
 3158SOL    HW120936   4.049   3.884   8.646 -1.0934 -0.5661 -4.8595
 3158SOL    HW220937   4.199   3.910   8.688 -1.7243 -1.3830  1.6426
 3159SOL     OW20938   1.323   4.366   2.537  0.0922  0.3590  0.1435
 3159SOL    HW120939   1.322   4.407   2.623 -3.1989  2.6067 -0.9570
 3159SOL    HW220940   1.237   4.382   2.499  0.4043 -0.4677 -0.9283
 3160SOL     OW20941   1.050   2.547   6.400  0.7322  0.5153 -0.5520
 3160SOL    HW120942   0.986   2.606   6.440  1.7311  1.0030  0.3475
 3160SOL    HW220943   1.049   2.478   6.466  0.4237 -0.9720 -2.1381
 3161SOL     OW20944   2.960   0.453   4.463  0.1947  0.4200 -0.4577
 3161SOL    HW120945   3.045   0.492   4.481 -0.6100  1.4584  1.1391
 3161SOL    HW220946   2.924   0.473   4.549 -1.8774 -1.2593 -0.9446
 3162SOL     OW20947   3.802   2.152  14.539 -0.7711  0.2663 -0.6430
 3162SOL    HW120948   3.880   2.194  14.502  0.7834 -2.1636 -0.1356
 3162SOL    HW220949   3.789   2.203  14.619 -1.2410  0.8493 -1.0920
 3163SOL     OW20950   3.267   0.901   5.960  0.4105  0.6310 -0.1361
 3163SOL    HW120951   3.287   0.866   5.873  1.1954 -0.8782  0.6523
 3163SOL    HW220952   3.253   0.817   6.004  1.2790  0.7607  0.3743
 3164SOL     OW20953   2.429   3.837   8.201 -0.5333 -0.2159 -0.3136
 3164SOL    HW120954   2.338   3.811   8.185 -0.4215 -0.6924 -0.2030
 3164SOL    HW220955   2.420   3.903   8.269  3.0958  0.7919 -0.8425
 3165SOL     OW20956   2.776   1.660   4.070 -0.2730  0.6942 -0.2628
 3165SOL    HW120957   2.820   1.636   4.151 -1.4178  2.8459  1.0037
 3165SOL    HW220958   2.684   1.646   4.094 -0.2610  1.0838  0.0244
 3166SOL     OW20959   3.751   0.966   3.746  1.0656  1.1251 -0.2635
 3166SOL    HW120960   3.844   0.958   3.726  1.5122  2.3534  1.3896
 3166SOL    HW220961   3.736   0.896   3.809 -0.9417  2.2198  0.4625
 3167SOL     OW20962   2.588   3.239   9.677 -0.0660  0.2934 -0.1453
 3167SOL    HW120963   2.666   3.245   9.732 -0.7269 -0.5356  0.8944
 3167SOL    HW220964   2.620   3.186   9.604  2.3520  0.0492  1.0791
 3168SOL     OW20965   3.504   1.981  17.105 -1.0783 -0.2252 -0.4658
 3168SOL    HW120966   3.562   1.907  17.124  0.5520  0.9846 -0.7593
 3168SOL    HW220967   3.478   2.013  17.191  0.8777  0.4113 -0.1132
 3169SOL     OW20968   3.108   2.536   4.088 -0.8732 -0.2459 -0.1983
 3169SOL    HW120969   3.159   2.455   4.093 -0.5654  0.0219  0.8924
 3169SOL    HW220970   3.033   2.505   4.138 -0.9203 -0.1578 -0.2163
 3170SOL     OW20971   0.048   3.699  13.672 -0.2060  0.1501 -0.3634
 3170SOL    HW120972   0.068   3.687  13.764  1.4802  0.0318 -0.7392
 3170SOL    HW220973   0.045   3.794  13.658  1.1165  0.3859  0.9875
 3171SOL     OW20974   2.011   2.015   6.874 -0.3893 -0.1156  0.5943
 3171SOL    HW120975   2.060   1.978   6.948  0.6673  2.1066  0.9892
 3171SOL    HW220976   1.991   2.104   6.901 -3.0507 -0.1720 -1.1698
 3172SOL     OW20977   4.463   2.392   7.203  0.0733  0.1457 -0.5214
 3172SOL    HW120978   4.384   2.434   7.238 -0.5805 -0.2901 -1.4567
 3172SOL    HW220979   4.530   2.457   7.224  0.2117 -0.5904  1.3839
 3173SOL     OW20980   1.730   1.700   1.946  0.1706 -0.2875 -0.0988
 3173SOL    HW120981   1.705   1.608   1.941  0.3561 -0.5955  4.9528
 3173SOL    HW220982   1.772   1.703   2.032  0.9393  0.6172 -0.4986
 3174SOL     OW20983   2.212   1.976   4.209 -0.9398  0.2824 -0.2211
 3174SOL    HW120984   2.178   1.977   4.120  0.5580  0.0506 -0.8100
 3174SOL    HW220985   2.301   2.007   4.190 -1.0287  0.2556 -0.6684
 3175SOL     OW20986   1.943   3.230   6.930 -0.2089  1.0593 -0.0217
 3175SOL    HW120987   1.906   3.175   6.999 -0.0969  0.3935 -0.4866
 3175SOL    HW220988   2.033   3.236   6.962 -1.0135  0.7856  2.3024
 3176SOL     OW20989   2.228   2.986   1.082 -0.2472  0.1082  0.6488
 3176SOL    HW120990   2.234   3.061   1.141  0.7985 -0.9661  1.9300
 3176SOL    HW220991   2.175   3.018   1.009  1.4329  0.4392 -0.4311
 3177SOL     OW20992   0.533   1.830   2.305  0.0780 -0.1832  0.6358
 3177SOL    HW120993   0.495   1.905   2.258 -0.7848 -2.0565 -1.6380
 3177SOL    HW220994   0.460   1.773   2.329  1.0261 -2.2480 -1.3089
 3178SOL     OW20995   3.403   0.106   6.949  0.0495  0.1414 -0.6401
 3178SOL    HW120996   3.342   0.130   7.018  1.1866  0.6958  0.1695
 3178SOL    HW220997   3.366   0.145   6.870 -0.2654  3.0254  0.9410
 3179SOL     OW20998   0.728   1.222   1.796  0.7777 -0.6948 -0.5656
 3179SOL    HW120999   0.748   1.305   1.752 -1.5530  1.1606  1.9204
 3179SOL    HW221000   0.693   1.167   1.726 -0.1913 -2.6842  1.5110
 3180SOL     OW21001   1.667   3.870   1.492  0.1883 -0.0716 -0.1653
 3180SOL    HW121002   1.736   3.931   1.468 -0.3851  0.0895 -1.3630
 3180SOL    HW221003   1.595   3.897   1.435 -0.1696 -0.5628  0.0601
 3181SOL     OW21004   2.662   0.332  10.733 -0.0911 -0.2080 -0.4576
 3181SOL    HW121005   2.636   0.405  10.789  1.0824  1.8045 -2.5700
 3181SOL    HW221006   2.588   0.272  10.732 -1.2065  1.1503  0.3299
 3182SOL     OW21007   1.813   0.354   8.350  0.4806  0.2076  0.1906
 3182SOL    HW121008   1.841   0.264   8.335  0.9485  0.5713 -1.0684
 3182SOL    HW221009   1.890   0.392   8.395 -0.3761 -0.3528  2.1472
 3183SOL     OW21010   1.027   4.305   3.381 -0.1838  0.1819 -0.4657
 3183SOL    HW121011   0.981   4.272   3.458 -1.9485 -0.2343 -1.7014
 3183SOL    HW221012   1.115   4.267   3.391 -0.7185 -1.0658 -0.4698
 3184SOL     OW21013   3.876   2.135   5.747 -0.3637  0.7729  0.0981
 3184SOL    HW121014   3.824   2.213   5.726 -0.6283  0.5600 -0.0294
 3184SOL    HW221015   3.871   2.134   5.843 -1.1538  1.5478  0.0640
 3185SOL     OW21016   1.002   0.149  13.363 -0.8405 -0.0086  0.1435
 3185SOL    HW121017   1.018   0.163  13.270 -0.7105  0.2846  0.2130
 3185SOL    HW221018   1.085   0.123  13.402  0.4079  1.2413 -1.6629
 3186SOL     OW21019   0.513   3.487   4.707  0.1184 -0.0442 -0.3910
 3186SOL    HW121020   0.553   3.402   4.688  0.8427  0.5030 -1.3090
 3186SOL    HW221021   0.569   3.543   4.653  0.0817 -0.2411 -0.6335
 3187SOL     OW21022   1.114   2.429   4.824 -0.3479  0.4037  0.4199
 3187SOL    HW121023   1.116   2.484   4.745 -2.2966 -2.2356 -1.4597
 3187SOL    HW221024   1.199   2.385   4.817 -0.1357  0.9147 -0.2681
 3188SOL     OW21025   3.156   0.615   7.800  0.4613  0.5355 -0.1715
 3188SOL    HW121026   3.216   0.548   7.768  2.9480  1.6698  2.0644
 3188SOL    HW221027   3.202   0.693   7.767  2.1873  0.2201  1.5066
 3189SOL     OW21028   3.382   4.443  15.928 -0.0125  0.6045  0.4290
 3189SOL    HW121029   3.363   4.448  16.021 -1.0238 -1.7609  0.3710
 3189SOL    HW221030   3.334   4.361  15.912  0.0796  0.8514 -1.1687
 3190SOL     OW21031   0.618   0.201   5.782 -0.3855  0.0716 -0.1370
 3190SOL    HW121032   0.523   0.215   5.781 -0.3799  0.2796  1.9822
 3190SOL    HW221033   0.637   0.112   5.752 -2.6723 -0.2286 -0.6782
 3191SOL     OW21034   0.826   4.317  13.990 -0.4795 -0.5402 -0.1757
 3191SOL    HW121035   0.913   4.301  13.954 -0.1284 -1.3183  1.0227
 3191SOL    HW221036   0.783   4.352  13.912  0.0138  1.4597  0.4557
 3192SOL     OW21037   1.901   0.378  13.908  0.1850 -0.0610 -0.0368
 3192SOL    HW121038   1.877   0.343  13.822 -0.9688  1.3622 -0.3019
 3192SOL    HW221039   1.885   0.305  13.968  2.2186  0.6651  1.3403
 3193SOL     OW21040   0.456   1.710   1.214  0.0971 -0.5144 -0.2300
 3193SOL    HW121041   0.548   1.699   1.190  0.1073  0.5651 -0.7295
 3193SOL    HW221042   0.430   1.624   1.182 -0.3378 -0.5289  0.1761
 3194SOL     OW21043   3.448   0.526   6.501  0.2446  0.0299  0.0587
 3194SOL    HW121044   3.523   0.524   6.560  0.7391  0.8335 -0.5378
 3194SOL    HW221045   3.502   0.548   6.425  1.0480 -2.2033 -0.0099
 3195SOL     OW21046   1.627   0.018   3.399  0.3876  0.2328  0.3503
 3195SOL    HW121047   1.534   0.020   3.422  0.1615 -1.5024 -0.4516
 3195SOL    HW221048   1.617   4.681   3.327 -3.1319  0.4097  0.6855
 3196SOL     OW21049   4.278   3.000  14.765 -0.0138  0.3410  0.1797
 3196SOL    HW121050   4.256   2.914  14.729 -0.9320  1.4484 -1.9435
 3196SOL    HW221051   4.213   3.014  14.835  0.1709 -2.2052  0.8509
 3197SOL     OW21052   1.440   2.442   6.527 -0.3532 -0.3575  0.5541
 3197SOL    HW121053   1.493   2.419   6.451  0.4616  2.2407  0.3451
 3197SOL    HW221054   1.372   2.374   6.524 -0.2181 -0.5429  1.5394
 3198SOL     OW21055   0.321   3.166  16.867  0.0307 -0.6899 -0.0894
 3198SOL    HW121056   0.251   3.154  16.803 -1.9190  2.7707  1.3699
 3198SOL    HW221057   0.284   3.214  16.941  1.3027 -0.3090  0.2917
 3199SOL     OW21058   3.230   2.220  10.259  0.3235  0.1937  0.6742
 3199SOL    HW121059   3.272   2.245  10.176 -1.3851  0.9455  0.0323
 3199SOL    HW221060   3.199   2.129  10.252 -2.0903  1.0325  0.2591
 3200SOL     OW21061   4.350   3.706   4.869 -0.2124 -0.1092  0.8569
 3200SOL    HW121062   4.416   3.640   4.891  1.2745  0.3382 -2.1955
 3200SOL    HW221063   4.405   3.779   4.841  1.2136 -1.5847 -0.1729
 3201SOL     OW21064   0.321   2.837   7.235 -0.5923 -1.1128  0.5935
 3201SOL    HW121065   0.240   2.877   7.267  0.3710  0.0526  1.5662
 3201SOL    HW221066   0.385   2.902   7.263  0.1161 -1.5953  0.0823
 3202SOL     OW21067   4.387   2.548   7.533  0.5091  0.1580 -0.3831
 3202SOL    HW121068   4.450   2.555   7.462  2.0051 -1.6915  0.7770
 3202SOL    HW221069   4.324   2.616   7.506 -0.7099 -1.2430 -1.0496
 3203SOL     OW21070   0.882   4.100  11.840  0.0076  0.6284 -0.0583
 3203SOL    HW121071   0.851   4.189  11.851  0.1964  0.4959  1.5388
 3203SOL    HW221072   0.977   4.115  11.841 -0.1021  1.3123 -0.3441
 3204SOL     OW21073   4.453   0.033  16.931 -0.3568 -0.0897 -1.1624
 3204SOL    HW121074   4.522   0.083  16.975 -1.6503  1.2903 -0.7404
 3204SOL    HW221075   4.401   0.104  16.895  2.3623  1.4126 -2.1866
 3205SOL     OW21076   2.667   0.179  11.296 -0.0056  0.2952  0.2153
 3205SOL    HW121077   2.710   0.223  11.222 -0.0124 -1.3177 -0.7394
 3205SOL    HW221078   2.731   0.158  11.364 -0.8422 -0.2442  0.8362
 3206SOL     OW21079   4.138   2.078   8.232 -0.2636 -0.8148  0.7347
 3206SOL    HW121080   4.187   2.046   8.308 -0.5637  2.8312  2.4423
 3206SOL    HW221081   4.075   2.007   8.219  0.6223 -1.7210  1.3325
 3207SOL     OW21082   0.161   0.496   6.684 -0.1121  0.3237  0.0944
 3207SOL    HW121083   0.204   0.563   6.630 -1.1175  1.2522  0.4487
 3207SOL    HW221084   0.136   0.442   6.609 -1.8167  1.2821 -0.0176
 3208SOL     OW21085   0.312   4.527   3.227  0.5811 -0.0144  0.2712
 3208SOL    HW121086   0.323   4.590   3.156  0.3546 -1.3488 -0.9591
 3208SOL    HW221087   0.375   4.458   3.203  0.2712  0.3515 -1.5643
 3209SOL     OW21088   1.512   3.750   2.476  0.4958  0.5196  0.4988
 3209SOL    HW121089   1.528   3.701   2.557 -2.1926  0.6266  1.1229
 3209SOL    HW221090   1.426   3.781   2.505 -0.8986  0.0329 -3.1651
 3210SOL     OW21091   0.493   0.017   4.039  0.7096  0.0038 -0.0934
 3210SOL    HW121092   0.546   4.708   4.111  3.7297  1.0573 -1.8254
 3210SOL    HW221093   0.417   0.060   4.078  0.3442 -1.3923  0.7322
 3211SOL     OW21094   2.507   3.837  17.003 -0.2640 -0.1447  0.1565
 3211SOL    HW121095   2.443   3.775  17.038 -0.0408 -0.4404  0.0382
 3211SOL    HW221096   2.588   3.788  16.988  0.8992  1.9605 -0.4421
 3212SOL     OW21097   2.677   2.299   1.392  0.1587  0.6216 -0.4451
 3212SOL    HW121098   2.606   2.325   1.332 -0.7032 -0.1561  0.2376
 3212SOL    HW221099   2.669   2.370   1.456 -0.1617  1.4768 -1.4272
 3213SOL     OW21100   4.626   1.582   5.944  0.2591  0.0454 -0.0290
 3213SOL    HW121101   4.670   1.569   5.860  0.8519 -3.2601  0.8133
 3213SOL    HW221102   4.536   1.589   5.914  0.3092 -0.0383 -0.1961
 3214SOL     OW21103   2.509   2.029   2.421  0.0770  1.0124 -0.0183
 3214SOL    HW121104   2.519   2.110   2.470  0.1501 -0.4251  2.3489
 3214SOL    HW221105   2.468   2.064   2.342  1.8649  1.3062 -0.8275
 3215SOL     OW21106   0.615   1.489  16.634 -0.6522  0.9326  0.3500
 3215SOL    HW121107   0.555   1.419  16.608  1.6961 -1.0782  0.3309
 3215SOL    HW221108   0.663   1.499  16.552 -2.1624 -0.5449 -0.6950
 3216SOL     OW21109   1.711   2.663   5.590  0.6961  0.4528  0.6463
 3216SOL    HW121110   1.688   2.671   5.682  0.7395  1.8033  0.5356
 3216SOL    HW221111   1.803   2.634   5.587  0.2751 -0.6444 -1.7092
 3217SOL     OW21112   3.012   3.563  17.124 -0.5744  0.4011 -0.2961
 3217SOL    HW121113   2.942   3.502  17.102  0.3137 -0.3574 -1.0282
 3217SOL    HW221114   3.054   3.510  17.192  1.4484  2.2393 -0.0865
 3218SOL     OW21115   2.901   0.535  10.043  0.0904 -0.2397 -0.0167
 3218SOL    HW121116   2.892   0.497  10.130 -0.2116  3.5877  1.6136
 3218SOL    HW221117   2.896   0.630  10.056 -0.7578  0.0148 -2.0811
 3219SOL     OW21118   3.239   2.285   7.155  0.0713  0.0228 -0.0799
 3219SOL    HW121119   3.308   2.266   7.092  0.0870 -0.2490  0.0235
 3219SOL    HW221120   3.179   2.219   7.122 -0.3877 -0.5355  1.8841
 3220SOL     OW21121   0.200   3.624   1.296  0.3734 -0.5325  0.2409
 3220SOL    HW121122   0.199   3.545   1.241  3.3135 -0.1804 -0.3073
 3220SOL    HW221123   0.252   3.594   1.370  2.0835 -0.3767 -0.9191
 3221SOL     OW21124   3.768   0.880   6.267 -0.2882 -0.1718  0.0621
 3221SOL    HW121125   3.853   0.916   6.293 -0.4315 -1.5243  2.4856
 3221SOL    HW221126   3.728   0.880   6.354 -0.6268  1.1281 -0.1007
 3222SOL     OW21127   3.551   1.774  13.683  0.2191  0.5646  0.3358
 3222SOL    HW121128   3.492   1.848  13.666 -1.5828 -0.2678  2.8415
 3222SOL    HW221129   3.605   1.771  13.604 -0.6186 -0.0219 -0.2128
 3223SOL     OW21130   1.300   3.422   3.311  0.3639 -0.4696  0.0004
 3223SOL    HW121131   1.332   3.340   3.272  0.6376  0.1284 -1.0284
 3223SOL    HW221132   1.207   3.400   3.310  0.3893 -0.5663 -0.2687
 3224SOL     OW21133   2.552   4.056  16.629  0.2597 -0.1078  0.8964
 3224SOL    HW121134   2.641   4.090  16.622 -0.9054  2.5908 -0.9843
 3224SOL    HW221135   2.491   4.115  16.584  1.0481 -0.3023 -0.4226
 3225SOL     OW21136   4.724   0.714  11.699  0.1468 -0.2986  0.1018
 3225SOL    HW121137   0.028   0.675  11.617  0.4940 -3.0731  1.5417
 3225SOL    HW221138   4.680   0.794  11.672 -0.6471 -1.0132 -0.7488
 3226SOL     OW21139   4.300   4.415   4.975  0.4610  0.2285 -0.3630
 3226SOL    HW121140   4.381   4.387   5.018 -0.5088 -1.8828  0.0935
 3226SOL    HW221141   4.299   4.375   4.888  0.1066  0.8868 -0.6554
 3227SOL     OW21142   2.403   1.689   5.992 -0.2758  0.2274  0.0841
 3227SOL    HW121143   2.452   1.740   5.928 -0.7969  1.0802  0.3803
 3227SOL    HW221144   2.359   1.620   5.942  0.9465 -0.4205 -0.1039
 3228SOL     OW21145   1.120   1.583   6.379  0.1493 -0.2664 -0.3368
 3228SOL    HW121146   1.056   1.570   6.309 -0.5119  1.5373 -0.0586
 3228SOL    HW221147   1.068   1.574   6.459  1.6700  1.8162  0.9011
 3229SOL     OW21148   3.168   2.237   4.974 -0.1708 -0.4779  0.2240
 3229SOL    HW121149   3.173   2.145   4.951 -0.5892 -0.4086 -0.1500
 3229SOL    HW221150   3.244   2.244   5.032  2.2252 -1.0550 -2.8365
 3230SOL     OW21151   4.527   3.054   3.184  0.1351 -0.1296  0.3164
 3230SOL    HW121152   4.607   3.040   3.133  0.5435  2.2561  0.2711
 3230SOL    HW221153   4.548   2.999   3.259 -0.7776  0.5218  1.0499
 3231SOL     OW21154   3.783   2.120   5.374  0.0520  0.1790 -0.4157
 3231SOL    HW121155   3.695   2.143   5.404  0.4759  0.2777  0.7268
 3231SOL    HW221156   3.766   2.076   5.290  2.4007 -0.9224 -0.3075
 3232SOL     OW21157   3.471   3.794   7.726  0.3188  0.6404 -0.4339
 3232SOL    HW121158   3.423   3.780   7.808  1.8140 -1.9689 -0.0081
 3232SOL    HW221159   3.558   3.766   7.755  1.1509  0.2908 -3.2914
 3233SOL     OW21160   3.133   1.851  12.771 -0.1108  0.0645 -0.2898
 3233SOL    HW121161   3.167   1.816  12.689  2.3277  1.2128  0.2189
 3233SOL    HW221162   3.050   1.888  12.740  0.2416  0.3898 -0.8493
 3234SOL     OW21163   0.931   3.101   2.022  0.0086 -0.6450  0.3682
 3234SOL    HW121164   0.999   3.157   2.058 -1.4086  0.8843  0.6564
 3234SOL    HW221165   0.886   3.164   1.966  0.4418 -1.4964 -0.9583
 3235SOL     OW21166   0.939   1.257  10.774 -0.3609 -0.3890  0.1633
 3235SOL    HW121167   0.942   1.341  10.730  0.1164  0.9230  2.7277
 3235SOL    HW221168   1.000   1.204  10.722  0.0473 -2.5503  2.8350
 3236SOL     OW21169   3.882   1.455   5.826  0.0351 -0.1612 -0.3184
 3236SOL    HW121170   3.836   1.523   5.777  0.2795 -0.2373 -0.6613
 3236SOL    HW221171   3.811   1.414   5.876 -0.4446  1.0315 -0.0382
 3237SOL     OW21172   4.623   3.176   3.659 -0.2721  0.8344 -0.2978
 3237SOL    HW121173   4.579   3.111   3.713  0.3135  1.0836  0.4786
 3237SOL    HW221174   4.686   3.123   3.610 -3.0109 -0.8982 -1.9441
 3238SOL     OW21175   2.731   4.262   6.424 -0.6064  0.3184  0.2530
 3238SOL    HW121176   2.697   4.211   6.351 -0.7030  2.8073 -1.4296
 3238SOL    HW221177   2.727   4.350   6.386 -0.7501  1.0262  1.8613
 3239SOL     OW21178   4.472   0.207   8.385  0.3383  0.2042 -0.7100
 3239SOL    HW121179   4.523   0.126   8.381 -1.4216 -0.9089 -0.5806
 3239SOL    HW221180   4.484   0.247   8.299 -0.2726  1.5821 -0.1634
 3240SOL     OW21181   0.826   1.948   6.992 -0.1245  0.4312  0.4073
 3240SOL    HW121182   0.901   2.001   7.018 -0.6815  1.4306 -0.0182
 3240SOL    HW221183   0.844   1.935   6.899 -0.8187 -1.1715  0.4856
 3241SOL     OW21184   0.682   3.970   7.949  0.2708  0.1525  0.2056
 3241SOL    HW121185   0.767   4.011   7.932  0.4806 -0.2924  0.1972
 3241SOL    HW221186   0.688   3.937   8.039  0.5697 -0.6710 -0.1163
 3242SOL     OW21187   0.674   0.887   4.530  0.1277  0.4401 -0.3990
 3242SOL    HW121188   0.631   0.858   4.449  1.3097 -0.8977 -0.5467
 3242SOL    HW221189   0.733   0.814   4.545  0.6861  0.9300 -0.2380
 3243SOL     OW21190   0.984   0.537  14.369 -0.5507  0.1190  0.5490
 3243SOL    HW121191   1.072   0.561  14.338 -1.8433  3.0763 -0.8585
 3243SOL    HW221192   0.988   0.487  14.450 -0.0004 -1.1880 -0.2946
 3244SOL     OW21193   1.729   1.219   0.666  0.0795 -0.0864  0.1503
 3244SOL    HW121194   1.749   1.286   0.600 -0.5175 -0.0554  0.0025
 3244SOL    HW221195   1.658   1.170   0.623 -2.0200  0.4019  3.0929
 3245SOL     OW21196   1.747   1.375   3.796 -0.0578 -0.0418  0.3424
 3245SOL    HW121197   1.784   1.304   3.847 -0.5976  0.4951  1.4800
 3245SOL    HW221198   1.696   1.329   3.729  0.5913  0.8597 -0.7824
 3246SOL     OW21199   4.361   1.585   5.932 -0.0738 -0.0122 -0.1479
 3246SOL    HW121200   4.372   1.514   5.995 -0.9564  0.8368  0.9687
 3246SOL    HW221201   4.266   1.590   5.936  0.0341  0.6332  1.6052
 3247SOL     OW21202   1.029   1.326   5.755 -0.2128  0.3780  0.1880
 3247SOL    HW121203   1.019   1.258   5.822  2.5577  0.7318  0.9900
 3247SOL    HW221204   0.960   1.303   5.694  0.7404  1.2795 -1.2251
 3248SOL     OW21205   0.216   2.542   4.751  0.1191  0.3127  0.0658
 3248SOL    HW121206   0.211   2.481   4.824  1.9724 -1.4798 -1.3181
 3248SOL    HW221207   0.122   2.558   4.745  0.4763  1.6464 -2.0805
 3249SOL     OW21208   2.638   2.543   5.448  0.1719 -0.2580 -0.0164
 3249SOL    HW121209   2.653   2.627   5.491 -0.1394 -0.6277  0.8239
 3249SOL    HW221210   2.701   2.550   5.377  1.3157  2.8905  1.3032
 3250SOL     OW21211   3.573   3.280   8.478  0.1818  0.1584  0.0856
 3250SOL    HW121212   3.514   3.339   8.430 -0.1310 -1.2964 -1.3095
 3250SOL    HW221213   3.531   3.295   8.563  0.3130 -0.4984  0.2655
 3251SOL     OW21214   2.711   1.339  15.352  0.3634  0.0138  0.4232
 3251SOL    HW121215   2.689   1.406  15.416  1.3006 -2.4712  3.3848
 3251SOL    HW221216   2.805   1.324  15.364  0.7094  0.2203 -2.0600
 3252SOL     OW21217   3.691   3.186   5.541  0.2175 -0.1909  0.6999
 3252SOL    HW121218   3.785   3.171   5.552  0.5224  0.8221 -0.5312
 3252SOL    HW221219   3.676   3.135   5.462  2.4181 -0.5045  0.4858
 3253SOL     OW21220   0.693   1.957   5.724  0.2307  0.5964  0.0591
 3253SOL    HW121221   0.690   2.053   5.724  3.0888  0.6960 -0.9922
 3253SOL    HW221222   0.753   1.947   5.798 -2.0313  0.9012  1.9394
 3254SOL     OW21223   3.459   0.216   6.427 -0.1855  0.2514 -0.0478
 3254SOL    HW121224   3.390   0.151   6.411  0.3549  0.0077 -1.3997
 3254SOL    HW221225   3.411   0.285   6.382  1.2497  0.8978 -0.5777
 3255SOL     OW21226   1.276   0.309   6.428 -0.6975 -0.2655  0.0952
 3255SOL    HW121227   1.223   0.268   6.360 -2.3134  2.6472 -0.4231
 3255SOL    HW221228   1.247   0.256   6.501 -1.9951 -0.3895 -0.5168
 3256SOL     OW21229   2.184   4.298   7.234  0.4016  0.1618 -0.4293
 3256SOL    HW121230   2.279   4.312   7.243  0.6066 -1.5613  0.0551
 3256SOL    HW221231   2.163   4.379   7.187 -1.8696 -0.0291  0.2718
 3257SOL     OW21232   1.925   0.548   4.515 -0.0062 -0.4221  0.2698
 3257SOL    HW121233   1.859   0.536   4.447  0.7194 -1.8624 -0.1746
 3257SOL    HW221234   1.865   0.587   4.579  2.7467  0.4943  2.3286
 3258SOL     OW21235   0.698   1.638   4.829  0.3532 -0.7188  1.2430
 3258SOL    HW121236   0.709   1.549   4.862  1.1734 -0.1938  2.3572
 3258SOL    HW221237   0.606   1.656   4.808  0.8885  2.1175  1.3656
 3259SOL     OW21238   4.543   0.170   9.346  0.0714  0.5416 -0.4796
 3259SOL    HW121239   4.453   0.166   9.377 -0.1466  0.0576 -1.1635
 3259SOL    HW221240   4.575   0.256   9.372  2.1154 -0.2188 -0.4109
 3260SOL     OW21241   2.310   1.574   4.413 -0.4472  0.3800 -0.6284
 3260SOL    HW121242   2.375   1.566   4.482  0.3127 -0.1308 -1.4017
 3260SOL    HW221243   2.263   1.493   4.433  0.8875 -1.1041 -3.3589
 3261SOL     OW21244   2.682   2.089   4.979  0.1511 -0.0474  0.2525
 3261SOL    HW121245   2.647   2.178   4.974 -1.0797 -0.4793  1.0360
 3261SOL    HW221246   2.611   2.045   5.026  0.3061 -1.7933 -1.1655
 3262SOL     OW21247   0.792   3.303   1.905 -0.3245  0.2463  0.0861
 3262SOL    HW121248   0.749   3.315   1.821 -0.8800 -1.8148  0.0738
 3262SOL    HW221249   0.753   3.368   1.964  1.5335  1.5857 -0.1537
 3263SOL     OW21250   4.352   4.259   6.257  0.4911 -0.1016  0.1321
 3263SOL    HW121251   4.413   4.246   6.184 -0.3886  1.5720 -0.8983
 3263SOL    HW221252   4.272   4.271   6.205  0.8596  2.4632  0.1953
 3264SOL     OW21253   1.230   1.879  10.885 -0.2659 -0.0454  0.0748
 3264SOL    HW121254   1.299   1.886  10.951 -1.4016 -0.0954  1.2723
 3264SOL    HW221255   1.214   1.967  10.852  0.9841  0.5191  1.0149
 3265SOL     OW21256   3.577   2.014   3.966 -0.3164  0.3569 -0.3070
 3265SOL    HW121257   3.639   1.942   3.956 -1.2631 -0.3760 -0.9372
 3265SOL    HW221258   3.629   2.094   3.971 -0.3224  0.2374  1.6383
 3266SOL     OW21259   2.654   4.603  15.758 -0.5520  0.2585 -0.2073
 3266SOL    HW121260   2.565   4.634  15.772 -1.0332  0.3144 -3.4385
 3266SOL    HW221261   2.666   4.639  15.670 -0.5305  1.5645  0.3321
 3267SOL     OW21262   3.149   4.584   4.362  0.0485 -0.4064  0.2878
 3267SOL    HW121263   3.098   4.613   4.438 -1.2884 -0.2953 -0.6479
 3267SOL    HW221264   3.136   4.663   4.309  0.5008 -0.9173 -0.5913
 3268SOL     OW21265   3.743   0.729   0.392  0.6275  0.4615 -0.0420
 3268SOL    HW121266   3.830   0.760   0.368  0.5890 -0.3653 -1.2591
 3268SOL    HW221267   3.688   0.796   0.352 -0.2213 -0.3243 -0.1845
 3269SOL     OW21268   2.265   2.874  14.312 -0.1417 -0.4704 -0.0710
 3269SOL    HW121269   2.300   2.963  14.309 -0.1396 -0.4382  0.9849
 3269SOL    HW221270   2.344   2.821  14.324 -1.2231 -2.6258 -2.4591
 3270SOL     OW21271   1.187   2.387   2.087  0.3429 -0.4657  0.1481
 3270SOL    HW121272   1.118   2.433   2.039  0.6290 -0.5419 -0.3394
 3270SOL    HW221273   1.138   2.350   2.160  0.2967  1.2566  0.9959
 3271SOL     OW21274   1.418   2.810   8.765 -0.1502  0.2241  0.8355
 3271SOL    HW121275   1.349   2.768   8.815  1.2500 -0.5901  2.0814
 3271SOL    HW221276   1.382   2.801   8.677 -2.3903 -4.0004  2.2212
 3272SOL     OW21277   0.590   1.754   5.123 -0.3669  0.0438  0.1954
 3272SOL    HW121278   0.542   1.826   5.165  0.0923  0.8591 -0.6676
 3272SOL    HW221279   0.563   1.764   5.032 -0.4569  0.5576  0.2768
 3273SOL     OW21280   4.701   0.330   4.190 -0.4018  0.0041  0.1692
 3273SOL    HW121281   4.674   0.272   4.261  2.8402 -2.1148 -0.3129
 3273SOL    HW221282   0.043   0.383   4.234 -0.1921 -0.4067  0.3429
 3274SOL     OW21283   2.767   2.455   6.624  0.5722 -0.4119 -0.0910
 3274SOL    HW121284   2.826   2.429   6.553  0.8240  2.9830 -1.1292
 3274SOL    HW221285   2.829   2.464   6.696  0.8468  0.7121 -0.4704
 3275SOL     OW21286   1.663   1.866   6.963  0.1701 -0.0365 -0.4882
 3275SOL    HW121287   1.754   1.837   6.973  0.0514 -0.6288 -1.1130
 3275SOL    HW221288   1.683   1.955   6.935  2.0386 -0.5576 -0.8117
 3276SOL     OW21289   3.869   3.925   8.686  0.3033 -0.0129  0.3226
 3276SOL    HW121290   3.848   3.887   8.600 -0.9508  0.3778  0.4662
 3276SOL    HW221291   3.815   3.868   8.740 -3.0410  1.4500 -1.4743
 3277SOL     OW21292   1.653   2.838  14.479  0.0544  0.3163 -0.8940
 3277SOL    HW121293   1.697   2.839  14.565 -0.8595 -0.8205 -0.4096
 3277SOL    HW221294   1.582   2.777  14.499  0.0518  1.6018  3.1318
 3278SOL     OW21295   2.919   4.053  16.374  0.3887  0.6583 -0.0950
 3278SOL    HW121296   2.856   3.988  16.342  1.6244 -1.6447  2.1668
 3278SOL    HW221297   2.914   4.043  16.469 -1.2998  0.8693 -0.1616
 3279SOL     OW21298   3.617   3.229   6.873  0.3624 -0.0481 -0.1704
 3279SOL    HW121299   3.672   3.153   6.893  1.3544  0.0691 -2.4525
 3279SOL    HW221300   3.677   3.260   6.806 -1.4597 -0.0360 -1.8081
 3280SOL     OW21301   2.645   4.403  17.121  0.3947 -0.0532  0.3576
 3280SOL    HW121302   2.615   4.315  17.098 -2.0579  1.1178 -0.8897
 3280SOL    HW221303   2.592   4.410  17.201  1.7520  0.6015  1.2030
 3281SOL     OW21304   2.808   3.472   8.241  0.2678 -0.0181 -0.3647
 3281SOL    HW121305   2.823   3.560   8.275 -1.1272  0.8577 -1.9888
 3281SOL    HW221306   2.825   3.428   8.324  2.2530  2.2622  0.4238
 3282SOL     OW21307   2.466   1.497  15.002 -0.5357 -0.2342  0.2988
 3282SOL    HW121308   2.447   1.419  14.950 -0.3478  1.2409 -1.9963
 3282SOL    HW221309   2.555   1.521  14.975  1.1545 -4.1567  2.4243
 3283SOL     OW21310   2.461   0.589   4.686 -0.7414 -0.1959 -0.2535
 3283SOL    HW121311   2.423   0.559   4.604  0.0236 -1.2274 -0.2373
 3283SOL    HW221312   2.495   0.676   4.663  0.8877 -0.7413  0.0397
 3284SOL     OW21313   4.587   1.067   2.894  0.0686  0.1025  0.0926
 3284SOL    HW121314   4.573   1.152   2.937 -1.3879 -0.8967  1.6261
 3284SOL    HW221315   4.514   1.058   2.833  0.4069 -0.1544 -0.2744
 3285SOL     OW21316   2.276   2.034   6.403  0.4789  0.0115 -0.6270
 3285SOL    HW121317   2.323   2.114   6.427 -1.1138  0.0550  2.3379
 3285SOL    HW221318   2.189   2.058   6.436 -1.2754 -2.0967 -3.6392
 3286SOL     OW21319   1.673   1.662   3.064 -0.5771  0.3116 -0.5097
 3286SOL    HW121320   1.661   1.753   3.037  1.0824  1.3269  2.2634
 3286SOL    HW221321   1.708   1.620   2.985 -0.6124 -2.8730  1.1518
 3287SOL     OW21322   2.749   3.891  14.336  0.2548  0.1069  0.0128
 3287SOL    HW121323   2.723   3.921  14.249  0.1484  0.5623  0.1995
 3287SOL    HW221324   2.771   3.798  14.331 -3.7147 -0.8675  0.7284
 3288SOL     OW21325   4.718   0.932  12.861 -0.0274 -0.6316 -0.3325
 3288SOL    HW121326   4.676   1.001  12.912  1.0067 -0.4105  0.2167
 3288SOL    HW221327   0.016   0.862  12.922  1.4656  0.2765  0.1774
 3289SOL     OW21328   1.304   4.358  15.949  0.1289  0.3335 -0.2801
 3289SOL    HW121329   1.327   4.274  15.988  0.2124  0.3780 -0.2332
 3289SOL    HW221330   1.270   4.330  15.863 -1.2695 -1.2245  0.7809
 3290SOL     OW21331   3.623   0.962   0.282  0.6253  0.5749  0.0372
 3290SOL    HW121332   3.672   1.031   0.237 -1.8948  2.3485  0.0480
 3290SOL    HW221333   3.604   0.891   0.221  1.0976  0.6156 -0.1611
 3291SOL     OW21334   3.142   1.135   8.880 -0.5877  0.0540 -0.6617
 3291SOL    HW121335   3.157   1.054   8.930  1.4667 -0.4205 -2.0537
 3291SOL    HW221336   3.099   1.197   8.938  0.4717  1.7786 -1.7421
 3292SOL     OW21337   4.303   3.346   6.297  1.3447  0.2543  0.1355
 3292SOL    HW121338   4.339   3.433   6.311 -0.2613  0.5626  2.4058
 3292SOL    HW221339   4.218   3.363   6.339  2.2171 -0.4363  2.2004
 3293SOL     OW21340   3.134   1.609  17.626  0.5018  0.3940 -0.6018
 3293SOL    HW121341   3.100   1.631   0.013 -1.4904  2.2045 -1.8312
 3293SOL    HW221342   3.098   1.522  17.610  0.0050  0.8798 -2.0679
 3294SOL     OW21343   4.187   0.795   1.207 -0.4370 -0.0884  0.1169
 3294SOL    HW121344   4.160   0.878   1.246  3.4103 -0.3036  3.1747
 3294SOL    HW221345   4.111   0.740   1.229 -1.2343  1.2178  0.5975
 3295SOL     OW21346   1.922   2.387   0.993  0.3334 -0.0874  0.2627
 3295SOL    HW121347   1.867   2.421   0.922  1.7565 -0.1134 -0.8461
 3295SOL    HW221348   1.946   2.466   1.042  3.5769 -0.1947 -1.1338
 3296SOL     OW21349   0.856   0.728   6.312 -0.0622  0.7746  0.7627
 3296SOL    HW121350   0.852   0.823   6.321  2.9386  0.8884  0.8753
 3296SOL    HW221351   0.886   0.701   6.399 -0.1844 -2.1455 -0.1222
 3297SOL     OW21352   2.833   2.340   0.959 -0.3150  0.4158  0.1404
 3297SOL    HW121353   2.850   2.297   1.043  1.6192 -0.4122 -0.6700
 3297SOL    HW221354   2.793   2.417   0.997  0.7486  0.0056  2.1066
 3298SOL     OW21355   4.617   2.050   0.415  0.2899  0.2796 -0.1888
 3298SOL    HW121356   4.705   2.049   0.378  0.5117 -0.5786  0.3597
 3298SOL    HW221357   4.580   1.967   0.387 -1.1364  0.6618  0.5406
 3299SOL     OW21358   4.248   4.595  11.021 -0.2628 -0.2336  0.0432
 3299SOL    HW121359   4.271   4.587  11.113 -0.2716  1.0057  0.1524
 3299SOL    HW221360   4.276   4.685  11.008  1.8082 -0.8464  0.3160
 3300SOL     OW21361   2.222   0.580   2.860 -0.5963  0.2623 -0.6406
 3300SOL    HW121362   2.197   0.508   2.802 -2.3441  0.9607 -0.7500
 3300SOL    HW221363   2.316   0.568   2.874 -1.0477  0.6481  2.7387
 3301SOL     OW21364   1.390   1.441   8.756 -0.0828  0.9024  0.2365
 3301SOL    HW121365   1.337   1.430   8.834  1.0178  3.6551  1.3752
 3301SOL    HW221366   1.467   1.485   8.791  0.9822 -0.0660 -0.8694
 3302SOL     OW21367   2.305   2.493   1.282 -0.2095  0.0716  0.7044
 3302SOL    HW121368   2.394   2.476   1.253 -0.3947  1.1206 -0.4598
 3302SOL    HW221369   2.288   2.405   1.316  1.5719 -0.2228  0.8570
 3303SOL     OW21370   0.514   2.364   4.494 -0.3082  0.1988  0.0375
 3303SOL    HW121371   0.455   2.325   4.559  1.2178 -0.5017  0.9966
 3303SOL    HW221372   0.470   2.445   4.468 -2.6912 -1.1585 -0.2493
 3304SOL     OW21373   2.097   2.032   8.905 -0.4288  0.5825  0.5661
 3304SOL    HW121374   2.115   2.036   8.811  0.9125 -0.3310  0.7767
 3304SOL    HW221375   2.157   1.965   8.937 -1.7406 -0.4279  0.8742
 3305SOL     OW21376   0.637   0.713   6.814 -0.5779  0.1649 -0.3414
 3305SOL    HW121377   0.662   0.634   6.766  0.6592  0.5003 -0.2560
 3305SOL    HW221378   0.588   0.759   6.745  1.5984  0.6870 -1.5595
 3306SOL     OW21379   0.713   2.596   4.523  0.1889 -0.0037  0.7127
 3306SOL    HW121380   0.741   2.566   4.610 -1.2960 -0.7039  0.9421
 3306SOL    HW221381   0.635   2.643   4.553  1.2388  0.4691  2.7382
 3307SOL     OW21382   1.795   2.111  16.752  0.1458  0.5036 -0.6158
 3307SOL    HW121383   1.851   2.052  16.802  1.6795  0.3349 -2.4753
 3307SOL    HW221384   1.859   2.120  16.681  0.9941  0.7484  0.1830
 3308SOL     OW21385   2.102   4.030   1.498  0.0438  0.5598 -0.1704
 3308SOL    HW121386   2.009   4.011   1.492  0.4365 -0.8049 -1.7572
 3308SOL    HW221387   2.108   4.047   1.592 -0.4043  1.2266 -0.2616
 3309SOL     OW21388   3.736   2.274   8.021 -0.2897  0.1208 -0.5963
 3309SOL    HW121389   3.684   2.237   8.092  0.7864 -1.1415 -0.4607
 3309SOL    HW221390   3.713   2.366   8.022 -0.1309  0.1783 -2.0207
 3310SOL     OW21391   4.564   3.237   2.915  0.2532 -0.0827 -0.4314
 3310SOL    HW121392   4.503   3.219   2.843  0.1854 -2.1791  0.1779
 3310SOL    HW221393   4.608   3.155   2.936  3.2146  1.1570 -1.7037
 3311SOL     OW21394   2.193   3.730   5.099  0.5134 -0.8261  0.3170
 3311SOL    HW121395   2.102   3.718   5.073  0.5248 -1.1520  0.4202
 3311SOL    HW221396   2.196   3.662   5.166  1.5765  1.3778  2.4753
 3312SOL     OW21397   4.073   0.702   6.205 -0.8813 -0.4285  0.1642
 3312SOL    HW121398   4.094   0.632   6.267  1.9777  2.6532  2.6506
 3312SOL    HW221399   3.979   0.699   6.187 -0.7123  1.9400 -1.0442
 3313SOL     OW21400   1.114   3.165  13.645 -0.8438  0.3365 -0.0907
 3313SOL    HW121401   1.187   3.218  13.611  0.2278 -0.0419  1.6029
 3313SOL    HW221402   1.103   3.207  13.730 -2.5412 -0.0366 -0.1315
 3314SOL     OW21403   0.712   0.863   7.898  0.0397  0.4314 -0.0795
 3314SOL    HW121404   0.764   0.836   7.974  0.1668 -1.4811 -0.8268
 3314SOL    HW221405   0.713   0.956   7.918 -2.4043  0.0902  1.6973
 3315SOL     OW21406   3.860   2.697   4.331  0.0549  0.7427 -0.7540
 3315SOL    HW121407   3.885   2.767   4.270  0.5645  0.7704 -0.5119
 3315SOL    HW221408   3.823   2.641   4.263  1.3013 -1.3513  0.2824
 3316SOL     OW21409   3.537   4.189   8.814 -0.4782 -0.1278  0.1559
 3316SOL    HW121410   3.631   4.179   8.828 -0.5310 -0.8702  0.0050
 3316SOL    HW221411   3.503   4.219   8.898  2.2976 -0.1540  1.2796
 3317SOL     OW21412   1.186   2.241   5.132 -0.0424  0.6218  0.0922
 3317SOL    HW121413   1.152   2.193   5.057  0.8800  0.3682 -0.1629
 3317SOL    HW221414   1.256   2.183   5.161  1.8568  1.6881 -2.4019
 3318SOL     OW21415   0.908   4.712   1.887  0.1391  0.0858  0.2912
 3318SOL    HW121416   0.899   0.047   1.962 -4.2898  1.3189 -1.2659
 3318SOL    HW221417   0.899   4.629   1.935 -1.0557  0.2790  0.4091
 3319SOL     OW21418   1.273   2.989   3.400  0.2622  0.2663  0.1757
 3319SOL    HW121419   1.315   2.962   3.481 -1.3732 -1.2378  0.5128
 3319SOL    HW221420   1.181   2.990   3.428 -0.7678  0.2819 -3.1481
 3320SOL     OW21421   3.591   2.252   1.937 -0.4693 -0.3137 -0.2254
 3320SOL    HW121422   3.680   2.236   1.969 -0.0499 -2.4785 -2.5343
 3320SOL    HW221423   3.595   2.340   1.898  0.8044 -0.7506 -1.0796
 3321SOL     OW21424   0.403   1.668   3.477 -0.0301 -0.3067  0.3926
 3321SOL    HW121425   0.392   1.763   3.490  2.0461  0.1814 -1.4335
 3321SOL    HW221426   0.450   1.647   3.558  0.6844  1.6620  0.4940
 3322SOL     OW21427   3.935   4.134   2.481 -0.4489 -0.4508  0.0035
 3322SOL    HW121428   3.998   4.064   2.498 -0.0626 -0.2534 -0.6148
 3322SOL    HW221429   3.882   4.122   2.560  0.0081  1.8849  0.6659
 3323SOL     OW21430   1.273   0.725   7.542  0.6636  0.4069  0.0102
 3323SOL    HW121431   1.359   0.763   7.562  1.7298 -1.4305 -1.1542
 3323SOL    HW221432   1.280   0.672   7.463  1.5680  2.2679 -1.1398
 3324SOL     OW21433   4.161   2.953   5.129 -0.5269 -0.4180  0.4373
 3324SOL    HW121434   4.131   2.917   5.212 -3.5141 -0.3869 -0.6049
 3324SOL    HW221435   4.138   3.044   5.147 -0.0795 -0.1863 -0.1337
 3325SOL     OW21436   4.474   2.953   3.796 -0.3045 -0.1418  0.1554
 3325SOL    HW121437   4.500   2.862   3.813  2.3954  0.6327  0.1538
 3325SOL    HW221438   4.393   2.925   3.753 -1.1899 -0.7405  2.2269
 3326SOL     OW21439   0.036   4.297   2.923 -0.6552  0.2481 -0.0236
 3326SOL    HW121440   0.012   4.342   3.004 -0.8324  0.7227 -0.3352
 3326SOL    HW221441   0.108   4.239   2.947 -1.9186 -0.6033  1.7185
 3327SOL     OW21442   4.162   3.496   5.437  0.0300  0.1544 -0.0339
 3327SOL    HW121443   4.092   3.498   5.502 -0.9005  2.0285 -1.0931
 3327SOL    HW221444   4.228   3.556   5.473  0.8147 -1.6200  1.5066
 3328SOL     OW21445   1.498   0.994   4.994 -0.3356  0.3263  0.1490
 3328SOL    HW121446   1.458   1.073   4.960 -1.1946 -0.8716 -1.6455
 3328SOL    HW221447   1.453   0.982   5.077 -0.1453  0.2086  0.2348
 3329SOL     OW21448   3.765   1.183  10.317  0.0013 -0.0255 -0.1011
 3329SOL    HW121449   3.775   1.108  10.376  1.2654  0.5138  0.3689
 3329SOL    HW221450   3.669   1.188  10.317 -0.0761 -1.4980  1.4943
 3330SOL     OW21451   4.246   4.321   4.686 -0.0226 -0.6724  0.0445
 3330SOL    HW121452   4.285   4.294   4.603 -2.8598 -0.5773 -1.3267
 3330SOL    HW221453   4.196   4.240   4.698  0.7861 -1.0220  0.9829
 3331SOL     OW21454   3.818   2.203   6.057  0.2714 -0.2640 -0.7634
 3331SOL    HW121455   3.858   2.136   6.113 -0.4492 -1.8370 -2.1106
 3331SOL    HW221456   3.738   2.220   6.107  1.1264 -0.3312  0.6259
 3332SOL     OW21457   2.264   1.569   5.769 -0.3622  0.3681 -0.4303
 3332SOL    HW121458   2.239   1.478   5.785 -0.8024  0.1277 -2.4953
 3332SOL    HW221459   2.194   1.599   5.710 -0.4856  0.1878 -0.3765
 3333SOL     OW21460   0.785   1.208   4.841 -0.1452 -0.1263 -0.0221
 3333SOL    HW121461   0.750   1.187   4.928  1.3451  2.1061  1.1177
 3333SOL    HW221462   0.803   1.301   4.854  0.7296 -1.0285  5.3044
 3334SOL     OW21463   2.274   0.555  14.952 -0.1713 -0.2608 -0.0123
 3334SOL    HW121464   2.344   0.619  14.967 -0.2804  0.0603 -0.9007
 3334SOL    HW221465   2.217   0.600  15.014  0.1548 -1.4694  1.1588
 3335SOL     OW21466   4.362   1.233   2.838 -0.4833 -0.2507 -0.0547
 3335SOL    HW121467   4.386   1.170   2.770 -0.8248  0.4073 -0.7799
 3335SOL    HW221468   4.312   1.291   2.780  0.5005  0.1121 -0.5498
 3336SOL     OW21469   4.425   1.023  12.982  0.1427  0.0172 -0.0796
 3336SOL    HW121470   4.433   0.973  12.901 -0.9621  1.3926 -1.0592
 3336SOL    HW221471   4.333   1.046  12.966 -0.4510 -1.0059  1.8761
 3337SOL     OW21472   0.799   1.013   7.516  0.1059  0.2215  0.4104
 3337SOL    HW121473   0.873   0.953   7.530  0.0678  0.3991  1.3729
 3337SOL    HW221474   0.729   0.951   7.536 -0.4432  0.6204 -0.3031
 3338SOL     OW21475   2.635   3.016  15.912 -0.0488  0.4143  0.4600
 3338SOL    HW121476   2.717   3.061  15.896 -0.3456  1.2779  1.3865
 3338SOL    HW221477   2.640   2.938  15.857 -1.9753  0.6414 -0.0493
 3339SOL     OW21478   1.313   1.385   2.761 -0.0825 -0.3409  0.2992
 3339SOL    HW121479   1.319   1.431   2.677 -0.4525  0.0827  0.5026
 3339SOL    HW221480   1.326   1.293   2.738  3.1324  0.4090 -0.7924
 3340SOL     OW21481   4.421   2.510   6.197  0.8018  0.0292 -0.2042
 3340SOL    HW121482   4.503   2.461   6.199  0.6982 -0.1850 -0.9214
 3340SOL    HW221483   4.355   2.441   6.197  0.6198  0.2027 -0.3427
 3341SOL     OW21484   1.049   0.005  11.897  0.0270  0.1914  0.7912
 3341SOL    HW121485   0.975   0.049  11.855  1.4089 -0.8360 -2.6472
 3341SOL    HW221486   1.110   4.712  11.826  0.4905  0.6092  1.0777
 3342SOL     OW21487   0.392   4.470  13.484  0.0828  0.9720  0.0998
 3342SOL    HW121488   0.312   4.458  13.535  1.1671  1.0934  1.8303
 3342SOL    HW221489   0.451   4.474  13.560  1.5875 -0.9181 -0.9647
 3343SOL     OW21490   1.467   4.404   5.425 -0.3580 -0.3595 -0.2642
 3343SOL    HW121491   1.536   4.426   5.488 -0.6991 -2.3690  0.8399
 3343SOL    HW221492   1.518   4.347   5.368  0.0006 -0.8591  0.5535
 3344SOL     OW21493   3.037   3.584   8.599 -0.6306  0.6705  0.2300
 3344SOL    HW121494   3.051   3.644   8.672 -0.4818  0.0446  0.7068
 3344SOL    HW221495   2.944   3.603   8.583 -0.5994 -1.5572 -2.5443
 3345SOL     OW21496   2.416   1.211   7.247  0.9879  0.6490  0.5357
 3345SOL    HW121497   2.460   1.190   7.329  2.7564  0.3003 -0.4985
 3345SOL    HW221498   2.444   1.302   7.235  0.1617  1.1020  2.0240
 3346SOL     OW21499   1.724   4.610   0.182 -0.2420 -0.4500  0.1790
 3346SOL    HW121500   1.787   4.682   0.182 -0.9186  0.1538  1.8588
 3346SOL    HW221501   1.737   4.568   0.097 -0.8380  1.4524 -0.8548
 3347SOL     OW21502   1.130   4.322   8.871  0.2213  0.5253  0.1711
 3347SOL    HW121503   1.116   4.312   8.966 -1.1259  2.5214  0.1785
 3347SOL    HW221504   1.219   4.357   8.878  0.8455 -0.7723 -1.4991
 3348SOL     OW21505   1.500   1.739   3.436  0.1422 -0.1636  0.1496
 3348SOL    HW121506   1.520   1.671   3.372  1.8396 -0.7211  1.2894
 3348SOL    HW221507   1.590   1.744   3.466  0.3828  1.3036 -0.8285
 3349SOL     OW21508   1.008   2.156   7.088 -0.2583 -0.2646  0.1548
 3349SOL    HW121509   1.082   2.150   7.028 -1.8159 -1.1664 -1.6685
 3349SOL    HW221510   1.045   2.125   7.170  1.8925  0.9386 -0.3646
 3350SOL     OW21511   3.921   3.228   1.913  0.1136 -0.6439  0.0652
 3350SOL    HW121512   3.970   3.215   1.994 -1.4945 -0.5111  1.0539
 3350SOL    HW221513   3.869   3.306   1.932 -1.4707 -1.6674 -0.0680
 3351SOL     OW21514   1.259   4.191  13.121  0.2626 -0.1014  0.2525
 3351SOL    HW121515   1.342   4.153  13.095 -0.8780 -2.2820 -0.1614
 3351SOL    HW221516   1.236   4.239  13.041  0.8894 -0.1507  0.0446
 3352SOL     OW21517   1.369   3.840   6.071 -0.3773  0.4132  0.6245
 3352SOL    HW121518   1.411   3.914   6.026 -2.4275  0.1343 -1.7336
 3352SOL    HW221519   1.326   3.802   5.994  4.8437 -2.9937 -0.6173
 3353SOL     OW21520   0.586   4.307   7.679  0.5141  0.5053 -0.3257
 3353SOL    HW121521   0.654   4.322   7.613  0.9978  2.0229  0.5211
 3353SOL    HW221522   0.524   4.376   7.656 -0.5070  0.0630  1.1017
 3354SOL     OW21523   3.526   1.076  15.531  0.1060  0.1791  0.1242
 3354SOL    HW121524   3.615   1.049  15.507 -1.0481 -1.9818 -1.8114
 3354SOL    HW221525   3.491   1.111  15.449 -1.1742 -1.1507  0.0909
 3355SOL     OW21526   4.703   1.548  13.552 -0.0984  0.0812  0.4458
 3355SOL    HW121527   4.624   1.523  13.600 -0.0774  0.6746  0.7926
 3355SOL    HW221528   4.711   1.488  13.478  1.5936  2.1095 -1.0174
 3356SOL     OW21529   1.537   4.508  11.336  0.1812 -0.1122  0.3634
 3356SOL    HW121530   1.544   4.599  11.367 -0.0155  0.2439 -0.6510
 3356SOL    HW221531   1.443   4.493  11.344  0.2161 -0.5552 -0.1337
 3357SOL     OW21532   0.128   1.109   7.548  0.3832  0.1056 -0.3387
 3357SOL    HW121533   0.127   1.179   7.613 -1.8835 -0.0049 -0.2490
 3357SOL    HW221534   0.149   1.032   7.602  2.5847  0.5712 -0.5273
 3358SOL     OW21535   2.239   2.340   4.108 -0.2204  0.1899  0.7633
 3358SOL    HW121536   2.298   2.352   4.034  0.7155 -0.0649  1.4685
 3358SOL    HW221537   2.282   2.265   4.150 -0.6221  0.1565  1.1110
 3359SOL     OW21538   4.610   1.231   6.798  0.0171 -0.4306  0.1653
 3359SOL    HW121539   4.569   1.166   6.740 -3.8757  0.8343  1.5142
 3359SOL    HW221540   4.702   1.205   6.793  0.5611  1.6195 -0.5807
 3360SOL     OW21541   4.476   3.257  11.019 -0.0075 -0.1132  0.2440
 3360SOL    HW121542   4.405   3.246  10.955  3.5081 -1.1804 -3.4696
 3360SOL    HW221543   4.448   3.341  11.057  4.2579  0.8650  1.2301
 3361SOL     OW21544   2.896   0.402  10.313  0.4903 -0.6097  0.3228
 3361SOL    HW121545   2.899   0.334  10.246 -3.1770 -0.8149  0.3241
 3361SOL    HW221546   2.879   0.342  10.386 -1.0130 -1.2118 -0.5165
 3362SOL     OW21547   2.337   2.500   4.739 -0.2889 -0.5591 -0.2909
 3362SOL    HW121548   2.371   2.461   4.658  1.8703  0.9694 -0.1159
 3362SOL    HW221549   2.352   2.590   4.712  0.6655 -0.5117  0.4114
 3363SOL     OW21550   2.331   2.208   1.272 -0.1781  0.4783 -0.0084
 3363SOL    HW121551   2.377   2.197   1.188 -0.9186  2.0743 -0.6135
 3363SOL    HW221552   2.388   2.164   1.336 -0.6022  0.3221  0.2573
 3364SOL     OW21553   2.650   2.450   1.972 -0.5915  0.2762  0.4004
 3364SOL    HW121554   2.736   2.418   2.000  0.1266  1.4321 -0.4924
 3364SOL    HW221555   2.616   2.371   1.931  1.2715  0.8778 -2.3241
 3365SOL     OW21556   3.649   3.070   3.461  0.1157 -0.2117 -0.1919
 3365SOL    HW121557   3.679   3.160   3.476  1.7363 -1.0004  1.2776
 3365SOL    HW221558   3.568   3.070   3.511  0.6890  0.5249  0.7463
 3366SOL     OW21559   3.989   1.435   0.637 -0.3492 -0.0875 -0.5559
 3366SOL    HW121560   3.926   1.493   0.681  0.8883  1.1725 -0.4318
 3366SOL    HW221561   4.072   1.474   0.665 -1.6133  1.8654  0.4325
 3367SOL     OW21562   0.594   2.357   3.762  0.0829 -0.3315 -0.2745
 3367SOL    HW121563   0.578   2.391   3.674 -1.0707 -1.1616 -0.3895
 3367SOL    HW221564   0.682   2.323   3.747 -0.0436 -0.5891 -0.4216
 3368SOL     OW21565   3.428   2.278   6.963  0.0158  0.7762  0.4387
 3368SOL    HW121566   3.510   2.289   7.011  0.2848 -0.2437  0.2099
 3368SOL    HW221567   3.460   2.235   6.884  1.1388  0.7947  0.8800
 3369SOL     OW21568   2.884   4.624   7.670 -0.5838  0.4529  0.1413
 3369SOL    HW121569   2.901   4.717   7.681 -0.4468  0.5120 -0.5465
 3369SOL    HW221570   2.911   4.586   7.753 -3.6871 -0.0022  0.9438
 3370SOL     OW21571   0.088   3.784   9.016 -0.2286 -0.0423  0.1577
 3370SOL    HW121572   0.026   3.713   8.999 -1.6821  1.9394 -2.8881
 3370SOL    HW221573   0.140   3.758   9.092  0.1662 -1.7343 -0.6884
 3371SOL     OW21574   2.596   1.593   2.122 -0.1726 -0.0637 -0.3955
 3371SOL    HW121575   2.594   1.655   2.195  0.7178  0.3332 -0.7089
 3371SOL    HW221576   2.643   1.639   2.053 -0.7291  0.9374 -0.1174
 3372SOL     OW21577   1.831   0.068   5.628 -0.5232 -0.3075  0.2113
 3372SOL    HW121578   1.913   0.067   5.677  0.5488  0.2795 -1.5704
 3372SOL    HW221579   1.844   0.130   5.556 -3.8017  0.6559  0.4420
 3373SOL     OW21580   0.156   1.994   2.101 -0.1660 -0.2107  0.3262
 3373SOL    HW121581   0.087   1.944   2.058  0.8024  0.0408 -1.5078
 3373SOL    HW221582   0.100   2.051   2.154 -0.4777  0.2134 -0.4600
 3374SOL     OW21583   1.085   2.949  17.229 -0.1885 -0.1220  0.0259
 3374SOL    HW121584   1.162   2.996  17.195  0.6353 -0.8161  0.9379
 3374SOL    HW221585   1.058   2.999  17.306  0.0262 -1.4146  0.9209
 3375SOL     OW21586   1.775   2.658   1.788  0.2851  0.3747 -0.3033
 3375SOL    HW121587   1.796   2.648   1.695 -0.6762 -1.4529 -0.3329
 3375SOL    HW221588   1.852   2.702   1.824 -1.9535  2.0335  2.4687
 3376SOL     OW21589   0.611   1.164  13.061  0.0602  0.3617 -0.0110
 3376SOL    HW121590   0.637   1.244  13.107  0.4317  0.5736 -0.5828
 3376SOL    HW221591   0.562   1.201  12.987  1.3760  0.5035 -0.8253
 3377SOL     OW21592   1.760   2.785   1.382 -0.0750 -0.3695  0.2000
 3377SOL    HW121593   1.680   2.833   1.401  0.2709  0.4204 -0.3211
 3377SOL    HW221594   1.828   2.830   1.434 -0.3973 -0.2673  0.5322
 3378SOL     OW21595   3.135   2.099  17.291 -0.0736 -0.0268 -0.1126
 3378SOL    HW121596   3.044   2.076  17.312 -0.2130  1.7640  1.3625
 3378SOL    HW221597   3.119   2.155  17.215 -0.4513  2.5295  1.8152
 3379SOL     OW21598   0.364   4.385   4.525 -0.2654 -0.4809  0.8729
 3379SOL    HW121599   0.366   4.293   4.500  1.2170 -0.4020  0.7263
 3379SOL    HW221600   0.272   4.399   4.548 -0.4801  1.9330 -1.3271
 3380SOL     OW21601   0.609   1.132  10.324  0.2095  0.2150 -0.5561
 3380SOL    HW121602   0.541   1.169  10.266 -0.9022 -0.9999 -0.0294
 3380SOL    HW221603   0.679   1.108  10.264 -1.0442 -2.2393 -1.0344
 3381SOL     OW21604   4.639   2.715   5.223 -0.1755  0.1563 -0.1969
 3381SOL    HW121605   4.641   2.624   5.192  0.8013  0.3269 -0.6334
 3381SOL    HW221606   4.568   2.705   5.287  0.3334  1.0592  0.5030
 3382SOL     OW21607   4.527   3.951  11.405  0.2620 -0.8231  0.1694
 3382SOL    HW121608   4.440   3.992  11.400  1.0977  1.1385  1.7818
 3382SOL    HW221609   4.557   3.966  11.315 -0.2046  3.8273  0.7786
 3383SOL     OW21610   2.300   3.412   8.714  0.0430  0.6250 -0.9191
 3383SOL    HW121611   2.260   3.330   8.682  2.3486 -0.9976  0.3921
 3383SOL    HW221612   2.323   3.389   8.804 -2.3990  1.3372 -0.1000
 3384SOL     OW21613   4.019   0.671   0.475 -0.3366  0.2049  0.5414
 3384SOL    HW121614   4.102   0.642   0.513  0.7384  1.0385 -1.2140
 3384SOL    HW221615   4.026   0.764   0.457  0.7689 -0.5881 -3.1032
 3385SOL     OW21616   0.465   0.968  11.500 -0.0458  0.4658  0.6971
 3385SOL    HW121617   0.376   0.957  11.466  0.2069  0.4249  0.0495
 3385SOL    HW221618   0.501   0.905  11.439 -2.4224 -2.2158  2.0770
 3386SOL     OW21619   0.766   2.661   6.018 -0.1565  0.0214  0.0749
 3386SOL    HW121620   0.709   2.637   5.945 -0.6275 -0.8180  0.7172
 3386SOL    HW221621   0.746   2.603   6.092 -1.8605 -0.0547 -0.4546
 3387SOL     OW21622   0.350   3.238   8.361 -0.7841  0.3802  0.0431
 3387SOL    HW121623   0.364   3.322   8.405  0.1604  0.2810 -0.0633
 3387SOL    HW221624   0.346   3.181   8.438  0.4674  3.8484  2.6888
 3388SOL     OW21625   1.520   2.064   7.846 -0.2566 -0.2912  0.5027
 3388SOL    HW121626   1.532   2.152   7.810 -0.6479 -1.0292 -1.4847
 3388SOL    HW221627   1.438   2.084   7.891  0.3251 -0.0196  1.4289
 3389SOL     OW21628   3.719   1.615   2.385  0.3933 -0.3616 -0.3116
 3389SOL    HW121629   3.692   1.525   2.400  1.5892 -1.0234 -2.1461
 3389SOL    HW221630   3.810   1.601   2.409  0.3150  1.5641  1.1264
 3390SOL     OW21631   1.232   4.683  14.929 -0.0302 -0.2629  0.1309
 3390SOL    HW121632   1.149   4.692  14.975  0.9755  0.4864  1.7686
 3390SOL    HW221633   1.250   0.040  14.882  1.0596 -0.5751 -0.0082
 3391SOL     OW21634   2.059   2.682   2.703  0.1923  0.1839 -0.5340
 3391SOL    HW121635   2.103   2.763   2.677 -0.7466  1.7396  2.7570
 3391SOL    HW221636   2.006   2.658   2.627 -3.3171  1.3511  1.5419
 3392SOL     OW21637   0.028   2.033   7.768 -0.0597  0.0119 -0.0660
 3392SOL    HW121638   0.084   2.007   7.695  1.4800  3.6162 -0.1319
 3392SOL    HW221639   0.081   2.004   7.842  0.5324  0.2109 -0.4178
 3393SOL     OW21640   3.894   4.144   7.766  0.7052 -0.3487 -0.0355
 3393SOL    HW121641   3.934   4.146   7.679  0.3021 -2.1875 -0.2708
 3393SOL    HW221642   3.917   4.230   7.801  3.1243 -0.5669 -1.0432
 3394SOL     OW21643   2.236   4.653   7.449 -0.7835  0.1224 -0.4621
 3394SOL    HW121644   2.219   4.568   7.489 -0.0484  0.5616  0.7984
 3394SOL    HW221645   2.331   4.644   7.438 -0.6412  1.4465 -0.3675
 3395SOL     OW21646   0.836   2.859  10.597 -0.2279 -0.1110  0.4590
 3395SOL    HW121647   0.888   2.819  10.527 -0.9608  0.4055 -0.3766
 3395SOL    HW221648   0.798   2.781  10.637 -0.4523  0.0276  0.5176
 3396SOL     OW21649   4.662   2.877   6.160  0.1206  0.2003 -0.2909
 3396SOL    HW121650   4.679   2.868   6.066 -0.8844 -4.0642 -0.0663
 3396SOL    HW221651   4.712   2.958   6.173 -1.4629  0.7387  2.3303
 3397SOL     OW21652   1.891   4.314   1.490 -0.2028 -0.6188 -0.1461
 3397SOL    HW121653   1.971   4.367   1.496 -0.0840 -0.6838 -1.3129
 3397SOL    HW221654   1.855   4.328   1.578  0.8335  0.5555  0.0921
 3398SOL     OW21655   2.980   0.644   9.565 -0.7468 -0.2106 -0.1563
 3398SOL    HW121656   2.894   0.670   9.530 -2.0109 -0.8609  2.5302
 3398SOL    HW221657   2.988   0.710   9.634  0.5412 -0.5968  0.0490
 3399SOL     OW21658   0.765   0.074   7.237  0.4446  0.2119 -0.0382
 3399SOL    HW121659   0.789   0.148   7.294 -0.1995  0.8108 -0.5343
 3399SOL    HW221660   0.849   0.037   7.211 -0.9108 -2.0429 -1.1491
 3400SOL     OW21661   0.086   2.730   8.291  0.0193  0.2353  0.1378
 3400SOL    HW121662   0.054   2.819   8.301 -1.0862  0.0091 -1.4628
 3400SOL    HW221663   0.022   2.689   8.232  0.0817 -2.5071  1.9353
 3401SOL     OW21664   1.827   0.336  13.030 -0.8913 -0.0927 -0.0275
 3401SOL    HW121665   1.866   0.253  13.002 -1.4458 -0.6239  0.7882
 3401SOL    HW221666   1.766   0.308  13.098  1.3699 -1.4693  1.4270
 3402SOL     OW21667   2.707   0.310   5.144 -0.1826 -0.2699  0.3004
 3402SOL    HW121668   2.757   0.336   5.221  0.6708 -0.5721 -0.1512
 3402SOL    HW221669   2.665   0.227   5.167 -1.2830  0.2244  0.0944
 3403SOL     OW21670   3.243   2.617   7.747 -0.3756  0.2535 -0.4848
 3403SOL    HW121671   3.330   2.581   7.728  0.2259  0.5676  1.6559
 3403SOL    HW221672   3.241   2.604   7.842  0.6053 -0.8216 -0.6088
 3404SOL     OW21673   4.211   0.737  15.480  0.6477 -0.3342 -0.0867
 3404SOL    HW121674   4.121   0.743  15.451  0.4022  0.0472  0.7382
 3404SOL    HW221675   4.212   0.815  15.536  3.8712  0.0479 -0.6847
 3405SOL     OW21676   3.310   4.344  10.019 -0.5867 -0.0026 -0.1749
 3405SOL    HW121677   3.286   4.400  10.093  2.2089  1.1061 -0.1112
 3405SOL    HW221678   3.237   4.282  10.022  0.4600 -1.3541 -2.7419
 3406SOL     OW21679   0.713   4.522  14.608 -0.1671  0.6101 -0.4305
 3406SOL    HW121680   0.641   4.497  14.550 -0.6173  0.8848  0.0099
 3406SOL    HW221681   0.656   4.523  14.685 -0.2802 -0.3747 -0.5034
 3407SOL     OW21682   4.567   1.326   6.380 -0.1329 -0.1385 -0.5200
 3407SOL    HW121683   4.652   1.301   6.416 -0.6716 -0.1153  0.7931
 3407SOL    HW221684   4.583   1.333   6.286 -2.6074  2.1475 -0.7980
 3408SOL     OW21685   0.123   0.550   2.433  0.3988 -0.3090 -0.3709
 3408SOL    HW121686   0.061   0.553   2.359 -0.0609  0.7379  0.0724
 3408SOL    HW221687   0.098   0.460   2.457  1.1268  0.5712  3.4977
 3409SOL     OW21688   2.693   0.875   0.516  0.5686 -0.4941  0.0381
 3409SOL    HW121689   2.763   0.839   0.463  0.7923  1.0524 -0.7275
 3409SOL    HW221690   2.724   0.839   0.599 -2.1345  2.5844  2.3912
 3410SOL     OW21691   2.197   0.468   7.378  0.9481  0.1111  0.3001
 3410SOL    HW121692   2.176   0.504   7.464 -3.5287  1.4538 -1.3647
 3410SOL    HW221693   2.111   0.472   7.337 -0.1173 -2.5203  2.2956
 3411SOL     OW21694   1.192   3.867   0.160  0.3292 -0.1871  0.1630
 3411SOL    HW121695   1.273   3.879   0.210  0.6744 -0.6999 -0.2694
 3411SOL    HW221696   1.153   3.948   0.194 -1.7023 -1.9358  1.9833
 3412SOL     OW21697   2.142   4.081   1.751 -0.1111  0.4658  0.1438
 3412SOL    HW121698   2.214   4.045   1.802  1.7593  1.3203 -1.8510
 3412SOL    HW221699   2.162   4.175   1.754  0.3366  0.4444 -1.8491
 3413SOL     OW21700   1.853   2.667   2.491 -0.6243 -0.4514 -0.2241
 3413SOL    HW121701   1.827   2.598   2.429 -1.5492  0.0700 -0.4160
 3413SOL    HW221702   1.791   2.736   2.468 -1.5968 -0.7243  1.5830
 3414SOL     OW21703   1.546   1.062   5.786  0.4782 -0.1199 -0.1923
 3414SOL    HW121704   1.579   0.981   5.747  0.6537 -0.8522  1.4795
 3414SOL    HW221705   1.599   1.132   5.747  1.4604 -1.7263 -1.7773
 3415SOL     OW21706   3.421   3.660   2.181 -0.0104  0.3217 -0.4157
 3415SOL    HW121707   3.349   3.719   2.206 -0.9524 -0.6253 -0.9082
 3415SOL    HW221708   3.375   3.588   2.138  0.4551 -0.5538  0.5939
 3416SOL     OW21709   3.870   3.903   8.412 -0.2355  0.4023 -0.8156
 3416SOL    HW121710   3.903   3.824   8.370  0.7924 -0.4536  1.6352
 3416SOL    HW221711   3.822   3.933   8.335 -0.1534  0.4574 -0.8451
 3417SOL     OW21712   0.913   3.043  11.409 -0.4098  0.1397  0.1722
 3417SOL    HW121713   0.824   3.007  11.410  0.3115 -1.6449  0.6920
 3417SOL    HW221714   0.950   2.961  11.374 -1.8816 -1.0711  1.4405
 3418SOL     OW21715   1.889   1.307  15.076  0.8122 -0.3702 -0.3552
 3418SOL    HW121716   1.879   1.370  15.147 -0.3309  0.6230 -1.4222
 3418SOL    HW221717   1.932   1.344  14.999 -0.3623  1.9975  0.1462
 3419SOL     OW21718   2.213   0.590  16.228  0.7189 -0.3196 -0.2343
 3419SOL    HW121719   2.182   0.612  16.139  0.2232 -0.4820 -0.1032
 3419SOL    HW221720   2.259   0.671  16.250 -0.0007  0.1859 -0.5860
 3420SOL     OW21721   3.629   3.020  13.972 -0.2798  0.0730 -0.1183
 3420SOL    HW121722   3.650   3.042  14.062 -1.8931  0.0447  0.2606
 3420SOL    HW221723   3.678   2.940  13.950  1.7781  1.4326 -0.5699
 3421SOL     OW21724   3.801   0.787   2.160  0.1577  0.1952 -0.1118
 3421SOL    HW121725   3.812   0.709   2.104 -0.9235  0.0033 -0.0582
 3421SOL    HW221726   3.754   0.752   2.236 -1.0921  0.3461 -0.8107
 3422SOL     OW21727   0.880   3.887   4.277 -0.5899 -0.4650 -0.1485
 3422SOL    HW121728   0.808   3.828   4.300 -1.1741  0.3901  0.2254
 3422SOL    HW221729   0.840   3.961   4.231  1.5541  1.1355  0.5284
 3423SOL     OW21730   2.751   2.114   7.245 -0.0069  0.1110 -0.4586
 3423SOL    HW121731   2.820   2.163   7.291  1.8564 -1.1329 -1.9258
 3423SOL    HW221732   2.766   2.026   7.280 -0.1085  0.5437  0.6689
 3424SOL     OW21733   0.009   2.390   8.562  0.1473  0.4725 -0.0267
 3424SOL    HW121734   4.676   2.347   8.625  1.9274  0.6659  1.7320
 3424SOL    HW221735   4.660   2.448   8.543  0.1715  1.0159  1.5635
 3425SOL     OW21736   0.991   3.237   4.870 -0.3460 -0.3753  0.4368
 3425SOL    HW121737   1.045   3.260   4.945  0.7946  0.8221 -0.7501
 3425SOL    HW221738   1.054   3.189   4.816  0.9852  0.4851  1.2330
 3426SOL     OW21739   3.416   0.488   0.042 -0.3997 -0.6689 -0.2285
 3426SOL    HW121740   3.387   0.536  17.664 -0.3901 -1.1415 -0.5234
 3426SOL    HW221741   3.510   0.505   0.042 -0.4156 -0.5955 -3.9416
 3427SOL     OW21742   4.162   1.962   6.085  0.4319 -0.4158 -0.5540
 3427SOL    HW121743   4.226   1.911   6.134  0.1683  1.0845  1.3597
 3427SOL    HW221744   4.219   2.025   6.042 -1.6324  1.8522  0.0286
 3428SOL     OW21745   0.395   2.193   6.430 -0.0157 -0.0782 -0.2643
 3428SOL    HW121746   0.332   2.169   6.498 -1.0123  2.3730 -0.3406
 3428SOL    HW221747   0.392   2.288   6.430  0.5156 -0.0616 -0.6017
 3429SOL     OW21748   2.263   3.286   7.758  0.0344  0.2695 -0.2598
 3429SOL    HW121749   2.209   3.301   7.680 -1.1137 -1.3242  0.2205
 3429SOL    HW221750   2.231   3.199   7.782  0.0711  0.0215 -1.0870
 3430SOL     OW21751   1.831   2.912   7.344  0.5732  0.0262 -0.3180
 3430SOL    HW121752   1.781   2.850   7.398  2.8186 -0.3449  1.3603
 3430SOL    HW221753   1.918   2.903   7.383  1.0334 -2.6489 -2.0064
 3431SOL     OW21754   3.454   3.518   1.175 -0.4465  0.0247  0.1048
 3431SOL    HW121755   3.546   3.536   1.159 -0.5985 -0.7399 -1.6354
 3431SOL    HW221756   3.457   3.480   1.263  1.2345  0.3774  0.1994
 3432SOL     OW21757   1.002   0.498   2.757  0.2303  0.4963 -0.2810
 3432SOL    HW121758   1.093   0.521   2.774  1.3264 -2.5555 -1.8418
 3432SOL    HW221759   0.958   0.581   2.770  0.5525  0.8636 -1.5454
 3433SOL     OW21760   1.021   4.477  15.913  0.2648  0.0083 -0.7061
 3433SOL    HW121761   1.020   4.382  15.923 -2.6616  0.2582  1.3581
 3433SOL    HW221762   0.931   4.509  15.916  0.2484 -0.1188  0.1798
 3434SOL     OW21763   2.791   0.157   7.481  0.9769  0.2555  0.2450
 3434SOL    HW121764   2.699   0.175   7.465  1.0922  2.0129  1.5132
 3434SOL    HW221765   2.816   0.203   7.561 -0.0681 -2.4330  2.1090
 3435SOL     OW21766   3.233   1.128  16.153 -0.3727 -0.0421 -0.2856
 3435SOL    HW121767   3.154   1.100  16.108  0.3354 -1.0719 -0.8884
 3435SOL    HW221768   3.197   1.211  16.185 -1.2867 -1.3297  2.0376
 3436SOL     OW21769   3.159   2.125   5.861  0.3479 -0.2300 -0.1583
 3436SOL    HW121770   3.234   2.142   5.806 -0.0119 -0.6627 -0.7783
 3436SOL    HW221771   3.091   2.179   5.821 -0.2369  0.3885  1.6407
 3437SOL     OW21772   3.878   0.750   8.542 -0.4038  0.6073  0.4847
 3437SOL    HW121773   3.786   0.744   8.569 -0.0543 -3.2838  0.7993
 3437SOL    HW221774   3.861   0.774   8.451 -0.3296  1.0988  0.6002
 3438SOL     OW21775   2.875   1.044   6.165  0.5702  0.0052 -0.5311
 3438SOL    HW121776   2.929   1.041   6.086 -0.9226  4.0098 -1.7116
 3438SOL    HW221777   2.924   1.102   6.223  1.6258 -2.1976  0.8040
 3439SOL     OW21778   3.744   1.793   3.901  0.7858  0.2002 -0.0874
 3439SOL    HW121779   3.790   1.840   3.832 -1.7816  1.6719 -0.8150
 3439SOL    HW221780   3.808   1.732   3.938  0.9599 -0.5812 -1.6763
 3440SOL     OW21781   0.270   0.306   5.393  0.4391 -0.1062 -0.0593
 3440SOL    HW121782   0.275   0.215   5.424  0.6601 -1.0760 -2.9031
 3440SOL    HW221783   0.315   0.310   5.309  2.5592  0.1841  1.1082
 3441SOL     OW21784   1.956   3.640  14.291  0.4413 -0.0504 -0.6128
 3441SOL    HW121785   1.914   3.556  14.310  0.0657  1.0803  3.5497
 3441SOL    HW221786   2.008   3.659  14.369  2.8376 -4.4435 -1.1046
 3442SOL     OW21787   2.540   1.495   2.499  0.1725  0.2652 -0.2282
 3442SOL    HW121788   2.553   1.562   2.432  0.6041  0.9278  0.5140
 3442SOL    HW221789   2.446   1.506   2.516 -0.0803 -0.3811 -1.2590
 3443SOL     OW21790   1.483   4.225   8.367 -0.1427 -0.0761  0.3314
 3443SOL    HW121791   1.546   4.153   8.372  1.3917  1.4224  2.9356
 3443SOL    HW221792   1.433   4.201   8.289 -0.6440  4.3052 -0.6954
 3444SOL     OW21793   2.781   0.619  10.635 -0.0168  0.2849  0.3930
 3444SOL    HW121794   2.705   0.561  10.644 -0.6198  1.0033 -0.1354
 3444SOL    HW221795   2.769   0.666  10.717  0.8645 -0.9641  1.2351
 3445SOL     OW21796   0.256   3.981   2.842  0.3447  0.0250 -0.0467
 3445SOL    HW121797   0.240   3.958   2.751 -0.7179  1.5572 -0.2462
 3445SOL    HW221798   0.348   3.955   2.847 -0.4023 -2.2612  2.1831
 3446SOL     OW21799   4.338   2.998   7.645  0.0753 -0.2167 -0.0308
 3446SOL    HW121800   4.291   3.067   7.599  2.6156  0.8387 -1.0054
 3446SOL    HW221801   4.405   2.969   7.582  0.0297 -2.0281  0.7294
 3447SOL     OW21802   2.338   0.369  11.633 -0.1201  0.2404  0.4690
 3447SOL    HW121803   2.270   0.301  11.630  1.3811 -1.2039 -0.7507
 3447SOL    HW221804   2.304   0.441  11.581 -1.8240 -1.2043 -0.4212
 3448SOL     OW21805   1.274   1.588   2.553 -0.0245  0.3867 -0.0902
 3448SOL    HW121806   1.328   1.584   2.475 -0.3308 -0.0863 -0.2795
 3448SOL    HW221807   1.187   1.620   2.526  0.0415  0.1157 -0.6095
 3449SOL     OW21808   1.045   1.134  10.989  0.5742 -0.3817 -0.7376
 3449SOL    HW121809   1.121   1.192  10.999  1.1962 -1.3355  0.0232
 3449SOL    HW221810   1.016   1.144  10.898  0.7092 -0.5084 -0.7939
 3450SOL     OW21811   4.071   0.593  10.321 -0.0233  0.1629 -0.2789
 3450SOL    HW121812   4.024   0.659  10.270  0.7341 -0.1800 -1.4351
 3450SOL    HW221813   4.163   0.615  10.312 -0.0648 -0.6578 -2.7063
 3451SOL     OW21814   2.593   3.837   4.601  0.0783 -0.1497  0.6416
 3451SOL    HW121815   2.581   3.756   4.552  2.0818 -0.7069  1.0510
 3451SOL    HW221816   2.602   3.911   4.542  0.0754 -1.2826 -0.7763
 3452SOL     OW21817   3.558   1.245   5.604  0.7431 -0.0099  0.3853
 3452SOL    HW121818   3.600   1.172   5.559  1.7074  2.1244 -2.1680
 3452SOL    HW221819   3.571   1.326   5.555 -0.1923  1.6922  2.9589
 3453SOL     OW21820   0.094   1.229   2.250  0.0619  0.0503 -1.0696
 3453SOL    HW121821   0.002   1.219   2.272 -0.0598 -0.4277 -1.7884
 3453SOL    HW221822   0.098   1.323   2.228  0.9338 -0.1846 -1.9568
 3454SOL     OW21823   0.480   4.717  16.875 -0.3505  0.3271 -0.3754
 3454SOL    HW121824   0.552   4.670  16.917 -2.4865 -3.0621 -0.5248
 3454SOL    HW221825   0.529   0.006  16.794 -0.0592 -0.7981 -0.3773
 3455SOL     OW21826   3.449   0.909  13.345  0.1394  0.1744 -0.5137
 3455SOL    HW121827   3.478   0.930  13.256 -0.5157  2.4726 -0.1845
 3455SOL    HW221828   3.524   0.944  13.393 -0.0025  1.9989 -1.6456
 3456SOL     OW21829   0.879   1.939   2.150  1.0411 -0.6237 -0.2942
 3456SOL    HW121830   0.870   1.879   2.224  0.8278  1.6053  1.4687
 3456SOL    HW221831   0.818   2.010   2.172 -1.1187 -1.5467 -3.1991
 3457SOL     OW21832   2.271   1.480  11.248 -0.0714 -0.4564  0.1369
 3457SOL    HW121833   2.235   1.391  11.255  1.4271 -1.0116  0.8666
 3457SOL    HW221834   2.359   1.458  11.217 -0.7822 -0.9728 -1.4521
 3458SOL     OW21835   4.320   4.175   3.484 -0.1155  0.0728  1.1112
 3458SOL    HW121836   4.367   4.256   3.462  0.4557 -0.6776 -0.3964
 3458SOL    HW221837   4.355   4.106   3.428  2.4406  0.6666  1.9487
 3459SOL     OW21838   2.177   2.887   3.878 -0.5573  0.2828  0.1283
 3459SOL    HW121839   2.128   2.934   3.811 -1.8030 -1.3715 -0.1136
 3459SOL    HW221840   2.108   2.834   3.919 -0.1439 -0.7626 -0.5175
 3460SOL     OW21841   1.183   2.417   8.061 -0.4333  0.2066  0.2256
 3460SOL    HW121842   1.241   2.493   8.069 -0.4167  0.0678  1.5401
 3460SOL    HW221843   1.161   2.408   8.154  2.6694 -0.1128  0.9332
 3461SOL     OW21844   3.745   4.392  12.880 -0.4041 -0.1748 -0.1293
 3461SOL    HW121845   3.687   4.436  12.942 -0.0107 -1.0359  0.8450
 3461SOL    HW221846   3.670   4.360  12.830 -1.0846  0.9532  0.1658
 3462SOL     OW21847   3.354   0.960   8.051 -0.2481 -0.2350 -0.1941
 3462SOL    HW121848   3.301   0.925   7.980  0.4874 -1.9850  0.1274
 3462SOL    HW221849   3.417   0.889   8.057 -1.1197 -0.9451  0.4586
 3463SOL     OW21850   0.763   2.178  14.440  0.2961 -1.0897 -0.2986
 3463SOL    HW121851   0.724   2.166  14.527  0.1690  0.4050 -0.1544
 3463SOL    HW221852   0.814   2.257  14.458 -0.6000 -0.4450 -0.5945
 3464SOL     OW21853   2.289   1.668  10.969 -0.5022  0.1894 -0.2735
 3464SOL    HW121854   2.241   1.751  10.964 -1.7443 -0.6091 -1.7433
 3464SOL    HW221855   2.258   1.630  11.051 -2.1591  2.1685  0.0151
 3465SOL     OW21856   2.983   2.218  11.682 -0.0236 -0.3863  0.2462
 3465SOL    HW121857   3.020   2.130  11.681  2.2851  0.5585  1.6677
 3465SOL    HW221858   2.909   2.201  11.741 -0.7919 -1.8868 -1.1656
 3466SOL     OW21859   4.429   1.451   3.978 -0.5241 -0.3121  0.0205
 3466SOL    HW121860   4.433   1.429   3.885 -0.2213 -0.0302 -0.0316
 3466SOL    HW221861   4.361   1.517   3.969 -1.7902 -1.4985  0.7801
 3467SOL     OW21862   3.191   3.033   3.228  0.0129  0.0344  0.4719
 3467SOL    HW121863   3.189   2.986   3.145  0.8309  0.6744  0.0933
 3467SOL    HW221864   3.206   2.956   3.283  0.2233  0.0269  0.4022
 3468SOL     OW21865   2.417   2.147  13.650  0.3447 -0.0336  0.3275
 3468SOL    HW121866   2.329   2.176  13.671 -0.0581 -0.6045 -0.5472
 3468SOL    HW221867   2.472   2.224  13.638 -0.8300  0.5464 -1.3734
 3469SOL     OW21868   2.693   4.164   5.795  0.0369  0.3696 -0.0997
 3469SOL    HW121869   2.770   4.157   5.852 -0.2077 -0.2626  0.1575
 3469SOL    HW221870   2.702   4.254   5.763  0.5675  0.5613  0.5977
 3470SOL     OW21871   4.454   4.493  16.810  0.3387 -0.4264  0.0687
 3470SOL    HW121872   4.473   4.582  16.840 -0.0741 -0.5982  0.8276
 3470SOL    HW221873   4.537   4.447  16.826 -0.3843 -1.6002  0.4587
 3471SOL     OW21874   0.976   4.570   8.266  0.4801 -0.0287  0.5098
 3471SOL    HW121875   0.894   4.602   8.227  0.8754  0.6536  0.2398
 3471SOL    HW221876   1.020   4.524   8.194 -2.6147  3.0242 -3.3174
 3472SOL     OW21877   0.844   2.160   7.366  0.2389 -0.1645  0.2897
 3472SOL    HW121878   0.817   2.109   7.443 -1.0141  2.6897  1.7268
 3472SOL    HW221879   0.799   2.118   7.293  0.5835  0.0840 -0.0680
 3473SOL     OW21880   0.726   0.002   1.205 -0.0389  0.3312  0.2396
 3473SOL    HW121881   0.631   4.723   1.216 -0.0115  0.6112  0.5686
 3473SOL    HW221882   0.743   0.096   1.194  0.8249  0.1901  0.3265
 3474SOL     OW21883   4.421   4.334  16.202  0.0030  0.3523 -0.3575
 3474SOL    HW121884   4.443   4.241  16.205 -0.3633  0.2805  0.0438
 3474SOL    HW221885   4.470   4.355  16.282  2.2645 -0.6591 -1.4678
 3475SOL     OW21886   0.732   3.063  16.645  0.8013 -0.0462  0.2054
 3475SOL    HW121887   0.692   2.978  16.660  0.7190  0.2181  1.5669
 3475SOL    HW221888   0.731   3.097  16.735 -1.7401  0.1033  0.1038
 3476SOL     OW21889   0.246   1.457  14.421 -0.0527  0.3644  0.3120
 3476SOL    HW121890   0.170   1.463  14.363 -0.2190  0.9759  0.5958
 3476SOL    HW221891   0.308   1.410  14.364 -0.9534 -0.0132 -0.3595
 3477SOL     OW21892   3.511   4.114   7.649 -0.0317 -0.5795 -0.0763
 3477SOL    HW121893   3.442   4.095   7.713  0.3410 -1.0000  0.2013
 3477SOL    HW221894   3.582   4.055   7.676  0.0323 -0.1092  0.7703
 3478SOL     OW21895   4.036   2.371  12.480  0.8761 -0.0418 -0.7039
 3478SOL    HW121896   4.096   2.438  12.514  0.5897  0.7970 -1.8565
 3478SOL    HW221897   4.085   2.295  12.510 -2.1045 -1.0833  1.4860
 3479SOL     OW21898   2.432   3.645   3.739 -0.6655 -0.1330  0.1849
 3479SOL    HW121899   2.449   3.711   3.806 -0.4290  0.2693 -0.2680
 3479SOL    HW221900   2.518   3.603   3.732 -0.4151  0.2555  0.9400
 3480SOL     OW21901   0.199   2.495   8.372 -0.1001 -0.2114 -0.2179
 3480SOL    HW121902   0.135   2.442   8.420  0.4052 -1.1133 -0.5381
 3480SOL    HW221903   0.161   2.582   8.365  1.3611  0.2620 -2.2312
 3481SOL     OW21904   0.215   4.194   7.230 -0.0056  0.0327  1.0756
 3481SOL    HW121905   0.162   4.179   7.307  2.4635  1.2896  3.0319
 3481SOL    HW221906   0.195   4.285   7.206  2.0372 -0.4249 -2.4882
 3482SOL     OW21907   2.483   0.082   7.844  0.1583 -0.2708  0.0904
 3482SOL    HW121908   2.433   0.005   7.871 -1.6965  0.3899 -1.4572
 3482SOL    HW221909   2.572   0.050   7.855 -0.6885 -2.4360  0.5442
 3483SOL     OW21910   0.779   0.268  17.256  0.7071 -0.2423  0.1799
 3483SOL    HW121911   0.723   0.192  17.269 -0.3042  0.1823 -1.6375
 3483SOL    HW221912   0.777   0.306  17.344 -1.9588  1.8798 -0.8005
 3484SOL     OW21913   4.040   1.630   8.665  0.3211 -0.1562  0.1716
 3484SOL    HW121914   4.068   1.636   8.574  0.9605 -0.5641  0.3378
 3484SOL    HW221915   4.097   1.557   8.692  0.1400  0.4823  2.2806
 3485SOL     OW21916   2.199   4.173   4.131  0.0388 -0.4660 -0.1493
 3485SOL    HW121917   2.203   4.213   4.044 -0.9019  0.6471  0.3145
 3485SOL    HW221918   2.142   4.232   4.180  1.9910  1.1756  0.1354
 3486SOL     OW21919   3.170   2.006   0.724  0.5667 -0.1746  0.0090
 3486SOL    HW121920   3.237   2.073   0.719 -0.1891  0.5504 -0.4176
 3486SOL    HW221921   3.140   2.034   0.811  0.9025 -1.9307  0.7044
 3487SOL     OW21922   3.167   4.288  12.207  0.2999  0.0095 -0.8043
 3487SOL    HW121923   3.229   4.361  12.207  1.4913 -0.9828  0.0640
 3487SOL    HW221924   3.125   4.316  12.288 -1.5022  1.0209 -2.1019
 3488SOL     OW21925   3.757   2.952   4.517  0.4632 -0.2651  0.6612
 3488SOL    HW121926   3.788   2.942   4.607 -1.1182  1.2068  1.3856
 3488SOL    HW221927   3.729   3.042   4.531  0.5870 -0.0702 -0.3900
 3489SOL     OW21928   3.928   0.111  10.534 -0.2195 -0.0387 -0.3724
 3489SOL    HW121929   3.932   0.183  10.471  0.3786  2.1147  2.1569
 3489SOL    HW221930   4.018   0.080  10.527 -0.7958 -1.3441 -2.3369
 3490SOL     OW21931   2.756   0.297   6.865  0.5381  0.4441 -0.4961
 3490SOL    HW121932   2.771   0.333   6.952 -0.7328 -0.0131 -0.0951
 3490SOL    HW221933   2.807   0.215   6.868  0.3452  0.3942  1.2304
 3491SOL     OW21934   2.034   4.390   7.463  0.9887 -0.2701 -0.1817
 3491SOL    HW121935   2.083   4.362   7.386  2.2072  0.3325  0.3781
 3491SOL    HW221936   2.044   4.319   7.526  0.7560  0.2367  0.4237
 3492SOL     OW21937   2.437   2.746   4.684 -0.2068  0.7419 -0.1393
 3492SOL    HW121938   2.374   2.803   4.639 -0.0362 -0.7149 -2.2050
 3492SOL    HW221939   2.522   2.774   4.652  0.5513 -0.6947  0.6261
 3493SOL     OW21940   0.061   1.074   8.166 -0.0448 -0.8115 -0.2487
 3493SOL    HW121941   0.091   1.165   8.165 -0.4643 -0.6531  0.7105
 3493SOL    HW221942   0.114   1.036   8.097 -0.1436 -0.3945 -0.5510
 3494SOL     OW21943   3.526   2.547   7.746  0.3545 -0.0804  0.2721
 3494SOL    HW121944   3.601   2.511   7.699  1.2994 -1.2848  2.6656
 3494SOL    HW221945   3.523   2.473   7.807 -1.3842 -0.1896  0.0523
 3495SOL     OW21946   4.316   0.848  11.560 -0.2696 -0.0004  0.0372
 3495SOL    HW121947   4.228   0.835  11.596 -0.6780  0.4984 -0.7811
 3495SOL    HW221948   4.330   0.943  11.560 -1.3408  0.1599  1.4372
 3496SOL     OW21949   4.503   3.021   4.461 -0.0938 -0.6498 -0.2232
 3496SOL    HW121950   4.456   3.054   4.537  1.2031  1.2703 -0.2464
 3496SOL    HW221951   4.543   3.107   4.449 -1.7254 -0.0286 -1.2541
 3497SOL     OW21952   3.457   2.322  12.708  0.2148 -0.3855 -0.6223
 3497SOL    HW121953   3.552   2.319  12.697  0.5325 -0.7765  2.1952
 3497SOL    HW221954   3.446   2.254  12.774 -1.0688 -0.1424 -0.5823
 3498SOL     OW21955   2.092   0.771   3.005  0.0883  0.8163  0.2593
 3498SOL    HW121956   2.113   0.689   2.960  0.8227  1.6412 -0.9140
 3498SOL    HW221957   2.061   0.736   3.089 -1.2433  1.4995  0.0454
 3499SOL     OW21958   2.417   2.342   4.944 -0.6361  0.4926  0.2161
 3499SOL    HW121959   2.391   2.416   4.890 -0.8814  1.3299  1.4647
 3499SOL    HW221960   2.498   2.377   4.981 -0.5753  1.3452 -0.7318
 3500SOL     OW21961   0.529   1.356   8.224 -0.2147  0.0111 -0.5159
 3500SOL    HW121962   0.532   1.356   8.129  2.3809 -1.6431 -0.4062
 3500SOL    HW221963   0.600   1.297   8.246  0.3899  2.6527  4.6455
 3501SOL     OW21964   2.071   1.731   0.942 -0.0815 -0.2846 -0.0083
 3501SOL    HW121965   2.130   1.805   0.953 -0.7502 -0.1275  2.6091
 3501SOL    HW221966   2.061   1.730   0.847  1.8559  1.6644 -0.2267
 3502SOL     OW21967   2.079   3.210  11.859 -0.8166  0.2282  0.1436
 3502SOL    HW121968   2.130   3.221  11.940 -2.6382 -2.7142  1.7101
 3502SOL    HW221969   2.153   3.208  11.798  1.9003 -3.6791  3.5079
 3503SOL     OW21970   3.876   2.729   8.716 -0.6213 -0.5132 -0.3185
 3503SOL    HW121971   3.820   2.778   8.657 -0.5096 -0.6927 -0.5717
 3503SOL    HW221972   3.962   2.769   8.701 -0.9928 -0.1743 -1.5250
 3504SOL     OW21973   3.652   4.046   4.991  0.0343 -0.0666 -0.1324
 3504SOL    HW121974   3.734   4.095   4.997 -0.0661  0.0703  0.1548
 3504SOL    HW221975   3.669   3.993   4.914  0.2735  0.1013 -0.1957
 3505SOL     OW21976   1.576   4.653   2.723 -0.0751 -0.6702 -0.1042
 3505SOL    HW121977   1.555   4.717   2.655 -1.8052  0.8629  1.8954
 3505SOL    HW221978   1.628   4.583   2.684  1.1672 -0.2550  0.7919
 3506SOL     OW21979   2.184   1.885   5.793 -0.3736  0.2544  0.1854
 3506SOL    HW121980   2.163   1.793   5.779  0.7288  0.4896 -3.0024
 3506SOL    HW221981   2.273   1.884   5.759 -0.6965  0.7138 -0.7005
 3507SOL     OW21982   1.362   2.131   5.814 -0.0461  0.0219 -0.4146
 3507SOL    HW121983   1.361   2.075   5.736 -0.0466 -1.0101  0.3303
 3507SOL    HW221984   1.456   2.129   5.830  0.3203  1.2970 -2.3235
 3508SOL     OW21985   2.866   3.169   3.219 -0.2638  0.0918  0.0265
 3508SOL    HW121986   2.782   3.190   3.260 -0.2792 -0.1974  0.1412
 3508SOL    HW221987   2.861   3.075   3.235  1.7650 -0.1868 -1.0002
 3509SOL     OW21988   4.217   0.543   7.550 -0.3860 -0.2335  0.1948
 3509SOL    HW121989   4.295   0.544   7.605  0.1105  0.8009 -0.5205
 3509SOL    HW221990   4.204   0.449   7.542 -1.2580 -0.3442  2.7096
 3510SOL     OW21991   1.538   3.482   4.475  0.4364 -0.0484 -0.4297
 3510SOL    HW121992   1.565   3.450   4.390  1.1403 -0.1001 -0.1867
 3510SOL    HW221993   1.451   3.510   4.447  1.3224  3.7417  0.5408
 3511SOL     OW21994   2.462   3.088  14.357  0.0418  0.6472 -0.1828
 3511SOL    HW121995   2.481   3.017  14.418 -0.4626  2.7634  2.3794
 3511SOL    HW221996   2.495   3.171  14.391  1.3161  0.1944 -0.3103
 3512SOL     OW21997   1.494   1.362  10.297 -0.3367 -0.3019 -0.0502
 3512SOL    HW121998   1.473   1.438  10.351 -2.2354 -0.6266 -0.3106
 3512SOL    HW221999   1.538   1.413  10.230  1.4411  0.4070  1.6350
 3513SOL     OW22000   3.357   1.255   2.157 -0.1972 -0.0606 -0.2761
 3513SOL    HW122001   3.426   1.195   2.184 -0.5285 -0.1940  0.2672
 3513SOL    HW222002   3.280   1.197   2.159 -0.0510 -0.2117  0.6660
 3514SOL     OW22003   2.004   2.838   7.098  0.0367  0.6685 -0.6090
 3514SOL    HW122004   1.925   2.891   7.101  0.2779  1.0858 -1.7960
 3514SOL    HW222005   1.977   2.747   7.110 -0.0209  0.5467 -1.6904
 3515SOL     OW22006   0.108   2.369   0.501 -0.0709  0.6883 -0.1590
 3515SOL    HW122007   0.146   2.449   0.463 -4.0126  2.3971 -0.4825
 3515SOL    HW222008   0.017   2.370   0.471 -0.2419  1.5011  0.3829
 3516SOL     OW22009   4.622   4.183   4.721  1.6586 -0.4697 -0.3370
 3516SOL    HW122010   4.678   4.231   4.782 -1.8364  1.3382  1.4543
 3516SOL    HW222011   4.601   4.252   4.658 -0.4929 -0.7549  0.0647
 3517SOL     OW22012   0.773   4.462   3.631 -0.5103 -0.1986  0.3084
 3517SOL    HW122013   0.851   4.516   3.618 -1.3077  1.5540  2.9667
 3517SOL    HW222014   0.744   4.440   3.542  1.6477 -0.8021 -0.2467
 3518SOL     OW22015   2.310   3.243   1.175 -0.5341 -0.5236  0.4353
 3518SOL    HW122016   2.317   3.297   1.097 -0.9289  0.6298  1.1929
 3518SOL    HW222017   2.319   3.310   1.243 -0.5983  0.0057 -0.0873
 3519SOL     OW22018   2.518   1.473  16.129  0.2555  0.6015  0.7193
 3519SOL    HW122019   2.463   1.474  16.051 -1.3233  0.3142  1.8350
 3519SOL    HW222020   2.586   1.533  16.099 -1.1740  2.1125  0.5185
 3520SOL     OW22021   1.160   2.966   6.058 -0.1059  0.4122  0.2705
 3520SOL    HW122022   1.245   2.921   6.067 -0.9207 -1.3630 -0.9874
 3520SOL    HW222023   1.144   2.955   5.964 -2.8828 -1.0252  0.9202
 3521SOL     OW22024   0.878   3.507   7.550  0.0921  0.2514 -0.1166
 3521SOL    HW122025   0.880   3.564   7.473  0.0348  1.4270  0.7463
 3521SOL    HW222026   0.802   3.454   7.526 -0.3684 -0.4972  3.0078
 3522SOL     OW22027   3.917   1.205  11.530 -0.1877  0.0568 -0.1316
 3522SOL    HW122028   3.828   1.171  11.530 -0.4162  0.6005 -2.0893
 3522SOL    HW222029   3.896   1.295  11.502  1.1984 -0.3423 -2.4621
 3523SOL     OW22030   1.620   0.265   8.758  0.1584  0.6705 -0.4268
 3523SOL    HW122031   1.552   0.332   8.764  0.3868  0.8000  0.7820
 3523SOL    HW222032   1.584   0.219   8.682 -2.1157  1.3296  0.2370
 3524SOL     OW22033   0.235   0.023  13.705 -0.1048 -0.1300  0.5588
 3524SOL    HW122034   0.189   0.092  13.657 -0.9267  0.0928  1.6821
 3524SOL    HW222035   0.172   4.676  13.696  1.3445 -1.2104 -0.8791
 3525SOL     OW22036   3.834   2.875   5.353 -0.5182 -0.5048  0.2682
 3525SOL    HW122037   3.906   2.924   5.394  0.6277 -2.5953  0.7683
 3525SOL    HW222038   3.839   2.783   5.382 -1.9033 -0.9142 -0.8382
 3526SOL     OW22039   1.876   2.578   7.132  0.5742 -0.3259  0.5172
 3526SOL    HW122040   1.865   2.562   7.038  2.4547 -0.4656  0.3211
 3526SOL    HW222041   1.832   2.502   7.168  0.0311 -0.8754 -1.3028
 3527SOL     OW22042   0.502   1.962   4.901 -0.4325 -0.3597  0.2432
 3527SOL    HW122043   0.421   1.915   4.878 -2.7575  4.7230 -2.1460
 3527SOL    HW222044   0.460   2.039   4.941 -3.2817 -2.4882  1.3882
 3528SOL     OW22045   0.999   4.356   5.896  0.0666  0.4793 -0.1745
 3528SOL    HW122046   1.056   4.391   5.964 -1.0600  0.7021  0.6580
 3528SOL    HW222047   0.920   4.409   5.899  0.0617  0.5124 -0.8307
 3529SOL     OW22048   1.441   3.859   0.344  0.0623  0.5990 -0.4233
 3529SOL    HW122049   1.369   3.838   0.403  0.7098  0.8880  0.4725
 3529SOL    HW222050   1.486   3.934   0.384 -2.6198  2.7390 -1.4253
 3530SOL     OW22051   1.011   3.502   0.218 -0.0176  0.1740 -0.8031
 3530SOL    HW122052   0.990   3.525   0.308  0.2195 -0.3010 -0.6232
 3530SOL    HW222053   0.984   3.582   0.174  0.1927  0.2746 -0.7492
 3531SOL     OW22054   0.350   2.158   6.945 -0.1820  0.2080 -0.6468
 3531SOL    HW122055   0.323   2.115   7.026  1.9003  1.3314  0.6617
 3531SOL    HW222056   0.442   2.181   6.960 -0.3362  0.3378  0.1171
 3532SOL     OW22057   2.471   3.687   3.216  0.0947 -0.0117 -0.0178
 3532SOL    HW122058   2.478   3.603   3.170  0.8274  0.3650 -0.6023
 3532SOL    HW222059   2.553   3.684   3.264 -0.4998  0.2367  1.0167
 3533SOL     OW22060   0.118   4.004   1.370  0.0628 -0.2974 -0.3590
 3533SOL    HW122061   0.082   3.963   1.449 -1.4669  0.1796 -0.8174
 3533SOL    HW222062   0.074   4.088   1.381  3.3764  1.4214 -0.2045
 3534SOL     OW22063   1.280   0.680  10.435 -0.3935 -0.2188 -0.2503
 3534SOL    HW122064   1.186   0.687  10.418 -0.7749 -0.4732  1.7477
 3534SOL    HW222065   1.288   0.648  10.524  0.5062 -0.5140 -0.4381
 3535SOL     OW22066   3.806   0.759   6.849  0.8489  0.7064 -0.4017
 3535SOL    HW122067   3.803   0.855   6.844  0.0063  0.6565 -0.8121
 3535SOL    HW222068   3.877   0.740   6.789  0.4402  3.8432 -1.8570
 3536SOL     OW22069   1.593   1.992   4.141  0.5159 -0.1860 -0.1439
 3536SOL    HW122070   1.545   2.040   4.209 -1.9053 -0.3680 -1.7087
 3536SOL    HW222071   1.544   2.012   4.062  1.8176  0.3058 -0.8275
 3537SOL     OW22072   0.693   0.737   2.242  0.0744  0.4211  0.2637
 3537SOL    HW122073   0.686   0.724   2.337 -0.7860  1.0019  0.2767
 3537SOL    HW222074   0.702   0.643   2.224  0.5705  0.3163  1.0222
 3538SOL     OW22075   2.945   4.129   6.549 -0.2571  0.1590 -0.2149
 3538SOL    HW122076   2.892   4.052   6.527 -0.1968 -0.1029  0.5532
 3538SOL    HW222077   2.884   4.198   6.523 -0.3028 -0.2597 -1.2340
 3539SOL     OW22078   4.181   0.357   8.964 -0.9717 -0.2246 -0.2194
 3539SOL    HW122079   4.168   0.289   8.898  0.7521  1.0150 -1.8616
 3539SOL    HW222080   4.100   0.405   8.944 -0.3528 -0.0053 -2.2402
 3540SOL     OW22081   2.804   1.740   6.162 -0.4556 -0.2060 -0.2223
 3540SOL    HW122082   2.884   1.723   6.112  0.1049  1.6676  0.0612
 3540SOL    HW222083   2.758   1.659   6.139 -0.2216 -0.4660  0.2285
 3541SOL     OW22084   3.745   0.167   2.570  0.4643  0.2735  0.4066
 3541SOL    HW122085   3.728   0.075   2.548 -2.0442  0.1118  2.9875
 3541SOL    HW222086   3.788   0.160   2.654  0.2288  0.4979  0.5484
 3542SOL     OW22087   3.644   4.436   8.729  0.1764  0.1979 -0.8486
 3542SOL    HW122088   3.643   4.511   8.789  3.7836 -0.6454  0.2421
 3542SOL    HW222089   3.611   4.364   8.782 -1.2633  0.2832 -1.6370
 3543SOL     OW22090   2.245   0.780   3.478  0.5146  0.5052 -0.4032
 3543SOL    HW122091   2.284   0.864   3.452 -0.2770  0.9555 -0.1310
 3543SOL    HW222092   2.188   0.760   3.404 -2.0465 -3.1935  2.6115
 3544SOL     OW22093   1.820   3.271   9.801  0.5988 -0.4808  0.2019
 3544SOL    HW122094   1.740   3.235   9.840 -1.8424  2.0782 -2.3847
 3544SOL    HW222095   1.843   3.194   9.748 -0.6902 -0.4615 -0.4035
 3545SOL     OW22096   3.458   1.583   8.750  0.0353  0.1403 -0.3967
 3545SOL    HW122097   3.544   1.617   8.728 -0.3887  1.0186 -0.6812
 3545SOL    HW222098   3.431   1.564   8.661 -0.1494  0.4192 -0.4014
 3546SOL     OW22099   0.505   0.516  10.691  0.2723  0.3675 -0.0180
 3546SOL    HW122100   0.446   0.443  10.675  0.2590  0.0382  1.5759
 3546SOL    HW222101   0.514   0.518  10.786  0.0531 -3.0652  0.0628
 3547SOL     OW22102   3.048   1.049  15.989 -0.0250  0.2568  0.2565
 3547SOL    HW122103   2.957   1.021  15.976  0.3703 -1.3242  0.9115
 3547SOL    HW222104   3.070   1.038  15.896 -0.4618 -0.5188  0.2429
 3548SOL     OW22105   1.427   0.593   7.875  0.1848 -0.5946 -0.0338
 3548SOL    HW122106   1.489   0.537   7.828 -1.1416 -0.9959 -1.3068
 3548SOL    HW222107   1.366   0.523   7.900  2.4585 -2.4945  0.2589
 3549SOL     OW22108   0.798   0.983   6.383 -0.8710  0.4081 -0.6932
 3549SOL    HW122109   0.763   1.029   6.459 -1.2991  0.0849 -0.6914
 3549SOL    HW222110   0.839   1.060   6.343  1.3125 -0.8506 -0.8607
 3550SOL     OW22111   4.138   3.718   5.814 -0.2274  0.4065  0.3320
 3550SOL    HW122112   4.052   3.750   5.788  0.1024 -0.6939 -2.0836
 3550SOL    HW222113   4.105   3.664   5.886 -0.5404 -2.3482 -1.8743
 3551SOL     OW22114   0.661   4.687   4.291  0.6535 -0.5096 -0.0904
 3551SOL    HW122115   0.637   4.600   4.321  2.0119 -0.5615  0.8245
 3551SOL    HW222116   0.745   4.704   4.333  0.4309  0.1400  0.0968
 3552SOL     OW22117   4.091   2.470  14.013 -0.1220 -0.2839 -0.0228
 3552SOL    HW122118   4.050   2.387  13.987 -3.5130  0.8901  1.5221
 3552SOL    HW222119   4.044   2.505  14.089  1.2609 -1.1682  1.2378
 3553SOL     OW22120   2.962   0.838  14.522  0.1635  0.1605 -0.2604
 3553SOL    HW122121   2.891   0.857  14.460 -0.4760 -0.3948  0.2983
 3553SOL    HW222122   3.035   0.840  14.460 -0.6616 -1.2069 -1.2846
 3554SOL     OW22123   1.490   2.031   8.229 -0.6007  0.1091  0.4890
 3554SOL    HW122124   1.445   2.073   8.155 -0.9075 -2.3102 -0.7205
 3554SOL    HW222125   1.568   2.082   8.247  0.2125 -0.8668 -0.2771
 3555SOL     OW22126   3.349   1.864   8.633  0.1648  0.0732  0.1847
 3555SOL    HW122127   3.279   1.874   8.568 -0.4380  2.5858  1.2354
 3555SOL    HW222128   3.403   1.802   8.585  1.3465  1.5528 -0.3918
 3556SOL     OW22129   2.492   2.934   1.710 -0.4515  0.0217 -0.4207
 3556SOL    HW122130   2.564   2.970   1.658 -1.7086  0.1986 -2.0376
 3556SOL    HW222131   2.534   2.940   1.795 -1.3977  0.2268  0.0337
 3557SOL     OW22132   4.054   0.219   4.010  0.4655 -0.0954 -0.7570
 3557SOL    HW122133   3.986   0.233   3.944  0.0931  3.2930  0.3097
 3557SOL    HW222134   4.110   0.294   3.990 -1.4661  1.3825 -0.6807
 3558SOL     OW22135   2.883   4.681   1.669  0.1128  0.0394 -0.4315
 3558SOL    HW122136   2.836   4.599   1.686 -1.2782  1.0870  0.7988
 3558SOL    HW222137   2.816   0.014   1.631 -0.5428  0.2586  1.0753
 3559SOL     OW22138   1.510   3.253   2.568 -0.0070 -0.3566  0.4822
 3559SOL    HW122139   1.527   3.280   2.478  2.4163  0.5591  1.2040
 3559SOL    HW222140   1.486   3.162   2.551 -1.2921  0.0671  0.0213
 3560SOL     OW22141   1.762   3.425  16.340  0.2249 -0.1808  0.7724
 3560SOL    HW122142   1.858   3.421  16.349  0.3238  1.7832  0.6463
 3560SOL    HW222143   1.756   3.515  16.372  1.7056  0.0685  0.3638
 3561SOL     OW22144   1.285   0.642  14.328 -0.2965 -0.0053 -0.7160
 3561SOL    HW122145   1.342   0.566  14.337 -0.4122  0.0475  0.4394
 3561SOL    HW222146   1.340   0.710  14.366 -0.0525 -1.1111  0.8928
 3562SOL     OW22147   2.619   1.486   8.152 -0.2535  0.2552  0.3881
 3562SOL    HW122148   2.544   1.450   8.105 -0.5793  1.1035  0.2483
 3562SOL    HW222149   2.571   1.518   8.229 -0.4982  1.9178 -0.4465
 3563SOL     OW22150   0.383   0.707   5.466  0.6808 -0.2680  0.2835
 3563SOL    HW122151   0.460   0.763   5.458  0.9079 -0.2997  2.2426
 3563SOL    HW222152   0.388   0.642   5.396 -2.0139 -0.4097  0.2157
 3564SOL     OW22153   4.457   2.063   6.752 -0.5634 -0.1887  0.1996
 3564SOL    HW122154   4.514   2.128   6.712  1.2106 -0.7054  1.9032
 3564SOL    HW222155   4.475   1.982   6.703 -0.9143 -0.7404  0.9717
 3565SOL     OW22156   1.274   3.495   6.859  0.1882  0.8001 -0.0424
 3565SOL    HW122157   1.221   3.574   6.864 -2.5124 -1.1142  2.2252
 3565SOL    HW222158   1.346   3.527   6.807  0.5752 -1.0285 -0.6493
 3566SOL     OW22159   0.332   0.168   5.770 -0.4143 -0.0668  0.3303
 3566SOL    HW122160   0.315   0.113   5.846 -2.0004 -2.1777 -1.5511
 3566SOL    HW222161   0.320   0.258   5.800  0.7139 -0.4378  1.8797
 3567SOL     OW22162   3.184   0.464   9.580  0.6367  0.4655 -0.5434
 3567SOL    HW122163   3.168   0.374   9.553  3.7247 -0.8157  1.9223
 3567SOL    HW222164   3.100   0.509   9.574  0.4943  0.2547 -0.1564
 3568SOL     OW22165   2.250   0.162  17.170  0.8108  0.1909 -0.4314
 3568SOL    HW122166   2.336   0.190  17.200  0.5391  0.2161  0.3216
 3568SOL    HW222167   2.277   0.087  17.117  1.8191  0.2967 -0.0580
 3569SOL     OW22168   1.764   1.837   8.710 -0.6888 -0.3797  0.0801
 3569SOL    HW122169   1.671   1.833   8.688 -0.6297  0.2556 -0.2965
 3569SOL    HW222170   1.762   1.899   8.782  1.7724 -0.3362  0.1074
 3570SOL     OW22171   0.269   2.822   2.922 -0.7607 -0.8953  0.1002
 3570SOL    HW122172   0.242   2.783   2.839 -1.6563  0.3745 -0.2164
 3570SOL    HW222173   0.314   2.747   2.961 -1.3299 -0.6170  1.2908
 3571SOL     OW22174   2.509   4.213  16.953 -0.0133  0.0049 -0.4825
 3571SOL    HW122175   2.473   4.284  16.899 -1.0822 -0.9704 -1.0575
 3571SOL    HW222176   2.559   4.160  16.891 -1.0633  0.9367 -2.1397
 3572SOL     OW22177   4.515   3.126   9.452  0.3020  0.7618 -0.1065
 3572SOL    HW122178   4.448   3.097   9.390 -0.4448  1.9398  0.1443
 3572SOL    HW222179   4.456   3.182   9.503 -0.9761 -1.5796  0.9472
 3573SOL     OW22180   2.881   1.547  13.736  0.5189  0.3308  0.4319
 3573SOL    HW122181   2.932   1.532  13.816 -1.0968  0.3675  1.4740
 3573SOL    HW222182   2.794   1.562  13.773 -0.2990  1.7267 -2.0930
 3574SOL     OW22183   3.181   1.101   3.706  0.0909 -0.6129 -0.4635
 3574SOL    HW122184   3.179   1.154   3.627 -1.8163 -0.2438 -0.1516
 3574SOL    HW222185   3.247   1.034   3.684  0.3823 -0.1087 -1.1424
 3575SOL     OW22186   2.458   3.348   7.360  0.5747 -0.9580  0.7378
 3575SOL    HW122187   2.375   3.385   7.330  1.9768  1.1430 -0.5390
 3575SOL    HW222188   2.466   3.398   7.441  2.1558  0.4022 -0.2486
 3576SOL     OW22189   2.521   0.264  17.230  0.1583 -0.0079  0.4778
 3576SOL    HW122190   2.535   0.352  17.265 -0.8016  1.4952 -2.9812
 3576SOL    HW222191   2.595   0.221  17.274  0.2717 -2.3160 -1.9527
 3577SOL     OW22192   4.273   4.371   5.309 -0.2041 -0.2149  0.1361
 3577SOL    HW122193   4.205   4.407   5.252  1.3482  0.1237 -1.5231
 3577SOL    HW222194   4.352   4.378   5.255  0.8267  0.5610  1.7410
 3578SOL     OW22195   2.969   1.369   7.628 -0.3734 -0.0018 -0.2357
 3578SOL    HW122196   2.877   1.363   7.654  0.3464  1.1915  2.6227
 3578SOL    HW222197   2.962   1.427   7.553  0.5638 -0.4761 -0.7010
 3579SOL     OW22198   0.155   3.178   2.432  0.1046  1.0180 -0.0076
 3579SOL    HW122199   0.138   3.161   2.339 -0.8086 -2.7601  0.8440
 3579SOL    HW222200   0.250   3.174   2.431  0.0919  0.8371 -0.7944
 3580SOL     OW22201   2.885   0.527   5.064  0.1898 -0.4290 -0.2498
 3580SOL    HW122202   2.842   0.441   5.058  2.5480 -1.7609  1.7983
 3580SOL    HW222203   2.821   0.560   5.002 -2.5090  1.6542  3.6118
 3581SOL     OW22204   3.890   3.899  14.992  0.1016  0.6878 -0.2413
 3581SOL    HW122205   3.978   3.929  14.970  0.3958  0.1590  0.2184
 3581SOL    HW222206   3.897   3.811  14.956  1.0739  0.3413  0.8164
 3582SOL     OW22207   4.483   2.978  13.179 -0.0184  0.3509 -0.3248
 3582SOL    HW122208   4.442   2.969  13.094 -2.7534 -1.4553  1.1790
 3582SOL    HW222209   4.436   3.044  13.231  0.6995 -0.1006  0.9122
 3583SOL     OW22210   1.417   2.857   3.619  0.2161 -0.0678  0.1560
 3583SOL    HW122211   1.410   2.789   3.686  0.3860  1.2273  1.4886
 3583SOL    HW222212   1.436   2.805   3.541  0.4834 -0.5111  0.5098
 3584SOL     OW22213   1.081   0.959  10.594  0.0634 -0.0081 -0.2495
 3584SOL    HW122214   1.102   1.045  10.556 -0.4690 -0.0592 -0.6565
 3584SOL    HW222215   1.126   0.905  10.528 -1.2383 -0.1469 -1.0123
 3585SOL     OW22216   1.366   1.126   0.775  0.0589  0.1603 -0.0940
 3585SOL    HW122217   1.400   1.089   0.856  0.7796 -0.8159 -0.8447
 3585SOL    HW222218   1.447   1.120   0.724  0.3405 -1.2132  0.5296
 3586SOL     OW22219   0.462   0.830   3.372 -0.0762 -0.4322  0.1360
 3586SOL    HW122220   0.555   0.818   3.353 -0.3377 -0.1327 -1.3323
 3586SOL    HW222221   0.456   0.923   3.348  0.1184 -0.3540  0.3870
 3587SOL     OW22222   4.060   2.632   6.532 -0.3597 -0.0880 -0.3058
 3587SOL    HW122223   4.130   2.574   6.561 -1.3654 -0.6645  0.9421
 3587SOL    HW222224   4.101   2.681   6.460  0.2385  0.4812  0.4174
 3588SOL     OW22225   3.730   3.884   4.781  0.0380 -0.0998  0.1949
 3588SOL    HW122226   3.690   3.915   4.699 -0.5967  2.2457  1.4015
 3588SOL    HW222227   3.820   3.864   4.754 -0.8142 -2.4942 -0.8217
 3589SOL     OW22228   0.946   0.610  16.396  0.0903  0.2699 -0.0711
 3589SOL    HW122229   0.979   0.691  16.358 -0.5826  0.8367  0.5402
 3589SOL    HW222230   0.879   0.652  16.450  1.9357  0.1904  2.2729
 3590SOL     OW22231   0.585   2.383   7.043 -0.5707  0.5946 -0.1066
 3590SOL    HW122232   0.539   2.452   6.995 -1.1629  1.0122  1.0648
 3590SOL    HW222233   0.650   2.354   6.978 -2.6530  1.3726 -2.5337
 3591SOL     OW22234   1.228   1.728  15.355 -0.7140  0.2346  0.5983
 3591SOL    HW122235   1.153   1.755  15.407 -1.2652  0.5158 -0.3549
 3591SOL    HW222236   1.238   1.803  15.297 -1.9222 -0.1366 -0.0914
 3592SOL     OW22237   1.024   2.452   5.078 -0.3566  0.2861 -0.0007
 3592SOL    HW122238   1.049   2.435   4.987 -0.7305  0.2333 -0.0937
 3592SOL    HW222239   1.079   2.384   5.118 -1.3980  0.0299  0.9777
 3593SOL     OW22240   0.827   4.560   4.729 -0.3236  0.2694 -0.4581
 3593SOL    HW122241   0.859   4.639   4.685  0.4080 -0.1409 -0.6618
 3593SOL    HW222242   0.760   4.588   4.792  0.9076  1.6062  0.2677
 3594SOL     OW22243   0.479   1.139   2.755 -0.0551  0.1525  0.5200
 3594SOL    HW122244   0.490   1.069   2.819 -0.8218 -0.2515  0.2007
 3594SOL    HW222245   0.490   1.084   2.677 -0.7974 -0.3770  0.7957
 3595SOL     OW22246   4.299   2.324   4.802  0.1302  0.3944 -0.0378
 3595SOL    HW122247   4.241   2.274   4.744 -1.8871  0.0024  2.2898
 3595SOL    HW222248   4.274   2.411   4.772  1.5009 -0.3259 -3.2957
 3596SOL     OW22249   1.917   4.289   0.749  0.3874  0.3013  0.4533
 3596SOL    HW122250   1.887   4.218   0.806  0.2229 -1.2489 -1.5466
 3596SOL    HW222251   2.012   4.281   0.756  0.3306 -0.7814  0.0415
 3597SOL     OW22252   3.313   1.756   2.179  0.2289 -0.0446 -0.5798
 3597SOL    HW122253   3.266   1.673   2.173  0.4041 -0.2577  1.0871
 3597SOL    HW222254   3.379   1.737   2.113  1.2160  2.3411 -0.3105
 3598SOL     OW22255   2.181   2.841   1.763 -0.0588  0.1104 -0.5344
 3598SOL    HW122256   2.232   2.779   1.711  1.5246  0.4115  0.6656
 3598SOL    HW222257   2.251   2.904   1.782  0.2259 -0.7123  1.1351
 3599SOL     OW22258   2.038   1.425   9.446 -0.1209  0.2986 -0.1468
 3599SOL    HW122259   1.964   1.463   9.493 -0.1687  1.2615 -0.9841
 3599SOL    HW222260   2.029   1.336   9.480 -3.9201  1.0845  0.8810
 3600SOL     OW22261   0.731   2.853   8.938  0.2595  0.5041 -0.0614
 3600SOL    HW122262   0.667   2.920   8.914  1.5082  0.3877 -3.7800
 3600SOL    HW222263   0.723   2.851   9.033  1.9576  2.2191  0.1231
 3601SOL     OW22264   3.774   3.674   4.344 -0.6213  0.0478  0.0716
 3601SOL    HW122265   3.865   3.672   4.313 -0.6182 -2.5641  0.2388
 3601SOL    HW222266   3.727   3.684   4.261  0.8940  1.0118 -0.6831
 3602SOL     OW22267   0.813   2.031   3.083 -0.3591  0.2223  0.4364
 3602SOL    HW122268   0.733   2.074   3.112 -1.0217 -0.5840 -0.1913
 3602SOL    HW222269   0.836   2.074   3.001  1.2555 -2.4692 -0.5360
 3603SOL     OW22270   3.931   4.471   6.381 -0.1849  0.3295  0.1241
 3603SOL    HW122271   3.851   4.519   6.401  1.1407  2.2379  0.8801
 3603SOL    HW222272   3.949   4.502   6.292 -0.2504 -0.2872 -0.1004
 3604SOL     OW22273   2.181   3.415   2.920 -0.2297  0.9382  0.0725
 3604SOL    HW122274   2.112   3.404   2.854  0.7399 -1.2450 -0.5914
 3604SOL    HW222275   2.152   3.499   2.955 -4.7174  1.0209 -3.7382
 3605SOL     OW22276   3.977   2.836  12.903 -0.2216  0.5999 -0.3320
 3605SOL    HW122277   3.975   2.793  12.989  1.1959 -1.1684 -1.1850
 3605SOL    HW222278   3.921   2.912  12.921 -0.5742 -0.0327  1.3326
 3606SOL     OW22279   3.737   2.625   4.662 -0.2377  0.1086  0.0497
 3606SOL    HW122280   3.778   2.618   4.748  0.8031 -0.5613 -0.5064
 3606SOL    HW222281   3.661   2.679   4.683 -0.4344  0.1722 -0.8172
 3607SOL     OW22282   3.769   2.584   7.993  0.1085  0.3426 -0.0148
 3607SOL    HW122283   3.844   2.537   7.957  0.3884  0.8078 -0.0375
 3607SOL    HW222284   3.787   2.584   8.087 -2.1253  0.8159  0.3981
 3608SOL     OW22285   3.022   2.848   8.027 -0.5430 -0.2697 -0.7341
 3608SOL    HW122286   3.086   2.874   8.094  0.6261  0.2043 -2.0192
 3608SOL    HW222287   2.945   2.822   8.076 -1.2397  1.5125 -0.8661
 3609SOL     OW22288   0.594   3.104   5.312 -0.4228 -0.0869  0.8914
 3609SOL    HW122289   0.576   3.195   5.332 -1.7156 -0.3677  0.9994
 3609SOL    HW222290   0.507   3.064   5.310 -0.4644  0.1641 -2.6841
 3610SOL     OW22291   3.074   2.158   9.174  0.2717  0.7527  0.1223
 3610SOL    HW122292   3.142   2.149   9.241 -0.0008  0.6123  0.3745
 3610SOL    HW222293   3.066   2.067   9.144  0.0067  1.8607 -3.2143
 3611SOL     OW22294   2.084   3.103   6.453  0.2621 -0.3656  0.0884
 3611SOL    HW122295   2.065   3.105   6.547  0.1818  1.3533  0.0354
 3611SOL    HW222296   2.003   3.131   6.411  0.2815  1.7521  1.4224
 3612SOL     OW22297   0.661   2.840   4.414  0.5105 -0.3655 -0.4088
 3612SOL    HW122298   0.725   2.784   4.459  0.1904  0.2217  0.7629
 3612SOL    HW222299   0.707   2.822   4.332  0.2708 -0.5256 -0.5093
 3613SOL     OW22300   0.794   0.146   3.510 -0.5788 -0.0428  0.2648
 3613SOL    HW122301   0.783   0.111   3.598 -1.1450  1.6650  0.8735
 3613SOL    HW222302   0.876   0.188   3.535  1.1685 -2.3117 -1.6943
 3614SOL     OW22303   0.952   1.440   6.896 -0.4752  0.2172  0.0100
 3614SOL    HW122304   0.944   1.344   6.893 -0.9644  0.2419  0.6152
 3614SOL    HW222305   0.893   1.462   6.968  0.3254  2.7309 -0.1155
 3615SOL     OW22306   2.751   4.352   9.136 -0.1671  0.6366  0.4798
 3615SOL    HW122307   2.746   4.278   9.076  1.3980 -0.3041  1.5234
 3615SOL    HW222308   2.658   4.376   9.144 -0.7120 -0.8194 -1.3349
 3616SOL     OW22309   2.200   1.962   7.059 -0.0179  0.5867 -0.4514
 3616SOL    HW122310   2.252   2.028   7.012 -0.8455  0.7239 -1.1782
 3616SOL    HW222311   2.196   2.023   7.132 -0.7323 -0.5881  0.4826
 3617SOL     OW22312   1.794   1.158   3.926  0.5660 -0.4580 -0.4840
 3617SOL    HW122313   1.874   1.122   3.888  0.1609 -1.4745 -0.3648
 3617SOL    HW222314   1.802   1.119   4.013  0.7200 -0.7726 -0.6393
 3618SOL     OW22315   1.176   1.034   3.578 -0.0956 -0.2018 -0.0313
 3618SOL    HW122316   1.253   1.088   3.557  1.2121 -1.5645  1.2347
 3618SOL    HW222317   1.134   1.081   3.650  0.6740 -1.3315  1.1486
 3619SOL     OW22318   1.602   1.259   5.577 -0.1971  0.4522 -0.0309
 3619SOL    HW122319   1.696   1.252   5.558 -0.3314  0.0321 -0.5446
 3619SOL    HW222320   1.600   1.354   5.590 -0.5171  0.7456 -2.1973
 3620SOL     OW22321   0.020   2.994  16.381  0.4521 -0.2696 -0.5790
 3620SOL    HW122322   0.005   3.087  16.363 -0.6627 -0.8949 -2.9595
 3620SOL    HW222323   4.661   2.956  16.356 -1.5526  2.2823  2.3143
 3621SOL     OW22324   2.015   3.031   6.711  0.4561  0.4259 -0.0140
 3621SOL    HW122325   1.999   3.102   6.773  0.4901  1.5900 -1.3235
 3621SOL    HW222326   2.079   2.983   6.763 -0.3708 -1.6526 -0.9268
 3622SOL     OW22327   4.170   3.922   2.376  0.6184  0.5998 -0.2968
 3622SOL    HW122328   4.116   3.907   2.298  0.4021 -0.4553  0.0514
 3622SOL    HW222329   4.244   3.863   2.359 -0.3328 -0.7258  0.1748
 3623SOL     OW22330   0.822   0.012   9.440 -0.2415 -0.0796  0.0391
 3623SOL    HW122331   0.898   4.719   9.496 -0.1974  0.9016  0.2756
 3623SOL    HW222332   0.771   0.063   9.503 -1.0508 -1.4245  0.4703
 3624SOL     OW22333   2.527   1.165  15.163  0.2554 -0.5704  0.2035
 3624SOL    HW122334   2.458   1.197  15.104 -1.7881  0.4805  3.1967
 3624SOL    HW222335   2.474   1.185  15.240  0.3273 -0.9433  0.3495
 3625SOL     OW22336   2.986   4.226   7.348  0.8734 -0.6308  0.1380
 3625SOL    HW122337   2.899   4.235   7.388  0.7333 -2.2609  0.2266
 3625SOL    HW222338   3.004   4.148   7.401 -1.1438 -0.5008  1.0374
 3626SOL     OW22339   3.388   3.869   4.552 -0.5492  0.3507 -0.0306
 3626SOL    HW122340   3.469   3.920   4.554  0.6834 -1.6104 -0.1039
 3626SOL    HW222341   3.348   3.914   4.478  0.2418  1.3477  0.1474
 3627SOL     OW22342   2.663   0.785   4.584 -0.4280 -0.9322 -0.1985
 3627SOL    HW122343   2.709   0.860   4.547 -2.7672  0.3878 -0.4179
 3627SOL    HW222344   2.627   0.733   4.512  2.9853 -2.0697 -1.1047
 3628SOL     OW22345   0.041   3.812   4.242 -0.2907 -0.3454 -1.1632
 3628SOL    HW122346   0.029   3.905   4.262 -0.9379 -1.0174  1.5303
 3628SOL    HW222347   0.136   3.822   4.241 -0.2102 -1.1685 -1.5224
 3629SOL     OW22348   0.189   3.698   5.188 -0.1709 -0.3053 -0.1739
 3629SOL    HW122349   0.237   3.773   5.223 -1.2474  0.3399 -0.0796
 3629SOL    HW222350   0.234   3.629   5.237  0.7677  1.7656  1.8908
 3630SOL     OW22351   4.154   0.160   8.778 -0.0555  0.3098 -0.0366
 3630SOL    HW122352   4.069   0.116   8.788  0.0242  0.1723  0.0252
 3630SOL    HW222353   4.159   0.145   8.684  1.6113 -1.7987  0.3991
 3631SOL     OW22354   0.606   3.668   5.882 -0.5842  0.2088 -0.2053
 3631SOL    HW122355   0.577   3.615   5.807 -2.2191  0.5327  0.1925
 3631SOL    HW222356   0.687   3.623   5.906 -1.7943 -2.3066 -0.8609
 3632SOL     OW22357   2.893   4.364   4.409  0.4369 -0.3260  0.3028
 3632SOL    HW122358   2.838   4.436   4.377  0.4361 -0.8783 -0.9606
 3632SOL    HW222359   2.981   4.402   4.400  1.7654 -3.2862  0.9706
 3633SOL     OW22360   1.251   1.248   9.524 -0.2225 -0.4821  0.6018
 3633SOL    HW122361   1.209   1.182   9.579 -1.0531 -1.4313 -1.1648
 3633SOL    HW222362   1.339   1.244   9.561  0.3501 -2.4287 -0.9094
 3634SOL     OW22363   0.605   3.836   3.432  0.1135 -0.4112  0.4176
 3634SOL    HW122364   0.568   3.751   3.407 -1.8442  0.5834 -0.1109
 3634SOL    HW222365   0.674   3.798   3.486  0.5470 -0.5227 -0.2170
 3635SOL     OW22366   3.366   4.303   5.898  0.3104  0.3003 -0.2386
 3635SOL    HW122367   3.345   4.374   5.837 -0.7741 -0.0189 -0.2298
 3635SOL    HW222368   3.358   4.234   5.833 -0.6203  0.4010 -0.2232
 3636SOL     OW22369   4.176   4.140   5.891  0.3731  0.0556  0.2853
 3636SOL    HW122370   4.221   4.224   5.893 -1.5930  1.0908  1.9912
 3636SOL    HW222371   4.088   4.172   5.912 -0.2455 -0.9053 -0.8347
 3637SOL     OW22372   3.637   0.924  14.886 -0.2403 -0.7922 -0.3990
 3637SOL    HW122373   3.555   0.921  14.935  0.4940 -0.5469  0.8406
 3637SOL    HW222374   3.602   0.897  14.801 -1.5725 -1.4149  0.3462
 3638SOL     OW22375   1.726   2.188   8.186  0.0860  0.1057 -0.4540
 3638SOL    HW122376   1.784   2.231   8.124  0.5436 -2.0743 -1.5586
 3638SOL    HW222377   1.748   2.237   8.265 -2.0503  0.7268 -0.2526
 3639SOL     OW22378   0.883   0.090   9.185 -0.3407  0.5797 -0.1279
 3639SOL    HW122379   0.948   0.027   9.153 -2.0342 -0.9518 -0.5698
 3639SOL    HW222380   0.851   0.042   9.262  0.6621 -0.4610 -0.3501
 3640SOL     OW22381   2.269   2.206   7.544  0.2191 -0.2467 -0.3033
 3640SOL    HW122382   2.293   2.136   7.605  0.8363  0.9530  0.8329
 3640SOL    HW222383   2.355   2.219   7.504  1.1639  0.2492  1.8823
 3641SOL     OW22384   0.305   2.543   5.950 -0.4620 -0.3182 -0.0011
 3641SOL    HW122385   0.268   2.530   5.863  1.4926  1.6896 -1.1189
 3641SOL    HW222386   0.380   2.486   5.940  2.0733  3.0718 -0.3605
 3642SOL     OW22387   2.706   0.019  14.079 -0.3531  0.2985 -0.2976
 3642SOL    HW122388   2.726   4.677  14.014 -0.0056  0.4377 -0.3336
 3642SOL    HW222389   2.733   4.698  14.159  3.2037 -0.1805 -1.7994
 3643SOL     OW22390   0.455   2.213  12.641  0.9411  0.4615  0.2650
 3643SOL    HW122391   0.390   2.282  12.628  1.0851  0.2839 -1.4127
 3643SOL    HW222392   0.503   2.217  12.558  0.5404 -0.3152 -0.0037
 3644SOL     OW22393   1.859   2.837   2.212  0.5183 -0.0177  0.0819
 3644SOL    HW122394   1.773   2.878   2.204  0.9646  0.7701 -0.7631
 3644SOL    HW222395   1.884   2.898   2.281  1.3579 -1.5589  1.1196
 3645SOL     OW22396   4.388   4.597   1.804  0.1530 -0.4261  0.3865
 3645SOL    HW122397   4.386   4.692   1.800 -0.3018 -0.3605  2.0886
 3645SOL    HW222398   4.294   4.579   1.796  0.5851 -2.3670 -0.4654
 3646SOL     OW22399   1.188   2.515   5.624  0.8441 -0.1971 -0.6243
 3646SOL    HW122400   1.178   2.610   5.638 -0.2875 -0.0260 -2.6366
 3646SOL    HW222401   1.271   2.490   5.663 -0.2388 -0.2896  1.6372
 3647SOL     OW22402   1.764   2.770  12.640 -0.0766  0.5559  0.3551
 3647SOL    HW122403   1.730   2.850  12.680  0.2892  0.8558  0.0674
 3647SOL    HW222404   1.856   2.783  12.663  0.8392  0.0189 -2.9888
 3648SOL     OW22405   1.302   0.177  16.706 -0.4467  0.2584 -0.3982
 3648SOL    HW122406   1.212   0.156  16.732 -0.7002  0.9624 -0.7146
 3648SOL    HW222407   1.281   0.197  16.615  1.9253 -0.2485 -1.0486
 3649SOL     OW22408   1.518   2.583   2.361 -0.1134 -0.1178 -0.9483
 3649SOL    HW122409   1.563   2.591   2.445 -1.4849 -0.4683 -0.1807
 3649SOL    HW222410   1.590   2.586   2.298  1.3489  1.0352  0.7914
 3650SOL     OW22411   0.589   4.079   7.542  0.0974 -0.0052 -0.2001
 3650SOL    HW122412   0.577   4.153   7.601  0.6037 -0.4112  0.4086
 3650SOL    HW222413   0.545   4.115   7.465 -1.3621  2.5290  1.8044
 3651SOL     OW22414   1.484   0.045  11.450  0.4291 -0.1961 -0.1078
 3651SOL    HW122415   1.394   0.079  11.455  1.3767  2.3858 -0.7349
 3651SOL    HW222416   1.535   0.126  11.451 -0.8113  0.5583  2.3057
 3652SOL     OW22417   1.395   2.647   2.071 -0.0193 -0.0823  0.6370
 3652SOL    HW122418   1.463   2.632   2.137  1.1373  0.5719 -0.3986
 3652SOL    HW222419   1.446   2.697   2.008 -1.3892  2.9593  1.9517
 3653SOL     OW22420   0.454   2.479   8.463 -0.2106 -0.3212 -0.5750
 3653SOL    HW122421   0.370   2.496   8.421 -0.5544 -0.8410 -0.0940
 3653SOL    HW222422   0.438   2.542   8.533  2.1290 -1.8692  1.3817
 3654SOL     OW22423   0.180   4.312  13.347 -0.2996  0.4805 -0.2736
 3654SOL    HW122424   0.166   4.311  13.441 -0.4405  0.0550 -0.2992
 3654SOL    HW222425   0.103   4.268  13.311 -1.4486  1.3472  1.1302
 3655SOL     OW22426   0.365   2.467  12.541 -0.6606  0.0333 -0.3604
 3655SOL    HW122427   0.283   2.492  12.498 -0.0949  0.2401 -1.3185
 3655SOL    HW222428   0.425   2.512  12.481  1.0390 -0.9308  0.6259
 3656SOL     OW22429   0.982   0.329   1.797 -0.6287 -0.2462 -0.3394
 3656SOL    HW122430   1.019   0.266   1.735 -1.0012  1.5201 -2.3784
 3656SOL    HW222431   1.025   0.315   1.881 -0.0092 -1.3544 -0.8481
 3657SOL     OW22432   1.532   3.131   9.855  0.2170 -0.0185 -0.0260
 3657SOL    HW122433   1.509   3.065   9.921 -2.1960 -1.0402 -1.8772
 3657SOL    HW222434   1.468   3.200   9.870  2.0218  1.5142  0.6276
 3658SOL     OW22435   2.636   4.495   3.375  0.6496 -0.2705 -0.2972
 3658SOL    HW122436   2.554   4.545   3.374  0.2146 -1.0093 -1.6824
 3658SOL    HW222437   2.610   4.414   3.419 -2.0503  0.0929 -1.2174
 3659SOL     OW22438   3.627   4.272   8.167  0.7965 -0.2359  0.0604
 3659SOL    HW122439   3.705   4.217   8.163  0.1244 -1.2942  1.4590
 3659SOL    HW222440   3.633   4.288   8.261  4.0476  1.5315 -0.4407
 3660SOL     OW22441   0.284   3.651   4.654 -0.3649  0.2598  0.7419
 3660SOL    HW122442   0.368   3.610   4.674 -0.6349  0.5376  2.5088
 3660SOL    HW222443   0.249   3.670   4.741 -0.2260 -2.3857  1.3715
 3661SOL     OW22444   0.338   4.274   7.521  0.4377  0.4759 -0.6032
 3661SOL    HW122445   0.374   4.277   7.432  0.9077 -2.4961 -0.5228
 3661SOL    HW222446   0.344   4.365   7.551  1.1611  0.3736 -0.4409
 3662SOL     OW22447   0.083   3.401  10.574 -0.6863  0.2383 -0.2043
 3662SOL    HW122448   0.056   3.355  10.653  2.3463  0.4644  0.9633
 3662SOL    HW222449   0.072   3.494  10.590 -2.0691  0.2410 -1.1506
 3663SOL     OW22450   1.432   2.375   3.305 -0.1245  0.0780 -0.2014
 3663SOL    HW122451   1.463   2.465   3.301  4.0476 -1.4159 -1.1579
 3663SOL    HW222452   1.430   2.367   3.209 -0.1724  0.5708 -0.2415
 3664SOL     OW22453   2.184   4.221   0.788 -0.9090  0.3613 -0.0795
 3664SOL    HW122454   2.224   4.142   0.824  0.2201  0.3162 -1.4642
 3664SOL    HW222455   2.234   4.236   0.708  0.6578  0.6442  0.9580
 3665SOL     OW22456   1.605   1.686   5.002 -0.0894 -0.3843  0.5642
 3665SOL    HW122457   1.588   1.611   4.945 -3.4137  1.3255 -0.6835
 3665SOL    HW222458   1.572   1.756   4.946  0.4373 -0.4274  0.1962
 3666SOL     OW22459   0.622   2.410  14.268 -0.1425 -0.2121  0.2408
 3666SOL    HW122460   0.619   2.346  14.197 -1.0773 -1.8689  1.7797
 3666SOL    HW222461   0.658   2.356  14.339  3.7056 -0.3447 -1.7994
 3667SOL     OW22462   2.904   1.244   2.139  0.0651  0.2798 -0.6022
 3667SOL    HW122463   2.992   1.208   2.150  1.0360  2.4268 -1.3871
 3667SOL    HW222464   2.906   1.304   2.213  0.0333  0.3168 -0.6318
 3668SOL     OW22465   2.065   0.219  13.551 -0.2383 -0.2717  0.7249
 3668SOL    HW122466   2.055   0.225  13.456 -0.7939  1.7014  0.8906
 3668SOL    HW222467   1.979   0.181  13.566 -0.6063  0.0803 -0.4893
 3669SOL     OW22468   2.130   1.194  15.551  0.4151  0.2097 -0.2325
 3669SOL    HW122469   2.157   1.192  15.459  1.3932  0.1513  0.0591
 3669SOL    HW222470   2.092   1.278  15.576 -0.8302 -0.0867 -1.1117
 3670SOL     OW22471   4.316   2.631  13.733  0.7555  0.4604  0.3663
 3670SOL    HW122472   4.398   2.589  13.709  0.2610  0.3242 -1.1059
 3670SOL    HW222473   4.338   2.656  13.822  1.7238 -1.5057  0.6624
 3671SOL     OW22474   1.854   0.134   7.048  0.0063 -0.1124  0.1716
 3671SOL    HW122475   1.881   0.218   7.010  0.2056 -0.4295 -0.3874
 3671SOL    HW222476   1.804   0.103   6.973  1.4890  1.9287 -1.6490
 3672SOL     OW22477   0.647   1.704   5.401 -0.1391  0.2278 -0.4858
 3672SOL    HW122478   0.655   1.689   5.307 -0.5184  0.2210 -0.5163
 3672SOL    HW222479   0.718   1.652   5.438  2.9546  4.7533 -0.0671
 3673SOL     OW22480   3.071   2.696  16.966 -0.2944 -0.1872  0.0777
 3673SOL    HW122481   2.997   2.641  16.993 -0.6058  0.2261  0.0622
 3673SOL    HW222482   3.093   2.743  17.047  0.6818 -0.7555  0.1362
 3674SOL     OW22483   3.476   0.667  16.183  0.0132 -0.1498  0.2647
 3674SOL    HW122484   3.449   0.723  16.256 -1.0786 -0.7257  0.2990
 3674SOL    HW222485   3.491   0.728  16.110 -0.7444 -0.3663 -0.0767
 3675SOL     OW22486   2.023   2.242   7.437  0.2643  0.0205  0.7760
 3675SOL    HW122487   2.089   2.227   7.505  0.5520 -1.8342  0.1003
 3675SOL    HW222488   2.055   2.329   7.412 -0.3291 -0.6428 -2.3126
 3676SOL     OW22489   2.407   2.205   0.994 -0.2479 -0.4560 -0.4360
 3676SOL    HW122490   2.440   2.249   0.916  0.1522 -1.5305 -0.8722
 3676SOL    HW222491   2.479   2.142   1.006 -0.6939 -0.9320 -0.2742
 3677SOL     OW22492   1.310   3.902   3.809 -0.1523  0.3681 -0.1186
 3677SOL    HW122493   1.300   3.974   3.871 -3.9582 -0.3331  0.0830
 3677SOL    HW222494   1.399   3.872   3.827 -0.3599 -0.7540 -0.9654
 3678SOL     OW22495   1.278   3.049   8.238  0.3622 -0.2111  0.0585
 3678SOL    HW122496   1.303   2.992   8.311 -0.3774 -1.1960 -0.4804
 3678SOL    HW222497   1.321   3.133   8.259  0.1059 -0.0503 -0.0616
 3679SOL     OW22498   2.379   1.881   5.586 -0.3519  0.6889 -0.6351
 3679SOL    HW122499   2.367   1.965   5.542 -0.1186  1.5214  0.8810
 3679SOL    HW222500   2.354   1.823   5.515 -1.2673 -0.5142  0.6690
 3680SOL     OW22501   0.503   3.042  14.776 -0.2271  0.1733  0.2843
 3680SOL    HW122502   0.452   3.076  14.703 -1.5095 -1.5257  0.3739
 3680SOL    HW222503   0.593   3.069  14.759 -0.4815  0.7988 -0.0499
 3681SOL     OW22504   0.688   0.512   4.983  0.2159 -0.5226 -0.0983
 3681SOL    HW122505   0.643   0.481   4.905 -0.9013  0.2084  0.2570
 3681SOL    HW222506   0.780   0.489   4.971  0.1647 -1.7518  1.7842
 3682SOL     OW22507   2.076   2.947  14.654  0.5666 -0.2957  0.4055
 3682SOL    HW122508   2.118   2.863  14.671  0.0693 -0.3190  1.4617
 3682SOL    HW222509   2.141   3.008  14.690 -0.2985  1.4864 -1.0414
 3683SOL     OW22510   1.474   4.724   0.269  0.1278 -0.6932 -0.2461
 3683SOL    HW122511   1.399   0.001   0.210  0.4177  1.6859 -0.5506
 3683SOL    HW222512   1.530   4.673   0.209  1.5066 -1.3838  1.6319
 3684SOL     OW22513   4.627   3.333  15.539 -0.6187  0.0075  0.7383
 3684SOL    HW122514   4.603   3.253  15.493 -3.5494  1.8210 -0.8765
 3684SOL    HW222515   4.709   3.347  15.491 -0.1099 -2.3398  0.9232
 3685SOL     OW22516   0.658   1.428   5.042  0.3062 -0.2200 -0.0891
 3685SOL    HW122517   0.579   1.419   4.989  0.5155 -0.0523 -0.4293
 3685SOL    HW222518   0.629   1.400   5.129  1.4940  0.8824  0.6683
 3686SOL     OW22519   1.147   2.229   3.175  0.0175  0.1949  0.3047
 3686SOL    HW122520   1.136   2.247   3.082  0.9657  0.3103  0.2172
 3686SOL    HW222521   1.212   2.159   3.164 -1.5657 -0.8670 -2.3759
 3687SOL     OW22522   1.439   2.591   5.162  0.5351 -0.1946  0.1857
 3687SOL    HW122523   1.344   2.595   5.178  0.0888 -0.8927 -2.3923
 3687SOL    HW222524   1.473   2.593   5.252  1.8379  1.4344 -0.3325
 3688SOL     OW22525   3.487   1.744   3.811 -0.2315 -0.2538  0.2037
 3688SOL    HW122526   3.578   1.722   3.792 -0.3146 -0.4185  0.0057
 3688SOL    HW222527   3.437   1.664   3.800  1.5391 -1.9809  4.7856
 3689SOL     OW22528   2.335   4.158  16.300 -0.5340 -0.1764  0.1145
 3689SOL    HW122529   2.428   4.181  16.309 -0.1682 -1.6948  0.1673
 3689SOL    HW222530   2.344   4.065  16.279 -2.1329 -0.4783  0.7407
 3690SOL     OW22531   0.934   4.200   4.998  0.2219  0.1790 -0.0705
 3690SOL    HW122532   1.021   4.238   4.989  0.6037 -0.8489 -0.7826
 3690SOL    HW222533   0.875   4.275   4.995  1.5055  1.1172 -1.5832
 3691SOL     OW22534   0.526   3.873   0.153  0.3590 -0.1465  0.0553
 3691SOL    HW122535   0.566   3.872   0.240 -1.0559  0.3892  0.7118
 3691SOL    HW222536   0.594   3.915   0.101 -0.0089  2.6377  1.7876
 3692SOL     OW22537   0.315   3.296   4.728  0.2241 -0.0874  0.0272
 3692SOL    HW122538   0.385   3.362   4.730 -0.1450  0.2156  2.8040
 3692SOL    HW222539   0.292   3.293   4.821 -0.5353 -0.4141 -0.1748
 3693SOL     OW22540   2.459   4.539  15.483  0.1458  0.1752 -0.0404
 3693SOL    HW122541   2.440   4.512  15.393 -1.8326  0.5687  0.2604
 3693SOL    HW222542   2.448   4.634  15.476 -0.3182 -0.0471 -2.3404
 3694SOL     OW22543   4.717   3.414   5.892  0.3960  0.9309 -0.4013
 3694SOL    HW122544   4.677   3.381   5.811  1.0238  2.1674 -1.2257
 3694SOL    HW222545   4.688   3.345   5.951  0.4870  1.2085 -0.0346
 3695SOL     OW22546   1.416   1.506  14.057  0.7359  0.4351 -0.3704
 3695SOL    HW122547   1.416   1.565  13.981  1.4544 -0.0050 -0.7009
 3695SOL    HW222548   1.429   1.430  14.002 -1.6892  0.5288 -1.0942
 3696SOL     OW22549   1.843   4.520   7.725 -0.2104 -0.0596  0.5751
 3696SOL    HW122550   1.785   4.564   7.787  0.1435 -0.1567  0.9805
 3696SOL    HW222551   1.845   4.433   7.765  2.8979 -0.8124 -1.1933
 3697SOL     OW22552   0.377   3.321   4.140 -0.3042  0.5015  0.2242
 3697SOL    HW122553   0.440   3.255   4.167 -0.9408 -0.7699 -1.4336
 3697SOL    HW222554   0.308   3.272   4.096  0.6156  1.0980 -1.8779
 3698SOL     OW22555   0.069   4.329   3.894  0.0404 -0.0460 -0.2466
 3698SOL    HW122556   0.026   4.368   3.818  0.7269 -0.1745 -0.6973
 3698SOL    HW222557   0.153   4.300   3.859  1.1839  0.0942  2.4032
 3699SOL     OW22558   1.549   4.386  16.336  0.3087 -0.0996 -0.1065
 3699SOL    HW122559   1.505   4.471  16.340 -0.3891 -0.4245 -1.0140
 3699SOL    HW222560   1.625   4.394  16.278  1.2875 -0.7314  1.0770
 3700SOL     OW22561   1.500   2.940   4.158 -0.7025  0.0705 -0.5970
 3700SOL    HW122562   1.416   2.897   4.142  0.0862 -1.4264 -0.7145
 3700SOL    HW222563   1.533   2.959   4.071  2.4432  0.4432  0.6694
 3701SOL     OW22564   2.134   1.313   8.097  0.0903 -0.1165  0.0643
 3701SOL    HW122565   2.193   1.242   8.122  1.8555  0.6565 -1.9227
 3701SOL    HW222566   2.054   1.260   8.092  0.4084 -0.4262 -1.9266
 3702SOL     OW22567   3.563   2.875   3.664 -0.0216  0.2301 -0.2699
 3702SOL    HW122568   3.588   2.799   3.612  2.6076  0.8259  0.1137
 3702SOL    HW222569   3.631   2.869   3.731 -0.1532 -0.3175 -0.1873
 3703SOL     OW22570   1.783   4.462   5.532 -0.4978  0.0160 -0.3005
 3703SOL    HW122571   1.849   4.475   5.464  0.0196  0.1328  0.2307
 3703SOL    HW222572   1.745   4.548   5.550  2.2404  0.9992  0.7444
 3704SOL     OW22573   0.422   0.717   4.865 -0.3919 -0.2890  0.1606
 3704SOL    HW122574   0.341   0.670   4.886 -0.9004 -0.4225 -2.0706
 3704SOL    HW222575   0.409   0.799   4.913  1.2222  0.9089 -1.4331
 3705SOL     OW22576   1.477   3.794   2.935 -0.4409 -0.0382 -0.2703
 3705SOL    HW122577   1.394   3.792   2.981 -0.3721 -3.3344 -0.2674
 3705SOL    HW222578   1.500   3.886   2.947  0.6748 -0.3519  0.0096
 3706SOL     OW22579   2.305   3.864  11.719  0.3258 -0.0779 -0.2789
 3706SOL    HW122580   2.252   3.853  11.640  0.3541 -1.0393 -0.1721
 3706SOL    HW222581   2.351   3.780  11.718 -1.3324 -1.0258  1.8834
 3707SOL     OW22582   2.834   1.370   5.163 -0.1967  0.1561 -0.0893
 3707SOL    HW122583   2.812   1.455   5.125 -0.5545  0.8384  1.6720
 3707SOL    HW222584   2.900   1.397   5.226  1.2088 -2.7430 -0.3380
 3708SOL     OW22585   4.135   4.129  11.900 -0.4833 -0.5749  0.7593
 3708SOL    HW122586   4.217   4.125  11.950  0.3912  0.2456 -0.6147
 3708SOL    HW222587   4.153   4.087  11.816 -0.7267 -0.5736  0.7078
 3709SOL     OW22588   3.495   1.484  11.925  0.2290  0.2600  0.4540
 3709SOL    HW122589   3.486   1.439  11.842 -0.0643 -1.4938  1.4382
 3709SOL    HW222590   3.459   1.419  11.985 -2.4790  1.9957  0.6984
 3710SOL     OW22591   3.077   4.660   8.156  0.3787  0.5025 -0.8937
 3710SOL    HW122592   3.146   4.689   8.216  1.0798  0.2784 -1.5880
 3710SOL    HW222593   3.000   4.716   8.167  0.0951  0.2535 -1.5908
 3711SOL     OW22594   0.990   2.050   3.307  0.3757  0.2393 -0.6386
 3711SOL    HW122595   1.017   2.139   3.283  2.7346 -0.2391  0.1697
 3711SOL    HW222596   0.915   2.038   3.249 -1.2601 -1.5573  1.8647
 3712SOL     OW22597   1.112   4.382  11.780  0.0840  0.1988  0.4540
 3712SOL    HW122598   1.130   4.400  11.688  0.0282 -0.0175  0.4002
 3712SOL    HW222599   1.018   4.387  11.767  0.2110  2.5478  0.4815
 3713SOL     OW22600   0.926   4.107  17.122  0.5026 -0.4461  0.4681
 3713SOL    HW122601   0.876   4.063  17.191 -1.1338 -1.1240 -1.1607
 3713SOL    HW222602   0.883   4.061  17.050  3.8010  0.1540 -1.8890
 3714SOL     OW22603   1.854   2.350   6.089 -0.4605 -0.2852 -0.1651
 3714SOL    HW122604   1.873   2.266   6.130 -2.5237 -1.3730 -1.4454
 3714SOL    HW222605   1.890   2.411   6.153 -0.5005  1.1079 -1.4654
 3715SOL     OW22606   0.679   2.125   7.142 -0.1661  0.4043  0.1198
 3715SOL    HW122607   0.716   2.072   7.072  0.6982  3.3145 -1.6078
 3715SOL    HW222608   0.695   2.213   7.108  1.4144  0.3561  0.7531
 3716SOL     OW22609   0.578   1.114  17.658 -0.2113 -0.1836 -0.2178
 3716SOL    HW122610   0.498   1.165  17.646  0.0973  0.6951  1.6139
 3716SOL    HW222611   0.551   1.029  17.621 -0.3374  0.4187 -1.4893
 3717SOL     OW22612   1.757   2.934   6.663 -0.2813 -0.0557  0.7912
 3717SOL    HW122613   1.758   2.839   6.671 -1.9346 -0.1762 -0.4867
 3717SOL    HW222614   1.850   2.954   6.673  0.5382 -1.1249 -4.9121
 3718SOL     OW22615   0.148   4.569   7.905  0.2675  0.2898  0.4677
 3718SOL    HW122616   0.079   4.515   7.867  0.6697  0.6749 -0.8426
 3718SOL    HW222617   0.213   4.501   7.925  1.0648  0.3370 -1.9034
 3719SOL     OW22618   3.766   0.207   0.706  0.2847 -0.8406 -0.5869
 3719SOL    HW122619   3.692   0.187   0.763  1.3224 -0.8703  0.7548
 3719SOL    HW222620   3.834   0.150   0.741 -0.7665 -0.6040  1.8555
 3720SOL     OW22621   1.103   0.049   1.709 -0.2710  0.2339  0.5153
 3720SOL    HW122622   1.140   4.696   1.752 -1.3020 -0.7857 -0.4290
 3720SOL    HW222623   1.033   0.064   1.773 -0.9520 -1.1524  0.0952
 3721SOL     OW22624   0.875   2.885   6.135 -0.2660  0.1502 -0.3878
 3721SOL    HW122625   0.836   2.818   6.079  0.8320 -1.0088  0.2320
 3721SOL    HW222626   0.957   2.901   6.089  0.1546  0.0427  0.3287
 3722SOL     OW22627   3.597   1.098   2.890  0.0735 -0.6208  0.1970
 3722SOL    HW122628   3.691   1.098   2.903  0.0304 -2.0859  0.5629
 3722SOL    HW222629   3.585   1.011   2.853 -3.8126  0.3372 -0.7817
 3723SOL     OW22630   4.641   4.508   5.970  0.4014  0.0400  0.2605
 3723SOL    HW122631   4.632   4.582   6.030 -0.9345  1.0600 -1.1893
 3723SOL    HW222632   4.707   4.549   5.914  1.3420 -0.8471  0.7136
 3724SOL     OW22633   0.939   1.580  10.102 -0.0868 -0.1136  0.3318
 3724SOL    HW122634   0.900   1.578  10.015  0.5785 -1.9714  0.0868
 3724SOL    HW222635   0.950   1.674  10.118 -2.6259  0.3332 -0.5906
 3725SOL     OW22636   1.644   3.385   5.905  0.4748 -0.3661  0.1980
 3725SOL    HW122637   1.597   3.461   5.870  2.3595  1.5065  1.7996
 3725SOL    HW222638   1.720   3.385   5.847 -0.2525  1.1610 -0.7397
 3726SOL     OW22639   0.047   4.656   5.321 -0.7008  0.1561 -0.7665
 3726SOL    HW122640   0.008   4.724   5.376 -0.8066  0.6370 -1.4511
 3726SOL    HW222641   0.076   4.586   5.381  1.5100  1.8475  0.1098
 3727SOL     OW22642   3.360   3.902   7.482  0.3548 -0.4979  0.2633
 3727SOL    HW122643   3.406   3.858   7.553  2.2380  0.0052 -0.6264
 3727SOL    HW222644   3.273   3.863   7.487  0.2517 -0.1633  1.0302
 3728SOL     OW22645   1.760   0.324   5.499 -0.6349 -0.0899  0.4002
 3728SOL    HW122646   1.690   0.367   5.548  1.2070  1.4466  1.6624
 3728SOL    HW222647   1.833   0.385   5.509  0.2873 -0.8482 -1.6200
 3729SOL     OW22648   1.990   1.166   7.089 -0.2376  0.2528 -0.5314
 3729SOL    HW122649   1.980   1.259   7.071 -0.8123  0.0495 -1.2824
 3729SOL    HW222650   2.054   1.161   7.160  1.0620 -0.6285 -1.7719
 3730SOL     OW22651   4.385   4.507   2.832 -0.1491 -0.0861  0.4993
 3730SOL    HW122652   4.465   4.480   2.786 -0.0950  2.6734 -1.0056
 3730SOL    HW222653   4.405   4.587   2.882 -0.8431  0.2375  0.2575
 3731SOL     OW22654   0.194   2.721   3.998  0.0090  0.1820  0.0054
 3731SOL    HW122655   0.169   2.631   4.016 -0.7891  0.4518  0.2551
 3731SOL    HW222656   0.132   2.767   4.055 -1.2448 -1.7847  0.2094
 3732SOL     OW22657   3.003   0.712   7.250 -0.1604 -0.2415  0.3876
 3732SOL    HW122658   2.928   0.764   7.279  0.5456  1.1175 -0.1939
 3732SOL    HW222659   3.036   0.667   7.328  1.5159 -1.3309 -0.9629
 3733SOL     OW22660   3.556   4.177   0.199 -0.4391 -0.0927  0.0585
 3733SOL    HW122661   3.595   4.180   0.111 -0.5138 -0.1876  0.0219
 3733SOL    HW222662   3.483   4.236   0.178 -0.9758 -0.2543  1.4729
 3734SOL     OW22663   0.852   1.207  10.154 -0.0970  0.1313 -0.2659
 3734SOL    HW122664   0.877   1.234  10.242 -0.6293  3.4056 -1.1171
 3734SOL    HW222665   0.929   1.170  10.111  1.2041  1.8097  0.6509
 3735SOL     OW22666   0.932   2.047  13.781 -0.4440 -0.1417 -0.2022
 3735SOL    HW122667   0.849   2.093  13.786 -0.9023 -1.4385  4.1708
 3735SOL    HW222668   0.940   2.056  13.686 -1.4908 -3.0053 -0.5763
 3736SOL     OW22669   3.213   0.650   2.435  0.4935  0.1724  0.0556
 3736SOL    HW122670   3.177   0.563   2.456 -0.9099  1.0410  1.2415
 3736SOL    HW222671   3.282   0.626   2.373 -1.1969 -3.2441 -0.5152
 3737SOL     OW22672   2.131   4.377   3.261 -0.1618 -0.0648 -0.7702
 3737SOL    HW122673   2.048   4.414   3.231 -1.0897 -1.4502  0.1367
 3737SOL    HW222674   2.149   4.324   3.183  0.7156  0.3739 -0.8625
 3738SOL     OW22675   0.184   2.404  12.041 -0.3514 -0.7862  0.7953
 3738SOL    HW122676   0.135   2.412  11.959 -1.8016 -0.7219  1.6728
 3738SOL    HW222677   0.215   2.493  12.056 -1.6490 -0.4454  1.4366
 3739SOL     OW22678   1.872   1.352  16.195 -0.2467  0.3426  0.4010
 3739SOL    HW122679   1.944   1.365  16.134 -1.1558  1.1490 -0.4938
 3739SOL    HW222680   1.870   1.256  16.193 -0.2585  0.3586 -0.4268
 3740SOL     OW22681   4.534   3.733   5.793 -0.3223  0.5365  0.1071
 3740SOL    HW122682   4.491   3.817   5.808  0.4243  1.0534 -0.6003
 3740SOL    HW222683   4.515   3.700   5.881  0.1571 -0.0777 -0.0158
 3741SOL     OW22684   3.289   4.339   1.924 -0.3294 -0.0589 -0.1094
 3741SOL    HW122685   3.260   4.265   1.871  1.5269  1.0865 -2.7182
 3741SOL    HW222686   3.339   4.292   1.990 -1.2595 -0.4608  0.3161
 3742SOL     OW22687   3.581   1.996   4.700 -0.3768 -0.5444 -0.2307
 3742SOL    HW122688   3.669   1.961   4.689 -0.6026 -0.6647 -1.7359
 3742SOL    HW222689   3.594   2.089   4.682 -0.4820 -0.3474  0.7249
 3743SOL     OW22690   1.050   3.297   9.139 -0.4870 -0.0120 -0.1059
 3743SOL    HW122691   1.105   3.227   9.103 -1.6142 -1.3916  0.8415
 3743SOL    HW222692   0.958   3.269   9.141 -0.2330 -0.7673  0.9314
 3744SOL     OW22693   4.504   1.158   7.221 -0.5175  0.1684  0.7452
 3744SOL    HW122694   4.525   1.072   7.258  2.4250  0.8459  0.6368
 3744SOL    HW222695   4.586   1.203   7.241  1.3247 -2.0073 -1.9904
 3745SOL     OW22696   4.162   3.029   1.181 -0.7557  0.2672  0.0707
 3745SOL    HW122697   4.211   3.012   1.262 -1.8409 -2.7553  0.1082
 3745SOL    HW222698   4.153   2.941   1.143 -2.4751 -0.2290  1.6023
 3746SOL     OW22699   3.521   0.463   3.598 -0.1058 -0.6803 -0.5018
 3746SOL    HW122700   3.467   0.494   3.525  1.0654  2.4176 -0.0705
 3746SOL    HW222701   3.552   0.550   3.624 -3.1093 -0.3616  1.9580
 3747SOL     OW22702   0.113   3.677   3.253 -0.6668 -0.2217  0.4379
 3747SOL    HW122703   0.100   3.583   3.239  2.1345 -0.4981 -0.2099
 3747SOL    HW222704   0.033   3.709   3.210  0.5613  0.5322 -1.2863
 3748SOL     OW22705   1.866   2.052   5.236  0.4239  0.5400 -0.2727
 3748SOL    HW122706   1.951   2.028   5.198  1.5491 -0.5728  3.0058
 3748SOL    HW222707   1.812   2.011   5.168 -0.0376 -1.5779  1.3502
 3749SOL     OW22708   0.519   1.143   9.455  0.6603  0.6621  0.4923
 3749SOL    HW122709   0.572   1.126   9.377 -1.3106  0.9031 -0.9033
 3749SOL    HW222710   0.494   1.225   9.414 -0.2751  0.3026  0.3478
 3750SOL     OW22711   1.202   0.672   9.731  0.1116  0.0226 -0.7804
 3750SOL    HW122712   1.236   0.588   9.760  2.2819  0.9732 -0.5577
 3750SOL    HW222713   1.269   0.730   9.768 -0.7306  0.9043 -0.6443
 3751SOL     OW22714   4.644   0.317   0.285 -0.1328  0.3384  0.1033
 3751SOL    HW122715   4.674   0.230   0.257 -0.3009 -0.6193  2.8696
 3751SOL    HW222716   4.552   0.314   0.260 -0.6779 -1.0919  2.2707
 3752SOL     OW22717   1.399   0.405   7.173  0.2760 -0.7202 -0.6434
 3752SOL    HW122718   1.388   0.497   7.199 -2.5445 -1.0034 -0.8027
 3752SOL    HW222719   1.304   0.393   7.168 -0.2256  2.0628  1.7039
 3753SOL     OW22720   3.495   0.100  16.622  0.3287 -0.4528 -0.1073
 3753SOL    HW122721   3.417   0.116  16.675  0.7802 -2.0878  1.0440
 3753SOL    HW222722   3.486   0.166  16.553 -2.1219 -1.1534 -0.4770
 3754SOL     OW22723   1.459   0.344  11.634  0.3276 -0.7341 -0.5942
 3754SOL    HW122724   1.396   0.392  11.580  0.2254  0.9635  1.0335
 3754SOL    HW222725   1.398   0.281  11.675 -0.4695 -1.2559 -2.5678
 3755SOL     OW22726   3.868   0.674   7.119 -0.3468  0.0021  0.1627
 3755SOL    HW122727   3.845   0.692   7.028 -1.8859 -1.2001  0.3089
 3755SOL    HW222728   3.939   0.732   7.146 -1.5046  0.5790  1.9674
 3756SOL     OW22729   4.395   2.704   4.906  0.1476  0.5303  0.4901
 3756SOL    HW122730   4.326   2.641   4.931  1.5986 -2.4129 -2.9256
 3756SOL    HW222731   4.387   2.693   4.812  1.0616 -0.4532  0.5154
 3757SOL     OW22732   2.498   0.331   4.739  0.8026  0.1167 -0.1477
 3757SOL    HW122733   2.545   0.314   4.658 -0.5510 -0.2047 -0.8686
 3757SOL    HW222734   2.448   0.409   4.718  0.3109 -0.1501  0.0315
 3758SOL     OW22735   2.646   3.636   6.661  0.1273 -0.2130 -0.1898
 3758SOL    HW122736   2.630   3.603   6.573  1.3237  0.5235 -0.6803
 3758SOL    HW222737   2.721   3.690   6.639  0.2250  0.1321  0.9891
 3759SOL     OW22738   3.984   2.024  14.234 -0.3535  0.1741  0.1857
 3759SOL    HW122739   4.035   2.106  14.232  2.7884 -1.8004 -0.5901
 3759SOL    HW222740   3.893   2.053  14.243  0.0342  2.0385 -1.8039
 3760SOL     OW22741   1.505   4.689   6.460 -0.2866 -0.2302  0.2840
 3760SOL    HW122742   1.414   4.719   6.467 -0.7416 -1.7429  1.0409
 3760SOL    HW222743   1.521   4.644   6.543  1.0289 -0.7341 -0.2509
 3761SOL     OW22744   3.740   4.443   7.919 -0.3504  0.7157  0.1593
 3761SOL    HW122745   3.780   4.376   7.974 -0.7732  1.6109  1.5715
 3761SOL    HW222746   3.696   4.387   7.855 -1.4009  3.5143 -1.5723
 3762SOL     OW22747   1.933   2.565   7.533 -0.4240 -0.3953  0.1225
 3762SOL    HW122748   1.921   2.507   7.458 -1.7346  0.3832 -0.2674
 3762SOL    HW222749   2.029   2.560   7.536 -0.5504 -1.7692  1.7736
 3763SOL     OW22750   1.641   0.973   3.196 -0.7356  0.3155 -0.6298
 3763SOL    HW122751   1.695   1.042   3.232 -0.6100 -0.0227 -0.1696
 3763SOL    HW222752   1.570   0.961   3.259  1.4588 -1.6432  1.4555
 3764SOL     OW22753   3.819   4.319  16.781 -0.1488  0.3945  0.0232
 3764SOL    HW122754   3.824   4.356  16.869 -0.8249  3.5291 -1.2630
 3764SOL    HW222755   3.901   4.358  16.750 -1.0640  0.1297 -2.7216
 3765SOL     OW22756   0.004   3.730   6.982  0.0633 -0.3847  0.2152
 3765SOL    HW122757   0.068   3.712   7.051 -0.6467 -3.8196 -0.0309
 3765SOL    HW222758   4.671   3.793   7.027 -0.4498 -0.9791  0.3892
 3766SOL     OW22759   4.634   2.643  16.380  0.0632 -0.0644 -0.1352
 3766SOL    HW122760   4.710   2.671  16.329  0.0045 -3.2559 -2.0198
 3766SOL    HW222761   4.586   2.725  16.380 -0.6549 -0.4881 -0.0902
 3767SOL     OW22762   3.113   2.751   6.745 -0.1107  0.4075  0.2547
 3767SOL    HW122763   3.155   2.710   6.821 -0.1607  0.1152  0.1221
 3767SOL    HW222764   3.070   2.824   6.791  1.4028  1.3271  0.2510
 3768SOL     OW22765   4.557   1.642   4.155 -0.7708 -0.1402  0.1379
 3768SOL    HW122766   4.572   1.583   4.081 -0.4454  2.4000 -1.8018
 3768SOL    HW222767   4.493   1.596   4.210  0.4544 -1.7319  0.2295
 3769SOL     OW22768   0.356   3.594   0.999  0.7372 -0.9412  0.2352
 3769SOL    HW122769   0.317   3.508   1.013 -1.4333  0.0259  0.2019
 3769SOL    HW222770   0.449   3.581   1.016  0.8027 -1.8473 -0.8543
 3770SOL     OW22771   2.738   2.183   6.041  0.2290 -0.3404 -0.0411
 3770SOL    HW122772   2.788   2.201   6.121  0.0786  0.7377 -0.1983
 3770SOL    HW222773   2.671   2.125   6.077 -0.5078  0.1427 -0.6591
 3771SOL     OW22774   3.939   2.553  15.562  0.1300  0.1730 -0.1159
 3771SOL    HW122775   4.023   2.597  15.546 -0.5832  1.1425 -1.2418
 3771SOL    HW222776   3.968   2.461  15.566  2.2134  0.6662 -2.9096
 3772SOL     OW22777   2.900   0.787  14.799 -0.1613  0.1893  0.3649
 3772SOL    HW122778   2.897   0.879  14.824  1.1056  0.2751  0.2014
 3772SOL    HW222779   2.865   0.793  14.710 -1.1347  0.8925  0.7882
 3773SOL     OW22780   3.486   0.959   4.289 -0.8647  0.7060  0.0036
 3773SOL    HW122781   3.442   1.039   4.318 -0.3671  0.9141  0.1902
 3773SOL    HW222782   3.540   1.006   4.226 -1.9002  1.0296 -0.6379
 3774SOL     OW22783   0.678   0.528  16.664 -0.2822  0.1189  0.0785
 3774SOL    HW122784   0.744   0.592  16.637 -2.2807  2.1905  0.0810
 3774SOL    HW222785   0.609   0.536  16.597 -0.9462 -3.3431  0.3425
 3775SOL     OW22786   0.604   2.278   1.055 -0.1386  0.0511 -0.3942
 3775SOL    HW122787   0.672   2.212   1.039  0.0113  0.1676 -0.2388
 3775SOL    HW222788   0.527   2.236   1.094  0.1012  0.5587  0.6353
 3776SOL     OW22789   4.529   2.532  11.995 -0.0412 -0.1162 -0.0681
 3776SOL    HW122790   4.483   2.568  12.071  1.4685  0.5896  0.5085
 3776SOL    HW222791   4.482   2.570  11.921  1.9427  0.2475 -1.1452
 3777SOL     OW22792   4.415   3.398  14.905  0.2067  0.9843 -0.2866
 3777SOL    HW122793   4.428   3.385  14.811 -2.3925  1.6451 -0.7330
 3777SOL    HW222794   4.496   3.374  14.950 -1.8188 -2.1313  1.6913
 3778SOL     OW22795   1.422   2.377   2.723 -0.4033 -0.1789 -0.6621
 3778SOL    HW122796   1.355   2.418   2.668  0.5473  0.0910 -1.6268
 3778SOL    HW222797   1.496   2.433   2.701  1.0375 -1.2009  1.5162
 3779SOL     OW22798   3.344   0.686   9.053  0.0376 -0.5492 -0.4465
 3779SOL    HW122799   3.435   0.656   9.055 -0.2229 -1.4139 -1.8028
 3779SOL    HW222800   3.349   0.726   9.140 -0.0929  0.1387 -0.7588
 3780SOL     OW22801   0.372   3.328  11.297 -0.3078 -0.1424 -0.4288
 3780SOL    HW122802   0.383   3.325  11.202 -2.3402 -0.0199 -0.6838
 3780SOL    HW222803   0.338   3.240  11.311 -0.2594 -0.2579 -1.0188
 3781SOL     OW22804   4.709   1.756   9.736 -0.0111  0.1811  0.2409
 3781SOL    HW122805   0.038   1.829   9.765 -0.0934 -0.1044  1.1163
 3781SOL    HW222806   0.023   1.733   9.651 -2.0255 -1.7316 -0.1855
 3782SOL     OW22807   0.677   3.881   8.264 -0.1643  0.2117  0.5489
 3782SOL    HW122808   0.680   3.800   8.212  2.9882 -0.6880  2.1483
 3782SOL    HW222809   0.586   3.904   8.244 -0.3578 -0.3165  0.7981
 3783SOL     OW22810   4.572   3.994   2.182 -0.9778  0.0617  0.2681
 3783SOL    HW122811   4.568   3.969   2.089  0.4856 -0.2158  0.2741
 3783SOL    HW222812   4.599   4.086   2.176  0.7049 -0.4898 -0.7554
 3784SOL     OW22813   3.316   4.313   0.036 -0.0598  0.0804 -0.3253
 3784SOL    HW122814   3.361   4.339  17.655 -2.4737 -0.0717 -1.7392
 3784SOL    HW222815   3.290   4.397   0.074 -1.0131 -0.5775  0.4559
 3785SOL     OW22816   4.553   3.938   2.444 -0.2549  0.3897 -0.4968
 3785SOL    HW122817   4.556   3.967   2.352  0.6857  0.4023 -0.4636
 3785SOL    HW222818   4.476   3.882   2.432  0.6242 -0.9029 -0.1844
 3786SOL     OW22819   0.565   2.848   8.486 -0.3041  0.0906 -0.4010
 3786SOL    HW122820   0.585   2.941   8.473  1.3052 -0.2199 -0.1466
 3786SOL    HW222821   0.497   2.841   8.420 -0.3619 -0.0502 -0.3256
 3787SOL     OW22822   3.800   0.803  11.594  0.0944  0.0008 -0.3903
 3787SOL    HW122823   3.892   0.808  11.620 -0.4740  1.2104  1.3345
 3787SOL    HW222824   3.763   0.747  11.662 -2.6410  1.7036 -0.4843
 3788SOL     OW22825   1.328   0.089  14.540 -0.3003 -0.0207  0.0868
 3788SOL    HW122826   1.411   0.050  14.568  0.2777  1.4844  0.4607
 3788SOL    HW222827   1.295   0.117  14.625 -2.2803  1.0840 -1.0473
 3789SOL     OW22828   3.034   3.331  11.249 -0.5782 -0.4897  0.1458
 3789SOL    HW122829   3.127   3.331  11.227 -0.3137 -1.1823  1.2789
 3789SOL    HW222830   3.018   3.425  11.235  0.3305 -0.2381  0.7874
 3790SOL     OW22831   0.592   2.268  15.991 -0.0759  0.3708  0.5018
 3790SOL    HW122832   0.674   2.287  15.946 -1.0038  2.8462 -0.1478
 3790SOL    HW222833   0.605   2.308  16.077  1.5418  1.3129 -0.1892
 3791SOL     OW22834   4.388   3.489   4.491 -0.1904  0.7864 -0.3041
 3791SOL    HW122835   4.385   3.395   4.473 -2.5443  1.0911 -1.5552
 3791SOL    HW222836   4.434   3.523   4.415 -1.2065 -2.2552 -2.2550
 3792SOL     OW22837   3.464   3.001   4.779  0.6504 -0.1121 -0.3046
 3792SOL    HW122838   3.377   2.961   4.774  0.3788  0.5656 -1.0377
 3792SOL    HW222839   3.433   3.091   4.791  0.1332 -0.3844  0.3542
 3793SOL     OW22840   1.935   1.387   1.068  0.2945 -0.0210  0.0370
 3793SOL    HW122841   1.937   1.368   1.162 -0.1624  1.4592  0.3614
 3793SOL    HW222842   1.997   1.323   1.034 -0.1591 -0.5378  0.1921
 3794SOL     OW22843   0.059   4.473  14.320 -0.7036  0.1982  0.5288
 3794SOL    HW122844   0.039   4.384  14.290 -0.3994  1.1321 -2.4269
 3794SOL    HW222845   0.103   4.444  14.400 -2.4980 -0.7777  1.1644
 3795SOL     OW22846   2.083   4.347   4.696  0.3203 -0.1947  0.3688
 3795SOL    HW122847   2.038   4.314   4.618  2.4051 -0.4109 -0.7419
 3795SOL    HW222848   2.146   4.280   4.722 -0.2046 -0.3742  1.2028
 3796SOL     OW22849   3.658   2.501  15.910 -0.1692 -0.0546  0.5070
 3796SOL    HW122850   3.655   2.420  15.859  1.1381  2.0377 -2.8435
 3796SOL    HW222851   3.651   2.559  15.835  0.9765 -2.5371 -1.5231
 3797SOL     OW22852   2.109   1.769  10.069 -0.2995  0.0877  0.2498
 3797SOL    HW122853   2.200   1.752  10.044  0.2103  0.5403  1.8496
 3797SOL    HW222854   2.070   1.811   9.992 -0.1667 -0.0226  0.1209
 3798SOL     OW22855   3.924   1.462   4.468  0.2929 -0.0059 -0.3308
 3798SOL    HW122856   3.997   1.478   4.529  1.3822  1.6648 -2.0749
 3798SOL    HW222857   3.948   1.395   4.404  1.2639  0.1802 -0.1660
 3799SOL     OW22858   4.386   2.608  16.866  0.1083 -0.2921  0.3560
 3799SOL    HW122859   4.433   2.576  16.943  1.4452  2.1595  0.5693
 3799SOL    HW222860   4.360   2.698  16.886  1.0614 -0.4463  2.3135
 3800SOL     OW22861   4.267   0.237  17.099  0.1524  0.2393 -0.1500
 3800SOL    HW122862   4.341   0.258  17.156  1.1126  1.0543 -1.7072
 3800SOL    HW222863   4.233   0.158  17.142  0.2005  1.3789  1.9805
 3801SOL     OW22864   2.328   0.825   5.794  0.2035  0.0511  0.1708
 3801SOL    HW122865   2.247   0.783   5.765  0.9833 -0.0835 -1.7685
 3801SOL    HW222866   2.394   0.777   5.744 -0.1286 -1.3049  1.0237
 3802SOL     OW22867   1.313   3.804   9.692  0.6080 -0.2288 -0.2720
 3802SOL    HW122868   1.359   3.728   9.728 -0.2934 -0.5851  0.1180
 3802SOL    HW222869   1.283   3.841   9.775  2.8950 -0.0756  0.4891
 3803SOL     OW22870   1.781   0.028   4.675  0.1695  0.0436  0.1776
 3803SOL    HW122871   1.783   0.124   4.677 -1.5338  0.0866  0.2131
 3803SOL    HW222872   1.791   0.010   4.769  0.5705 -0.5621  0.0206
 3804SOL     OW22873   4.015   4.620   7.579 -0.1747  0.4670 -0.9182
 3804SOL    HW122874   3.995   4.568   7.501  0.4381  1.7479 -1.9372
 3804SOL    HW222875   4.055   4.557   7.639 -0.4380  3.3728  2.3126
 3805SOL     OW22876   3.359   0.183  14.676 -0.1070 -0.0437 -0.0739
 3805SOL    HW122877   3.366   0.268  14.634  1.6946 -0.7779 -1.2888
 3805SOL    HW222878   3.362   0.122  14.603  3.1767  1.6657 -1.3424
 3806SOL     OW22879   3.208   3.986  17.535 -0.6579 -0.6766  0.2256
 3806SOL    HW122880   3.159   3.904  17.528 -0.5377 -0.6827 -0.4779
 3806SOL    HW222881   3.290   3.965  17.489 -1.2450 -0.1455 -1.0542
 3807SOL     OW22882   2.927   1.376   2.377  0.5087  0.0296 -0.3699
 3807SOL    HW122883   2.873   1.315   2.426  1.8977 -1.0266 -0.1403
 3807SOL    HW222884   3.008   1.347   2.420  0.2862  1.0376  0.7272
 3808SOL     OW22885   3.612   3.041   5.314  0.0037 -0.2092  0.0799
 3808SOL    HW122886   3.684   2.980   5.322  0.9367  0.9994  0.8351
 3808SOL    HW222887   3.603   3.058   5.220  0.0366 -1.1887 -0.0964
 3809SOL     OW22888   3.539   4.714   7.297  0.7697 -0.4358  0.3516
 3809SOL    HW122889   3.451   0.025   7.310  0.8270  0.1137 -0.7730
 3809SOL    HW222890   3.530   4.652   7.224 -0.8750  0.2850 -0.0564
 3810SOL     OW22891   4.132   0.555  17.139  0.5126 -0.1201 -0.2429
 3810SOL    HW122892   4.091   0.616  17.077 -0.4604 -1.4648 -0.9351
 3810SOL    HW222893   4.052   0.543  17.191 -0.4688 -0.2891 -1.7592
 3811SOL     OW22894   0.096   1.288  13.070  0.2765  0.0269 -0.3428
 3811SOL    HW122895   0.138   1.219  13.018  2.6849 -0.3436  2.1394
 3811SOL    HW222896   0.022   1.236  13.101 -1.5666  1.7369 -1.8637
 3812SOL     OW22897   3.752   1.397  14.886  0.6065 -0.2589  0.1017
 3812SOL    HW122898   3.675   1.402  14.830  0.6020 -0.0778  0.1238
 3812SOL    HW222899   3.739   1.313  14.930 -0.0876 -0.7478 -1.0362
 3813SOL     OW22900   4.548   1.808  10.465 -0.1983 -0.1461  0.0229
 3813SOL    HW122901   4.458   1.774  10.468 -0.6645  1.0316 -0.5484
 3813SOL    HW222902   4.597   1.751  10.524  0.5526  0.6954  0.2247
 3814SOL     OW22903   4.391   1.709   7.533 -1.2242 -0.0426  0.1395
 3814SOL    HW122904   4.418   1.791   7.575 -5.3628  1.2474  0.3338
 3814SOL    HW222905   4.426   1.709   7.444  0.5398 -0.9457  0.8359
 3815SOL     OW22906   0.845   2.114   1.903 -0.6084 -0.0957  0.1824
 3815SOL    HW122907   0.928   2.069   1.923  0.3971  1.8973  0.4710
 3815SOL    HW222908   0.804   2.123   1.989  2.6338  1.6655  1.5487
 3816SOL     OW22909   0.685   1.249  10.562  0.3925  0.1811 -0.4355
 3816SOL    HW122910   0.753   1.313  10.545  1.7354 -1.0181  0.4366
 3816SOL    HW222911   0.677   1.203  10.479  0.9124  0.4660 -0.6397
 3817SOL     OW22912   4.014   2.520  14.468 -0.0000 -0.1119 -0.2332
 3817SOL    HW122913   3.961   2.585  14.515 -0.1330  0.7272 -1.5436
 3817SOL    HW222914   4.017   2.444  14.525  0.9977  0.8484  0.9984
 3818SOL     OW22915   3.253   1.467   2.593  0.5466 -0.8729 -0.3571
 3818SOL    HW122916   3.166   1.502   2.612  1.1286  1.2118 -1.5539
 3818SOL    HW222917   3.301   1.510   2.663 -2.5013  0.7133  0.7423
 3819SOL     OW22918   2.994   1.967   7.449 -0.1506  0.4318 -0.2057
 3819SOL    HW122919   2.981   2.055   7.415  1.7486  0.2336 -1.4751
 3819SOL    HW222920   3.087   1.968   7.470 -0.3054 -0.1832  0.5179
 3820SOL     OW22921   3.835   3.966   7.151  0.1322 -0.5215 -0.1973
 3820SOL    HW122922   3.879   3.964   7.067 -0.9074 -2.6072 -0.6920
 3820SOL    HW222923   3.753   4.011   7.129 -1.3267 -2.5357  1.0761
 3821SOL     OW22924   4.113   4.254   2.020 -0.0278 -0.1856  0.2488
 3821SOL    HW122925   4.078   4.318   1.957 -2.4952  0.8066  2.6641
 3821SOL    HW222926   4.201   4.252   1.982  0.7767 -0.5922  2.1674
 3822SOL     OW22927   2.100   3.583   3.715  0.3344 -0.0847 -0.3010
 3822SOL    HW122928   2.093   3.518   3.785 -0.5198 -2.0905 -2.2503
 3822SOL    HW222929   2.193   3.561   3.705 -0.0281 -2.4269  1.4003
 3823SOL     OW22930   4.359   0.524   9.344 -0.0761 -0.1892  0.2224
 3823SOL    HW122931   4.309   0.444   9.362 -1.9943  1.0063  0.1112
 3823SOL    HW222932   4.447   0.506   9.378  0.7234  1.8122 -0.8228
 3824SOL     OW22933   3.501   2.710   8.030  0.5138  0.7214  0.3157
 3824SOL    HW122934   3.502   2.701   8.125  0.5910  1.0207  0.3433
 3824SOL    HW222935   3.421   2.661   8.010  0.5726  0.4909  0.6533
 3825SOL     OW22936   2.482   0.537  12.370  0.6347  0.1410 -0.3355
 3825SOL    HW122937   2.432   0.487  12.435 -0.0868  1.2127 -0.0687
 3825SOL    HW222938   2.474   0.627  12.400  0.1786  0.0167 -0.0787
 3826SOL     OW22939   3.090   1.177   4.226  0.0600 -0.8148  0.3888
 3826SOL    HW122940   3.000   1.191   4.196  1.0197  1.3196 -1.5006
 3826SOL    HW222941   3.138   1.191   4.145 -2.9818  0.5653 -1.1660
 3827SOL     OW22942   4.652   3.308   8.062  0.7306  0.1877 -0.1113
 3827SOL    HW122943   4.637   3.214   8.060  1.3296  0.0724  1.1931
 3827SOL    HW222944   0.008   3.303   8.112  1.5684  0.2968 -1.4660
 3828SOL     OW22945   0.041   0.286   1.562 -0.1700 -0.3655 -0.4395
 3828SOL    HW122946   0.001   0.252   1.482 -0.9727 -1.8404  0.5682
 3828SOL    HW222947   0.053   0.376   1.535 -2.3600  0.0333 -0.0982
 3829SOL     OW22948   3.136   0.402   6.656 -0.2124 -0.2402 -0.3551
 3829SOL    HW122949   3.064   0.463   6.669 -1.4717 -1.6653 -0.6050
 3829SOL    HW222950   3.084   0.321   6.658 -1.4651  0.5817  0.3269
 3830SOL     OW22951   4.063   1.909  10.746  0.3392  0.3850 -0.1881
 3830SOL    HW122952   4.015   1.859  10.680  0.1955 -0.8028  0.8290
 3830SOL    HW222953   4.131   1.850  10.777 -1.9188 -1.0936  1.8290
 3831SOL     OW22954   3.206   2.951   4.818 -0.1294 -0.2640 -0.4998
 3831SOL    HW122955   3.201   2.900   4.899  0.6893  2.2928  1.1634
 3831SOL    HW222956   3.120   2.994   4.817  0.0693  0.1334 -0.4447
 3832SOL     OW22957   2.060   0.541   1.170 -0.0791  0.3307 -0.5512
 3832SOL    HW122958   2.112   0.552   1.091 -0.1310  2.8797 -0.2266
 3832SOL    HW222959   2.036   0.633   1.177 -1.5755  0.0632 -2.0228
 3833SOL     OW22960   3.248   4.007   8.890 -0.2793 -0.2648  0.1728
 3833SOL    HW122961   3.237   4.097   8.922  1.1080 -1.0936  2.9739
 3833SOL    HW222962   3.309   3.984   8.960 -1.5474  1.8989  2.0267
 3834SOL     OW22963   1.917   1.625   4.781 -0.0186  0.8314 -0.2893
 3834SOL    HW122964   2.012   1.637   4.785  0.0498 -0.1222  1.0318
 3834SOL    HW222965   1.910   1.627   4.686  0.9395 -0.5819 -0.3830
 3835SOL     OW22966   1.715   0.934   2.501 -0.3507 -0.5495  0.2829
 3835SOL    HW122967   1.672   0.860   2.543 -0.2419 -0.3171  0.8110
 3835SOL    HW222968   1.704   0.928   2.406 -0.4458  0.9056  0.1963
 3836SOL     OW22969   4.181   2.896  13.152  0.4906  0.3511 -0.5323
 3836SOL    HW122970   4.231   2.931  13.078  1.8885 -1.1448 -0.3026
 3836SOL    HW222971   4.160   2.807  13.123 -2.6754  0.5805  1.1096
 3837SOL     OW22972   1.505   4.071   7.957 -0.2508  0.1185  0.1875
 3837SOL    HW122973   1.505   4.051   7.864 -0.4319 -0.0427  0.2230
 3837SOL    HW222974   1.577   4.133   7.969 -0.5422  0.2461  1.3107
 3838SOL     OW22975   3.768   1.726   2.122 -0.1149 -0.1151 -0.3170
 3838SOL    HW122976   3.748   1.706   2.214  0.4995 -1.6597 -0.5151
 3838SOL    HW222977   3.861   1.704   2.117 -0.1288 -0.6632  1.8832
 3839SOL     OW22978   1.830   3.787   2.310  0.2650  0.4581 -0.6438
 3839SOL    HW122979   1.915   3.824   2.283  0.0851  3.2671  2.6198
 3839SOL    HW222980   1.772   3.848   2.265  0.3250  0.0327 -1.2997
 3840SOL     OW22981   2.749   4.318  11.985  0.7781 -0.1893  0.2375
 3840SOL    HW122982   2.843   4.320  12.001  0.3062  0.2727  2.9756
 3840SOL    HW222983   2.748   4.340  11.892 -0.8885  1.1476  0.5783
 3841SOL     OW22984   3.144   3.411   5.428  0.2369  0.6426  0.1137
 3841SOL    HW122985   3.097   3.403   5.346 -0.8028 -1.7845  0.9755
 3841SOL    HW222986   3.236   3.410   5.399  0.6033  1.7036  1.1797
 3842SOL     OW22987   2.273   3.529  16.524 -0.3818  0.0790  0.1133
 3842SOL    HW122988   2.307   3.493  16.606 -0.9916 -1.7429 -0.4226
 3842SOL    HW222989   2.316   3.614  16.528 -0.6176  0.2013 -0.0070
 3843SOL     OW22990   3.762   0.938  15.464 -0.6059 -0.0646  0.0498
 3843SOL    HW122991   3.718   0.858  15.434  0.2675 -0.7476  0.5698
 3843SOL    HW222992   3.834   0.929  15.401 -1.1044  0.7141 -0.6223
 3844SOL     OW22993   3.832   2.796   6.406 -0.3401 -0.2534  0.5699
 3844SOL    HW122994   3.853   2.721   6.463  0.9978 -0.8208 -0.6658
 3844SOL    HW222995   3.898   2.778   6.339  0.4749  1.3438  0.9527
 3845SOL     OW22996   4.283   1.028   9.122 -0.6502 -0.0692  0.0811
 3845SOL    HW122997   4.313   0.938   9.132  2.9300  1.0745 -0.1794
 3845SOL    HW222998   4.188   1.020   9.130 -0.6577  0.8655  1.0878
 3846SOL     OW22999   2.115   0.550  17.116  0.5894  0.3351  0.2091
 3846SOL    HW123000   2.142   0.635  17.150 -0.1701  0.3881  0.6749
 3846SOL    HW223001   2.159   0.545  17.031 -1.2908 -1.9855 -0.6130
 3847SOL     OW23002   1.973   1.500   3.934 -0.4045  1.0045 -0.1572
 3847SOL    HW123003   2.016   1.564   3.877  1.5869 -0.4940 -0.3429
 3847SOL    HW223004   1.894   1.472   3.888 -0.4487 -0.0202  0.5461
 3848SOL     OW23005   1.809   1.836   1.384  0.1532 -0.5008  0.2221
 3848SOL    HW123006   1.827   1.862   1.293 -0.9882  0.9672  0.4252
 3848SOL    HW223007   1.893   1.796   1.406 -0.5596 -2.6759 -1.0843
 3849SOL     OW23008   0.818   3.006   6.875 -0.6061 -0.2589 -0.6018
 3849SOL    HW123009   0.884   3.008   6.806 -0.3840  1.1679 -0.3511
 3849SOL    HW223010   0.740   2.976   6.828 -0.4776  0.1876 -1.1127
 3850SOL     OW23011   0.501   1.586  12.466  0.0597 -0.2168 -0.0488
 3850SOL    HW123012   0.492   1.680  12.484 -1.2972 -0.6535  1.5915
 3850SOL    HW223013   0.421   1.573  12.416  0.5277  0.4397 -0.9686
 3851SOL     OW23014   0.168   1.855  16.693 -0.1936 -0.1089 -0.2659
 3851SOL    HW123015   0.223   1.808  16.756  0.2147 -0.2812 -0.7475
 3851SOL    HW223016   0.095   1.801  16.663  0.3751 -2.4866  2.6530
 3852SOL     OW23017   0.259   0.343   8.368  0.9187  0.0354 -0.1306
 3852SOL    HW123018   0.227   0.263   8.411 -1.1874  0.2894 -1.2042
 3852SOL    HW223019   0.254   0.403   8.442  1.5203  0.4064 -0.3879
 3853SOL     OW23020   4.566   0.705   6.292 -0.6199 -0.0396 -0.1445
 3853SOL    HW123021   4.486   0.699   6.239 -2.0641 -1.5877  2.2178
 3853SOL    HW223022   4.574   0.619   6.333  3.1659 -0.3302 -1.5396
 3854SOL     OW23023   4.344   3.339   9.289  0.2434 -0.5425  0.1995
 3854SOL    HW123024   4.401   3.387   9.229  1.2212 -0.3395  1.3010
 3854SOL    HW223025   4.364   3.246   9.278 -3.2019 -0.8041 -3.9679
 3855SOL     OW23026   2.463   2.516   2.497 -0.0730 -0.0884 -0.7370
 3855SOL    HW123027   2.420   2.510   2.582  2.6838 -0.9149  0.5777
 3855SOL    HW223028   2.464   2.422   2.480  0.2686 -0.0896 -0.7055
 3856SOL     OW23029   2.551   2.081   2.110 -0.4136  0.4240 -0.0648
 3856SOL    HW123030   2.504   2.151   2.156 -0.1892  1.3010 -1.1541
 3856SOL    HW223031   2.621   2.065   2.173 -1.0856 -1.9817  0.0664
 3857SOL     OW23032   1.919   1.727   7.412 -0.4903  0.2910 -1.0717
 3857SOL    HW123033   1.902   1.635   7.390 -2.3829  0.2691  0.4563
 3857SOL    HW223034   2.009   1.721   7.444 -0.2938 -1.7932 -2.0329
 3858SOL     OW23035   0.253   3.329   3.487 -0.1262  0.0394  0.2671
 3858SOL    HW123036   0.279   3.417   3.461  1.7955 -0.4301  0.6073
 3858SOL    HW223037   0.279   3.322   3.579  2.1727  1.5659 -0.2655
 3859SOL     OW23038   1.657   4.512   0.436 -0.7564 -0.5708  0.3193
 3859SOL    HW123039   1.576   4.464   0.420 -1.9131  1.6686 -0.5430
 3859SOL    HW223040   1.681   4.541   0.348 -0.4119  0.0812  0.6292
 3860SOL     OW23041   4.074   2.971   2.827  0.4865 -0.3072  0.5899
 3860SOL    HW123042   4.050   3.034   2.759 -2.4694 -0.5075  1.4697
 3860SOL    HW223043   4.164   2.943   2.811  0.1717 -0.7813 -0.3142
 3861SOL     OW23044   1.670   3.385   5.432 -0.3853  0.2299 -0.4299
 3861SOL    HW123045   1.639   3.308   5.479 -0.3486  0.5285  0.0798
 3861SOL    HW223046   1.756   3.357   5.399  0.0525 -1.2273  2.0037
 3862SOL     OW23047   2.201   1.973   0.943  0.0574  0.0883  0.7947
 3862SOL    HW123048   2.274   2.030   0.970 -0.3081  0.5957  0.7164
 3862SOL    HW223049   2.129   2.032   0.965  0.6482  1.2430 -0.3804
 3863SOL     OW23050   4.488   3.980   8.338  0.0861  0.2403 -0.3192
 3863SOL    HW123051   4.453   4.053   8.288  2.6269  1.6036 -0.1152
 3863SOL    HW223052   4.469   3.902   8.287 -4.4836 -1.0969  3.4414
 3864SOL     OW23053   1.420   1.655  10.282 -0.1567  0.2796 -0.3786
 3864SOL    HW123054   1.497   1.687  10.329 -0.3068  0.4026 -0.2147
 3864SOL    HW223055   1.453   1.665  10.193  0.6166 -1.9325 -0.3458
 3865SOL     OW23056   3.820   1.390   2.013 -0.6524  0.4676 -0.5578
 3865SOL    HW123057   3.849   1.468   2.061  1.0601 -1.6447  1.8622
 3865SOL    HW223058   3.726   1.398   2.030 -0.5862  0.9846 -0.4316
 3866SOL     OW23059   1.578   0.575   8.681 -0.3850  0.2199  0.5609
 3866SOL    HW123060   1.615   0.597   8.596 -0.5550 -0.1953  0.3802
 3866SOL    HW223061   1.638   0.624   8.737 -1.6582  0.7311  1.4759
 3867SOL     OW23062   2.562   3.909  12.215  0.4485  0.0078 -0.4190
 3867SOL    HW123063   2.628   3.966  12.255 -0.3240 -0.9000  2.1925
 3867SOL    HW223064   2.618   3.839  12.183  2.7618  0.5979  2.2914
 3868SOL     OW23065   1.517   1.110   9.318  0.0238  0.1824  0.1519
 3868SOL    HW123066   1.430   1.072   9.312 -1.2934  3.4565 -1.2285
 3868SOL    HW223067   1.542   1.091   9.408  0.4411 -1.0952 -0.2215
 3869SOL     OW23068   2.915   4.667   8.545  0.2835  0.4293  0.1347
 3869SOL    HW123069   2.931   0.026   8.503 -0.8498  1.3459  1.5099
 3869SOL    HW223070   2.938   4.685   8.636  0.8301  1.9037 -0.2917
 3870SOL     OW23071   2.593   0.689   6.353 -0.1774 -0.3860  0.5421
 3870SOL    HW123072   2.631   0.640   6.426  1.2764 -1.2119 -0.7751
 3870SOL    HW223073   2.648   0.768   6.355  0.6987 -0.9682 -0.3580
 3871SOL     OW23074   3.036   4.279  16.253 -0.4223  0.9859  1.0607
 3871SOL    HW123075   3.026   4.191  16.290  1.7326  0.5130  0.5116
 3871SOL    HW223076   2.987   4.331  16.317 -0.3916  1.7923  0.4343
 3872SOL     OW23077   0.807   1.685   6.434  0.1116 -0.4747 -0.6172
 3872SOL    HW123078   0.764   1.694   6.519  1.5230  0.8084 -0.0218
 3872SOL    HW223079   0.762   1.604   6.413  1.1267 -1.4301  0.9479
 3873SOL     OW23080   0.633   0.391  16.896 -0.0983 -0.0125  0.2873
 3873SOL    HW123081   0.641   0.309  16.847  0.1558 -0.7485  1.5534
 3873SOL    HW223082   0.645   0.454  16.825 -2.9935 -2.0466 -2.0550
 3874SOL     OW23083   3.348   3.108  15.972 -0.1910  0.4410  0.2643
 3874SOL    HW123084   3.421   3.169  15.965  1.1072 -1.3241 -1.7317
 3874SOL    HW223085   3.389   3.031  16.012 -0.7555 -0.1860 -0.3386
 3875SOL     OW23086   2.218   3.665   0.972 -0.1977  0.4602  0.2043
 3875SOL    HW123087   2.230   3.571   0.961  0.4486  0.5160  0.4298
 3875SOL    HW223088   2.297   3.687   1.022 -0.2801 -0.0409  0.5567
 3876SOL     OW23089   3.163   2.729   3.063  0.0315 -0.0659 -0.1099
 3876SOL    HW123090   3.072   2.718   3.038  0.3419 -0.3720 -1.1042
 3876SOL    HW223091   3.151   2.718   3.157 -1.4457  2.2708 -0.0222
 3877SOL     OW23092   2.832   4.657   7.216 -0.4876  0.1550 -0.0212
 3877SOL    HW123093   2.859   4.704   7.137  1.3799 -0.7015  0.1152
 3877SOL    HW223094   2.894   4.695   7.278 -0.1581 -1.1838  0.4694
 3878SOL     OW23095   2.639   1.402   0.414  0.2062  0.2231 -0.0394
 3878SOL    HW123096   2.726   1.391   0.376  0.8523 -1.9450  1.9968
 3878SOL    HW223097   2.631   1.309   0.438  0.2620  0.1103 -0.4568
 3879SOL     OW23098   1.670   2.473   4.890 -0.6687 -0.6980 -0.1232
 3879SOL    HW123099   1.679   2.547   4.949 -0.0050 -0.4840 -0.4939
 3879SOL    HW223100   1.626   2.526   4.824  0.1636  2.5106  1.8973
 3880SOL     OW23101   4.147   3.393   5.759 -0.2259 -0.2646 -0.7629
 3880SOL    HW123102   4.103   3.308   5.761 -0.7462  0.1074  3.3889
 3880SOL    HW223103   4.085   3.438   5.701 -0.6467 -0.4503 -0.4615
 3881SOL     OW23104   2.227   2.482   5.847  0.2835 -0.1567 -0.6873
 3881SOL    HW123105   2.216   2.470   5.753  0.0083 -0.0686 -0.6642
 3881SOL    HW223106   2.320   2.506   5.847 -0.0374  1.0505 -0.5794
 3882SOL     OW23107   4.678   0.014   8.327  0.3703 -0.9616  0.1090
 3882SOL    HW123108   4.700   0.048   8.239 -1.2880 -1.8016 -0.6209
 3882SOL    HW223109   4.639   4.655   8.305 -1.1254  1.0319 -4.9264
 3883SOL     OW23110   1.944   0.257   0.626 -0.2570  0.5087  0.0242
 3883SOL    HW123111   2.005   0.289   0.559  0.6638 -0.3617  0.4534
 3883SOL    HW223112   1.861   0.248   0.578 -0.2286  1.2569 -0.1706
 3884SOL     OW23113   3.257   1.213   9.577 -0.6673  0.4333  0.3966
 3884SOL    HW123114   3.247   1.243   9.667  0.8945  0.7590  0.4717
 3884SOL    HW223115   3.195   1.141   9.580 -1.3328  0.9573 -0.5703
 3885SOL     OW23116   0.859   2.780   7.845  0.4199  0.3436  0.3806
 3885SOL    HW123117   0.871   2.689   7.818 -0.0107  0.2049  0.6562
 3885SOL    HW223118   0.906   2.825   7.775  1.7017  0.0750  1.0861
 3886SOL     OW23119   2.544   2.297  15.058 -0.0676 -0.3190  0.1334
 3886SOL    HW123120   2.594   2.219  15.082  1.0361 -0.5918 -3.1387
 3886SOL    HW223121   2.512   2.266  14.974  0.5888 -0.1708 -0.1694
 3887SOL     OW23122   0.465   2.569  13.984  0.5404 -0.6370  0.2954
 3887SOL    HW123123   0.394   2.609  13.934 -0.4785 -1.5499  1.0346
 3887SOL    HW223124   0.494   2.501  13.923 -1.8321 -0.9253 -0.5125
 3888SOL     OW23125   3.835   0.120   7.795 -0.3182  0.3913  0.0991
 3888SOL    HW123126   3.812   0.153   7.882 -0.4780  1.1400 -0.2252
 3888SOL    HW223127   3.890   0.045   7.817  0.8770  1.4178  0.5707
 3889SOL     OW23128   2.512   3.322  14.513  0.5766 -0.0210 -0.0172
 3889SOL    HW123129   2.531   3.312  14.606 -1.7247 -1.2443  0.3235
 3889SOL    HW223130   2.418   3.339  14.509  0.7454  0.6265 -1.4989
 3890SOL     OW23131   1.331   3.635   4.367 -0.5601 -0.1212 -0.6012
 3890SOL    HW123132   1.241   3.630   4.399  0.1512 -0.4813  1.3508
 3890SOL    HW223133   1.322   3.721   4.326 -0.3737  0.2566  0.1535
 3891SOL     OW23134   1.548   4.557  15.987  0.0744  0.3519 -0.1654
 3891SOL    HW123135   1.490   4.505  15.932 -0.5104  1.1453 -0.2908
 3891SOL    HW223136   1.478   4.586  16.046  0.9946  0.5354  0.8558
 3892SOL     OW23137   3.400   2.930   7.066  0.7898 -0.0473  0.3857
 3892SOL    HW123138   3.360   2.972   7.143  1.4002 -0.8167  1.1180
 3892SOL    HW223139   3.360   2.993   7.006 -1.2974 -0.1621  1.6321
 3893SOL     OW23140   3.884   3.543   5.032  0.2437  0.4657 -0.0844
 3893SOL    HW123141   3.956   3.522   5.092 -0.4818  1.1464  1.0198
 3893SOL    HW223142   3.870   3.636   5.051 -2.6953 -0.3976  1.9344
 3894SOL     OW23143   1.378   3.685   3.335  0.3812 -0.2748  0.1700
 3894SOL    HW123144   1.352   3.730   3.255  0.3594 -0.7285 -0.0761
 3894SOL    HW223145   1.325   3.605   3.334  0.2754 -0.1426 -4.7824
 3895SOL     OW23146   1.562   2.325   2.376  0.3993 -0.2093  1.0129
 3895SOL    HW123147   1.513   2.407   2.381  0.3175 -0.4906  4.5316
 3895SOL    HW223148   1.542   2.295   2.287 -1.1384 -0.7163  1.5338
 3896SOL     OW23149   2.120   4.061   8.596  0.7433 -0.2053  0.5345
 3896SOL    HW123150   2.092   4.153   8.604  1.2820  0.1029 -1.0693
 3896SOL    HW223151   2.077   4.041   8.513  1.3155 -1.0566  0.4418
 3897SOL     OW23152   4.226   1.829   4.999 -0.0076  0.6240 -0.6319
 3897SOL    HW123153   4.286   1.900   5.020  0.3122 -0.4906  2.2962
 3897SOL    HW223154   4.220   1.833   4.904  1.9333 -1.0530 -0.8281
 3898SOL     OW23155   4.479   0.883   6.986  0.1886 -0.5542  0.1396
 3898SOL    HW123156   4.384   0.887   7.000  0.2223  2.3544 -0.2838
 3898SOL    HW223157   4.525   0.891   7.070 -0.4959 -0.8699  0.5390
 3899SOL     OW23158   4.512   0.361  17.199 -0.2389 -0.1108 -0.2310
 3899SOL    HW123159   4.458   0.435  17.229 -0.8533 -0.2061 -1.0841
 3899SOL    HW223160   4.589   0.378  17.253  0.4121 -1.3679 -0.7759
 3900SOL     OW23161   3.577   2.648   2.276  0.3381 -0.0391  0.4902
 3900SOL    HW123162   3.534   2.610   2.200  1.2645  0.7560 -0.4258
 3900SOL    HW223163   3.507   2.675   2.336 -0.5857 -1.8479  0.2256
 3901SOL     OW23164   3.253   0.933  13.087  0.5639 -0.3578  0.3178
 3901SOL    HW123165   3.341   0.899  13.104  0.9118  0.1488 -0.5077
 3901SOL    HW223166   3.270   0.999  13.021  1.2565  0.4367  1.2942
 3902SOL     OW23167   4.297   4.292   4.434 -0.7678 -0.0891 -0.0208
 3902SOL    HW123168   4.221   4.348   4.421 -0.5160  0.1658 -0.3990
 3902SOL    HW223169   4.307   4.254   4.347  0.8021 -1.7122  0.8619
 3903SOL     OW23170   3.407   2.904   2.620  0.3025  0.2312 -0.4920
 3903SOL    HW123171   3.417   2.919   2.714  0.9436 -3.8260  0.0595
 3903SOL    HW223172   3.482   2.848   2.599 -0.8507 -0.8082 -1.7705
 3904SOL     OW23173   2.913   0.821   8.817  0.2044 -0.4280 -0.6796
 3904SOL    HW123174   2.861   0.892   8.855 -0.8349  0.2172 -3.2355
 3904SOL    HW223175   3.001   0.831   8.854 -1.5899 -0.2177  3.4574
 3905SOL     OW23176   3.278   3.936   4.111  0.1830 -0.2464  0.0431
 3905SOL    HW123177   3.321   3.968   4.190  1.0410 -1.2427 -0.0233
 3905SOL    HW223178   3.195   3.983   4.112  1.6453  2.4167 -2.2005
 3906SOL     OW23179   1.139   4.216   9.130  0.0656 -0.4101  0.5135
 3906SOL    HW123180   1.187   4.159   9.190  0.6143 -0.7357 -0.2278
 3906SOL    HW223181   1.050   4.218   9.166 -0.1960  2.1136 -0.2433
 3907SOL     OW23182   3.370   3.732   5.778 -0.9290 -0.0198  0.7594
 3907SOL    HW123183   3.332   3.660   5.727  1.4978 -0.2811 -0.6469
 3907SOL    HW223184   3.295   3.749   5.835 -0.7202 -1.7684  1.5361
 3908SOL     OW23185   3.262   4.477  14.531  0.1421  0.2296 -0.2121
 3908SOL    HW123186   3.313   4.526  14.466 -0.1442 -1.2472 -1.5374
 3908SOL    HW223187   3.338   4.474  14.589  1.7931  0.7886 -2.3492
 3909SOL     OW23188   1.188   1.295   6.373  0.2915 -0.1862  0.2432
 3909SOL    HW123189   1.227   1.290   6.286  0.3557 -0.3218  0.2805
 3909SOL    HW223190   1.189   1.391   6.384  0.5112 -0.3561  1.7900
 3910SOL     OW23191   4.532   2.473   9.179 -0.0080  0.1835 -1.3384
 3910SOL    HW123192   4.605   2.531   9.202 -1.3040 -0.0855  3.4351
 3910SOL    HW223193   4.502   2.445   9.265  2.1165  2.4442  0.1176
 3911SOL     OW23194   3.247   0.825   7.666 -0.0854  0.0690  0.6040
 3911SOL    HW123195   3.236   0.918   7.682  0.6313  0.8235 -3.2648
 3911SOL    HW223196   3.299   0.823   7.585  0.2878  1.7093  0.8076
 3912SOL     OW23197   4.630   3.423  17.274 -0.2681 -0.1168  0.2772
 3912SOL    HW123198   4.557   3.480  17.300 -0.7755  0.1663 -1.7345
 3912SOL    HW223199   4.699   3.488  17.286  0.2482 -0.7106  0.5315
 3913SOL     OW23200   0.525   4.711  12.910 -0.4314  0.0465 -0.1336
 3913SOL    HW123201   0.553   0.016  12.996  1.1748 -1.0940 -0.2674
 3913SOL    HW223202   0.519   0.071  12.865  1.4771  0.6092  0.6644
 3914SOL     OW23203   3.820   4.712   0.929  0.3974 -0.2227 -0.0305
 3914SOL    HW123204   3.748   0.038   0.967 -0.4186  0.0400 -1.9200
 3914SOL    HW223205   3.763   4.644   0.893  0.4218 -0.8162  1.0651
 3915SOL     OW23206   0.652   0.706  12.585 -0.3679  0.1417 -0.0558
 3915SOL    HW123207   0.619   0.749  12.663  1.9936  2.0622 -0.1231
 3915SOL    HW223208   0.625   0.770  12.520 -0.6035  1.0208  0.9281
 3916SOL     OW23209   1.990   4.041   3.658  0.7574 -0.0752 -0.2107
 3916SOL    HW123210   2.006   3.950   3.682 -1.8521 -0.8937 -1.5161
 3916SOL    HW223211   1.897   4.043   3.636  0.9630 -0.2516 -1.0982
 3917SOL     OW23212   3.076   0.060   3.381 -0.0066  0.1785  0.0572
 3917SOL    HW123213   3.042   0.086   3.466  1.7220  0.8873  0.5485
 3917SOL    HW223214   2.995   0.064   3.330  0.3134 -2.3015 -0.6789
 3918SOL     OW23215   3.012   1.108   8.650 -0.4434 -0.4563 -0.2693
 3918SOL    HW123216   3.037   1.110   8.742 -2.7643 -2.6347  0.4136
 3918SOL    HW223217   3.088   1.065   8.611  0.3879  0.4550  0.3743
 3919SOL     OW23218   1.734   0.255   7.865 -0.0989  0.3388 -0.1800
 3919SOL    HW123219   1.656   0.231   7.917 -0.0655  0.0277 -0.2742
 3919SOL    HW223220   1.767   0.177   7.822  1.2781  1.0366 -0.3750
 3920SOL     OW23221   4.681   3.962   0.530 -0.3744 -0.0350 -0.4208
 3920SOL    HW123222   4.592   3.992   0.511 -0.6263 -0.0707  0.6549
 3920SOL    HW223223   4.710   3.998   0.614 -0.2437  0.6160 -0.7412
 3921SOL     OW23224   1.274   1.620   5.025 -0.3568 -0.2747  0.0266
 3921SOL    HW123225   1.208   1.678   5.062  0.9074  0.8429  0.5341
 3921SOL    HW223226   1.213   1.586   4.959  0.0514  0.1390 -0.5689
 3922SOL     OW23227   1.648   1.897   0.062  0.0076  0.6884 -0.1193
 3922SOL    HW123228   1.627   1.804   0.059 -0.4792  0.7003  2.8947
 3922SOL    HW223229   1.671   1.906   0.154 -2.7523  3.3547  0.3022
 3923SOL     OW23230   3.326   1.642   1.498  0.3262  0.1087 -0.8982
 3923SOL    HW123231   3.376   1.709   1.452 -0.1718  0.2589 -1.2168
 3923SOL    HW223232   3.237   1.672   1.483  0.2370 -0.3996 -1.4000
 3924SOL     OW23233   3.544   4.577   2.088  0.3103 -0.1265 -0.3680
 3924SOL    HW123234   3.632   4.561   2.055 -0.4615 -1.6015 -1.7042
 3924SOL    HW223235   3.501   4.577   2.003 -1.6756 -0.1170  0.6329
 3925SOL     OW23236   0.071   4.451   4.797  0.5217  0.1734  0.5893
 3925SOL    HW123237   0.101   4.424   4.710  0.5579 -0.0143  0.6612
 3925SOL    HW223238   0.150   4.493   4.831 -0.3067  2.3047 -0.0787
 3926SOL     OW23239   4.202   1.382  12.006  0.1614  0.0274 -0.4944
 3926SOL    HW123240   4.140   1.315  12.035  0.3654 -1.2406 -2.9993
 3926SOL    HW223241   4.203   1.361  11.913 -2.5199  0.2906 -0.5640
 3927SOL     OW23242   2.010   1.147   9.525  0.3619  0.4736 -0.1828
 3927SOL    HW123243   1.937   1.128   9.466  1.4245 -2.6184 -0.4735
 3927SOL    HW223244   2.077   1.123   9.461  0.7107  2.1785 -0.4797
 3928SOL     OW23245   4.724   1.254   5.034  0.0270  0.0756  0.4809
 3928SOL    HW123246   0.022   1.335   4.990 -0.2601  0.0239  0.2358
 3928SOL    HW223247   4.655   1.289   5.091 -0.7029 -1.6504  0.6620
 3929SOL     OW23248   0.205   4.323   3.649  0.0644  0.1209  0.0480
 3929SOL    HW123249   0.187   4.277   3.567 -3.0236  2.3386 -0.5069
 3929SOL    HW223250   0.300   4.321   3.631  0.2210  0.3078  0.8827
 3930SOL     OW23251   1.356   2.305   4.671  0.1384 -0.0587 -0.1605
 3930SOL    HW123252   1.422   2.275   4.733  1.0114  2.9620  0.3938
 3930SOL    HW223253   1.401   2.386   4.647  0.1605 -0.4423 -1.4010
 3931SOL     OW23254   4.359   3.706  13.679  0.1337  0.4654 -0.1793
 3931SOL    HW123255   4.286   3.749  13.635 -1.2907  0.5628  2.3151
 3931SOL    HW223256   4.382   3.777  13.740 -1.7330  0.1630  0.8558
 3932SOL     OW23257   1.294   1.062   1.915  0.3548  0.4320  0.1138
 3932SOL    HW123258   1.243   0.989   1.879 -0.8948  1.0751  0.6184
 3932SOL    HW223259   1.301   1.045   2.009 -3.1987 -2.1982 -0.0899
 3933SOL     OW23260   0.630   0.940  15.027 -0.2410 -0.2788  0.1829
 3933SOL    HW123261   0.549   0.921  15.073 -0.3810 -0.3954 -0.1103
 3933SOL    HW223262   0.606   0.947  14.935  0.6663  2.8500  0.1958
 3934SOL     OW23263   4.609   1.070   4.756 -0.7369  0.8332  0.3698
 3934SOL    HW123264   4.645   1.159   4.750 -1.8912  1.2919  0.1723
 3934SOL    HW223265   4.592   1.062   4.850 -4.8631  0.4937 -0.4031
 3935SOL     OW23266   3.545   3.270   0.601 -0.0534  0.4233 -0.1136
 3935SOL    HW123267   3.550   3.301   0.510 -0.0395  2.5617  0.6067
 3935SOL    HW223268   3.534   3.352   0.649  1.0969  0.5394 -0.0581
 3936SOL     OW23269   0.811   4.092  13.313  0.2463  0.4994 -0.0881
 3936SOL    HW123270   0.878   4.156  13.340  0.8499 -1.0431  2.0478
 3936SOL    HW223271   0.852   4.057  13.234 -1.5393 -0.7052 -0.4826
 3937SOL     OW23272   4.564   2.623   0.097  0.4189  0.0229 -0.2160
 3937SOL    HW123273   4.480   2.581   0.078 -0.1263  0.8149  0.4647
 3937SOL    HW223274   4.537   2.714   0.108  2.6457  0.7199 -0.6203
 3938SOL     OW23275   1.153   1.816   6.696 -0.0968 -0.0265  0.2339
 3938SOL    HW123276   1.157   1.814   6.792  0.3778 -1.2481  0.2010
 3938SOL    HW223277   1.119   1.728   6.678 -0.8611  0.4662 -0.7379
 3939SOL     OW23278   0.018   3.231   1.931  0.5073 -0.0818  0.3280
 3939SOL    HW123279   0.033   3.156   1.874 -1.1800 -0.4906  0.4285
 3939SOL    HW223280   0.105   3.271   1.937  0.5383 -0.2277  0.8358
 3940SOL     OW23281   1.279   4.015   6.256  0.1657  0.2681 -0.0101
 3940SOL    HW123282   1.273   3.926   6.221  0.1847 -0.0431  0.7704
 3940SOL    HW223283   1.280   4.064   6.174  0.9849  0.5870  0.1935
 3941SOL     OW23284   0.042   4.612  11.037 -0.3719  0.1785  0.4833
 3941SOL    HW123285   4.724   4.697  11.039  0.6063  0.7318 -1.2242
 3941SOL    HW223286   0.083   4.621  10.950 -1.6286  0.5289 -0.0708
 3942SOL     OW23287   0.649   0.454   4.681  0.0653 -0.6752 -0.2567
 3942SOL    HW123288   0.734   0.495   4.664 -0.4254  0.6960  0.6660
 3942SOL    HW223289   0.665   0.365   4.649 -0.5169 -0.6191 -0.6949
 3943SOL     OW23290   3.512   3.987   2.474 -0.4875 -0.3293 -0.2738
 3943SOL    HW123291   3.419   3.996   2.493 -0.4741  3.1055 -1.8727
 3943SOL    HW223292   3.512   4.025   2.386  1.1904 -0.1733 -0.2150
 3944SOL     OW23293   3.589   3.406   5.664  0.3546  0.1126 -0.1750
 3944SOL    HW123294   3.620   3.335   5.608 -1.0914 -1.4683  1.0672
 3944SOL    HW223295   3.495   3.412   5.648  0.3523 -0.9184 -0.5513
 3945SOL     OW23296   0.435   0.019   5.092  0.0170  0.0532 -0.4220
 3945SOL    HW123297   0.345   0.032   5.063 -0.2940  1.0904  1.0147
 3945SOL    HW223298   0.438   4.699   5.177 -0.3283 -1.8192 -1.4006
 3946SOL     OW23299   1.556   3.649   5.774 -0.3634 -0.3754  0.2050
 3946SOL    HW123300   1.472   3.695   5.775 -0.1991 -0.1081  1.7474
 3946SOL    HW223301   1.530   3.580   5.713  1.2863 -1.3283  0.5915
 3947SOL     OW23302   1.824   3.403   8.978  0.3088  0.1029 -0.0872
 3947SOL    HW123303   1.817   3.450   8.894 -0.3493  0.0363 -0.0693
 3947SOL    HW223304   1.792   3.462   9.046 -2.4152 -0.7056 -0.6737
 3948SOL     OW23305   0.062   1.058   4.542 -0.1828  1.0881  0.4320
 3948SOL    HW123306   0.018   0.991   4.490  0.3852  2.6087 -2.0212
 3948SOL    HW223307   0.012   1.061   4.623 -1.1717 -0.4169 -0.1293
 3949SOL     OW23308   1.927   3.760   3.304 -0.0424 -0.3362 -0.3396
 3949SOL    HW123309   2.011   3.772   3.348 -1.6043 -1.1106  2.8485
 3949SOL    HW223310   1.891   3.689   3.357  3.1520 -1.5908  0.1350
 3950SOL     OW23311   2.675   2.876   1.973 -0.1737  0.1913 -0.6938
 3950SOL    HW123312   2.736   2.949   1.983 -0.9045  1.0021 -2.1715
 3950SOL    HW223313   2.597   2.917   2.011  1.6445 -0.2486  3.5528
 3951SOL     OW23314   0.363   1.422   2.453 -0.1427 -0.5884 -0.2395
 3951SOL    HW123315   0.367   1.432   2.548 -1.7035 -3.0261  0.0842
 3951SOL    HW223316   0.338   1.330   2.445 -0.4547 -0.6288  1.2717
 3952SOL     OW23317   3.333   0.361   1.930  0.3290  0.3773  0.2686
 3952SOL    HW123318   3.377   0.281   1.901 -2.4371 -1.1310  0.2071
 3952SOL    HW223319   3.355   0.421   1.859 -0.4118 -0.9012 -1.0501
 3953SOL     OW23320   3.851   4.317  11.103  0.1350 -0.2482 -0.5838
 3953SOL    HW123321   3.783   4.336  11.039 -0.6525  1.5032  0.7562
 3953SOL    HW223322   3.921   4.369  11.064 -2.2535  1.3144 -2.7990
 3954SOL     OW23323   1.214   2.191  12.072 -0.7361  0.8005  0.2031
 3954SOL    HW123324   1.248   2.146  11.995  1.1325  1.9045  0.3739
 3954SOL    HW223325   1.180   2.116  12.120  1.2775 -0.2234  0.0566
 3955SOL     OW23326   3.509   0.621  10.281  0.2529 -0.2982  0.1756
 3955SOL    HW123327   3.427   0.647  10.321 -0.1382 -0.0202 -0.8167
 3955SOL    HW223328   3.471   0.561  10.217 -3.0825  3.2006 -1.0912
 3956SOL     OW23329   4.255   1.985   5.518 -0.3652 -0.1170  0.1826
 3956SOL    HW123330   4.164   2.011   5.528 -0.1964  0.2377  0.8038
 3956SOL    HW223331   4.256   1.890   5.530  1.0561  0.1532  2.2498
 3957SOL     OW23332   4.659   1.077  13.111  0.2556 -0.2241 -0.6802
 3957SOL    HW123333   4.569   1.086  13.079 -0.3814  0.6942  1.3926
 3957SOL    HW223334   4.658   1.022  13.189 -0.4131  0.6963 -0.0387
 3958SOL     OW23335   2.578   1.259   5.842 -0.3253 -0.2538 -0.1909
 3958SOL    HW123336   2.599   1.351   5.862  3.2289 -0.7444 -1.6452
 3958SOL    HW223337   2.486   1.262   5.868 -0.5351  0.4315 -0.9989
 3959SOL     OW23338   4.675   1.498   8.789  0.2431 -1.0413  0.4638
 3959SOL    HW123339   4.596   1.445   8.788 -0.9854  0.7816  1.0772
 3959SOL    HW223340   4.671   1.538   8.876 -0.8469  3.6522 -1.7178
 3960SOL     OW23341   0.075   3.998   9.323  0.1061  0.2242 -0.4504
 3960SOL    HW123342   0.040   3.997   9.234  1.4925 -0.3933 -0.9913
 3960SOL    HW223343   0.032   3.921   9.361  1.4791 -0.2491  0.1503
 3961SOL     OW23344   1.327   0.323   7.974 -0.2724 -0.6092 -0.7293
 3961SOL    HW123345   1.252   0.271   7.945 -1.6501  0.6065  0.6700
 3961SOL    HW223346   1.328   0.289   8.064  1.2755  0.8670 -0.1948
 3962SOL     OW23347   4.289   1.170   4.152 -0.6555 -0.0359  0.5200
 3962SOL    HW123348   4.232   1.239   4.119 -1.4311 -0.3226  1.2607
 3962SOL    HW223349   4.235   1.152   4.229  0.1300  0.6955  1.2419
 3963SOL     OW23350   2.097   3.377   0.857 -0.1688 -0.2622 -0.1103
 3963SOL    HW123351   2.082   3.285   0.878 -3.4550 -0.0403 -1.4701
 3963SOL    HW223352   2.027   3.420   0.905 -0.9301  0.3735 -1.7624
 3964SOL     OW23353   1.193   3.313   5.055  0.2781  0.2361 -0.2176
 3964SOL    HW123354   1.262   3.342   4.996  0.4719 -1.9055 -1.0514
 3964SOL    HW223355   1.187   3.396   5.103  0.5372 -0.6902  1.4249
 3965SOL     OW23356   4.049   3.283  14.695 -0.2597 -0.1819  0.1172
 3965SOL    HW123357   4.091   3.338  14.762  0.7861 -1.5630  0.5956
 3965SOL    HW223358   4.011   3.220  14.757  0.4386 -1.6254 -0.9351
 3966SOL     OW23359   2.683   4.223   2.797  0.7412  0.1329  0.1003
 3966SOL    HW123360   2.594   4.213   2.763  2.1634  1.3721 -3.8631
 3966SOL    HW223361   2.741   4.164   2.750  0.4742  0.5367 -0.7232
 3967SOL     OW23362   0.392   0.953  10.154  0.2482 -0.3536 -0.1522
 3967SOL    HW123363   0.483   0.924  10.146  0.3102 -0.2250  0.0929
 3967SOL    HW223364   0.376   0.994  10.069 -0.7150  0.1748  0.2833
 3968SOL     OW23365   0.384   4.079   9.748 -0.4110 -0.1054  0.1752
 3968SOL    HW123366   0.356   4.155   9.697 -1.3236 -0.1481  0.6177
 3968SOL    HW223367   0.457   4.111   9.802  1.7296  0.1472 -2.8627
 3969SOL     OW23368   1.283   1.643  14.314  0.4354  0.3435 -0.3940
 3969SOL    HW123369   1.350   1.616  14.251 -0.1171  0.0571 -0.8638
 3969SOL    HW223370   1.269   1.561  14.361  0.1490  0.4379 -0.3172
 3970SOL     OW23371   3.427   1.070   9.913 -0.6707  0.4212 -0.5346
 3970SOL    HW123372   3.460   0.989   9.952 -2.8713 -0.6382 -0.8092
 3970SOL    HW223373   3.392   1.111   9.992 -2.2083 -0.5865 -0.6710
 3971SOL     OW23374   3.213   0.082   6.415 -0.4043 -0.8230 -0.0847
 3971SOL    HW123375   3.141   0.099   6.355  0.0700  0.7387 -0.2120
 3971SOL    HW223376   3.162   0.053   6.490 -1.4396  1.8033  0.2380
 3972SOL     OW23377   2.750   0.618   3.657 -0.1844 -0.2862 -0.0387
 3972SOL    HW123378   2.845   0.631   3.655 -0.2870  0.3731 -0.7656
 3972SOL    HW223379   2.733   0.630   3.564  0.1977 -2.8348 -0.4209
 3973SOL     OW23380   1.445   2.894   7.505 -0.0464  0.1522  0.4154
 3973SOL    HW123381   1.385   2.825   7.531  0.2092 -0.3066 -0.2168
 3973SOL    HW223382   1.526   2.847   7.488 -0.3731 -0.7258  1.3503
 3974SOL     OW23383   4.658   3.359   7.542  0.3517  0.0309  0.1228
 3974SOL    HW123384   4.611   3.303   7.604  2.2333 -3.0061 -1.1904
 3974SOL    HW223385   0.017   3.367   7.587  0.3530  1.0614 -0.0518
 3975SOL     OW23386   1.540   4.414   3.580 -0.3833 -0.0482 -0.2413
 3975SOL    HW123387   1.547   4.404   3.485 -0.4545 -1.6321 -0.0815
 3975SOL    HW223388   1.576   4.333   3.617  0.9528  0.9836  0.7593
 3976SOL     OW23389   1.316   3.183   1.258  0.2192  0.4569  0.4026
 3976SOL    HW123390   1.294   3.110   1.316 -1.5344  0.5594 -0.1241
 3976SOL    HW223391   1.402   3.210   1.290 -0.4345  0.9032  1.8239
 3977SOL     OW23392   0.778   1.886   9.084  0.1678  0.7744 -0.4897
 3977SOL    HW123393   0.779   1.792   9.101 -0.0466  1.0076  0.8234
 3977SOL    HW223394   0.715   1.893   9.012 -0.8843  1.8524  0.5319
 3978SOL     OW23395   3.117   2.535   5.731  0.0901  0.0047 -0.0188
 3978SOL    HW123396   3.102   2.441   5.733 -0.9179  0.1504 -0.6669
 3978SOL    HW223397   3.036   2.575   5.763  0.9108  1.0847  0.6961
 3979SOL     OW23398   1.613   1.444   9.456  0.0395  0.3374 -0.1931
 3979SOL    HW123399   1.560   1.400   9.522  0.8783  0.7899  0.7750
 3979SOL    HW223400   1.678   1.485   9.513 -0.9717  0.4994  0.8454
 3980SOL     OW23401   2.012   1.057   8.746 -0.1241 -0.0301 -0.0913
 3980SOL    HW123402   2.024   1.137   8.797  0.2072 -1.0630  1.4378
 3980SOL    HW223403   2.026   0.987   8.809 -0.8189 -1.4841 -1.5339
 3981SOL     OW23404   0.443   2.084   2.166  0.0726  0.1138  0.3587
 3981SOL    HW123405   0.363   2.068   2.116  0.1912 -0.2636  0.2882
 3981SOL    HW223406   0.409   2.128   2.244  0.2797 -1.3547  1.2616
 3982SOL     OW23407   2.317   1.805   3.007  0.3743 -0.2402  0.4147
 3982SOL    HW123408   2.288   1.731   3.060 -0.5316  1.3538  2.1545
 3982SOL    HW223409   2.346   1.763   2.926 -0.8794 -0.4859  0.0905
 3983SOL     OW23410   2.488   0.796  14.987 -0.0275 -0.2758  0.0846
 3983SOL    HW123411   2.539   0.837  15.057 -1.5228  0.1642  0.9418
 3983SOL    HW223412   2.539   0.841  14.920 -0.5630 -0.7073 -0.6082
 3984SOL     OW23413   4.480   2.941  11.065  0.3715 -0.3930 -0.3004
 3984SOL    HW123414   4.392   2.909  11.042  0.5008 -0.5287 -0.6177
 3984SOL    HW223415   4.531   2.870  11.026  0.7818 -0.8704  1.1470
 3985SOL     OW23416   3.357   1.514   5.498  0.6915 -0.1112  0.0422
 3985SOL    HW123417   3.306   1.549   5.425 -2.3746 -1.6124  1.4620
 3985SOL    HW223418   3.440   1.491   5.455  0.8003  1.7650 -0.7221
 3986SOL     OW23419   1.233   0.622   2.831 -0.2053 -0.4001 -0.0767
 3986SOL    HW123420   1.283   0.649   2.909  2.1018 -2.7691 -0.7430
 3986SOL    HW223421   1.204   0.704   2.792  0.7296 -0.4636 -0.9099
 3987SOL     OW23422   0.649   2.576   3.262  0.2246 -0.1194 -0.0072
 3987SOL    HW123423   0.654   2.657   3.211  3.2689 -0.4749 -0.2750
 3987SOL    HW223424   0.683   2.520   3.193  0.9018  0.0462  0.1943
 3988SOL     OW23425   3.658   4.342   7.678  0.5106 -0.3034 -0.7016
 3988SOL    HW123426   3.606   4.419   7.655  1.0846  0.4659  0.5595
 3988SOL    HW223427   3.596   4.268   7.678  0.7324 -0.4809 -1.9497
 3989SOL     OW23428   2.765   2.581   2.236  0.2091 -0.1724  0.1700
 3989SOL    HW123429   2.759   2.485   2.233  1.2198 -0.2168 -0.2240
 3989SOL    HW223430   2.674   2.611   2.237  0.3451  0.1769  1.8063
 3990SOL     OW23431   3.173   0.335   8.139 -0.2457  0.4726 -0.1888
 3990SOL    HW123432   3.207   0.349   8.227 -0.5777  3.3051 -0.5348
 3990SOL    HW223433   3.158   0.427   8.119  1.7272  0.8958  0.3879
 3991SOL     OW23434   1.557   0.212   8.299  0.3152  0.1857  0.1811
 3991SOL    HW123435   1.620   0.171   8.240  0.9446  0.4564  0.6681
 3991SOL    HW223436   1.604   0.271   8.359  2.6348  1.0405 -2.4433
 3992SOL     OW23437   0.835   0.469   8.971 -0.3196 -0.3334  0.3331
 3992SOL    HW123438   0.756   0.461   9.025  0.9826 -2.6533  1.8845
 3992SOL    HW223439   0.871   0.543   9.020 -0.8566 -1.0699  1.8450
 3993SOL     OW23440   2.855   0.515   4.699 -0.2276 -0.4373  0.5957
 3993SOL    HW123441   2.820   0.463   4.771 -0.6289  0.8522  1.3402
 3993SOL    HW223442   2.801   0.594   4.698  1.7630  0.9374  0.4904
 3994SOL     OW23443   1.021   3.264  17.468  0.2723 -0.3316 -0.8207
 3994SOL    HW123444   0.957   3.278  17.538 -0.1269  0.5096 -1.3418
 3994SOL    HW223445   1.095   3.252  17.527 -0.7530  0.9969  0.7345
 3995SOL     OW23446   3.755   3.006   6.808 -0.3306 -0.9635 -0.2184
 3995SOL    HW123447   3.851   2.999   6.801 -0.2774  1.3982 -1.8700
 3995SOL    HW223448   3.740   2.964   6.724 -0.6632 -2.3579  0.5427
 3996SOL     OW23449   2.177   3.210   5.180  0.6644 -0.4412  0.1390
 3996SOL    HW123450   2.168   3.166   5.265 -1.7723 -0.7635 -0.2858
 3996SOL    HW223451   2.242   3.153   5.140  0.7051  1.6749 -2.7762
 3997SOL     OW23452   3.920   2.571   4.064  0.0647 -0.0841 -0.3565
 3997SOL    HW123453   3.893   2.587   3.973  1.3995 -0.0180 -0.7324
 3997SOL    HW223454   3.996   2.515   4.049  0.4174  0.4134 -0.4094
 3998SOL     OW23455   3.770   4.613   2.542 -0.1122  0.0483  0.2996
 3998SOL    HW123456   3.834   4.545   2.522 -1.5822 -1.0759 -0.6207
 3998SOL    HW223457   3.692   4.573   2.504 -0.5187  1.5433 -0.4595
 3999SOL     OW23458   2.563   0.203   3.639 -0.1707 -0.7563 -0.0193
 3999SOL    HW123459   2.632   0.242   3.585  0.0822 -0.7529  0.3079
 3999SOL    HW223460   2.613   0.207   3.721  2.5029 -3.2622 -1.5098
 4000SOL     OW23461   2.017   4.575  11.242 -0.8360  0.1567 -0.5034
 4000SOL    HW123462   1.969   4.647  11.282  0.0186 -0.3605  1.4740
 4000SOL    HW223463   2.054   4.632  11.175  0.7171  0.9707  1.0223
 4001SOL     OW23464   4.653   1.527   8.110  0.7841  0.4057  0.2972
 4001SOL    HW123465   4.616   1.565   8.189 -0.2277 -1.5099  0.7275
 4001SOL    HW223466   4.600   1.557   8.036  0.0650 -0.0956  0.6146
 4002SOL     OW23467   4.508   4.652   5.179 -0.1542  0.1151  0.1019
 4002SOL    HW123468   4.585   4.669   5.232 -0.1152 -2.0380  0.7521
 4002SOL    HW223469   4.552   4.599   5.112  0.9136  0.3561  0.6230
 4003SOL     OW23470   1.124   4.005   2.821  0.0205 -0.8063 -0.4662
 4003SOL    HW123471   1.051   3.953   2.855 -0.3584  0.1594  0.1948
 4003SOL    HW223472   1.135   4.053   2.904 -2.5548 -2.0791  0.6055
 4004SOL     OW23473   0.622   2.141  14.203  0.5697  0.1506  0.2444
 4004SOL    HW123474   0.536   2.110  14.232 -0.1881 -0.7575 -3.0336
 4004SOL    HW223475   0.666   2.142  14.288 -0.1957  1.7839  0.6166
 4005SOL     OW23476   0.128   3.446   7.869  0.4209  0.0181  0.6670
 4005SOL    HW123477   0.070   3.369   7.870  1.6104 -0.9068 -0.9693
 4005SOL    HW223478   0.190   3.432   7.941  2.4512  2.7430 -0.5565
 4006SOL     OW23479   2.746   4.571   4.306  0.3639 -0.2115 -0.0602
 4006SOL    HW123480   2.706   4.658   4.313 -3.2314 -1.8625  0.0916
 4006SOL    HW223481   2.771   4.577   4.213  0.6491  0.8133  0.0821
 4007SOL     OW23482   1.839   1.413   4.904  0.0790 -0.3413  0.5036
 4007SOL    HW123483   1.863   1.502   4.882  1.0825 -0.6419  0.4074
 4007SOL    HW223484   1.922   1.369   4.884 -0.2107  0.4768 -2.4845
 4008SOL     OW23485   2.656   1.878  17.196 -0.0393 -0.3436 -0.5511
 4008SOL    HW123486   2.651   1.782  17.197  2.2518 -0.4447  0.4014
 4008SOL    HW223487   2.618   1.896  17.109 -0.8050 -1.4644 -0.4594
 4009SOL     OW23488   2.803   3.306  16.077 -0.3447 -0.0097  0.1996
 4009SOL    HW123489   2.782   3.222  16.117  1.0014  0.5953  2.2199
 4009SOL    HW223490   2.722   3.313  16.026  1.5241  0.3633 -2.7296
 4010SOL     OW23491   4.170   1.567   5.183  0.4934 -0.5077 -0.4383
 4010SOL    HW123492   4.185   1.598   5.272  0.6340 -0.7906 -0.3631
 4010SOL    HW223493   4.221   1.632   5.136  0.5449  1.4926  2.4045
 4011SOL     OW23494   0.443   3.369  14.856  0.0408 -0.1206 -0.0291
 4011SOL    HW123495   0.532   3.387  14.828 -0.2197  1.1159 -0.0704
 4011SOL    HW223496   0.382   3.405  14.791 -0.4105 -1.3427 -0.2809
 4012SOL     OW23497   2.863   3.407   6.556  0.3789  0.7272 -0.4591
 4012SOL    HW123498   2.844   3.394   6.463 -0.6363  2.7390 -0.5342
 4012SOL    HW223499   2.959   3.410   6.553  0.4383 -0.7358  0.0588
 4013SOL     OW23500   1.782   1.508   8.241 -0.2387 -0.9692 -0.1932
 4013SOL    HW123501   1.850   1.520   8.174  1.4657  1.3851  1.9610
 4013SOL    HW223502   1.822   1.550   8.317 -0.2908  1.8636 -1.7668
 4014SOL     OW23503   0.904   3.658  17.541  0.1844  0.1037  0.1592
 4014SOL    HW123504   0.809   3.661  17.550  0.2109  1.6101  0.0126
 4014SOL    HW223505   0.926   3.723  17.608 -0.2604  1.0520 -0.6186
 4015SOL     OW23506   1.637   0.413   6.983  0.3583 -0.0943  0.2578
 4015SOL    HW123507   1.602   0.471   6.915 -0.6969 -1.6316 -0.5012
 4015SOL    HW223508   1.605   0.325   6.963 -0.5782  0.5381 -1.0760
 4016SOL     OW23509   2.453   3.011   3.856  0.3410 -1.0442  0.1876
 4016SOL    HW123510   2.473   2.987   3.947  1.2725  2.6275  0.9480
 4016SOL    HW223511   2.362   2.980   3.854  0.7626 -1.8558 -4.3619
 4017SOL     OW23512   3.817   0.366   4.120 -0.0259  0.5488 -0.5033
 4017SOL    HW123513   3.751   0.340   4.055 -0.6992 -2.5832  1.4141
 4017SOL    HW223514   3.893   0.318   4.088  0.2665  0.7414 -0.0940
 4018SOL     OW23515   0.676   1.593   1.144  0.1222 -0.1252  0.1862
 4018SOL    HW123516   0.628   1.564   1.222 -2.0948 -0.3192 -1.2407
 4018SOL    HW223517   0.650   1.526   1.081 -2.0802  0.5603  0.3685
 4019SOL     OW23518   3.595   2.870   9.004  0.1653 -0.3741 -0.1256
 4019SOL    HW123519   3.648   2.797   9.035 -1.5551 -0.7944  1.8405
 4019SOL    HW223520   3.661   2.921   8.957 -1.4288  0.5829 -1.3295
 4020SOL     OW23521   2.799   4.342   7.151  0.0403  0.1763 -0.4179
 4020SOL    HW123522   2.789   4.407   7.220  3.2534 -0.7384  0.9122
 4020SOL    HW223523   2.890   4.315   7.164 -0.8444 -2.6018  0.1351
 4021SOL     OW23524   2.318   3.230   0.094 -0.2315  0.2123 -0.1895
 4021SOL    HW123525   2.270   3.168   0.149  0.9704 -1.4767 -1.0551
 4021SOL    HW223526   2.391   3.246   0.153 -0.9874 -0.7777  1.0102
 4022SOL     OW23527   2.891   0.840   2.576 -0.1728  0.6648 -0.8039
 4022SOL    HW123528   2.912   0.887   2.496 -1.9535 -1.1640 -2.3652
 4022SOL    HW223529   2.820   0.895   2.607  0.4552 -0.1671  2.0631
 4023SOL     OW23530   4.104   2.453   6.116 -0.0774  0.2155  0.4718
 4023SOL    HW123531   4.074   2.362   6.107 -0.9656  0.6589 -1.0916
 4023SOL    HW223532   4.027   2.494   6.154  0.3752  0.7837  0.7745
 4024SOL     OW23533   0.207   2.091   6.572  0.1893  0.2760  0.1196
 4024SOL    HW123534   0.147   2.127   6.637 -0.9877 -0.6649 -0.4421
 4024SOL    HW223535   0.212   1.997   6.589 -1.3111  0.2478  0.4213
 4025SOL     OW23536   3.175   3.341  10.883  0.1330  0.1339 -0.1116
 4025SOL    HW123537   3.251   3.284  10.874  0.3879  0.0159  2.9567
 4025SOL    HW223538   3.193   3.421  10.932 -3.0511  1.0382 -0.4151
 4026SOL     OW23539   0.905   3.055   3.755 -0.1705 -1.1564  0.3989
 4026SOL    HW123540   0.819   3.013   3.762 -0.6834  0.3584  3.4049
 4026SOL    HW223541   0.872   3.129   3.806  1.4972 -0.6622  0.7546
 4027SOL     OW23542   2.269   4.240   0.520  0.2852 -0.0153 -0.2551
 4027SOL    HW123543   2.334   4.308   0.500  0.2962  0.9512  3.0434
 4027SOL    HW223544   2.245   4.217   0.431  0.1417  2.7246 -0.9441
 4028SOL     OW23545   2.766   0.672   3.363 -0.1907  0.0850  0.0202
 4028SOL    HW123546   2.801   0.587   3.339 -1.0961 -0.8754  2.1460
 4028SOL    HW223547   2.840   0.703   3.415 -0.7910  2.0138 -0.2464
 4029SOL     OW23548   1.078   1.191   7.451  0.2666  0.7337 -0.6100
 4029SOL    HW123549   1.124   1.160   7.373  0.2878 -0.3158 -0.1841
 4029SOL    HW223550   1.008   1.126   7.450  1.1201 -0.2494  2.2991
 4030SOL     OW23551   4.060   0.580   8.627 -0.4158 -0.3022  0.6734
 4030SOL    HW123552   4.100   0.634   8.695 -0.6258 -1.5871  1.8074
 4030SOL    HW223553   3.994   0.635   8.583  1.2852 -0.6737 -2.3220
 4031SOL     OW23554   3.821   0.137   2.241  0.2186  0.4333  0.3122
 4031SOL    HW123555   3.781   0.170   2.161 -1.5180 -1.4047  0.4230
 4031SOL    HW223556   3.753   0.148   2.306 -0.0028  4.2576 -0.5494
 4032SOL     OW23557   1.906   1.434   5.310  0.0376  0.0565 -0.3571
 4032SOL    HW123558   1.922   1.495   5.238 -0.5503 -0.1758 -0.6831
 4032SOL    HW223559   1.827   1.385   5.286  0.2528  0.3946 -1.7734
 4033SOL     OW23560   3.550   1.870   8.227 -0.1603 -0.1759 -0.3113
 4033SOL    HW123561   3.487   1.822   8.281  0.4615  0.4011  0.9166
 4033SOL    HW223562   3.575   1.812   8.154  3.8640  1.5166 -0.2874
 4034SOL     OW23563   2.639   1.128   4.583  0.3050  0.6312 -0.5303
 4034SOL    HW123564   2.715   1.155   4.635  0.7213 -1.0695 -0.2430
 4034SOL    HW223565   2.689   1.081   4.516  0.5264  0.2571 -0.1116
 4035SOL     OW23566   1.384   1.245   3.537 -0.3816  0.4845  0.2871
 4035SOL    HW123567   1.332   1.321   3.507 -0.5280  0.5751  0.7667
 4035SOL    HW223568   1.470   1.276   3.509  0.2255 -2.2113 -0.8024
 4036SOL     OW23569   1.067   4.026   1.655 -0.4731  0.0518 -0.1337
 4036SOL    HW123570   1.024   4.048   1.572 -1.1973 -0.6337  0.0610
 4036SOL    HW223571   1.041   4.102   1.707  0.7762 -0.3464  1.0841
 4037SOL     OW23572   3.922   2.691   6.753  0.3282  0.0271 -0.4986
 4037SOL    HW123573   3.834   2.675   6.720  0.4441 -1.4677 -0.0778
 4037SOL    HW223574   3.972   2.639   6.690  1.6633  0.7250 -0.0237
 4038SOL     OW23575   2.806   4.001   3.798 -0.6475 -0.1140 -0.3282
 4038SOL    HW123576   2.715   4.016   3.820 -1.0765 -0.6553 -1.7056
 4038SOL    HW223577   2.826   4.083   3.750  1.3489  1.3825  3.0678
 4039SOL     OW23578   3.575   1.250   6.545 -0.1614  0.1658  0.1896
 4039SOL    HW123579   3.558   1.221   6.635 -0.0191  1.0667  0.5060
 4039SOL    HW223580   3.567   1.169   6.494  0.4899 -1.7349  3.0844
 4040SOL     OW23581   1.441   2.041  11.243 -0.1299 -0.0912 -0.1908
 4040SOL    HW123582   1.519   2.095  11.257 -0.4208 -0.1794  1.7883
 4040SOL    HW223583   1.428   2.043  11.148 -1.3494 -0.8807 -0.0406
 4041SOL     OW23584   4.037   0.890   9.850  0.1449 -0.2142 -0.0706
 4041SOL    HW123585   4.014   0.953   9.782  0.3168  0.2381  0.2910
 4041SOL    HW223586   3.967   0.896   9.915 -0.8434 -0.8141 -1.0822
 4042SOL     OW23587   0.796   3.940   5.317  0.7540  0.5902  0.3510
 4042SOL    HW123588   0.873   3.944   5.261 -0.5486  0.2463 -1.4560
 4042SOL    HW223589   0.825   3.886   5.391  0.7086 -0.8875 -0.7109
 4043SOL     OW23590   1.635   2.828   3.130 -0.2952  0.0104  0.4411
 4043SOL    HW123591   1.611   2.920   3.135  2.0484  0.6679 -0.3974
 4043SOL    HW223592   1.700   2.825   3.059 -1.0383  0.4192 -0.2582
 4044SOL     OW23593   1.451   3.903  13.078 -0.2712  0.9987  0.7824
 4044SOL    HW123594   1.369   3.858  13.100 -0.9183  2.9600  2.3814
 4044SOL    HW223595   1.530   3.850  13.083 -1.7700 -1.5470 -2.0977
 4045SOL     OW23596   0.204   4.696   7.671 -0.1665 -0.3652 -0.3759
 4045SOL    HW123597   0.181   4.647   7.749  0.1530  0.3559  0.1726
 4045SOL    HW223598   0.114   0.003   7.656  0.4721  1.7432  0.1566
 4046SOL     OW23599   3.850   0.166  12.381  0.3467  0.4098  0.3864
 4046SOL    HW123600   3.901   0.126  12.311  0.0189  1.8554 -0.6883
 4046SOL    HW223601   3.914   0.175  12.452 -0.4152  1.9987  0.8598
 4047SOL     OW23602   2.924   0.712   1.240 -0.2290  0.1234 -0.0879
 4047SOL    HW123603   2.923   0.804   1.266  1.2716  0.1495 -0.1709
 4047SOL    HW223604   2.876   0.682   1.317 -0.4558  0.4412 -0.1050
 4048SOL     OW23605   2.751   0.922   6.406  0.1177  0.1689  0.1301
 4048SOL    HW123606   2.836   0.949   6.440 -0.7376 -0.0127  2.4178
 4048SOL    HW223607   2.755   0.957   6.317 -1.6287  1.5745  0.6114
 4049SOL     OW23608   0.379   3.961   8.272 -0.1228  0.2890 -0.1046
 4049SOL    HW123609   0.351   3.998   8.356  3.2120  2.9382 -0.1099
 4049SOL    HW223610   0.321   4.006   8.211  0.6095  0.4227 -0.7152
 4050SOL     OW23611   0.720   0.593  11.316  0.1881  0.0612  0.1364
 4050SOL    HW123612   0.795   0.545  11.282 -1.4136 -1.8406 -0.6634
 4050SOL    HW223613   0.703   0.544  11.396 -1.4906 -0.5099 -0.5761
 4051SOL     OW23614   3.884   3.540   0.160 -0.0854 -0.4883  0.1557
 4051SOL    HW123615   3.888   3.475   0.091  1.5293  0.6374 -0.8092
 4051SOL    HW223616   3.902   3.483   0.235 -1.1059 -1.3497 -0.2628
 4052SOL     OW23617   2.943   4.710   1.938  0.0063 -0.2892 -0.4186
 4052SOL    HW123618   2.918   0.068   1.979  3.3973 -0.1586  1.4243
 4052SOL    HW223619   2.942   0.012   1.846  1.4215  1.5315  0.0975
 4053SOL     OW23620   1.350   1.212   8.597 -0.2968  0.7731 -0.3263
 4053SOL    HW123621   1.260   1.224   8.568 -0.0515  3.3704 -0.0377
 4053SOL    HW223622   1.350   1.274   8.670  2.0825 -0.4784  0.7156
 4054SOL     OW23623   0.159   2.037  16.048 -0.0784  0.1453 -0.2977
 4054SOL    HW123624   0.225   2.073  15.989 -0.5010  0.3998 -0.6151
 4054SOL    HW223625   0.171   1.942  16.047  2.0089  0.4030  0.6865
 4055SOL     OW23626   0.823   3.565   5.990  0.0609  0.7525 -0.0995
 4055SOL    HW123627   0.841   3.471   5.993 -0.4987  0.5090 -3.6611
 4055SOL    HW223628   0.906   3.609   5.974 -0.2801  0.7364 -1.9003
 4056SOL     OW23629   0.784   0.287   8.239  0.4882 -0.2050 -0.0936
 4056SOL    HW123630   0.794   0.295   8.334 -0.4467  0.6106 -0.0665
 4056SOL    HW223631   0.731   0.365   8.221 -1.0600 -1.0888  0.6592
 4057SOL     OW23632   1.960   1.170   3.033 -0.2670  0.1282 -0.3061
 4057SOL    HW123633   1.942   1.089   2.985 -0.6217  0.6127 -0.9813
 4057SOL    HW223634   2.052   1.152   3.053 -0.5428  0.9210  1.7146
 4058SOL     OW23635   0.610   4.609   4.924 -0.3379  0.1086 -0.3160
 4058SOL    HW123636   0.577   4.656   5.000 -0.0724 -0.3271  0.0650
 4058SOL    HW223637   0.531   4.588   4.873  0.1115 -2.1096 -0.1157
 4059SOL     OW23638   2.756   3.052  11.706  0.2538  0.6200 -0.0419
 4059SOL    HW123639   2.828   3.111  11.730  1.3623 -1.3526  1.4346
 4059SOL    HW223640   2.683   3.103  11.742 -1.9698 -0.4355 -3.0833
 4060SOL     OW23641   3.947   2.039   6.235  0.1696 -0.0528  0.3076
 4060SOL    HW123642   4.020   2.005   6.183  1.6370  1.8994  1.0862
 4060SOL    HW223643   3.959   1.994   6.318 -0.4543 -2.1946 -0.7757
 4061SOL     OW23644   3.171   2.386   3.567 -0.0825  0.5202  0.6165
 4061SOL    HW123645   3.144   2.423   3.651 -0.6866  0.5374  0.4169
 4061SOL    HW223646   3.098   2.415   3.512 -0.4934 -2.0862 -0.2277
 4062SOL     OW23647   1.476   3.928   9.464 -0.3453 -0.3647  0.0581
 4062SOL    HW123648   1.427   3.953   9.542 -0.2276 -1.8329  0.6019
 4062SOL    HW223649   1.553   3.889   9.505 -0.2602  0.6120  0.8236
 4063SOL     OW23650   3.216   4.243   5.347  0.1342  0.2273  0.0652
 4063SOL    HW123651   3.142   4.191   5.316  1.5200 -1.4589 -0.4069
 4063SOL    HW223652   3.230   4.305   5.275  1.5053 -1.5601 -1.2201
 4064SOL     OW23653   4.601   4.599   5.692 -0.0032  0.4087 -0.5898
 4064SOL    HW123654   4.534   4.535   5.715  2.0093 -1.2977  0.4504
 4064SOL    HW223655   4.684   4.564   5.724 -0.3782  0.3584  0.3155
 4065SOL     OW23656   3.663   4.582   3.622 -0.1557 -0.0182 -0.0297
 4065SOL    HW123657   3.657   4.547   3.533 -1.0008  0.2750 -0.0893
 4065SOL    HW223658   3.705   4.509   3.667 -1.8438 -1.0200 -0.1005
 4066SOL     OW23659   2.861   1.045   7.260 -0.3530 -0.0048  0.1276
 4066SOL    HW123660   2.951   1.021   7.278  0.4642  2.7712 -0.2335
 4066SOL    HW223661   2.814   1.004   7.332 -1.3579 -1.1077 -1.1377
 4067SOL     OW23662   0.216   3.484   4.450 -0.1176  0.2664 -0.2770
 4067SOL    HW123663   0.212   3.560   4.508 -2.6619  1.7431 -2.3948
 4067SOL    HW223664   0.187   3.419   4.515  1.6842  2.0111  2.2687
 4068SOL     OW23665   3.414   3.772   3.612  0.1421 -0.4467 -0.0480
 4068SOL    HW123666   3.361   3.781   3.533  1.7242  2.0125 -0.8101
 4068SOL    HW223667   3.347   3.786   3.678 -1.5990  0.2436 -1.9828
 4069SOL     OW23668   3.481   3.668   2.465  0.0706  0.1440 -0.0936
 4069SOL    HW123669   3.498   3.693   2.374  0.0963  0.2078 -0.0707
 4069SOL    HW223670   3.525   3.736   2.515  0.5447 -1.0759  1.1337
 4070SOL     OW23671   4.202   2.588  15.510 -0.2749  0.6202  0.1473
 4070SOL    HW123672   4.297   2.589  15.497 -0.0418 -2.3514  1.6698
 4070SOL    HW223673   4.178   2.616  15.422  0.8482  0.5420 -0.1852
 4071SOL     OW23674   4.182   3.468   9.808  0.2122  0.2251 -0.2771
 4071SOL    HW123675   4.185   3.388   9.860  0.6311 -0.2930 -1.0928
 4071SOL    HW223676   4.185   3.540   9.870  1.3853  1.7311 -2.0943
 4072SOL     OW23677   1.803   4.050   3.988 -0.1425  0.1294  0.0822
 4072SOL    HW123678   1.870   3.983   3.982  1.4204  1.6921  0.2528
 4072SOL    HW223679   1.733   3.997   4.027  0.6460 -1.2712 -0.4323
 4073SOL     OW23680   2.119   1.380   0.130  0.4461  0.1841 -0.2527
 4073SOL    HW123681   2.160   1.320   0.192 -2.2909  1.7504  3.0589
 4073SOL    HW223682   2.086   1.443   0.194  0.1057 -0.3612  0.1119
 4074SOL     OW23683   4.204   4.002   6.500  0.0063  0.3961  0.0863
 4074SOL    HW123684   4.224   4.065   6.431  0.7069  0.9537  0.8096
 4074SOL    HW223685   4.160   3.942   6.439 -1.1264 -1.1653  2.4201
 4075SOL     OW23686   2.698   1.873   8.957 -0.2771  0.3331  0.3934
 4075SOL    HW123687   2.607   1.899   8.942 -0.7095 -2.2438 -1.3251
 4075SOL    HW223688   2.741   1.941   8.905  2.4156 -2.4270 -0.9586
 4076SOL     OW23689   3.360   1.616   5.001  0.1967  0.3422  0.5807
 4076SOL    HW123690   3.422   1.586   4.935 -3.0212 -0.6348 -1.9713
 4076SOL    HW223691   3.340   1.534   5.045 -0.7259  0.5379  0.5360
 4077SOL     OW23692   0.871   2.452   4.363 -0.3182 -0.1652  0.4220
 4077SOL    HW123693   0.826   2.370   4.378 -0.6893  0.3617  2.1876
 4077SOL    HW223694   0.831   2.504   4.432 -1.1550  0.6374 -0.6588
 4078SOL     OW23695   2.083   2.958   5.679 -0.0685 -0.1184 -0.3953
 4078SOL    HW123696   2.056   3.042   5.717  1.5547  1.4481 -2.7121
 4078SOL    HW223697   2.031   2.892   5.724  0.3222  0.1020  0.3637
 4079SOL     OW23698   2.931   2.176   4.365 -0.2776  0.2123  0.2653
 4079SOL    HW123699   3.026   2.178   4.375 -0.2112  1.0316 -0.5377
 4079SOL    HW223700   2.900   2.125   4.441  1.6561 -0.3828  0.6403
 4080SOL     OW23701   1.827   0.140   1.860  0.0632 -0.0486  0.8375
 4080SOL    HW123702   1.799   0.225   1.827  0.9072 -0.2405 -0.3502
 4080SOL    HW223703   1.791   0.143   1.949  0.1718 -2.3787  0.9618
 4081SOL     OW23704   4.481   3.991   6.821  0.2203  0.0845 -0.2377
 4081SOL    HW123705   4.551   4.004   6.757  0.5278 -1.9963 -0.3105
 4081SOL    HW223706   4.526   3.971   6.903  1.0113 -3.6431 -1.5757
 4082SOL     OW23707   4.457   1.078   5.198  0.0009  0.2068 -0.6402
 4082SOL    HW123708   4.478   1.012   5.131 -0.7130 -1.0505  0.3759
 4082SOL    HW223709   4.364   1.093   5.181 -0.1373 -1.0063 -0.9661
 4083SOL     OW23710   1.326   2.450   3.571  0.5161 -0.5126 -0.2013
 4083SOL    HW123711   1.371   2.407   3.499  2.0740 -0.6125  0.8125
 4083SOL    HW223712   1.250   2.397   3.595 -0.4605  1.2546  0.5957
 4084SOL     OW23713   2.051   2.731  16.598  0.2554 -0.1474  0.9605
 4084SOL    HW123714   2.011   2.690  16.674 -2.1689  0.3670 -0.0327
 4084SOL    HW223715   1.992   2.806  16.607 -0.3918 -0.0330 -3.8047
 4085SOL     OW23716   1.428   1.587   6.084  0.1626  0.4905  0.5851
 4085SOL    HW123717   1.516   1.557   6.103 -0.1812 -0.6569  0.3408
 4085SOL    HW223718   1.398   1.514   6.031  1.9524  0.6454 -0.6219
 4086SOL     OW23719   2.481   2.687   3.170 -0.0193  0.3809  0.8895
 4086SOL    HW123720   2.436   2.664   3.089 -0.6902 -0.4431  1.4975
 4086SOL    HW223721   2.563   2.641   3.151  0.6658  1.1502  1.9930
 4087SOL     OW23722   2.698   1.889   5.542  0.0657 -0.1181  0.3647
 4087SOL    HW123723   2.636   1.824   5.507 -0.2634 -0.6716  1.9621
 4087SOL    HW223724   2.745   1.836   5.606  1.5246  1.4701  0.6012
 4088SOL     OW23725   4.539   4.354   8.806 -0.0709 -1.3293 -0.5375
 4088SOL    HW123726   4.579   4.429   8.762 -2.3245 -0.3134 -0.8406
 4088SOL    HW223727   4.475   4.331   8.739 -1.3458  1.9305 -0.4679
 4089SOL     OW23728   3.260   1.362  17.376 -0.4529 -0.3875  0.2655
 4089SOL    HW123729   3.316   1.379  17.452 -0.9658 -1.1871  0.8167
 4089SOL    HW223730   3.178   1.359  17.425 -1.4446  0.7008 -1.3376
 4090SOL     OW23731   0.785   3.687  17.129  0.5163  0.0517  0.4269
 4090SOL    HW123732   0.801   3.606  17.177  2.9152  1.4106  1.8931
 4090SOL    HW223733   0.840   3.673  17.052  0.6469 -0.6380  0.6513
 4091SOL     OW23734   4.676   1.538   1.586 -0.1928 -0.4866  0.3329
 4091SOL    HW123735   4.613   1.548   1.657  1.3739  2.0466  1.3769
 4091SOL    HW223736   4.618   1.543   1.510  0.2146  1.2767  0.1475
 4092SOL     OW23737   4.603   3.598   7.357  0.1396 -0.2650  0.4169
 4092SOL    HW123738   4.681   3.641   7.324 -0.3058  0.2105 -0.0200
 4092SOL    HW223739   4.631   3.528   7.417  0.8962  0.8256  1.3399
 4093SOL     OW23740   3.478   2.533   0.910 -0.4441 -0.0244 -0.0289
 4093SOL    HW123741   3.497   2.472   0.839  1.0690  1.4152 -0.8628
 4093SOL    HW223742   3.394   2.569   0.879 -0.2742 -0.8056 -1.3924
 4094SOL     OW23743   1.860   1.508   5.567 -0.2486  0.0398 -0.3663
 4094SOL    HW123744   1.765   1.517   5.557 -0.1766 -1.9179 -2.7668
 4094SOL    HW223745   1.899   1.490   5.482  0.2626  1.2728 -0.3961
 4095SOL     OW23746   1.023   0.671  11.373  0.1449  0.1250 -0.0981
 4095SOL    HW123747   1.101   0.699  11.326 -0.7822  2.4414 -0.2570
 4095SOL    HW223748   0.976   0.619  11.307 -1.1251  1.6390 -0.4002
 4096SOL     OW23749   1.629   1.906   7.526 -0.7448  0.1915 -0.2421
 4096SOL    HW123750   1.655   1.972   7.591 -2.9981  2.1433 -1.3635
 4096SOL    HW223751   1.701   1.842   7.526 -1.8494 -1.0498  0.7149
 4097SOL     OW23752   1.402   0.330   4.761  0.2493  0.1342  0.0788
 4097SOL    HW123753   1.468   0.347   4.693 -1.0602 -1.6812 -1.6710
 4097SOL    HW223754   1.392   0.420   4.791  2.2829 -0.5330  2.7894
 4098SOL     OW23755   3.183   1.659  12.052  0.8980 -0.3235 -0.7450
 4098SOL    HW123756   3.249   1.726  12.038  0.1178  0.8775  1.3644
 4098SOL    HW223757   3.112   1.704  12.006 -1.8394 -0.5825  3.2732
 4099SOL     OW23758   0.510   0.500   7.728  0.3119 -0.0955  0.1134
 4099SOL    HW123759   0.582   0.534   7.676 -0.0994 -0.4524 -0.6885
 4099SOL    HW223760   0.507   0.563   7.799 -0.1414 -1.4429  1.2944
 4100SOL     OW23761   0.737   0.832   3.325  0.1855 -0.1774  0.8417
 4100SOL    HW123762   0.779   0.811   3.409 -2.0989 -0.5190  1.9146
 4100SOL    HW223763   0.786   0.912   3.307 -0.3677  0.0626  0.4018
 4101SOL     OW23764   1.769   2.253  16.453  0.6723 -0.8825  0.2108
 4101SOL    HW123765   1.723   2.171  16.470  3.7491 -2.7258 -0.3584
 4101SOL    HW223766   1.721   2.279  16.375 -0.4397 -3.2819  0.0955
 4102SOL     OW23767   3.097   2.375  12.459  0.0555  0.2735  0.6691
 4102SOL    HW123768   3.189   2.368  12.435 -0.0369  0.6810  0.1946
 4102SOL    HW223769   3.069   2.284  12.446 -2.0096  0.9999 -0.1033
 4103SOL     OW23770   3.950   1.752   4.414  0.2368  0.1619 -0.6314
 4103SOL    HW123771   3.958   1.660   4.438  1.8566  0.5904  0.5275
 4103SOL    HW223772   3.858   1.761   4.391  0.4862 -1.1390 -2.1063
 4104SOL     OW23773   0.438   0.439   4.358 -0.1345 -0.5099  0.0255
 4104SOL    HW123774   0.444   0.445   4.453  0.4570 -0.8117  0.0083
 4104SOL    HW223775   0.487   0.358   4.342 -2.9210 -2.3288  0.6623
 4105SOL     OW23776   0.963   1.583  16.616 -0.8177  0.1818 -0.0849
 4105SOL    HW123777   1.035   1.644  16.635 -0.7286  0.1954 -0.4646
 4105SOL    HW223778   0.966   1.580  16.520  0.7569  0.6019 -0.0532
 4106SOL     OW23779   3.403   2.177   0.733  0.0415  0.2336 -0.8183
 4106SOL    HW123780   3.453   2.116   0.787 -2.2472  0.7423  1.8513
 4106SOL    HW223781   3.467   2.248   0.728  0.0490  0.2433 -0.5404
 4107SOL     OW23782   3.777   0.521   2.196 -0.0457  0.2506 -0.2564
 4107SOL    HW123783   3.716   0.552   2.264 -0.5806  0.4801 -0.8346
 4107SOL    HW223784   3.709   0.471   2.150  0.5947  0.2596 -1.2083
 4108SOL     OW23785   0.422   4.105   4.163  0.3952 -0.1045 -0.1666
 4108SOL    HW123786   0.483   4.109   4.089  0.7417  0.4601  0.1462
 4108SOL    HW223787   0.360   4.177   4.152  0.1013 -0.3777 -0.2835
 4109SOL     OW23788   3.953   3.306   8.607  0.7050  0.4035  0.7182
 4109SOL    HW123789   4.002   3.388   8.599  0.2798  0.2671 -3.1576
 4109SOL    HW223790   4.004   3.244   8.556  0.6126  0.7931  0.1497
 4110SOL     OW23791   1.054   0.847   5.721  0.2392 -0.2457  0.6328
 4110SOL    HW123792   1.030   0.762   5.756  0.0716 -0.7338 -0.6659
 4110SOL    HW223793   1.036   0.902   5.798 -3.2337 -0.6395  0.0930
 4111SOL     OW23794   2.600   4.065   6.255  0.5599  0.0658  0.0357
 4111SOL    HW123795   2.522   4.072   6.308 -1.0209  1.2114 -2.4398
 4111SOL    HW223796   2.606   3.970   6.244  1.7490  0.2116 -0.7031
 4112SOL     OW23797   1.323   3.371   6.327 -0.2106  0.6532 -0.0605
 4112SOL    HW123798   1.378   3.449   6.333  0.0001  0.4018  1.2743
 4112SOL    HW223799   1.339   3.323   6.408  0.1720  1.0551  0.1015
 4113SOL     OW23800   1.381   1.155   6.945  0.1966  0.1839  0.4331
 4113SOL    HW123801   1.381   1.250   6.956 -1.5055  0.2809 -0.4283
 4113SOL    HW223802   1.406   1.133   7.035 -0.5369 -1.0595  0.3347
 4114SOL     OW23803   1.142   1.265   5.121 -0.0819  0.2231  0.5027
 4114SOL    HW123804   1.131   1.236   5.030 -1.4623  0.1229  0.6965
 4114SOL    HW223805   1.223   1.222   5.147 -0.1633 -1.0332 -1.3185
 4115SOL     OW23806   4.009   2.811   8.344 -0.3207 -0.3089 -0.4216
 4115SOL    HW123807   3.915   2.817   8.360  0.0279  0.5441  1.2914
 4115SOL    HW223808   4.021   2.725   8.303 -1.4527 -0.2490 -0.8864
 4116SOL     OW23809   1.586   4.068  10.421  0.1084 -0.3783  0.1843
 4116SOL    HW123810   1.661   4.018  10.389 -0.6228 -2.1400  1.2442
 4116SOL    HW223811   1.566   4.039  10.510  0.3151  1.4409  0.8224
 4117SOL     OW23812   0.668   0.455   6.704  0.4348  0.2561 -0.0864
 4117SOL    HW123813   0.679   0.447   6.798 -0.3656  3.7175  0.3106
 4117SOL    HW223814   0.586   0.410   6.683  1.6326 -2.1805  0.4529
 4118SOL     OW23815   2.964   0.340   9.834  0.0495  0.8335 -0.0937
 4118SOL    HW123816   2.928   0.384   9.911 -1.1197  1.5621 -1.0607
 4118SOL    HW223817   3.054   0.330   9.865  0.2396  1.2685 -0.5098
 4119SOL     OW23818   2.545   1.240   3.114 -0.3921  0.8353  0.1113
 4119SOL    HW123819   2.486   1.269   3.044  0.1475 -0.8855 -1.0660
 4119SOL    HW223820   2.594   1.321   3.124  0.4829  0.1351  1.4428
 4120SOL     OW23821   3.275   2.738  15.909 -0.4708 -0.1321  0.2266
 4120SOL    HW123822   3.227   2.815  15.879  1.3084  0.6761 -0.4676
 4120SOL    HW223823   3.331   2.721  15.834 -0.4801  1.1416 -0.0725
 4121SOL     OW23824   0.059   2.104   8.779 -0.2444  0.2085 -0.4700
 4121SOL    HW123825   0.055   2.019   8.821  4.1654  0.0737 -0.3310
 4121SOL    HW223826   0.117   2.150   8.840 -0.2553  1.2036 -1.2021
 4122SOL     OW23827   4.183   4.023  12.686 -0.0612  0.2683 -0.3515
 4122SOL    HW123828   4.103   4.020  12.633 -0.3898 -0.3406  0.1758
 4122SOL    HW223829   4.161   3.963  12.757 -1.1313  0.5930 -0.4139
 4123SOL     OW23830   0.738   0.652   2.497  0.0251  0.0890  0.0267
 4123SOL    HW123831   0.805   0.689   2.554  1.0673 -0.2142 -0.9934
 4123SOL    HW223832   0.670   0.635   2.562 -0.0279 -0.7126 -0.2376
 4124SOL     OW23833   1.501   3.579   3.557  0.1603  0.0962 -0.5762
 4124SOL    HW123834   1.473   3.598   3.468  0.4099 -1.4876 -0.9886
 4124SOL    HW223835   1.432   3.515   3.573 -0.1412  0.8823  1.2778
 4125SOL     OW23836   3.772   3.132   3.755 -0.0896 -0.9528  0.7204
 4125SOL    HW123837   3.741   3.074   3.824 -0.2028 -2.5235 -0.6456
 4125SOL    HW223838   3.708   3.113   3.686  2.2667  1.3745 -2.0907
 4126SOL     OW23839   2.534   2.409   6.423  0.3606 -0.2292 -0.0258
 4126SOL    HW123840   2.596   2.412   6.350 -0.5024 -1.6598 -0.8297
 4126SOL    HW223841   2.596   2.377   6.489 -1.8062  0.4840  2.3672
 4127SOL     OW23842   2.364   3.968   7.662  0.1288  0.0997  0.5228
 4127SOL    HW123843   2.429   3.898   7.660  0.2023  0.2022 -0.4119
 4127SOL    HW223844   2.305   3.947   7.590  0.0149 -1.0106  0.9448
 4128SOL     OW23845   1.516   1.494   7.563 -0.2660  0.5590  0.1415
 4128SOL    HW123846   1.519   1.522   7.654 -4.2733 -0.6990  0.6543
 4128SOL    HW223847   1.426   1.519   7.545 -0.8815 -0.6246  1.5740
 4129SOL     OW23848   0.006   0.022   8.807  0.7154  0.0819 -1.3100
 4129SOL    HW123849   4.675   4.669   8.806 -1.6426  1.7615 -1.8475
 4129SOL    HW223850   4.683   0.079   8.746 -0.5077 -0.2667 -0.6901
 4130SOL     OW23851   2.548   1.795   5.330  0.4656  0.0424  0.1442
 4130SOL    HW123852   2.546   1.842   5.247 -0.0122  0.4308  0.3752
 4130SOL    HW223853   2.459   1.763   5.318  0.0424  1.3658 -0.2201
 4131SOL     OW23854   0.188   1.938   1.474  0.5281  0.4123 -0.3868
 4131SOL    HW123855   0.212   2.000   1.406 -1.3023  0.0821 -1.3392
 4131SOL    HW223856   0.198   1.995   1.550  1.6584 -0.5218  0.1581
 4132SOL     OW23857   1.244   2.954   1.457  0.2984 -0.1197 -0.1074
 4132SOL    HW123858   1.176   2.937   1.523 -0.4767 -0.5896 -1.0257
 4132SOL    HW223859   1.290   3.014   1.515 -0.4501 -2.0628  2.5275
 4133SOL     OW23860   2.299   1.446  16.439 -0.0578  0.1743  0.2391
 4133SOL    HW123861   2.205   1.464  16.443 -0.3148 -0.9360 -0.8696
 4133SOL    HW223862   2.338   1.499  16.509  0.2009 -0.2298  0.3997
 4134SOL     OW23863   3.891   4.707   9.184  0.1243  0.1768 -0.5619
 4134SOL    HW123864   3.897   4.663   9.269 -0.0355  0.6928 -0.2814
 4134SOL    HW223865   3.947   4.661   9.122  0.0842 -1.8720  0.9140
 4135SOL     OW23866   4.559   2.718  14.286 -0.4260 -0.2909 -0.2124
 4135SOL    HW123867   4.605   2.671  14.355 -0.0595 -1.2783 -1.1364
 4135SOL    HW223868   4.607   2.801  14.286 -1.6352  0.4005 -0.7686
 4136SOL     OW23869   1.825   0.192   3.205  0.1522  0.1319  0.1980
 4136SOL    HW123870   1.731   0.202   3.216  0.3868  1.4676  0.9452
 4136SOL    HW223871   1.856   0.148   3.284  0.2626 -1.5390 -0.7637
 4137SOL     OW23872   3.092   4.282   8.552  0.0301  0.0939 -0.0601
 4137SOL    HW123873   3.085   4.292   8.457  1.1943 -1.8445 -0.3358
 4137SOL    HW223874   3.157   4.350   8.573 -1.0815  1.1117  0.1122
 4138SOL     OW23875   3.317   2.414  16.285  0.0629  0.0502 -0.5547
 4138SOL    HW123876   3.374   2.345  16.251  1.9849  1.0885  0.5315
 4138SOL    HW223877   3.387   2.477  16.303 -1.3106  2.0261 -2.1223
 4139SOL     OW23878   4.717   1.320   4.361 -0.1068 -0.3311  0.0696
 4139SOL    HW123879   4.635   1.302   4.315 -0.1537 -0.7670  0.3206
 4139SOL    HW223880   4.703   1.260   4.435 -1.4129  2.0325  1.7334
 4140SOL     OW23881   1.525   4.644  13.863 -0.3347  0.2969  0.4448
 4140SOL    HW123882   1.517   4.706  13.936  0.7708  1.0138 -0.0494
 4140SOL    HW223883   1.577   4.574  13.901  0.9721  0.6823 -0.6445
 4141SOL     OW23884   3.992   1.375   5.192  0.0551  0.2364 -0.1687
 4141SOL    HW123885   4.049   1.450   5.174 -1.2446  0.8158 -1.9354
 4141SOL    HW223886   3.941   1.374   5.111 -1.6107  0.3494  0.8852
 4142SOL     OW23887   4.026   0.243  15.173  0.0541  0.0384 -0.0445
 4142SOL    HW123888   4.060   0.284  15.252  0.9972 -1.8148  0.5141
 4142SOL    HW223889   4.070   0.294  15.105 -1.0339  1.0193 -0.0122
 4143SOL     OW23890   0.810   1.178   6.970  0.1712 -0.0342  0.2496
 4143SOL    HW123891   0.838   1.095   6.930  0.3774 -0.1768  0.6837
 4143SOL    HW223892   0.716   1.167   6.958 -0.1364  2.4332  0.5560
 4144SOL     OW23893   0.831   1.854   7.796  0.2288  0.8916  0.0318
 4144SOL    HW123894   0.925   1.837   7.792 -0.2351 -1.4339 -1.1914
 4144SOL    HW223895   0.824   1.868   7.890 -1.2578 -0.3277  0.1129
 4145SOL     OW23896   3.165   1.927   1.541 -0.2165 -0.3471  0.0675
 4145SOL    HW123897   3.093   1.866   1.530 -1.3592  0.8911  0.6861
 4145SOL    HW223898   3.210   1.885   1.614  1.3006 -0.5412 -0.9588
 4146SOL     OW23899   2.035   4.330   8.592 -0.4276 -0.4353  0.2488
 4146SOL    HW123900   1.970   4.355   8.526 -0.0201  2.5126  0.9766
 4146SOL    HW223901   2.013   4.396   8.658 -1.2428 -0.0119 -0.4473
 4147SOL     OW23902   2.548   1.574   4.199 -0.1775 -0.3643  0.0800
 4147SOL    HW123903   2.576   1.509   4.263 -2.4338 -0.1914  1.2612
 4147SOL    HW223904   2.461   1.579   4.239  0.0559  1.0624  0.3992
 4148SOL     OW23905   0.835   2.374   3.545  0.0217  0.2652 -0.0080
 4148SOL    HW123906   0.919   2.328   3.547 -0.7259 -1.0399  1.4233
 4148SOL    HW223907   0.869   2.459   3.517 -0.7654 -0.0464 -1.9127
 4149SOL     OW23908   2.293   0.030   6.995 -0.1610  0.3384  0.0159
 4149SOL    HW123909   2.385   0.016   7.017 -0.4406 -3.0487 -0.9746
 4149SOL    HW223910   2.266   0.120   7.010  0.8520  1.1674 -3.2582
 4150SOL     OW23911   1.038   1.930   3.561 -0.2214  0.3035 -0.4087
 4150SOL    HW123912   1.010   1.987   3.489  1.0845  0.0969 -1.0872
 4150SOL    HW223913   1.104   1.878   3.514  0.3201 -0.4049  1.1444
 4151SOL     OW23914   2.761   3.941  16.884 -0.9877  0.0082  0.2620
 4151SOL    HW123915   2.820   3.922  16.957 -0.6940 -0.9259 -0.2167
 4151SOL    HW223916   2.682   3.910  16.929 -2.3890 -0.5226 -2.5269
 4152SOL     OW23917   1.415   0.781   3.991  0.3012  0.1020 -0.5949
 4152SOL    HW123918   1.489   0.740   3.945  0.5087 -0.5549  0.3418
 4152SOL    HW223919   1.412   0.870   3.954  0.6084  0.7297  0.8920
 4153SOL     OW23920   0.487   0.898  17.494  0.1602  0.2790 -0.1992
 4153SOL    HW123921   0.497   0.819  17.440 -1.1947  0.2887 -0.4800
 4153SOL    HW223922   0.408   0.938  17.457  0.6897  0.3468 -1.2648
 4154SOL     OW23923   1.293   3.926   2.645  0.1662  0.1872  0.6406
 4154SOL    HW123924   1.374   3.976   2.643  0.0713  0.3070 -0.9495
 4154SOL    HW223925   1.245   3.954   2.723  0.8176 -0.1131  1.1469
 4155SOL     OW23926   3.987   4.662   4.264 -0.0279  0.3511  0.6554
 4155SOL    HW123927   4.023   4.584   4.306 -0.0331 -0.2981 -0.5709
 4155SOL    HW223928   4.044   4.668   4.187 -1.1618 -0.9233 -0.2632
 4156SOL     OW23929   3.571   4.001   3.179  0.3160  0.9908 -0.2857
 4156SOL    HW123930   3.604   3.928   3.232 -0.1513 -0.0819 -1.4682
 4156SOL    HW223931   3.595   4.073   3.237  1.1733 -0.7324  1.4942
 4157SOL     OW23932   2.075   2.271   3.428  0.4125  0.4107 -0.0732
 4157SOL    HW123933   2.018   2.253   3.353 -1.8000  0.7944  1.5008
 4157SOL    HW223934   2.153   2.299   3.380  1.0905  1.5057  1.6567
 4158SOL     OW23935   3.947   2.516  14.913  0.4025 -0.1906 -0.9700
 4158SOL    HW123936   3.856   2.502  14.939  0.9776  0.5234  1.4693
 4158SOL    HW223937   3.976   2.434  14.874  0.9491 -0.7953  0.7033
 4159SOL     OW23938   1.710   0.652  14.610  0.1537 -0.3164  0.0835
 4159SOL    HW123939   1.753   0.713  14.670  0.2835  0.4759 -0.8190
 4159SOL    HW223940   1.741   0.690  14.528  0.4821  0.0846  0.3938
 4160SOL     OW23941   1.046   3.411   8.451 -0.2057  0.1920  0.1177
 4160SOL    HW123942   1.001   3.333   8.483  1.2389 -0.3621  0.8121
 4160SOL    HW223943   1.040   3.468   8.528 -0.7187  0.4512 -0.1148
 4161SOL     OW23944   1.419   1.506   1.390 -0.0070  0.6872 -0.0500
 4161SOL    HW123945   1.474   1.456   1.450  1.2290 -0.0479 -1.7975
 4161SOL    HW223946   1.364   1.558   1.448 -1.6157  0.6125 -1.5112
 4162SOL     OW23947   3.540   2.862   7.656  0.1587 -0.4230  0.1614
 4162SOL    HW123948   3.454   2.845   7.617  0.1479  1.9823 -0.8668
 4162SOL    HW223949   3.592   2.837   7.579  0.1123 -0.0555  0.0089
 4163SOL     OW23950   4.709   2.139  17.372  0.0121 -0.8851  0.5076
 4163SOL    HW123951   4.711   2.116  17.465 -1.3965  0.1108  0.7915
 4163SOL    HW223952   0.030   2.069  17.326 -0.9983 -1.2151  0.0215
 4164SOL     OW23953   3.656   0.673   2.412 -0.0307 -0.6467  0.1758
 4164SOL    HW123954   3.719   0.629   2.470  3.1468  1.4440 -1.7017
 4164SOL    HW223955   3.669   0.762   2.446  0.2858 -0.7890  0.4286
 4165SOL     OW23956   2.498   0.411  11.314  0.0351  0.3218 -0.0230
 4165SOL    HW123957   2.488   0.317  11.305 -0.4061  0.2794  0.9251
 4165SOL    HW223958   2.561   0.415  11.387 -1.1359 -1.6917  1.1005
 4166SOL     OW23959   0.304   4.389   7.992  0.3086 -0.1042  0.4706
 4166SOL    HW123960   0.357   4.310   8.003 -0.0666 -0.6230 -1.4403
 4166SOL    HW223961   0.292   4.414   8.084 -0.4696  2.7200 -0.3966
 4167SOL     OW23962   3.849   1.546   9.224  0.1605  0.2674 -0.3995
 4167SOL    HW123963   3.767   1.565   9.270  1.0780  1.1684  0.8448
 4167SOL    HW223964   3.883   1.633   9.243 -1.7195  1.1027 -0.8178
 4168SOL     OW23965   1.607   2.350  15.490 -0.2248 -0.3025 -0.2993
 4168SOL    HW123966   1.650   2.275  15.450 -0.1138 -1.1656  1.4354
 4168SOL    HW223967   1.689   2.398  15.499 -1.7790  2.9075 -3.2636
 4169SOL     OW23968   3.671   0.078   7.598  0.2464  0.2356  0.2131
 4169SOL    HW123969   3.741   0.085   7.663  0.0230 -1.6079  0.6498
 4169SOL    HW223970   3.642   4.711   7.604 -0.5009  0.5104  0.7204
 4170SOL     OW23971   1.769   2.227  10.434 -0.1708  0.2201 -0.6230
 4170SOL    HW123972   1.826   2.225  10.357 -0.0242 -0.8799 -0.4867
 4170SOL    HW223973   1.786   2.315  10.467 -0.7956 -0.2373  0.9085
 4171SOL     OW23974   4.225   2.712   8.535 -0.3614  0.1015 -1.1399
 4171SOL    HW123975   4.145   2.762   8.518  0.2896  2.6972  3.4992
 4171SOL    HW223976   4.243   2.736   8.626 -1.6337 -1.1791 -0.5562
 4172SOL     OW23977   3.713   2.591   6.591 -0.5358 -0.4461  0.3221
 4172SOL    HW123978   3.749   2.503   6.576 -0.2248 -0.0679 -1.1429
 4172SOL    HW223979   3.632   2.585   6.541 -1.4668 -0.5432  1.8612
 4173SOL     OW23980   2.786   3.394   7.397 -0.1954 -0.8061 -0.0596
 4173SOL    HW123981   2.762   3.315   7.350 -2.5268 -0.3716  0.4091
 4173SOL    HW223982   2.783   3.364   7.488  3.3799 -1.2758 -0.1082
 4174SOL     OW23983   0.601   2.400   9.052  0.4487  0.5930  0.2771
 4174SOL    HW123984   0.582   2.461   8.980  3.3386 -0.1845 -1.1448
 4174SOL    HW223985   0.560   2.437   9.130  1.5621  0.5930  0.8554
 4175SOL     OW23986   3.777   1.501   8.623 -0.2441 -0.1219 -0.0420
 4175SOL    HW123987   3.792   1.411   8.594 -0.7653  0.6092 -2.6765
 4175SOL    HW223988   3.861   1.539   8.648  0.4710 -0.3614 -2.0383
 4176SOL     OW23989   0.857   3.881   7.168 -0.1447  0.1015  0.2354
 4176SOL    HW123990   0.843   3.866   7.074  0.9345 -0.5147  0.1720
 4176SOL    HW223991   0.807   3.960   7.190 -3.8480 -3.0767  3.1892
 4177SOL     OW23992   4.210   0.979   4.961  0.2131 -0.0943 -0.0282
 4177SOL    HW123993   4.195   0.926   4.883 -0.5412  0.7508 -0.4691
 4177SOL    HW223994   4.299   0.953   4.981  0.3970  0.7964  0.3056
 4178SOL     OW23995   1.801   4.178   4.974 -0.4871  0.5851  0.6221
 4178SOL    HW123996   1.750   4.107   5.015 -0.4067 -1.4570 -2.7848
 4178SOL    HW223997   1.877   4.131   4.941 -1.8370 -2.2720  1.5332
 4179SOL     OW23998   4.349   2.388   8.616  0.3988  0.4421 -0.1027
 4179SOL    HW123999   4.275   2.356   8.667  0.7466  0.9422  0.7129
 4179SOL    HW224000   4.419   2.346   8.666 -1.5408 -1.3778  1.0788
 4180SOL     OW24001   0.889   3.322   8.063  0.4993  0.0809 -0.0691
 4180SOL    HW124002   0.925   3.244   8.105 -0.4977 -0.8377 -0.9273
 4180SOL    HW224003   0.862   3.370   8.141  1.4857  0.3560  0.1097
 4181SOL     OW24004   2.925   3.412   5.663  0.0059 -0.2441 -0.1835
 4181SOL    HW124005   2.860   3.411   5.592 -1.5555 -2.3683  1.2768
 4181SOL    HW224006   3.003   3.403   5.609 -0.6692  1.3557 -1.4438
 4182SOL     OW24007   0.020   0.594   9.224 -0.2231  0.0998 -0.1151
 4182SOL    HW124008   0.098   0.650   9.214 -1.1210  0.8704 -2.6183
 4182SOL    HW224009   4.714   0.585   9.134  1.9393 -0.5662 -0.7929
 4183SOL     OW24010   0.187   0.903   6.212 -0.7379  0.2472  0.0334
 4183SOL    HW124011   0.111   0.847   6.220  1.0329 -1.9255  1.6917
 4183SOL    HW224012   0.237   0.857   6.145 -0.8102 -1.9762  1.4916
 4184SOL     OW24013   4.410   3.141   4.706  0.0984  0.2248 -0.7432
 4184SOL    HW124014   4.483   3.194   4.738  0.8355 -2.0074  1.2365
 4184SOL    HW224015   4.401   3.078   4.777 -1.5806  0.5175 -0.6935
 4185SOL     OW24016   2.556   1.078  14.321  0.4730  0.0379  0.5640
 4185SOL    HW124017   2.494   1.074  14.249  1.0813  0.0279  0.0379
 4185SOL    HW224018   2.622   1.141  14.291 -1.3312  1.1013 -1.1347
 4186SOL     OW24019   1.406   0.218  10.573 -0.3037 -0.4923  0.5400
 4186SOL    HW124020   1.439   0.143  10.622 -1.0719  0.1299  2.0143
 4186SOL    HW224021   1.486   0.237  10.526 -1.3676  0.2086 -0.9751
 4187SOL     OW24022   4.243   2.759  17.098 -0.3452  0.7184  0.1592
 4187SOL    HW124023   4.329   2.800  17.096  0.2989 -0.5655  1.1532
 4187SOL    HW224024   4.212   2.792  17.014 -2.4267  0.2180  0.7370
 4188SOL     OW24025   4.613   1.421   9.100 -0.1966 -0.1066  0.3764
 4188SOL    HW124026   4.700   1.400   9.068 -0.0403  0.0415  0.7003
 4188SOL    HW224027   4.630   1.513   9.121 -0.3439  0.0590 -0.2225
 4189SOL     OW24028   2.878   2.267   9.779 -0.1703  0.3688 -0.0598
 4189SOL    HW124029   2.820   2.290   9.852 -0.4347 -0.9759  0.1606
 4189SOL    HW224030   2.900   2.178   9.806 -1.5605 -0.6159 -2.1882
 4190SOL     OW24031   2.899   0.066   6.951  0.4464  0.0544 -0.2200
 4190SOL    HW124032   2.926   4.703   6.923  1.1292  0.5783 -1.2117
 4190SOL    HW224033   2.985   0.107   6.949  1.3014 -1.6892  0.2129
 4191SOL     OW24034   1.894   0.975   6.914 -0.9388 -0.6279  0.3097
 4191SOL    HW124035   1.847   1.046   6.871 -0.7312 -0.9449 -0.4420
 4191SOL    HW224036   1.949   1.018   6.979 -2.5377  1.5529  0.2110
 4192SOL     OW24037   1.949   0.887   5.477  0.1226 -0.2416 -0.3032
 4192SOL    HW124038   2.040   0.884   5.508  0.6112  1.0216 -1.5875
 4192SOL    HW224039   1.951   0.919   5.387 -1.3309 -0.1352 -0.2871
 4193SOL     OW24040   0.249   3.024   8.003 -0.2095 -0.0903  0.0372
 4193SOL    HW124041   0.314   3.008   7.934 -0.7050 -0.1461 -0.4147
 4193SOL    HW224042   0.229   2.932   8.017  0.4439  0.1850  2.7465
 4194SOL     OW24043   2.190   4.160  11.918  0.3241 -0.0523 -0.6508
 4194SOL    HW124044   2.162   4.220  11.849  0.2081  1.7791  0.9755
 4194SOL    HW224045   2.279   4.192  11.934  0.5466 -0.6998 -0.5777
 4195SOL     OW24046   0.612   3.113   4.398  0.4314 -0.0399  0.1716
 4195SOL    HW124047   0.649   3.031   4.432 -0.1804 -0.8762 -1.1549
 4195SOL    HW224048   0.591   3.068   4.316  0.6564 -0.2316  0.2185
 4196SOL     OW24049   4.546   4.085  10.635  0.0867 -0.2596 -0.4032
 4196SOL    HW124050   4.462   4.129  10.621  0.0429 -0.1178  0.3025
 4196SOL    HW224051   4.537   3.996  10.601 -1.3681  0.7061 -2.5315
 4197SOL     OW24052   3.861   3.280   9.702 -0.0839  0.1491  0.1845
 4197SOL    HW124053   3.787   3.254   9.757 -0.2337  1.4035  0.5838
 4197SOL    HW224054   3.912   3.200   9.691 -0.0524 -0.0817  1.9621
 4198SOL     OW24055   2.051   0.547   8.410  0.0787 -0.2630  0.1806
 4198SOL    HW124056   2.011   0.584   8.489 -0.1488  1.2443 -0.6388
 4198SOL    HW224057   2.142   0.571   8.427  0.5173 -1.3849 -0.6113
 4199SOL     OW24058   1.016   3.094  16.648 -0.2253 -0.1213  0.1051
 4199SOL    HW124059   1.040   3.184  16.670  0.3966  0.2480 -2.0730
 4199SOL    HW224060   0.926   3.126  16.647 -1.3584 -3.2779  1.0437
 4200SOL     OW24061   0.950   2.720   5.820 -0.1376  0.3291  0.1169
 4200SOL    HW124062   0.905   2.682   5.895 -2.2107 -1.6841 -2.1343
 4200SOL    HW224063   1.033   2.674   5.830 -1.9700 -2.8716  0.5102
 4201SOL     OW24064   0.030   4.267  12.332  0.0642 -0.2297  0.3598
 4201SOL    HW124065   0.038   4.223  12.416 -1.6178  1.2436  1.3135
 4201SOL    HW224066   4.664   4.246  12.308  0.0440  1.1634 -0.8234
 4202SOL     OW24067   2.837   1.104   8.162  0.2650 -0.7124 -0.3020
 4202SOL    HW124068   2.809   1.162   8.232 -0.9414 -2.1993  0.4510
 4202SOL    HW224069   2.752   1.082   8.123 -0.3698  3.3761 -1.2039
 4203SOL     OW24070   1.508   4.178   8.730  0.5511 -0.6887  0.8168
 4203SOL    HW124071   1.569   4.146   8.663 -0.6885  1.2260 -1.2071
 4203SOL    HW224072   1.513   4.273   8.715  1.9977 -0.9402 -0.3302
 4204SOL     OW24073   3.844   1.785   7.363  0.6593 -0.0247 -0.2657
 4204SOL    HW124074   3.879   1.850   7.424  0.3924 -0.3105  0.1873
 4204SOL    HW224075   3.921   1.775   7.308 -0.4081 -1.7706 -1.4601
 4205SOL     OW24076   2.384   3.975   8.435  0.1385  0.5339 -0.3170
 4205SOL    HW124077   2.299   3.991   8.475 -0.0825  2.0604 -1.3845
 4205SOL    HW224078   2.432   3.935   8.507  0.6026  0.5764 -0.6008
 4206SOL     OW24079   1.551   4.503   6.656 -0.2593 -0.7408 -0.5860
 4206SOL    HW124080   1.547   4.505   6.751  3.3622  0.9718 -0.4725
 4206SOL    HW224081   1.618   4.435   6.650  1.8162  1.3257 -0.8125
 4207SOL     OW24082   1.640   3.596   7.668 -0.8561  0.5130 -0.2011
 4207SOL    HW124083   1.728   3.559   7.677 -0.7321  1.1374  1.0927
 4207SOL    HW224084   1.610   3.589   7.759 -0.1694 -1.1673 -0.0943
 4208SOL     OW24085   3.733   2.730  17.241 -0.3764  0.5261 -0.4180
 4208SOL    HW124086   3.663   2.762  17.299 -0.6800 -0.6359 -0.1531
 4208SOL    HW224087   3.745   2.639  17.268 -0.7045  0.0134 -1.9914
 4209SOL     OW24088   1.985   3.663  11.651  0.1048  0.1514  0.1364
 4209SOL    HW124089   1.978   3.706  11.736 -0.0751  1.8012 -0.7187
 4209SOL    HW224090   2.079   3.668  11.632  0.4106  1.1021  1.8699
 4210SOL     OW24091   2.622   4.295   4.974 -0.0446  0.1324 -0.3643
 4210SOL    HW124092   2.647   4.384   4.948 -1.1984  0.1157 -1.5424
 4210SOL    HW224093   2.602   4.305   5.067 -1.0315 -1.7786 -0.3659
 4211SOL     OW24094   1.650   1.655  14.252 -0.2045 -0.3551  0.5729
 4211SOL    HW124095   1.665   1.746  14.226 -2.1486 -0.3966 -0.7159
 4211SOL    HW224096   1.717   1.649  14.321  0.4700 -1.2657 -0.1454
 4212SOL     OW24097   4.474   0.993   4.415  0.4339  0.3627 -0.4623
 4212SOL    HW124098   4.516   0.907   4.409 -0.4668  0.1187 -2.8464
 4212SOL    HW224099   4.447   1.013   4.326  0.2395  0.2757 -0.4233
 4213SOL     OW24100   3.710   4.250   5.236 -0.2679 -0.5037 -0.3092
 4213SOL    HW124101   3.768   4.270   5.309 -0.4925 -2.1300  0.3212
 4213SOL    HW224102   3.764   4.205   5.170  1.3820 -0.7804  1.2306
 4214SOL     OW24103   0.585   0.442  10.977 -0.3169  0.1186  0.1720
 4214SOL    HW124104   0.672   0.457  11.014  0.1901  0.0188 -0.9879
 4214SOL    HW224105   0.540   0.516  11.017  0.0419  0.3805  0.0836
 4215SOL     OW24106   1.163   1.703   6.039  0.3670 -0.4248  0.1207
 4215SOL    HW124107   1.248   1.666   6.063  0.8839 -0.0745 -1.1676
 4215SOL    HW224108   1.098   1.669   6.101  0.7524 -0.6849  0.3786
 4216SOL     OW24109   2.140   4.399   6.344  0.2173  0.1166 -0.6174
 4216SOL    HW124110   2.120   4.387   6.437 -0.6155  0.2731 -0.7786
 4216SOL    HW224111   2.101   4.486   6.332 -0.1427 -0.3324 -2.6932
 4217SOL     OW24112   2.501   4.023   5.919  0.1753  0.8707 -0.5797
 4217SOL    HW124113   2.568   4.078   5.879 -0.7637  0.9888 -2.0200
 4217SOL    HW224114   2.450   4.090   5.965  0.6792 -0.3646  1.7903
 4218SOL     OW24115   2.041   1.323   4.152 -0.5121  0.3838 -0.4068
 4218SOL    HW124116   2.047   1.409   4.110  1.6571 -0.0994 -1.0720
 4218SOL    HW224117   2.086   1.333   4.235  0.0564  0.0955 -0.6807
 4219SOL     OW24118   1.705   2.543   1.526  0.1889  0.3336  0.0515
 4219SOL    HW124119   1.612   2.557   1.544  0.0718  2.4663 -2.1920
 4219SOL    HW224120   1.720   2.619   1.469  0.7227  0.9935  1.0887
 4220SOL     OW24121   1.084   3.680   6.264 -0.0530  0.2212  0.0338
 4220SOL    HW124122   1.046   3.595   6.242  3.2443 -1.0114 -0.9059
 4220SOL    HW224123   1.020   3.734   6.309  0.4023  0.1683  0.7456
 4221SOL     OW24124   0.239   0.077   4.265  0.3936  0.1359  0.2755
 4221SOL    HW124125   0.178   0.114   4.202 -2.2720 -0.4836  2.4845
 4221SOL    HW224126   0.280   0.150   4.311 -1.1419  1.3492 -0.3039
 4222SOL     OW24127   2.142   4.222   7.997 -0.0889  0.3835 -0.7073
 4222SOL    HW124128   2.083   4.147   7.987 -1.6788  1.3732  1.1505
 4222SOL    HW224129   2.140   4.268   7.913 -0.9157  0.8452 -0.4359
 4223SOL     OW24130   4.011   0.170   4.437  0.4207 -0.0140 -0.1751
 4223SOL    HW124131   4.006   0.109   4.363  0.4472  2.2824 -2.0796
 4223SOL    HW224132   4.077   0.234   4.410 -1.1068  1.7376  0.1550
 4224SOL     OW24133   1.200   3.999   9.277 -0.2964  0.5494 -0.4925
 4224SOL    HW124134   1.261   4.057   9.321  0.2506  0.3379 -0.9710
 4224SOL    HW224135   1.181   3.935   9.345  2.1596 -0.2618 -0.5652
 4225SOL     OW24136   0.446   2.807   4.079  0.3697 -0.1651 -0.0738
 4225SOL    HW124137   0.364   2.792   4.031  0.2296  0.4464 -0.0304
 4225SOL    HW224138   0.470   2.716   4.096  1.9644 -0.0840 -1.8439
 4226SOL     OW24139   4.057   3.034   3.735  0.4446  0.4345  0.5815
 4226SOL    HW124140   4.069   2.956   3.789 -0.8699  0.9366  1.5979
 4226SOL    HW224141   3.967   3.014   3.708  0.5933  1.2473 -0.4961
 4227SOL     OW24142   0.033   3.589   8.795 -0.4647  0.3333 -0.2980
 4227SOL    HW124143   0.118   3.610   8.833 -0.4856 -1.1526  0.5762
 4227SOL    HW224144   0.057   3.574   8.704  3.0432 -2.2652  1.0648
 4228SOL     OW24145   3.491   1.669  15.588 -0.1817  0.6307  0.3004
 4228SOL    HW124146   3.506   1.642  15.498  0.2080 -0.1902  0.6137
 4228SOL    HW224147   3.474   1.589  15.638  2.2969 -0.2827 -0.3177
 4229SOL     OW24148   3.171   3.748  15.156  0.4490 -0.4142  0.3678
 4229SOL    HW124149   3.077   3.745  15.138  0.2813  0.1134  1.1423
 4229SOL    HW224150   3.181   3.821  15.218 -2.3622  0.6223 -0.4084
 4230SOL     OW24151   1.443   3.453   5.638 -0.0140 -0.2624 -0.5640
 4230SOL    HW124152   1.415   3.363   5.619 -0.5665 -0.1766 -0.1568
 4230SOL    HW224153   1.515   3.458   5.575 -1.3910 -1.1438 -2.2076
 4231SOL     OW24154   4.237   3.096   5.499  0.0207  0.1020  0.3169
 4231SOL    HW124155   4.242   3.062   5.588  1.3978 -2.0586 -0.5806
 4231SOL    HW224156   4.327   3.081   5.471 -0.7800 -0.9426 -1.7315
 4232SOL     OW24157   1.070   4.178   0.791 -0.0328 -0.1791 -0.2726
 4232SOL    HW124158   1.026   4.168   0.875  2.2472  0.7255  1.0531
 4232SOL    HW224159   1.146   4.120   0.797 -0.8551 -1.2229  0.1208
 4233SOL     OW24160   4.481   3.592   3.256 -0.3724 -0.3914 -0.1032
 4233SOL    HW124161   4.446   3.527   3.196  0.7332  0.0363 -1.2053
 4233SOL    HW224162   4.521   3.651   3.191 -0.2215  1.1591  1.3820
 4234SOL     OW24163   4.210   0.656   4.461  0.1020  0.4190 -0.4663
 4234SOL    HW124164   4.299   0.632   4.488 -0.6630 -1.7740  0.0402
 4234SOL    HW224165   4.184   0.733   4.512 -0.5163  0.7382 -1.2828
 4235SOL     OW24166   2.875   4.165  10.253  0.1765 -0.4541  0.1068
 4235SOL    HW124167   2.790   4.141  10.215  0.1731 -2.2149  1.2425
 4235SOL    HW224168   2.843   4.188  10.340 -0.5325 -0.3995 -0.1641
 4236SOL     OW24169   2.626   4.590   5.997 -0.2266  0.5811  0.0297
 4236SOL    HW124170   2.696   4.655   6.009  0.3886 -0.3220  1.2772
 4236SOL    HW224171   2.553   4.652   6.006 -1.1461 -0.2226 -1.9131
 4237SOL     OW24172   2.005   0.132   3.470 -0.4739 -0.1404 -0.1969
 4237SOL    HW124173   2.072   0.087   3.521  0.0662 -0.6660 -1.3657
 4237SOL    HW224174   2.064   0.199   3.435 -0.5971  1.2227  2.1675
 4238SOL     OW24175   2.030   0.868   8.928 -0.3230  0.3852  0.0868
 4238SOL    HW124176   1.944   0.828   8.923 -1.0657  2.0183 -0.2288
 4238SOL    HW224177   2.065   0.808   8.993 -0.3753 -0.8902 -1.0753
 4239SOL     OW24178   0.409   1.811   8.558 -0.7022  0.6067  0.4372
 4239SOL    HW124179   0.321   1.819   8.522 -0.0939  0.9902 -0.9766
 4239SOL    HW224180   0.441   1.726   8.528  0.2748  1.2380 -0.3287
 4240SOL     OW24181   4.717   4.145   9.841 -0.5880  0.5191  0.4479
 4240SOL    HW124182   4.698   4.115   9.752 -0.4480 -1.7790  1.1795
 4240SOL    HW224183   0.065   4.088   9.867  0.6959  1.0699 -1.9678
 4241SOL     OW24184   2.904   1.590   5.919 -0.3194  0.1179 -0.1040
 4241SOL    HW124185   2.900   1.498   5.943 -2.0488  0.1452 -0.3004
 4241SOL    HW224186   2.988   1.612   5.959 -0.8148  0.5965  0.6661
 4242SOL     OW24187   0.569   1.740   8.931  0.1014 -0.3478 -0.2137
 4242SOL    HW124188   0.635   1.684   8.971  0.1379  0.3726  0.7360
 4242SOL    HW224189   0.502   1.725   8.997  0.5024  4.1099  1.2193
 4243SOL     OW24190   3.684   0.002  10.606  0.4387 -0.1347  0.1198
 4243SOL    HW124191   3.754   0.059  10.573  1.9164 -2.0046  0.0187
 4243SOL    HW224192   3.703   0.005  10.700 -1.3406 -0.6169  0.4883
 4244SOL     OW24193   1.976   3.778   6.632  0.9607 -0.0915 -0.5769
 4244SOL    HW124194   1.931   3.727   6.699 -0.6978  0.9791 -0.8795
 4244SOL    HW224195   1.903   3.821   6.588 -0.3475 -2.9703 -1.1695
 4245SOL     OW24196   1.897   2.630   5.990 -0.0245  0.5718  0.3331
 4245SOL    HW124197   1.970   2.578   5.956  0.8874  1.8498  0.3119
 4245SOL    HW224198   1.910   2.620   6.084 -1.0997  1.8992  0.6267
 4246SOL     OW24199   3.249   0.278   0.120 -0.2740  0.0170  0.2203
 4246SOL    HW124200   3.317   0.214   0.100 -0.4289  0.3906 -1.4891
 4246SOL    HW224201   3.301   0.357   0.108 -0.2675  0.2525  1.8286
 4247SOL     OW24202   2.836   3.275   9.926  0.5393 -0.1990 -0.3671
 4247SOL    HW124203   2.835   3.196   9.873 -0.7237  1.0983 -2.2539
 4247SOL    HW224204   2.906   3.327   9.888  0.2087 -0.0182 -0.7271
 4248SOL     OW24205   4.073   4.486  12.626  0.2338 -0.8400  0.1050
 4248SOL    HW124206   4.143   4.423  12.643 -0.7589 -2.0048 -0.0988
 4248SOL    HW224207   4.014   4.450  12.693  1.0789  0.8503  1.7766
 4249SOL     OW24208   2.287   2.683   2.997  0.0551  0.3102  0.2685
 4249SOL    HW124209   2.277   2.708   2.905 -1.5558  0.2122  0.4054
 4249SOL    HW224210   2.230   2.743   3.045 -0.4554 -1.7639  2.2686
 4250SOL     OW24211   2.635   4.432  16.209  0.4186 -0.0232  0.2332
 4250SOL    HW124212   2.556   4.454  16.160  1.2871  2.6944  0.0592
 4250SOL    HW224213   2.626   4.338  16.225  0.3485  0.1332  1.1142
 4251SOL     OW24214   3.690   4.105   8.510  0.2263  0.0876 -0.1077
 4251SOL    HW124215   3.663   4.055   8.588 -1.7778  1.8051  0.3016
 4251SOL    HW224216   3.750   4.037   8.479 -2.4660 -0.4916 -4.0152
 4252SOL     OW24217   4.359   4.028   3.858  0.4478  0.2996  0.6761
 4252SOL    HW124218   4.318   4.031   3.771 -0.3304 -1.0570  1.0044
 4252SOL    HW224219   4.367   3.934   3.875  1.8611  0.9863  3.8050
 4253SOL     OW24220   3.881   4.011   5.482 -0.6410  0.0554 -0.9573
 4253SOL    HW124221   3.903   4.062   5.404  0.1770  0.4566 -0.4590
 4253SOL    HW224222   3.804   4.060   5.511 -0.6996 -0.1480 -0.7654
 4254SOL     OW24223   1.033   3.502   1.923 -0.2719  0.3742  0.2962
 4254SOL    HW124224   0.953   3.473   1.879 -0.8980  2.8174 -0.2194
 4254SOL    HW224225   1.035   3.438   1.994  0.6946 -1.2442 -1.1921
 4255SOL     OW24226   4.536   3.108   6.409  0.2819  0.0685  0.5830
 4255SOL    HW124227   4.607   3.173   6.411  0.9906 -0.7556  1.7175
 4255SOL    HW224228   4.479   3.143   6.477  0.2778  2.4077 -0.6082
 4256SOL     OW24229   1.054   0.632   7.794 -0.2832 -0.0981 -0.3213
 4256SOL    HW124230   1.013   0.676   7.719 -1.6281  0.7988  0.9369
 4256SOL    HW224231   1.132   0.592   7.757  1.4661  0.6505  2.5575
 4257SOL     OW24232   1.674   1.590  12.623 -0.5443 -0.0627  0.2262
 4257SOL    HW124233   1.712   1.678  12.629  0.0509 -0.1688 -1.8294
 4257SOL    HW224234   1.694   1.557  12.710 -1.5959  0.2706  0.6043
 4258SOL     OW24235   2.835   2.464  15.624 -0.1063  0.4724  0.0253
 4258SOL    HW124236   2.886   2.464  15.705  0.3269  0.5884 -0.2498
 4258SOL    HW224237   2.789   2.381  15.638  0.1746  0.6163  1.9157
 4259SOL     OW24238   0.343   1.998   7.971 -0.1497 -0.1430  0.0614
 4259SOL    HW124239   0.348   2.087   8.007 -1.5946 -0.5795  1.3459
 4259SOL    HW224240   0.256   1.960   7.977  0.1336 -0.4649  2.4277
 4260SOL     OW24241   1.038   4.421  15.611  0.0192  0.3676 -0.2647
 4260SOL    HW124242   0.945   4.446  15.615 -0.0630  0.1874 -1.1102
 4260SOL    HW224243   1.024   4.336  15.653 -0.0960  0.2070 -0.6363
 4261SOL     OW24244   4.558   0.626   5.118 -0.6941 -0.4945  0.3076
 4261SOL    HW124245   4.650   0.624   5.142 -0.8873  2.0057  1.3319
 4261SOL    HW224246   4.555   0.533   5.098 -0.6366 -0.0321 -1.8580
 4262SOL     OW24247   1.468   2.481   8.628  0.2717  0.8006 -0.2577
 4262SOL    HW124248   1.426   2.414   8.681  0.8930  0.5880 -0.0429
 4262SOL    HW224249   1.506   2.540   8.693  0.1635  1.0299 -0.4006
 4263SOL     OW24250   0.652   4.437   2.287 -0.7133 -0.3430  0.5843
 4263SOL    HW124251   0.609   4.402   2.209 -1.4886  0.3410  0.7116
 4263SOL    HW224252   0.732   4.477   2.252 -1.2419  0.9233  0.8109
 4264SOL     OW24253   1.886   1.313  14.426 -0.4336  0.0971  0.4048
 4264SOL    HW124254   1.913   1.233  14.380  1.2470  1.4154 -0.9201
 4264SOL    HW224255   1.925   1.297  14.512  0.7664  1.9529  0.2009
 4265SOL     OW24256   4.068   1.145   3.762  0.3221 -0.2860 -1.2448
 4265SOL    HW124257   4.017   1.143   3.682 -1.3020 -0.4790 -0.2061
 4265SOL    HW224258   4.126   1.069   3.759  1.6586  0.7308 -1.2598
 4266SOL     OW24259   1.058   0.367  16.393 -0.4405 -0.4649  0.1624
 4266SOL    HW124260   1.061   0.309  16.469 -2.4629  0.3049  0.8131
 4266SOL    HW224261   1.003   0.439  16.423 -1.0644 -0.2585 -1.4946
 4267SOL     OW24262   4.322   2.742   4.256 -0.2373  0.0350 -0.0394
 4267SOL    HW124263   4.276   2.665   4.224 -1.3256 -0.3577  2.4200
 4267SOL    HW224264   4.412   2.715   4.237 -0.6589 -0.0595 -1.8617
 4268SOL     OW24265   1.348   2.665  12.006  0.3982  0.1044  0.0587
 4268SOL    HW124266   1.424   2.682  12.062  1.3835 -2.7050 -0.4616
 4268SOL    HW224267   1.350   2.570  12.019 -2.1923 -0.0896 -0.9492
 4269SOL     OW24268   0.361   0.139   3.587  0.4571  0.1474 -0.4439
 4269SOL    HW124269   0.428   0.121   3.653 -0.6492  0.1128  0.6753
 4269SOL    HW224270   0.301   0.198   3.633 -1.5500 -0.7003 -1.9859
 4270SOL     OW24271   3.016   0.159   3.629  0.1590  0.6905  0.0534
 4270SOL    HW124272   3.050   0.249   3.623 -0.5135  1.0508  1.8534
 4270SOL    HW224273   2.957   0.164   3.704 -0.0910  0.9632 -0.1631
 4271SOL     OW24274   3.060   0.556   2.731 -0.1678  0.1058  0.1794
 4271SOL    HW124275   3.009   0.547   2.812 -2.1650  0.8482 -0.9996
 4271SOL    HW224276   2.994   0.549   2.662 -1.7377 -0.5771  1.7602
 4272SOL     OW24277   1.401   3.127   9.125 -0.1666  0.0865  0.2754
 4272SOL    HW124278   1.412   3.217   9.154 -0.4660  0.4236 -0.6441
 4272SOL    HW224279   1.467   3.114   9.056 -2.3715  1.2764 -2.0592
 4273SOL     OW24280   4.505   4.412  16.469 -0.1827  0.3146 -0.2060
 4273SOL    HW124281   4.477   4.345  16.533  3.3292 -0.7832  0.2081
 4273SOL    HW224282   4.480   4.496  16.506  2.1521  1.5762 -1.5095
 4274SOL     OW24283   1.162   2.682   2.723 -0.2979  0.3019  0.1031
 4274SOL    HW124284   1.244   2.731   2.714 -0.2211 -0.3404 -2.9572
 4274SOL    HW224285   1.175   2.611   2.660  1.2534  0.1272  0.6231
 4275SOL     OW24286   3.249   0.944   5.030  0.7621  0.2001  0.2439
 4275SOL    HW124287   3.199   1.005   5.084  0.6581  1.0120 -0.7671
 4275SOL    HW224288   3.188   0.871   5.035 -0.3090  1.1206  0.6519
 4276SOL     OW24289   3.980   0.454   5.664 -0.5609  0.4577  0.5618
 4276SOL    HW124290   3.952   0.446   5.756 -3.3717  0.3386 -0.3007
 4276SOL    HW224291   3.951   0.543   5.646 -0.1920  0.9047  2.1180
 4277SOL     OW24292   3.763   2.191   8.436 -0.0960 -0.0261  0.3449
 4277SOL    HW124293   3.831   2.232   8.490  0.9434 -2.3463  0.7977
 4277SOL    HW224294   3.764   2.102   8.470  0.3421 -0.3302 -0.4528
 4278SOL     OW24295   2.110   1.175  15.263 -0.1179  0.5712 -0.2731
 4278SOL    HW124296   2.024   1.212  15.248 -0.5010 -0.9928 -1.8878
 4278SOL    HW224297   2.156   1.259  15.260 -1.3719  1.3032  0.8557
 4279SOL     OW24298   0.807   2.663   9.264  0.3780  0.4188 -0.2221
 4279SOL    HW124299   0.749   2.650   9.339  0.9967  3.1096  0.7234
 4279SOL    HW224300   0.862   2.586   9.277  2.1212  1.5466 -0.9990
 4280SOL     OW24301   1.234   1.699   4.253 -0.3500 -0.0451 -0.3074
 4280SOL    HW124302   1.238   1.762   4.180  2.2348  1.5977  1.2532
 4280SOL    HW224303   1.156   1.723   4.302  0.2761  1.8867 -0.2499
 4281SOL     OW24304   3.622   1.102   3.470 -0.5261 -0.4390  0.0829
 4281SOL    HW124305   3.639   1.170   3.405 -0.2711 -0.9156 -0.3461
 4281SOL    HW224306   3.641   1.021   3.423  0.6052 -0.2976  0.3170
 4282SOL     OW24307   3.709   2.003  13.051  0.0592 -0.5479  0.1752
 4282SOL    HW124308   3.668   1.934  13.104 -1.7589  0.6473  0.3474
 4282SOL    HW224309   3.792   1.964  13.023  1.1565  2.4207 -0.7028
 4283SOL     OW24310   1.643   3.217  17.509  0.4407  0.1567  0.2196
 4283SOL    HW124311   1.674   3.237  17.597 -0.8066 -3.0742  1.4140
 4283SOL    HW224312   1.637   3.308  17.482 -0.4647  0.6309  2.0668
 4284SOL     OW24313   3.304   4.466   7.319  0.1735 -0.4196 -0.0602
 4284SOL    HW124314   3.220   4.488   7.359 -0.6858 -2.3142 -0.7936
 4284SOL    HW224315   3.323   4.388   7.371 -2.0428  1.4388  3.5089
 4285SOL     OW24316   0.606   1.343   3.717  0.3943 -0.0458 -0.2271
 4285SOL    HW124317   0.601   1.438   3.723 -1.6826 -0.2545  1.6098
 4285SOL    HW224318   0.685   1.327   3.665 -0.3788 -2.6521 -0.6252
 4286SOL     OW24319   3.704   3.522   2.839  0.1575 -0.0453 -0.3183
 4286SOL    HW124320   3.657   3.493   2.761 -0.9664  3.1824 -0.8390
 4286SOL    HW224321   3.754   3.445   2.869 -1.3439 -0.4009  1.2672
 4287SOL     OW24322   3.504   1.104   7.037  0.7378 -0.0401 -0.0040
 4287SOL    HW124323   3.411   1.106   7.057  0.3594 -1.5284 -1.5873
 4287SOL    HW224324   3.520   1.010   7.025 -0.2865 -0.2641  0.3784
 4288SOL     OW24325   2.884   0.563  11.806 -0.3993 -0.3882  0.3491
 4288SOL    HW124326   2.842   0.519  11.732  1.5607  0.3489 -1.2150
 4288SOL    HW224327   2.816   0.579  11.871 -1.2138 -0.1390 -0.5673
 4289SOL     OW24328   1.418   0.819   5.230 -0.7300  0.2873 -0.4538
 4289SOL    HW124329   1.400   0.774   5.313 -0.9570  1.2426  0.0130
 4289SOL    HW224330   1.511   0.833   5.248 -0.7958  1.7055 -1.2119
 4290SOL     OW24331   1.811   1.517   4.298 -0.2364 -0.5225 -0.1453
 4290SOL    HW124332   1.886   1.529   4.240 -0.5711  0.5349 -0.3665
 4290SOL    HW224333   1.743   1.458   4.266 -1.0877  0.5124 -0.2747
 4291SOL     OW24334   1.783   3.216   4.275 -0.2403 -0.6481 -0.0589
 4291SOL    HW124335   1.798   3.300   4.319  0.0228  0.1467 -1.6525
 4291SOL    HW224336   1.688   3.207   4.276 -0.2101 -0.9368  0.1829
 4292SOL     OW24337   1.699   0.932   9.809  0.0407 -0.2144  0.4164
 4292SOL    HW124338   1.735   0.849   9.779  1.1584  0.1220  0.8310
 4292SOL    HW224339   1.743   0.952   9.892  0.2184  0.8861  0.0592
 4293SOL     OW24340   1.581   3.247   1.321 -0.2424  0.1427  0.7439
 4293SOL    HW124341   1.604   3.223   1.231  2.6067  1.0378  1.2217
 4293SOL    HW224342   1.661   3.280   1.361  1.0121 -0.9283 -0.8732
 4294SOL     OW24343   2.865   0.643   2.274  0.7289  0.4391  0.3523
 4294SOL    HW124344   2.786   0.668   2.322  0.5836 -0.8324  0.7640
 4294SOL    HW224345   2.831   0.559   2.242  1.9891 -0.9453  2.6402
 4295SOL     OW24346   1.522   1.216   8.271  0.5753  0.0737 -0.0930
 4295SOL    HW124347   1.581   1.251   8.205  2.7926 -0.0554  1.7971
 4295SOL    HW224348   1.541   1.122   8.266 -0.5153  0.0124 -2.7649
 4296SOL     OW24349   0.502   2.870   4.762  0.1382  0.3147  0.4100
 4296SOL    HW124350   0.413   2.851   4.791 -0.0221 -1.3709 -1.2091
 4296SOL    HW224351   0.513   2.794   4.706  1.6618  1.3432 -0.6957
 4297SOL     OW24352   1.684   2.300   1.227 -0.1260  0.3259  0.0823
 4297SOL    HW124353   1.747   2.228   1.216 -0.7596 -0.0561 -0.9879
 4297SOL    HW224354   1.603   2.250   1.227  1.6547 -2.5810  2.1797
 4298SOL     OW24355   0.366   2.813   8.286  0.0065 -0.4499  0.1616
 4298SOL    HW124356   0.288   2.802   8.340 -1.0461  1.9165 -0.8806
 4298SOL    HW224357   0.332   2.809   8.196  0.9727  3.1169 -0.3546
 4299SOL     OW24358   2.722   0.270  13.761 -0.0608 -0.0494 -0.4916
 4299SOL    HW124359   2.811   0.277  13.726  0.4903 -2.0611  0.5031
 4299SOL    HW224360   2.680   0.200  13.712 -0.0464  0.0193 -0.6033
 4300SOL     OW24361   0.836   0.881  10.312  0.0017  0.4062  0.8478
 4300SOL    HW124362   0.903   0.827  10.270  1.1701  2.2399  0.3977
 4300SOL    HW224363   0.765   0.855  10.253 -0.8660 -0.4953  2.2946
 4301SOL     OW24364   0.505   4.192   7.918 -0.3028 -0.5818  0.2343
 4301SOL    HW124365   0.560   4.114   7.929  0.7295  0.0837 -0.2383
 4301SOL    HW224366   0.540   4.226   7.836 -0.2426 -1.2535 -0.0170
 4302SOL     OW24367   4.208   0.057  12.417  0.0908 -0.2426  0.9033
 4302SOL    HW124368   4.185   0.044  12.509  2.1299 -0.5370  1.3570
 4302SOL    HW224369   4.303   0.051  12.419  0.1998  1.5129  1.3751
 4303SOL     OW24370   1.363   1.639  17.141  0.1401 -0.1075 -0.1933
 4303SOL    HW124371   1.393   1.722  17.105 -1.4622  0.0566 -1.1496
 4303SOL    HW224372   1.309   1.604  17.070  2.6603 -0.9754 -1.6517
 4304SOL     OW24373   1.834   4.292   3.414 -0.4167  0.0407  0.0135
 4304SOL    HW124374   1.835   4.254   3.325  0.0020  0.9172 -0.3567
 4304SOL    HW224375   1.867   4.380   3.396 -0.7198 -0.3096 -2.3329
 4305SOL     OW24376   0.191   1.281   2.871 -0.0749  0.8380  0.6362
 4305SOL    HW124377   0.123   1.349   2.864 -0.1789  0.6316 -0.4638
 4305SOL    HW224378   0.223   1.295   2.960 -0.1980  1.1638  0.6290
 4306SOL     OW24379   3.184   4.006   8.633  0.5794 -0.3012  0.3853
 4306SOL    HW124380   3.193   4.013   8.728 -2.0331 -0.8123  0.6804
 4306SOL    HW224381   3.116   4.070   8.611 -1.3475 -1.5559  2.8002
 4307SOL     OW24382   2.432   1.204   1.868  0.2514 -0.2688  0.0744
 4307SOL    HW124383   2.409   1.272   1.931 -0.3608 -1.5462  1.2036
 4307SOL    HW224384   2.528   1.201   1.878  0.3391 -0.6975 -0.8924
 4308SOL     OW24385   1.519   1.207   1.804 -0.1077 -0.0004 -0.4088
 4308SOL    HW124386   1.442   1.155   1.826 -0.4376  0.0774 -1.3929
 4308SOL    HW224387   1.592   1.163   1.847 -0.4999 -2.2136 -2.0747
 4309SOL     OW24388   3.466   1.201   4.640 -0.3364 -0.1553 -0.4267
 4309SOL    HW124389   3.371   1.198   4.627 -0.2612 -1.8504 -0.6032
 4309SOL    HW224390   3.469   1.196   4.736  0.9830  2.2095 -0.3329
 4310SOL     OW24391   2.905   1.142  12.223 -0.3699 -0.3207  0.1881
 4310SOL    HW124392   2.836   1.154  12.289  2.3266  1.9701  2.5638
 4310SOL    HW224393   2.902   1.227  12.180  1.8321 -1.2754 -1.8553
 4311SOL     OW24394   3.150   4.582   7.100 -0.3200  0.3870  0.5519
 4311SOL    HW124395   3.146   4.508   7.040 -2.0905  0.6896  0.2984
 4311SOL    HW224396   3.201   4.538   7.167 -2.3531 -0.3811  1.5805
 4312SOL     OW24397   0.906   3.211   2.628 -0.1796  0.5340  0.7670
 4312SOL    HW124398   0.905   3.119   2.602  0.0585  1.4300 -2.4152
 4312SOL    HW224399   0.991   3.218   2.673 -0.4063  2.0773  0.9322
 4313SOL     OW24400   1.351   4.693  14.264  0.3367  0.1379 -0.6238
 4313SOL    HW124401   1.331   0.012  14.346 -0.9380 -0.8189 -0.4287
 4313SOL    HW224402   1.395   4.614  14.297  0.2377  0.2717 -0.1814
 4314SOL     OW24403   1.659   4.612   8.845  0.3591  0.0552  0.0948
 4314SOL    HW124404   1.650   4.697   8.801 -1.8310 -0.2876 -0.1386
 4314SOL    HW224405   1.603   4.626   8.921  0.2242 -0.6230  0.1166
 4315SOL     OW24406   0.763   3.748   0.310  0.5614 -0.6045 -0.1865
 4315SOL    HW124407   0.816   3.804   0.368  1.0178 -1.7009  0.4648
 4315SOL    HW224408   0.767   3.664   0.356  0.0369 -0.3331  0.3497
 4316SOL     OW24409   0.002   1.816   8.230 -0.1402  0.0522 -0.2298
 4316SOL    HW124410   0.008   1.724   8.204 -0.8530 -0.8594  2.7715
 4316SOL    HW224411   4.660   1.808   8.298 -0.7386  1.8196 -0.6142
 4317SOL     OW24412   2.017   3.388   3.888  0.0713  0.3269  0.0288
 4317SOL    HW124413   1.993   3.306   3.929 -0.0325  0.4788  0.2701
 4317SOL    HW224414   1.942   3.444   3.906  0.0922  0.4795 -0.3513
 4318SOL     OW24415   0.209   2.325   3.783 -0.5800 -0.2922 -0.9611
 4318SOL    HW124416   0.132   2.363   3.826  0.0030 -0.0790 -0.1164
 4318SOL    HW224417   0.248   2.274   3.853  0.5207  2.6725  0.5303
 4319SOL     OW24418   1.317   1.365   9.250 -0.5606  0.5839 -0.1577
 4319SOL    HW124419   1.277   1.344   9.335  1.4728 -1.2136  0.3787
 4319SOL    HW224420   1.382   1.295   9.244  0.1011  1.5036 -3.4348
 4320SOL     OW24421   2.049   3.354  11.416 -0.4452  0.0204 -0.2346
 4320SOL    HW124422   2.060   3.364  11.510  0.1221 -0.2849 -0.2715
 4320SOL    HW224423   2.071   3.444  11.389 -0.1172 -0.2343 -0.8118
 4321SOL     OW24424   4.435   2.947   5.651  0.1204 -0.9027 -0.1268
 4321SOL    HW124425   4.429   3.008   5.723 -0.1245 -1.0652 -0.0077
 4321SOL    HW224426   4.529   2.952   5.635 -0.1035 -1.0944 -1.5417
 4322SOL     OW24427   1.526   0.550   6.645  0.4232 -0.2463  0.0663
 4322SOL    HW124428   1.586   0.623   6.660  0.0362 -0.6899  3.7807
 4322SOL    HW224429   1.483   0.570   6.562  2.5998  0.1105 -0.9672
 4323SOL     OW24430   4.219   1.986  14.022  0.4781  0.5285  0.0798
 4323SOL    HW124431   4.269   2.003  14.101 -0.2206  1.3535  0.3486
 4323SOL    HW224432   4.285   1.992  13.953  3.2541  1.5638  2.8684
 4324SOL     OW24433   0.655   1.512   7.717  0.1025 -0.4285 -0.4249
 4324SOL    HW124434   0.626   1.602   7.732  1.7952  0.3267 -1.7409
 4324SOL    HW224435   0.735   1.528   7.667  1.3440 -0.0724  1.6421
 4325SOL     OW24436   3.720   2.982  13.205 -0.3110 -0.4722 -0.3711
 4325SOL    HW124437   3.804   2.955  13.167  1.3134  2.8925  0.8118
 4325SOL    HW224438   3.751   3.065  13.242 -0.2766  0.3395 -2.2130
 4326SOL     OW24439   0.710   2.456   2.589 -0.2418  0.4644  0.2666
 4326SOL    HW124440   0.784   2.499   2.547  0.0618  0.4937  0.8303
 4326SOL    HW224441   0.641   2.475   2.525 -0.0223  0.9328  0.1754
 4327SOL     OW24442   2.079   4.338   8.257  0.1594 -0.3769 -0.1049
 4327SOL    HW124443   2.103   4.334   8.165 -0.9473 -3.5251 -0.2426
 4327SOL    HW224444   2.168   4.334   8.292  0.6799 -1.1571 -1.5081
 4328SOL     OW24445   2.141   4.318   5.075 -0.0690 -0.1789  0.1241
 4328SOL    HW124446   2.225   4.346   5.113 -0.0379  2.0116 -1.5834
 4328SOL    HW224447   2.160   4.225   5.067 -0.5649 -0.1673 -1.1144
 4329SOL     OW24448   1.238   3.527   2.207 -0.2247  0.1794 -0.0746
 4329SOL    HW124449   1.323   3.553   2.243 -0.7523  0.9301  0.6174
 4329SOL    HW224450   1.206   3.455   2.261 -0.2266  0.2565  0.0252
 4330SOL     OW24451   0.368   4.593   5.288  0.1720 -0.3119  0.3777
 4330SOL    HW124452   0.397   4.503   5.276  0.3209 -0.1384 -0.5885
 4330SOL    HW224453   0.310   4.576   5.362 -0.8140 -0.4716 -0.4146
 4331SOL     OW24454   1.265   2.696   7.542 -0.2249 -0.1639 -0.4146
 4331SOL    HW124455   1.229   2.689   7.631  0.2503  0.3208 -0.1874
 4331SOL    HW224456   1.193   2.649   7.499  1.2335 -2.1262 -0.7127
 4332SOL     OW24457   2.904   1.486  12.184 -0.4921 -0.5480 -0.2285
 4332SOL    HW124458   2.934   1.567  12.225 -0.6062 -1.3644  1.4764
 4332SOL    HW224459   2.848   1.532  12.121 -0.4239 -0.2368 -0.0586
 4333SOL     OW24460   1.023   3.929   6.072  0.4297  0.1529 -0.0820
 4333SOL    HW124461   1.006   3.999   6.008 -1.5201 -1.0716 -0.9075
 4333SOL    HW224462   0.969   3.959   6.145 -0.1344 -1.0009 -0.0253
 4334SOL     OW24463   3.584   3.817   5.668 -0.1783  0.0305 -0.2749
 4334SOL    HW124464   3.507   3.791   5.719  0.6722 -1.4753  0.2202
 4334SOL    HW224465   3.555   3.801   5.578 -0.6964  0.0734 -0.1168
 4335SOL     OW24466   1.494   2.439   4.294 -0.0323 -0.1678  0.6261
 4335SOL    HW124467   1.519   2.379   4.364 -2.1936 -0.6831  0.9463
 4335SOL    HW224468   1.570   2.427   4.235  0.0752 -0.3002  0.7920
 4336SOL     OW24469   3.483   1.386  15.581  0.0467 -0.0025 -0.6378
 4336SOL    HW124470   3.577   1.384  15.565  0.0446 -0.6038 -0.5551
 4336SOL    HW224471   3.445   1.311  15.536  0.9662 -2.4894  2.7665
 4337SOL     OW24472   2.563   0.763   8.853 -0.5688 -0.2458  0.0527
 4337SOL    HW124473   2.591   0.787   8.764  0.7388 -1.0215  0.2436
 4337SOL    HW224474   2.552   0.847   8.897 -3.5528 -0.5679 -0.1241
 4338SOL     OW24475   1.093   3.675   8.673  0.0528  0.0779 -0.5285
 4338SOL    HW124476   1.000   3.664   8.652  0.1570 -0.8479 -0.5202
 4338SOL    HW224477   1.131   3.701   8.590 -0.3687 -2.4697 -1.5115
 4339SOL     OW24478   1.462   1.955  15.565 -0.4064  0.6396  0.1540
 4339SOL    HW124479   1.377   1.945  15.607 -0.6167 -2.6200 -1.0896
 4339SOL    HW224480   1.508   2.003  15.634 -1.4217  0.8823  0.6568
 4340SOL     OW24481   3.226   0.776   9.618  0.2878  0.3159  0.2361
 4340SOL    HW124482   3.316   0.751   9.639  0.6349  0.5183 -1.0175
 4340SOL    HW224483   3.204   0.693   9.576  0.6099  0.4615 -0.2146
 4341SOL     OW24484   0.003   2.970  14.051 -0.1130 -0.1086 -0.1686
 4341SOL    HW124485   0.011   2.943  13.960  0.5878  1.9193 -0.6945
 4341SOL    HW224486   0.095   2.993  14.065  0.2597 -1.3489 -0.5993
 4342SOL     OW24487   0.533   3.711   3.850  0.1574 -0.1763  0.3945
 4342SOL    HW124488   0.516   3.690   3.942  0.7059  0.9295  0.7490
 4342SOL    HW224489   0.514   3.805   3.852 -1.4612 -0.4531 -2.0548
 4343SOL     OW24490   1.310   2.319  14.526 -0.7122  0.0208  0.2489
 4343SOL    HW124491   1.222   2.299  14.558 -0.6973  0.3511  0.4983
 4343SOL    HW224492   1.356   2.235  14.520 -0.1232  0.4378 -1.0587
 4344SOL     OW24493   3.201   2.642   4.388 -0.8199 -0.0536  0.5391
 4344SOL    HW124494   3.158   2.594   4.318  2.2922  1.9041 -2.7289
 4344SOL    HW224495   3.211   2.567   4.447  1.0293 -0.9044 -0.8533
 4345SOL     OW24496   0.512   1.509   3.286  0.0652 -0.2167 -0.0803
 4345SOL    HW124497   0.596   1.542   3.254 -0.8370  0.3886 -1.8367
 4345SOL    HW224498   0.475   1.582   3.337 -1.1226 -0.7795 -0.1648
 4346SOL     OW24499   1.198   0.312   4.431 -0.1265  0.0734 -0.4617
 4346SOL    HW124500   1.253   0.234   4.441  0.8381  0.7156 -0.7892
 4346SOL    HW224501   1.263   0.381   4.436  0.7521 -0.9376  2.0904
 4347SOL     OW24502   1.843   1.837   5.472  0.1288 -0.4407 -0.4360
 4347SOL    HW124503   1.808   1.853   5.559  0.7576  1.1583 -0.4736
 4347SOL    HW224504   1.770   1.867   5.418 -1.4284  0.0358  1.9657
 4348SOL     OW24505   2.007   0.284   5.831 -0.6198 -0.5002  0.5590
 4348SOL    HW124506   1.917   0.292   5.862 -0.1622 -2.6044  2.4293
 4348SOL    HW224507   2.016   0.191   5.814  0.0128 -0.8333  2.7391
 4349SOL     OW24508   3.881   3.855   9.204 -0.3748 -0.0684 -0.0868
 4349SOL    HW124509   3.839   3.897   9.279 -1.3984 -0.2903 -0.5388
 4349SOL    HW224510   3.886   3.932   9.148 -3.2109 -0.2338 -0.6021
 4350SOL     OW24511   1.143   4.504   3.163 -0.1732  0.2356  0.2832
 4350SOL    HW124512   1.218   4.524   3.220  0.9511  0.6119 -1.3479
 4350SOL    HW224513   1.087   4.451   3.220  0.1804 -0.9578 -0.4752
 4351SOL     OW24514   2.728   1.524   5.506  0.2359  0.0299  0.2134
 4351SOL    HW124515   2.752   1.584   5.435  0.2691 -0.6041 -0.3095
 4351SOL    HW224516   2.681   1.462   5.451  1.1730 -0.8791  0.4328
 4352SOL     OW24517   3.731   3.146   7.272 -0.2922  0.1307  0.1438
 4352SOL    HW124518   3.701   3.071   7.219  1.7512  0.7623 -1.8978
 4352SOL    HW224519   3.650   3.186   7.304  0.5290 -0.4308  2.9005
 4353SOL     OW24520   0.174   4.393  13.628  0.2133  0.2857 -0.9300
 4353SOL    HW124521   0.154   4.337  13.702 -2.3908  0.2134 -1.6903
 4353SOL    HW224522   0.104   4.458  13.635 -0.5440 -0.7707  1.1711
 4354SOL     OW24523   4.268   2.994   4.115  0.3271 -0.0604  0.2684
 4354SOL    HW124524   4.291   2.932   4.185  0.5772  0.5250  0.7025
 4354SOL    HW224525   4.212   3.052   4.166  1.0126  0.7987  0.0592
 4355SOL     OW24526   1.864   0.500   9.268 -0.1902  0.2466 -0.0199
 4355SOL    HW124527   1.853   0.535   9.179 -0.0988 -0.0466 -0.1476
 4355SOL    HW224528   1.959   0.484   9.276 -0.3787  0.2327  2.1592
 4356SOL     OW24529   2.281   0.219   4.881 -0.1742  0.0788  0.5855
 4356SOL    HW124530   2.353   0.216   4.818  1.7673  0.0302  2.8541
 4356SOL    HW224531   2.299   0.140   4.932 -1.3020 -0.5048  0.1022
 4357SOL     OW24532   2.756   1.978   2.799  0.0924 -0.0161 -0.4014
 4357SOL    HW124533   2.807   2.011   2.872 -0.4806  1.0217 -0.4716
 4357SOL    HW224534   2.801   2.025   2.729 -0.8117  0.8080 -0.4285
 4358SOL     OW24535   0.517   1.094  14.676  0.5580  0.5510  0.1695
 4358SOL    HW124536   0.607   1.118  14.698  0.2927  0.9610  0.8131
 4358SOL    HW224537   0.471   1.178  14.666 -1.5077 -0.2856  2.6307
 4359SOL     OW24538   0.919   0.883  12.896  0.2751 -0.8394 -0.1442
 4359SOL    HW124539   0.971   0.929  12.829 -0.9366 -1.0360 -1.2141
 4359SOL    HW224540   0.986   0.869  12.963 -0.2337  0.1325  0.5583
 4360SOL     OW24541   4.712   3.108   5.333  0.5749  0.3234 -0.6210
 4360SOL    HW124542   4.632   3.066   5.302 -0.2921  2.6239 -1.5624
 4360SOL    HW224543   0.006   3.048   5.404 -1.3420  0.0491 -0.3292
 4361SOL     OW24544   0.670   3.537  11.545  0.8816  0.0705 -0.4474
 4361SOL    HW124545   0.730   3.601  11.583  2.1955 -2.5848  1.9154
 4361SOL    HW224546   0.730   3.463  11.546  0.6769 -0.1256 -2.0869
 4362SOL     OW24547   3.058   3.795   2.619 -0.4441  0.3583 -0.2272
 4362SOL    HW124548   2.999   3.720   2.619  1.0873 -0.8508 -1.0114
 4362SOL    HW224549   2.996   3.867   2.627 -0.2523  0.7237 -2.0590
 4363SOL     OW24550   2.593   1.938  13.783  0.2138 -0.8598  0.7156
 4363SOL    HW124551   2.521   1.996  13.762  0.7966  0.5212  2.5693
 4363SOL    HW224552   2.659   1.976  13.725 -0.6999 -2.9711 -1.7299
 4364SOL     OW24553   0.672   2.145  13.808  0.5795  0.0920 -0.2286
 4364SOL    HW124554   0.585   2.182  13.825  0.9672  1.8271 -2.0459
 4364SOL    HW224555   0.656   2.097  13.727  0.1411 -1.5639  0.8197
 4365SOL     OW24556   3.549   2.206   5.582  0.1850 -0.3326 -0.2024
 4365SOL    HW124557   3.493   2.284   5.588  0.6864 -0.0700  1.1334
 4365SOL    HW224558   3.494   2.143   5.628  0.0997  1.9130  2.8216
 4366SOL     OW24559   1.980   1.056   2.468  0.1634 -0.2674 -0.3982
 4366SOL    HW124560   1.896   1.015   2.487  0.1923  0.3138  0.9761
 4366SOL    HW224561   2.041   0.985   2.446  1.8257  1.3451 -1.0097
 4367SOL     OW24562   1.028   1.155   9.127  0.3796 -0.1530 -0.0278
 4367SOL    HW124563   1.010   1.104   9.206  2.1573 -1.0071 -0.1595
 4367SOL    HW224564   1.047   1.085   9.064 -0.2207  0.3627 -0.7838
 4368SOL     OW24565   3.366   2.398  12.416  0.2454 -0.9474 -0.2581
 4368SOL    HW124566   3.383   2.369  12.506 -2.5306  0.1116  0.6205
 4368SOL    HW224567   3.457   2.421  12.399  0.9801 -1.5323  2.8147
 4369SOL     OW24568   4.298   2.847  17.696  0.2774  1.0550  1.0089
 4369SOL    HW124569   4.379   2.825  17.649  0.2383 -1.4781  2.1282
 4369SOL    HW224570   4.335   2.907   0.060 -0.0229  0.8644  1.3642
 4370SOL     OW24571   2.956   3.076   5.436 -0.6708  0.3710  0.2612
 4370SOL    HW124572   2.866   3.104   5.418 -1.2132 -0.4263  1.7476
 4370SOL    HW224573   2.932   3.033   5.518  0.1532  0.5635  0.6053
 4371SOL     OW24574   0.513   1.085   2.245 -0.2020  0.2792  0.0165
 4371SOL    HW124575   0.460   1.006   2.253  0.3212 -0.0171  0.5855
 4371SOL    HW224576   0.469   1.133   2.316 -1.8240  1.3321 -1.7123
 4372SOL     OW24577   2.241   2.409  11.939  0.4595  0.2379  0.0998
 4372SOL    HW124578   2.272   2.467  12.009  0.8210 -1.0707  1.0233
 4372SOL    HW224579   2.153   2.395  11.973  0.4274 -1.3359 -0.6520
 4373SOL     OW24580   0.862   2.193   6.188 -0.4786 -0.4059  0.1088
 4373SOL    HW124581   0.868   2.111   6.237  1.1505  0.6824  1.6886
 4373SOL    HW224582   0.941   2.190   6.134 -0.7961  0.1879 -0.3927
 4374SOL     OW24583   3.093   0.220  14.691  0.0063 -0.1781 -0.0655
 4374SOL    HW124584   3.184   0.193  14.703 -0.3407 -0.6818  1.4287
 4374SOL    HW224585   3.078   0.213  14.597  1.0449 -3.0051 -0.0140
 4375SOL     OW24586   1.977   1.589   8.435 -0.1206  0.0520 -0.3230
 4375SOL    HW124587   1.958   1.603   8.527  0.4514  2.2072 -0.5401
 4375SOL    HW224588   2.045   1.521   8.440  0.5899  0.8307  0.6420
 4376SOL     OW24589   2.249   3.791   2.466  0.1774  0.8652 -0.2781
 4376SOL    HW124590   2.267   3.699   2.485 -2.5050  0.5529  0.7782
 4376SOL    HW224591   2.190   3.815   2.537 -0.2452  2.9689 -1.3475
 4377SOL     OW24592   1.622   4.179   1.148 -0.2536 -0.1178 -0.4367
 4377SOL    HW124593   1.560   4.177   1.220  0.5961  2.4562  0.3835
 4377SOL    HW224594   1.560   4.166   1.076  0.3383  1.6779 -1.2759
 4378SOL     OW24595   4.624   0.233   1.798 -0.6065  0.4476  0.5212
 4378SOL    HW124596   4.658   0.222   1.709 -1.5380  1.1917  0.0745
 4378SOL    HW224597   4.539   0.256   1.759  0.4600  0.1434 -1.9908
 4379SOL     OW24598   2.447   4.697   3.776 -0.3094  0.2353  0.6261
 4379SOL    HW124599   2.356   4.697   3.749 -0.4233  2.1100  1.0169
 4379SOL    HW224600   2.477   0.051   3.730  0.1544  0.3631  1.1484
 4380SOL     OW24601   4.014   0.202   3.175 -0.0339 -0.0321  0.5265
 4380SOL    HW124602   3.942   0.217   3.115 -0.3935 -1.7161  0.5443
 4380SOL    HW224603   3.965   0.183   3.255  0.3821 -0.1952  0.7427
 4381SOL     OW24604   1.678   0.103  16.077  0.6108 -0.5069 -0.2185
 4381SOL    HW124605   1.586   0.125  16.063  1.1621  2.8914  1.5330
 4381SOL    HW224606   1.674   0.014  16.040  3.5967 -0.8039  0.1273
 4382SOL     OW24607   3.857   3.828   5.718  0.2436 -0.3951  0.0118
 4382SOL    HW124608   3.763   3.813   5.710  0.5620 -1.5955 -1.6409
 4382SOL    HW224609   3.871   3.874   5.635 -0.0998  0.2221  0.2975
 4383SOL     OW24610   0.933   4.457   0.799 -0.9498 -0.1255  0.1070
 4383SOL    HW124611   0.988   4.526   0.836  1.4746 -2.0753  0.2335
 4383SOL    HW224612   0.995   4.385   0.816  0.6899  1.2625 -0.0137
 4384SOL     OW24613   4.341   2.983   4.938 -0.3888  0.0193 -0.6583
 4384SOL    HW124614   4.279   2.983   5.011  1.3157  1.5539  0.7852
 4384SOL    HW224615   4.355   2.889   4.930  1.3886  0.2634 -0.4806
 4385SOL     OW24616   1.573   1.488   4.809  0.1907  0.3126 -0.2068
 4385SOL    HW124617   1.661   1.457   4.830  0.4886  0.1689 -1.6498
 4385SOL    HW224618   1.547   1.431   4.736  0.8065 -0.9182  0.5301
 4386SOL     OW24619   4.557   3.863   7.726  0.1084 -0.0889 -0.2258
 4386SOL    HW124620   4.463   3.846   7.730 -0.0668  1.2977  1.6438
 4386SOL    HW224621   4.589   3.773   7.725 -0.6408 -0.3341 -1.7105
 4387SOL     OW24622   3.835   0.045   7.286  0.1723  0.0911  0.6316
 4387SOL    HW124623   3.824   4.703   7.218 -2.6293 -1.3382  2.5416
 4387SOL    HW224624   3.751   0.031   7.329 -1.4196 -2.2337 -3.2434
 4388SOL     OW24625   0.854   2.363   1.411  0.0277  0.0939  0.4986
 4388SOL    HW124626   0.862   2.277   1.370  0.2872 -0.1061  0.9579
 4388SOL    HW224627   0.783   2.347   1.473  0.4395 -0.2647  0.8793
 4389SOL     OW24628   0.298   3.660   3.654 -0.3180 -0.6117  0.2605
 4389SOL    HW124629   0.223   3.650   3.712 -1.6284 -1.7583 -1.6292
 4389SOL    HW224630   0.362   3.668   3.724 -0.2191 -1.5797  0.2878
 4390SOL     OW24631   2.332   2.998  11.740 -0.3497 -0.5311 -0.2819
 4390SOL    HW124632   2.399   2.943  11.781  2.4234  2.2497 -1.1128
 4390SOL    HW224633   2.257   2.946  11.771 -1.8088  0.2618 -2.5064
 4391SOL     OW24634   2.067   4.215   5.780  0.2095  0.1460 -0.0646
 4391SOL    HW124635   2.071   4.223   5.685 -2.6549  2.6588  0.0097
 4391SOL    HW224636   1.974   4.239   5.778 -0.2444 -1.3431  2.9145
 4392SOL     OW24637   1.732   2.108  17.585  0.3396 -0.2656  0.3129
 4392SOL    HW124638   1.801   2.084  17.523 -0.1823 -0.0979 -0.3415
 4392SOL    HW224639   1.717   2.029  17.638 -3.2628  1.4680  1.8083
 4393SOL     OW24640   2.576   0.108   2.712  0.1761  0.0804 -0.5023
 4393SOL    HW124641   2.616   0.162   2.643  1.0921 -0.5382 -0.4494
 4393SOL    HW224642   2.583   0.024   2.667 -0.8616 -0.5454  0.5185
 4394SOL     OW24643   4.130   1.493   1.897 -0.2976 -0.4317 -0.2698
 4394SOL    HW124644   4.196   1.428   1.875 -0.4713 -0.9098  0.6134
 4394SOL    HW224645   4.124   1.534   1.811  0.2068 -0.2648 -0.2274
 4395SOL     OW24646   1.026   3.290   3.253 -0.1939 -0.3133  0.4465
 4395SOL    HW124647   0.937   3.303   3.284  0.4729  1.8880  1.4094
 4395SOL    HW224648   1.015   3.252   3.165  0.9389  0.4559 -0.0241
 4396SOL     OW24649   1.797   3.625   6.358  0.2359 -0.3372 -0.4778
 4396SOL    HW124650   1.783   3.561   6.428 -0.4229  2.0269  1.5595
 4396SOL    HW224651   1.732   3.591   6.296 -1.8926 -0.4808  1.8540
 4397SOL     OW24652   0.177   1.329   6.031  0.0280 -0.1187  0.0489
 4397SOL    HW124653   0.178   1.260   5.965 -1.8463  0.3451 -0.4593
 4397SOL    HW224654   0.091   1.316   6.070 -0.1160 -0.3461 -0.3414
 4398SOL     OW24655   3.659   0.241   3.558 -0.2736 -0.5485 -0.0900
 4398SOL    HW124656   3.691   0.218   3.645 -2.4782 -1.4643  0.4860
 4398SOL    HW224657   3.626   0.328   3.582  0.7119 -0.3025  0.3825
 4399SOL     OW24658   1.812   4.327   6.587 -0.0692 -0.2943 -0.1283
 4399SOL    HW124659   1.905   4.320   6.565  0.0696 -0.3153  0.4497
 4399SOL    HW224660   1.815   4.381   6.666 -2.2874 -0.3119 -0.0412
 4400SOL     OW24661   3.939   3.235   3.336  0.1159  0.4348  0.7798
 4400SOL    HW124662   3.880   3.269   3.404  0.2401  0.5096  0.8504
 4400SOL    HW224663   3.882   3.208   3.264  0.4186  2.7561 -0.3315
 4401SOL     OW24664   0.033   4.078   3.685  0.1204  0.2399  0.6298
 4401SOL    HW124665   0.099   4.018   3.651  1.0686  0.5653  1.9042
 4401SOL    HW224666   0.014   4.033   3.767  2.7178 -0.9885  0.5419
 4402SOL     OW24667   4.034   4.210   7.526  0.7306 -0.2797  0.2273
 4402SOL    HW124668   4.122   4.185   7.552  1.0699  0.0630 -0.6049
 4402SOL    HW224669   4.055   4.271   7.456 -0.4644  2.5267  2.3165
 4403SOL     OW24670   2.699   3.508   6.091 -0.3646 -0.2213 -0.6527
 4403SOL    HW124671   2.628   3.504   6.155  0.8882 -2.2105  0.5891
 4403SOL    HW224672   2.653   3.528   6.009  1.9614  0.8012 -1.7188
 4404SOL     OW24673   3.797   0.485   7.901 -0.4267 -1.2164 -0.0697
 4404SOL    HW124674   3.739   0.415   7.929  1.8151 -2.5716  1.1155
 4404SOL    HW224675   3.859   0.437   7.847  0.4396  0.1202 -0.2690
 4405SOL     OW24676   1.750   0.035   8.165  0.4832 -0.2981  0.2046
 4405SOL    HW124677   1.717   4.720   8.085 -0.7601 -1.4565  1.2814
 4405SOL    HW224678   1.845   0.035   8.166  0.4626  3.1691  1.6524
 4406SOL     OW24679   0.814   2.621   2.802 -0.1377  0.1033  0.0962
 4406SOL    HW124680   0.899   2.656   2.830  1.1368 -1.6364 -1.5670
 4406SOL    HW224681   0.812   2.633   2.707  2.0344 -1.4383 -0.1431
 4407SOL     OW24682   3.764   1.788   3.338 -0.6341 -0.6010  0.1692
 4407SOL    HW124683   3.826   1.723   3.305 -0.2803 -0.4111  0.4578
 4407SOL    HW224684   3.731   1.816   3.253 -2.0580 -0.4931  0.7508
 4408SOL     OW24685   0.874   2.365   1.830  0.2678  0.1329 -0.1673
 4408SOL    HW124686   0.805   2.361   1.764 -1.2353  1.0717  1.3356
 4408SOL    HW224687   0.873   2.275   1.864 -0.6824  0.2815  0.1835
 4409SOL     OW24688   1.011   3.318   0.715 -0.0801 -0.2975  0.9509
 4409SOL    HW124689   1.036   3.294   0.626  1.2770 -3.2259  2.1178
 4409SOL    HW224690   1.038   3.409   0.717  0.8204 -0.5309 -0.4119
 4410SOL     OW24691   4.661   3.560   9.327 -0.0683 -0.4799  0.4651
 4410SOL    HW124692   4.680   3.489   9.389 -1.7662  0.1554  1.6989
 4410SOL    HW224693   4.635   3.514   9.247  0.8175 -1.6628  0.8578
 4411SOL     OW24694   0.648   2.579   8.820  0.4342  0.0931 -0.5078
 4411SOL    HW124695   0.674   2.667   8.845  1.4848  0.0638 -1.4828
 4411SOL    HW224696   0.631   2.585   8.726 -1.0298  3.7404 -0.0142
 4412SOL     OW24697   0.774   4.096   3.441  0.7087 -0.4932  0.6322
 4412SOL    HW124698   0.827   4.120   3.518  2.5741 -1.5060 -0.3253
 4412SOL    HW224699   0.773   4.000   3.446  0.1820 -0.4908  0.4932
 4413SOL     OW24700   0.777   4.535   2.530  0.6277 -0.8873  0.1091
 4413SOL    HW124701   0.722   4.545   2.607  2.8890  0.1847  1.5672
 4413SOL    HW224702   0.722   4.483   2.472 -1.3295  3.1176 -1.6809
 4414SOL     OW24703   2.122   2.637   2.101 -0.2319  0.6141  0.1832
 4414SOL    HW124704   2.072   2.577   2.155  2.9963 -1.2733  1.0700
 4414SOL    HW224705   2.155   2.585   2.027 -1.4540  0.2347 -0.0873
 4415SOL     OW24706   2.118   3.920   4.049  0.4110 -0.1561  0.3241
 4415SOL    HW124707   2.156   3.988   4.104  0.6114 -0.6346  0.7770
 4415SOL    HW224708   2.099   3.970   3.969  0.8245 -1.4448 -0.5840
 4416SOL     OW24709   2.155   0.127   7.682 -0.3684 -0.1694 -0.3430
 4416SOL    HW124710   2.061   0.128   7.668 -0.4837  0.3978  0.4443
 4416SOL    HW224711   2.179   0.037   7.661  0.4770  0.1629 -0.8023
 4417SOL     OW24712   0.946   1.578   6.172 -0.5703  0.9567  0.6221
 4417SOL    HW124713   0.956   1.485   6.153 -3.2178  0.2761  2.3968
 4417SOL    HW224714   0.862   1.595   6.130 -0.8947  0.1644  0.9418
 4418SOL     OW24715   1.276   4.212   6.036 -0.0019 -0.2602 -0.5522
 4418SOL    HW124716   1.278   4.307   6.026 -0.8757 -0.1456  0.4178
 4418SOL    HW224717   1.279   4.176   5.947 -1.4184  2.7285 -1.7967
 4419SOL     OW24718   3.535   2.938  16.410  0.1897 -0.4142  0.1684
 4419SOL    HW124719   3.477   3.005  16.446  1.0213 -0.9611  2.4866
 4419SOL    HW224720   3.520   2.947  16.316  1.3934  1.6045  0.1614
 4420SOL     OW24721   4.376   1.241  13.148 -0.3736 -0.2713 -0.5662
 4420SOL    HW124722   4.357   1.154  13.114  1.5009 -0.3407 -1.4142
 4420SOL    HW224723   4.298   1.285  13.113 -0.1596  0.1848 -0.4725
 4421SOL     OW24724   2.523   0.705  13.850  0.6143 -0.1117 -0.1983
 4421SOL    HW124725   2.507   0.618  13.813 -1.5083 -0.2267  0.9902
 4421SOL    HW224726   2.536   0.686  13.942  0.4914  0.1439 -0.1272
 4422SOL     OW24727   3.276   2.470   1.856  0.1535  0.5399  0.4453
 4422SOL    HW124728   3.289   2.375   1.852  2.4467  0.8206  1.3115
 4422SOL    HW224729   3.192   2.475   1.810  0.1344  0.6897  0.4984
 4423SOL     OW24730   4.634   2.896   2.665  0.1769 -0.4462  0.7327
 4423SOL    HW124731   4.605   2.947   2.590  1.8565 -1.5992 -0.6756
 4423SOL    HW224732   4.698   2.955   2.704  1.1346 -1.8297  1.2425
 4424SOL     OW24733   4.498   4.536  14.848  0.7410 -0.1833  0.4233
 4424SOL    HW124734   4.582   4.491  14.837  1.0454  0.2215  1.0718
 4424SOL    HW224735   4.490   4.587  14.768  1.4242 -2.8213 -1.3428
 4425SOL     OW24736   3.343   2.253   7.639  0.1445  0.6116  0.1752
 4425SOL    HW124737   3.377   2.282   7.554  2.6155  0.8764  1.2404
 4425SOL    HW224738   3.426   2.215   7.668 -1.6513 -1.9874  1.9320
 4426SOL     OW24739   1.675   0.051   6.054 -0.7397  0.0176  0.2184
 4426SOL    HW124740   1.647   4.703   5.997 -0.2098 -2.6170  3.2694
 4426SOL    HW224741   1.594   0.066   6.103 -1.2885 -1.2685 -0.2838
 4427SOL     OW24742   1.977   0.467   4.006  0.2804 -0.6412 -0.2582
 4427SOL    HW124743   1.888   0.503   4.012  0.8410  0.4211  1.6819
 4427SOL    HW224744   2.018   0.493   4.088 -0.1342  0.6951 -0.4751
 4428SOL     OW24745   1.915   4.182  15.076  0.3653 -0.6419  0.6734
 4428SOL    HW124746   1.947   4.223  15.156  0.6397  2.5917 -1.1143
 4428SOL    HW224747   1.822   4.167  15.094 -0.4638  0.0844 -2.9849
 4429SOL     OW24748   1.652   2.480  17.516 -0.3507 -0.5001 -0.9576
 4429SOL    HW124749   1.613   2.529  17.444 -1.2500 -0.0382 -0.1405
 4429SOL    HW224750   1.683   2.554  17.568 -1.9314 -1.8043  1.7810
 4430SOL     OW24751   0.353   1.480  11.528  0.0085  0.4190 -0.5730
 4430SOL    HW124752   0.415   1.412  11.500 -0.1558 -0.2743  0.7967
 4430SOL    HW224753   0.359   1.479  11.623  2.5520 -2.7165 -0.7489
 4431SOL     OW24754   0.717   3.382   9.462  0.5735  0.1286  0.6081
 4431SOL    HW124755   0.711   3.474   9.435 -0.2554 -0.2777 -0.6275
 4431SOL    HW224756   0.667   3.382   9.543  0.6123  1.1050  0.6356
 4432SOL     OW24757   3.013   0.122   7.856 -0.3198  0.0768  0.0593
 4432SOL    HW124758   3.062   0.043   7.832  0.4479  0.6676 -0.2769
 4432SOL    HW224759   3.057   0.148   7.937 -2.9350  1.7857  0.9458
 4433SOL     OW24760   3.224   4.299   3.380  0.0376 -0.0350  0.1662
 4433SOL    HW124761   3.260   4.327   3.464  0.8511  0.2520 -0.2694
 4433SOL    HW224762   3.213   4.387   3.345  0.2918  0.9588  2.6186
 4434SOL     OW24763   3.180   3.852   6.257 -0.2958  0.4210 -0.6566
 4434SOL    HW124764   3.148   3.941   6.273 -0.3644 -0.0043  1.5638
 4434SOL    HW224765   3.265   3.849   6.299 -0.8689 -1.3397  0.3845
 4435SOL     OW24766   1.583   1.573   3.888  0.5085 -0.3185 -0.1702
 4435SOL    HW124767   1.616   1.484   3.878 -0.7022 -0.9191  1.2586
 4435SOL    HW224768   1.662   1.617   3.854 -0.0015  0.6741 -0.0753
 4436SOL     OW24769   3.086   1.682   9.257  0.5799 -0.3692  0.3676
 4436SOL    HW124770   3.015   1.684   9.322  0.2177  1.0627 -0.0744
 4436SOL    HW224771   3.084   1.591   9.227  2.5466  0.3417 -1.8773
 4437SOL     OW24772   1.681   1.711   8.026  0.1125 -0.2371 -0.3241
 4437SOL    HW124773   1.761   1.658   8.033  0.1522  0.1261  2.0083
 4437SOL    HW224774   1.712   1.800   8.009 -0.4455  0.2150  1.0789
 4438SOL     OW24775   1.310   2.113   3.459 -0.2001 -0.1529 -0.0572
 4438SOL    HW124776   1.302   2.028   3.417  2.0736 -0.8187  0.8291
 4438SOL    HW224777   1.335   2.161   3.380  1.5232  2.5206  2.1196
 4439SOL     OW24778   4.006   2.540   4.538  0.1590 -0.6427  0.7433
 4439SOL    HW124779   3.932   2.585   4.581 -0.2103 -0.1459 -0.4005
 4439SOL    HW224780   4.014   2.592   4.458 -0.3939  0.4508  1.3974
 4440SOL     OW24781   2.828   2.401   8.578  0.0987 -0.3750  0.1567
 4440SOL    HW124782   2.837   2.322   8.526  2.2324 -0.4632  0.6458
 4440SOL    HW224783   2.759   2.454   8.537 -1.6881 -2.2021  0.7930
 4441SOL     OW24784   1.363   0.319   9.015  0.1507 -0.6181  0.1004
 4441SOL    HW124785   1.319   0.368   8.946  0.0460  1.8033  1.9224
 4441SOL    HW224786   1.350   0.365   9.098 -3.4578 -0.2433 -0.6692
 4442SOL     OW24787   4.308   3.484   6.780  0.3148 -0.8272  0.2870
 4442SOL    HW124788   4.270   3.397   6.791 -2.8492  0.5662  0.4990
 4442SOL    HW224789   4.397   3.456   6.761  0.8767 -0.3779  2.2261
 4443SOL     OW24790   3.051   1.389   6.645  0.0944  0.0956 -0.5245
 4443SOL    HW124791   2.967   1.435   6.641  0.1609  0.3713  1.1983
 4443SOL    HW224792   3.079   1.424   6.729  1.1316  2.0776 -1.6850
 4444SOL     OW24793   3.263   1.818   1.773  0.5018 -0.2296 -0.8328
 4444SOL    HW124794   3.352   1.808   1.738  0.1140  1.5814 -2.3741
 4444SOL    HW224795   3.284   1.872   1.848 -0.2285  1.1658 -1.6457
 4445SOL     OW24796   3.482   1.577   0.701 -0.0471 -0.6439 -0.0799
 4445SOL    HW124797   3.427   1.508   0.739 -2.2346  0.7252 -0.7906
 4445SOL    HW224798   3.418   1.634   0.660 -3.3923 -2.2241  2.9768
 4446SOL     OW24799   1.035   2.764   2.953 -0.8755  0.4724 -0.0190
 4446SOL    HW124800   1.086   2.747   2.874  1.1257 -1.4247  1.6743
 4446SOL    HW224801   1.078   2.703   3.013 -0.8008  0.7675  0.2253
 4447SOL     OW24802   3.308   3.446   5.036 -0.3690  0.0727  0.0497
 4447SOL    HW124803   3.238   3.443   5.102 -0.5676  1.3836 -0.1135
 4447SOL    HW224804   3.314   3.350   5.034  0.0557  0.0924  0.3067
 4448SOL     OW24805   2.697   2.531   0.659 -0.2376 -0.0590 -0.0798
 4448SOL    HW124806   2.673   2.546   0.568  2.1154  1.4699 -0.4299
 4448SOL    HW224807   2.792   2.521   0.649 -0.1660  1.7956 -1.2411
 4449SOL     OW24808   0.653   3.149   2.988  0.4014 -0.0088 -0.3943
 4449SOL    HW124809   0.601   3.104   2.921 -2.1377 -0.6670  2.0200
 4449SOL    HW224810   0.711   3.075   3.001  1.0370  0.6579  0.5857
 4450SOL     OW24811   1.527   0.449   0.517 -0.4891 -0.5005  0.3442
 4450SOL    HW124812   1.604   0.426   0.465  0.0800 -0.3384  1.1130
 4450SOL    HW224813   1.515   0.541   0.492 -2.3716 -0.0632  2.8689
 4451SOL     OW24814   2.222   2.620   3.505 -0.2176  0.7570 -0.4451
 4451SOL    HW124815   2.258   2.542   3.547 -1.3626  1.6620  2.2325
 4451SOL    HW224816   2.136   2.629   3.547  0.6650  3.3799  0.7528
 4452SOL     OW24817   2.146   0.241   3.144 -0.9906  0.4119  0.3138
 4452SOL    HW124818   2.052   0.257   3.140 -0.5655  2.6045 -0.6420
 4452SOL    HW224819   2.168   0.225   3.052 -0.8739  1.5916  0.1349
 4453SOL     OW24820   3.736   1.105  11.852  0.4094  0.2753  0.3028
 4453SOL    HW124821   3.648   1.131  11.880 -0.4364 -1.8640 -0.3659
 4453SOL    HW224822   3.731   1.101  11.757 -0.2501 -1.6597  0.4205
 4454SOL     OW24823   2.154   0.485   2.485 -0.3423  0.0746  0.1450
 4454SOL    HW124824   2.180   0.558   2.542  0.4774 -0.7349  0.8094
 4454SOL    HW224825   2.172   0.518   2.397 -1.9576 -0.6960 -0.4675
 4455SOL     OW24826   0.304   3.333  11.883 -0.0389 -0.1963 -0.0623
 4455SOL    HW124827   0.248   3.374  11.817 -2.3340  0.4010  2.2338
 4455SOL    HW224828   0.350   3.267  11.831  0.6318 -0.3924  0.7816
 4456SOL     OW24829   4.383   4.608   8.526 -0.2451 -0.3439  0.2743
 4456SOL    HW124830   4.471   4.573   8.511 -0.4528 -1.2011  1.0989
 4456SOL    HW224831   4.389   4.630   8.619 -1.7629 -0.7286  0.4689
 4457SOL     OW24832   2.835   2.815  14.316 -0.3594 -0.2223 -0.2842
 4457SOL    HW124833   2.861   2.832  14.225 -2.6474 -0.3066 -0.9555
 4457SOL    HW224834   2.889   2.884  14.354 -0.6506  0.8411 -1.7892
 4458SOL     OW24835   4.649   4.667   2.871 -0.1965  0.4747 -0.7288
 4458SOL    HW124836   4.574   4.682   2.929  0.8031  1.6236  0.2925
 4458SOL    HW224837   4.717   4.657   2.938 -2.5727 -1.1478  1.4447
 4459SOL     OW24838   1.265   1.535  16.905 -0.4034  0.8185  0.1507
 4459SOL    HW124839   1.231   1.589  16.834  0.7704  0.3859 -0.7458
 4459SOL    HW224840   1.221   1.452  16.889 -1.2984  1.2219  0.5109
 4460SOL     OW24841   0.182   1.922  14.353  0.4985 -0.2446  0.5646
 4460SOL    HW124842   0.251   1.988  14.356 -1.0403  1.3630  0.5085
 4460SOL    HW224843   0.231   1.845  14.323 -0.7077 -1.0878  0.7459
 4461SOL     OW24844   3.952   1.297  16.244  0.0751  0.0766  0.3147
 4461SOL    HW124845   3.884   1.361  16.224  0.1490 -0.1395 -0.5855
 4461SOL    HW224846   3.908   1.245  16.312  1.5007 -2.7123 -0.8898
 4462SOL     OW24847   0.227   4.411   0.761 -0.4151 -0.3392  0.1293
 4462SOL    HW124848   0.217   4.343   0.827  0.5149  1.0358  1.7129
 4462SOL    HW224849   0.211   4.487   0.817 -2.7234  0.5090 -1.7230
 4463SOL     OW24850   3.561   4.631   4.490 -0.0346 -0.1586  0.1307
 4463SOL    HW124851   3.642   4.682   4.495 -0.3936  0.5362 -1.2228
 4463SOL    HW224852   3.499   4.702   4.508 -1.9392 -0.8697 -3.5964
 4464SOL     OW24853   3.826   1.942   4.601 -0.0533 -0.0796  0.7181
 4464SOL    HW124854   3.870   1.870   4.556  0.7132  1.1320 -0.4518
 4464SOL    HW224855   3.896   1.982   4.653 -0.7534  1.6512  0.3443
 4465SOL     OW24856   2.457   3.742   1.035 -0.0240  0.3482  0.1653
 4465SOL    HW124857   2.479   3.773   0.947 -0.5683 -0.0913 -0.1263
 4465SOL    HW224858   2.459   3.823   1.086 -2.2384 -0.8491  2.1736
 4466SOL     OW24859   2.032   3.940   2.160  0.2249 -0.5334  0.0054
 4466SOL    HW124860   2.101   3.954   2.225  0.7775 -0.2478 -0.6424
 4466SOL    HW224861   2.080   3.908   2.084 -1.3222 -0.9671 -0.7905
 4467SOL     OW24862   4.584   3.109  15.098  0.1054 -0.0624  0.7138
 4467SOL    HW124863   4.601   3.199  15.123 -0.9860  0.0175  1.1650
 4467SOL    HW224864   4.638   3.090  15.021 -1.7644 -2.0949 -0.0850
 4468SOL     OW24865   0.831   4.502   7.806 -0.0127  0.2827  0.5085
 4468SOL    HW124866   0.746   4.540   7.828 -0.8203 -1.5036  0.4680
 4468SOL    HW224867   0.877   4.584   7.787 -0.4442  1.0410  2.7432
 4469SOL     OW24868   4.171   0.374   8.493  0.2812  0.1967  0.4124
 4469SOL    HW124869   4.229   0.439   8.455  1.4901 -0.1205  1.7539
 4469SOL    HW224870   4.142   0.421   8.571 -1.3832  0.1770 -0.1937
 4470SOL     OW24871   2.925   3.060   3.752  0.7414  0.1188  0.0201
 4470SOL    HW124872   2.932   3.007   3.674 -1.9089 -0.9844  0.5277
 4470SOL    HW224873   2.830   3.062   3.758  0.7617 -0.8475  0.6477
 4471SOL     OW24874   3.812   3.076  12.896 -0.5695  0.0514  0.1091
 4471SOL    HW124875   3.876   3.113  12.836 -0.0191  2.0569  1.9529
 4471SOL    HW224876   3.857   3.095  12.979 -0.1344 -1.5692  0.2555
 4472SOL     OW24877   3.938   4.493   4.885  0.4169 -0.3584 -0.0961
 4472SOL    HW124878   3.886   4.571   4.904 -0.0155  0.4994 -4.9594
 4472SOL    HW224879   3.981   4.505   4.800  1.2997  0.4391  0.4564
 4473SOL     OW24880   2.653   4.278   8.106 -0.5713 -0.0976  0.1039
 4473SOL    HW124881   2.589   4.249   8.041 -0.1575 -1.0724  0.1240
 4473SOL    HW224882   2.603   4.251   8.183  1.9452 -2.4033  0.9284
 4474SOL     OW24883   3.287   1.144  10.138 -0.7687 -0.1840  0.7083
 4474SOL    HW124884   3.336   1.127  10.219 -2.6260  0.4160  1.9603
 4474SOL    HW224885   3.198   1.129  10.171 -1.1245 -1.6539 -0.9192
 4475SOL     OW24886   4.438   2.985  14.104  0.2284 -0.3433  0.0875
 4475SOL    HW124887   4.497   2.928  14.154 -0.8780 -0.6615  1.0499
 4475SOL    HW224888   4.498   3.011  14.035 -0.9701  2.0674 -0.0471
 4476SOL     OW24889   0.238   0.181   7.009  0.3107 -0.4543  0.2070
 4476SOL    HW124890   0.281   0.265   7.022 -0.1942 -0.4619  2.0190
 4476SOL    HW224891   0.185   0.195   6.931 -0.6854 -0.7383  0.8196
 4477SOL     OW24892   1.324   2.183   8.012  0.3480 -0.0475  0.6316
 4477SOL    HW124893   1.283   2.252   8.063  0.7648 -1.1103  2.3822
 4477SOL    HW224894   1.245   2.131   7.996 -1.7013  3.4459 -0.4880
 4478SOL     OW24895   4.408   3.361   3.084 -0.0509 -0.2613 -0.0838
 4478SOL    HW124896   4.474   3.317   3.029 -1.6755 -2.4125 -0.3445
 4478SOL    HW224897   4.379   3.284   3.134 -1.4659  0.9373  0.9179
 4479SOL     OW24898   0.260   0.083  17.003  0.1833 -0.6496 -0.7064
 4479SOL    HW124899   0.336   0.051  16.955  1.4248  0.7051  0.3375
 4479SOL    HW224900   0.277   0.173  16.975  0.1601 -0.4136  0.0349
 4480SOL     OW24901   4.208   2.336   7.527  0.4407 -0.7066  0.0149
 4480SOL    HW124902   4.279   2.395   7.503 -0.6897  0.3958 -0.6193
 4480SOL    HW224903   4.247   2.303   7.608 -0.8445 -1.6086  0.2694
 4481SOL     OW24904   1.532   1.094   1.131  0.3797  0.0400  0.4409
 4481SOL    HW124905   1.575   1.072   1.214 -0.4818  0.4611  0.9988
 4481SOL    HW224906   1.588   1.045   1.070 -0.3964  1.3265 -1.3015
 4482SOL     OW24907   3.020   0.418  12.007 -0.1098 -0.3894  0.8584
 4482SOL    HW124908   3.023   0.484  11.938  0.1494 -1.1220  0.1655
 4482SOL    HW224909   2.951   0.360  11.976 -0.1686  0.1427  0.0101
 4483SOL     OW24910   0.942   4.655   2.349  0.2774 -0.2016 -0.4189
 4483SOL    HW124911   0.877   4.623   2.411  1.9089 -1.6818  0.5265
 4483SOL    HW224912   0.976   0.013   2.384 -0.1674  0.6075 -1.8700
 4484SOL     OW24913   2.440   3.387   6.990 -0.1880 -0.1672  0.5677
 4484SOL    HW124914   2.510   3.323   7.002 -0.0695 -0.2393 -0.5440
 4484SOL    HW224915   2.488   3.469   6.988 -1.7654  0.7395  0.1716
 4485SOL     OW24916   0.823   3.769   3.598 -0.3303  0.4160  0.0114
 4485SOL    HW124917   0.889   3.822   3.641 -1.2716 -0.1570  2.1608
 4485SOL    HW224918   0.875   3.690   3.586  1.8722  1.9424 -0.3848
 4486SOL     OW24919   1.022   4.155   6.273 -0.0642  0.1095  0.0472
 4486SOL    HW124920   1.094   4.216   6.290  2.0699 -2.3413 -0.3514
 4486SOL    HW224921   1.072   4.075   6.287 -0.3705 -0.1103 -0.1415
 4487SOL     OW24922   3.425   3.202  10.931 -0.2780  0.3497 -0.0556
 4487SOL    HW124923   3.400   3.112  10.909  0.5453  0.9146 -3.2661
 4487SOL    HW224924   3.393   3.207  11.021 -1.8517  1.7730 -0.6801
 4488SOL     OW24925   3.428   1.568   9.011 -0.6681 -0.0822 -0.1710
 4488SOL    HW124926   3.510   1.609   9.038 -0.3784 -1.2326  0.7089
 4488SOL    HW224927   3.440   1.563   8.916  3.9291  0.9901  0.3499
 4489SOL     OW24928   3.005   0.023   8.803 -0.0979 -0.5113  0.2512
 4489SOL    HW124929   3.018   0.116   8.785 -1.0909 -0.5767 -0.8084
 4489SOL    HW224930   3.091   4.716   8.775  0.1480 -0.4442  0.9270
 4490SOL     OW24931   0.460   3.948   6.358 -0.5650 -0.4201  0.2959
 4490SOL    HW124932   0.441   3.855   6.370 -3.7707  0.0365 -1.2110
 4490SOL    HW224933   0.521   3.978   6.425  0.8120  0.2193 -1.2348
 4491SOL     OW24934   1.907   3.506   7.619  0.1451  0.1292 -0.1934
 4491SOL    HW124935   1.953   3.429   7.584 -0.6519  0.2840 -1.5363
 4491SOL    HW224936   1.885   3.549   7.537 -3.3873 -1.7401 -0.2182
 4492SOL     OW24937   1.471   4.076   3.563  0.1863 -0.2952  0.4403
 4492SOL    HW124938   1.546   4.077   3.622  1.5495  1.0193 -1.3003
 4492SOL    HW224939   1.501   4.007   3.503  1.6197  0.1234  0.6627
 4493SOL     OW24940   1.844   1.568   9.582  0.2715  0.3825  0.0930
 4493SOL    HW124941   1.834   1.664   9.577 -0.3471  0.2370 -1.7227
 4493SOL    HW224942   1.835   1.548   9.675  0.6726 -1.7680 -0.3464
 4494SOL     OW24943   1.239   1.100   6.550  0.2077  0.6968 -0.2034
 4494SOL    HW124944   1.236   1.169   6.484  0.8848  0.6084 -0.3259
 4494SOL    HW224945   1.203   1.151   6.623  2.0604  1.5605  0.1088
 4495SOL     OW24946   3.739   3.001  16.094 -0.2825 -0.1066  0.4282
 4495SOL    HW124947   3.795   3.017  16.017  1.5215 -1.9337  1.3841
 4495SOL    HW224948   3.783   3.058  16.157 -0.7519  1.0587 -0.2905
 4496SOL     OW24949   1.101   1.967  12.488  0.1781  0.1153 -0.0214
 4496SOL    HW124950   1.092   1.965  12.583  2.6457 -0.3163  0.2139
 4496SOL    HW224951   1.074   1.876  12.473 -2.2059  1.0379 -1.1746
 4497SOL     OW24952   2.539   0.292   7.104  0.3882  0.1060 -0.2733
 4497SOL    HW124953   2.630   0.297   7.134  0.6225 -0.0315 -0.9469
 4497SOL    HW224954   2.550   0.208   7.058  0.2177  0.2238 -0.5294
 4498SOL     OW24955   4.540   1.494   1.830 -0.0622 -0.6262  0.2400
 4498SOL    HW124956   4.559   1.467   1.920 -2.1934 -1.4550  0.4433
 4498SOL    HW224957   4.547   1.408   1.789 -0.6732  0.3101 -1.8512
 4499SOL     OW24958   3.460   1.800   2.400 -0.6511  0.1432  0.2393
 4499SOL    HW124959   3.535   1.742   2.388 -0.5601  0.9512 -2.8859
 4499SOL    HW224960   3.411   1.778   2.322 -1.6681 -3.8149  1.9781
 4500SOL     OW24961   1.536   0.993   9.596  0.1669  0.3140  0.5387
 4500SOL    HW124962   1.554   0.910   9.553  1.8839  0.5350  0.8484
 4500SOL    HW224963   1.590   0.992   9.675 -0.5489  0.3368  1.0242
 4501SOL     OW24964   2.386   3.337   5.880  0.3541 -0.5862  0.3716
 4501SOL    HW124965   2.475   3.364   5.856  0.3451  0.0442  1.0431
 4501SOL    HW224966   2.398   3.290   5.963 -1.3190 -1.1213  0.3023
 4502SOL     OW24967   1.995   2.089   7.972 -0.4447  0.3276  0.1102
 4502SOL    HW124968   1.936   2.017   7.996 -0.3048  1.2393  3.2189
 4502SOL    HW224969   1.947   2.168   8.000  1.0949  0.6263  1.8739
 4503SOL     OW24970   0.365   1.612  16.731  0.1837 -0.2639 -0.4776
 4503SOL    HW124971   0.437   1.563  16.690 -0.3041 -1.5833  0.2224
 4503SOL    HW224972   0.381   1.601  16.825  0.6649 -0.3832 -0.5735
 4504SOL     OW24973   2.640   3.119   3.705  0.4454  0.0053 -0.1689
 4504SOL    HW124974   2.652   3.058   3.632 -0.0421  1.5867 -1.5694
 4504SOL    HW224975   2.561   3.087   3.748 -0.3709  1.7180 -0.3632
 4505SOL     OW24976   1.509   0.160   6.868 -0.2560  0.2727 -0.2090
 4505SOL    HW124977   1.458   0.082   6.888  1.1840 -0.7370 -0.5604
 4505SOL    HW224978   1.576   0.139   6.803  2.2258  0.2818  2.3642
 4506SOL     OW24979   3.994   3.700   7.113 -0.1481  0.4555  0.2282
 4506SOL    HW124980   3.989   3.608   7.139  2.7947  0.3730  0.5154
 4506SOL    HW224981   3.904   3.714   7.083 -0.0781  0.9408  0.2445
 4507SOL     OW24982   2.165   1.402   2.887  0.4486 -0.5375  0.0161
 4507SOL    HW124983   2.151   1.451   2.806 -0.2480 -0.2677  0.3093
 4507SOL    HW224984   2.087   1.347   2.882  0.2739 -0.3228  0.4300
 4508SOL     OW24985   3.707   0.768   7.610 -0.6245 -0.0517  0.3100
 4508SOL    HW124986   3.680   0.742   7.522 -1.9384 -0.1901  0.7520
 4508SOL    HW224987   3.760   0.692   7.636  1.5829  0.8462 -1.5575
 4509SOL     OW24988   2.630   3.111   5.097 -0.2186  0.3372 -0.6553
 4509SOL    HW124989   2.547   3.089   5.055 -0.4308 -0.4211  0.1508
 4509SOL    HW224990   2.617   3.204   5.118 -1.4458  0.1301 -0.5400
 4510SOL     OW24991   2.949   0.975   3.634  0.8633 -0.2958  0.0942
 4510SOL    HW124992   3.026   1.016   3.674  2.4385 -0.4907 -2.7940
 4510SOL    HW224993   2.936   1.029   3.556  3.6809  2.1968  1.3325
 4511SOL     OW24994   0.545   2.995   7.304  0.0187  0.4224 -0.1536
 4511SOL    HW124995   0.603   2.967   7.233 -0.2728  0.8307 -0.5536
 4511SOL    HW224996   0.577   3.084   7.311 -1.6793  1.0890 -0.7982
 4512SOL     OW24997   4.249   2.819   4.522  0.0161 -0.4076  0.2122
 4512SOL    HW124998   4.175   2.870   4.488 -0.3957 -1.3359 -0.3001
 4512SOL    HW224999   4.291   2.799   4.438 -0.3078 -2.4561  0.5294
 4513SOL     OW25000   3.586   2.624  12.082  0.2685  0.2110  0.7050
 4513SOL    HW125001   3.512   2.592  12.029 -0.5630  1.4821  1.1093
 4513SOL    HW225002   3.588   2.716  12.055 -0.5493 -0.0437 -0.2283
 4514SOL     OW25003   3.897   4.131   1.820  0.4714 -0.5279 -0.5039
 4514SOL    HW125004   3.844   4.113   1.743  0.4020 -0.7219 -0.4096
 4514SOL    HW225005   3.932   4.217   1.797 -0.2319  0.1550  0.9290
 4515SOL     OW25006   2.317   0.078  11.836 -0.2804  0.0347  0.1379
 4515SOL    HW125007   2.279   0.105  11.752  2.4250  0.8357 -0.8335
 4515SOL    HW225008   2.262   0.002  11.856 -2.2012  0.9934 -1.4479
 4516SOL     OW25009   0.565   1.014  13.777  0.7848 -0.0571  0.3358
 4516SOL    HW125010   0.512   0.952  13.827  1.8712 -0.7828  0.5769
 4516SOL    HW225011   0.626   1.047  13.843  0.9425  2.2787 -0.9839
 4517SOL     OW25012   4.482   0.286  15.191 -0.3025  0.3304 -0.2677
 4517SOL    HW125013   4.430   0.314  15.116 -1.3568 -2.6536 -0.6451
 4517SOL    HW225014   4.412   0.259  15.251  1.6159  1.4886  2.4788
 4518SOL     OW25015   0.071   4.414  12.058  0.0189 -0.1213 -0.0118
 4518SOL    HW125016   0.032   4.364  12.130  1.1725 -2.2438 -0.8684
 4518SOL    HW225017   0.049   4.357  11.984 -2.1823 -0.7391  1.0980
 4519SOL     OW25018   2.675   1.027   3.491 -0.0024  0.4265  0.2581
 4519SOL    HW125019   2.645   1.092   3.427 -2.9088 -0.0860  1.0988
 4519SOL    HW225020   2.748   0.995   3.437 -1.4308 -1.8092 -0.3270
 4520SOL     OW25021   3.726   1.798   5.494 -0.3482 -0.2428 -0.1840
 4520SOL    HW125022   3.710   1.706   5.511  0.3894 -0.6530 -1.6673
 4520SOL    HW225023   3.732   1.833   5.582 -0.2595  0.3003 -0.4029
 4521SOL     OW25024   4.203   4.610  13.049 -0.1523 -0.0728  0.0076
 4521SOL    HW125025   4.200   4.522  13.010 -3.2695 -0.3419  0.8903
 4521SOL    HW225026   4.114   4.636  13.025 -0.2025 -0.2863 -0.0435
 4522SOL     OW25027   1.345   3.429   7.804 -0.2559  0.3181  0.2277
 4522SOL    HW125028   1.375   3.500   7.861 -1.8303  0.6093  0.7126
 4522SOL    HW225029   1.252   3.451   7.797 -0.0900  0.8509 -0.2916
 4523SOL     OW25030   0.966   2.191   8.601 -0.2698 -0.1091  0.0789
 4523SOL    HW125031   1.004   2.175   8.687 -1.4602 -1.6050  0.3209
 4523SOL    HW225032   0.879   2.151   8.609 -0.2645 -0.5256 -1.9933
 4524SOL     OW25033   3.635   0.001   1.360  0.8634  0.5808 -0.5113
 4524SOL    HW125034   3.647   0.047   1.277  0.7095  1.7363  0.0912
 4524SOL    HW225035   3.629   4.635   1.330 -2.2510  0.6150  0.0470
 4525SOL     OW25036   0.418   3.883   4.563  0.3091  0.5631 -0.0284
 4525SOL    HW125037   0.418   3.819   4.492  1.0208  0.7964 -0.2320
 4525SOL    HW225038   0.341   3.847   4.607  0.7889  1.2465  1.3901
 4526SOL     OW25039   0.269   0.067   5.532 -0.2242  0.5398 -0.1252
 4526SOL    HW125040   0.182   0.055   5.568  0.2742 -1.6412  0.3646
 4526SOL    HW225041   0.308   0.109   5.609 -1.5124 -3.0106  2.4521
 4527SOL     OW25042   1.749   4.647   9.154 -0.2472  0.0944 -0.3992
 4527SOL    HW125043   1.820   4.587   9.174 -1.1838 -1.3574 -1.4718
 4527SOL    HW225044   1.797   0.005   9.149 -0.0164 -0.0497 -0.5716
 4528SOL     OW25045   0.607   0.644   7.437  0.0257  0.3539 -0.6889
 4528SOL    HW125046   0.601   0.701   7.514  1.2159 -0.3004 -0.1145
 4528SOL    HW225047   0.675   0.697   7.396 -0.3811  1.5301  0.1376
 4529SOL     OW25048   0.186   3.435  17.562  0.2716  0.0647 -0.3218
 4529SOL    HW125049   0.155   3.348  17.537 -0.3789  0.2794 -0.2538
 4529SOL    HW225050   0.114   3.493  17.539 -0.0332  0.6485  2.0617
 4530SOL     OW25051   0.801   2.456   4.742  0.4668  0.4112 -0.0003
 4530SOL    HW125052   0.768   2.366   4.731 -1.2795  1.1900 -1.2222
 4530SOL    HW225053   0.894   2.441   4.759  0.2792 -0.2042  0.4919
 4531SOL     OW25054   2.471   3.393   3.236 -0.4721  0.0864  0.0050
 4531SOL    HW125055   2.400   3.358   3.182  1.0395 -1.4924 -0.9326
 4531SOL    HW225056   2.448   3.350   3.319 -1.8910 -1.1296 -1.0187
 4532SOL     OW25057   0.061   3.986   5.251  0.0014 -0.2944 -0.2113
 4532SOL    HW125058   0.033   4.037   5.327  1.6526  2.2217 -1.2949
 4532SOL    HW225059   0.017   3.901   5.259  1.7810 -1.2146  0.0457
 4533SOL     OW25060   1.026   1.420   8.164 -0.0209  0.3822 -0.1612
 4533SOL    HW125061   0.981   1.480   8.105  0.5194  2.2319  1.2817
 4533SOL    HW225062   1.107   1.466   8.187  0.9287  0.9012 -4.5845
 4534SOL     OW25063   1.774   2.026   1.658 -0.1291  0.1562 -0.0744
 4534SOL    HW125064   1.719   1.993   1.587 -1.4840 -0.8533  1.4376
 4534SOL    HW225065   1.854   2.060   1.618  1.0118  1.9928  3.7508
 4535SOL     OW25066   3.291   4.586   0.010  0.3311  0.2186 -0.0401
 4535SOL    HW125067   3.372   4.636   0.014  0.0003  0.7440  0.1093
 4535SOL    HW225068   3.241   4.644  17.654  1.8163 -0.5135 -2.0956
 4536SOL     OW25069   3.421   1.999   5.262  0.1923  0.3680 -0.1254
 4536SOL    HW125070   3.357   2.010   5.332 -0.2641 -0.7346 -0.3645
 4536SOL    HW225071   3.489   1.935   5.287 -0.0029 -0.3433 -1.4051
 4537SOL     OW25072   0.449   2.912   6.174 -0.1091 -0.2094 -0.3132
 4537SOL    HW125073   0.503   2.923   6.097  0.1369  1.7362  0.1305
 4537SOL    HW225074   0.465   2.821   6.198 -1.7354 -0.3422  0.3398
 4538SOL     OW25075   2.781   2.718   6.306 -0.3159 -0.3345  0.0329
 4538SOL    HW125076   2.865   2.714   6.351 -0.7860 -2.6033  0.6860
 4538SOL    HW225077   2.723   2.766   6.364 -1.6269 -1.8812  0.0111
 4539SOL     OW25078   0.814   0.729   1.891 -0.3937 -0.3207 -0.2736
 4539SOL    HW125079   0.858   0.757   1.811  0.1374 -0.6057 -0.0782
 4539SOL    HW225080   0.769   0.810   1.916  0.2818 -0.0558  0.0902
 4540SOL     OW25081   1.661   0.109   4.143 -0.4092  0.4756  0.1752
 4540SOL    HW125082   1.678   0.020   4.173  1.0127  0.1007 -1.8141
 4540SOL    HW225083   1.649   0.095   4.050 -1.0003  0.9625  0.1764
 4541SOL     OW25084   0.256   3.358   1.922 -0.3985 -0.0587  0.0163
 4541SOL    HW125085   0.327   3.377   1.861  0.0599 -0.3941  0.4366
 4541SOL    HW225086   0.236   3.447   1.950 -0.3066 -0.7822  2.4042
 4542SOL     OW25087   4.277   2.553   0.409  0.3413  0.1381 -0.0745
 4542SOL    HW125088   4.364   2.590   0.392  1.6345 -1.8069  2.3979
 4542SOL    HW225089   4.248   2.598   0.488 -4.5275 -3.6311  0.2567
 4543SOL     OW25090   3.458   0.557   6.065  0.1117 -0.0747  0.4236
 4543SOL    HW125091   3.516   0.538   5.991 -1.0137 -0.9824 -0.2139
 4543SOL    HW225092   3.405   0.629   6.031  1.6356  0.5543 -0.6332
 4544SOL     OW25093   1.033   3.919   3.797  0.3225  0.7537 -0.0337
 4544SOL    HW125094   1.036   3.975   3.719 -1.3497  1.7513  0.6449
 4544SOL    HW225095   1.127   3.897   3.800 -0.0894 -0.9602  0.3795
 4545SOL     OW25096   0.896   4.198   4.080  0.6655 -0.2365  0.0523
 4545SOL    HW125097   0.819   4.253   4.065  0.7765  0.6960  2.9036
 4545SOL    HW225098   0.903   4.145   4.000  1.5211  1.3022 -0.8923
 4546SOL     OW25099   3.096   1.922   9.478  0.3189 -0.0837 -0.1899
 4546SOL    HW125100   3.141   1.982   9.418  2.4318 -0.0601  1.4309
 4546SOL    HW225101   3.029   1.886   9.419  0.3730 -0.5935  0.0619
 4547SOL     OW25102   0.185   2.385   1.131 -0.1133  0.0288  0.6700
 4547SOL    HW125103   0.218   2.354   1.048 -0.5824 -1.0896  0.9056
 4547SOL    HW225104   0.149   2.468   1.098  0.4318  0.3449  0.8768
 4548SOL     OW25105   2.720   3.423  13.700  0.2013  0.6266  0.2803
 4548SOL    HW125106   2.797   3.369  13.681 -0.2502 -0.7001  2.2022
 4548SOL    HW225107   2.685   3.443  13.613  1.5175 -1.0352 -0.6155
 4549SOL     OW25108   3.566   1.695   4.130 -0.3650 -0.0523 -0.1282
 4549SOL    HW125109   3.610   1.736   4.055 -1.1898 -0.0094 -0.5868
 4549SOL    HW225110   3.480   1.734   4.115 -0.2864  1.2187  2.6730
 4550SOL     OW25111   3.880   3.118  16.944  0.1350  0.4830 -0.0446
 4550SOL    HW125112   3.875   3.023  16.940 -1.9278  0.6848 -2.1601
 4550SOL    HW225113   3.953   3.136  16.884 -1.1268 -0.9819 -2.0193
 4551SOL     OW25114   0.351   2.229   8.104  0.4451 -0.5631 -0.0613
 4551SOL    HW125115   0.374   2.317   8.074  2.2489 -0.9697  0.1186
 4551SOL    HW225116   0.428   2.205   8.156 -0.3112 -2.4294  0.1859
 4552SOL     OW25117   3.455   4.490   6.877  0.2461  0.1491 -0.5845
 4552SOL    HW125118   3.468   4.418   6.938 -3.6987  0.6955  0.9108
 4552SOL    HW225119   3.484   4.569   6.923  0.5791  0.3781 -1.1927
 4553SOL     OW25120   2.930   4.414   9.961  0.2998  0.1564 -0.0567
 4553SOL    HW125121   2.868   4.345   9.937  1.8616 -0.7141 -1.5422
 4553SOL    HW225122   2.919   4.458   9.876 -0.3565 -0.4060 -0.2599
 4554SOL     OW25123   1.606   4.361   6.879 -0.3160 -0.1290  0.0203
 4554SOL    HW125124   1.546   4.317   6.819  0.5012 -1.4692  0.1890
 4554SOL    HW225125   1.628   4.289   6.938 -1.0447  0.3887  0.9136
 4555SOL     OW25126   4.086   2.637   0.870  0.0814 -0.2705 -0.5350
 4555SOL    HW125127   4.139   2.568   0.830  0.1025 -0.4036 -0.2794
 4555SOL    HW225128   4.154   2.702   0.888 -0.6566 -0.6804  3.9447
 4556SOL     OW25129   2.426   3.336   2.094 -0.0522 -1.1838 -0.2192
 4556SOL    HW125130   2.333   3.322   2.112 -0.0638 -1.6998 -0.7078
 4556SOL    HW225131   2.463   3.380   2.171 -1.0914  0.5399 -0.6982
 4557SOL     OW25132   2.445   2.833  11.463 -0.1345 -0.9412  0.1600
 4557SOL    HW125133   2.518   2.894  11.475 -0.6915 -0.5364  1.4137
 4557SOL    HW225134   2.484   2.771  11.401  1.2824  1.3734 -1.2765
 4558SOL     OW25135   2.721   0.253   3.400  0.1955  0.1077  0.3866
 4558SOL    HW125136   2.752   0.313   3.332  2.5259 -0.9991  0.4917
 4558SOL    HW225137   2.764   0.174   3.369  1.1011  1.1020 -0.8428
 4559SOL     OW25138   3.310   1.063   6.613  0.0557  0.0818  0.2831
 4559SOL    HW125139   3.313   0.979   6.568  0.2591  0.7257 -0.9173
 4559SOL    HW225140   3.386   1.063   6.671 -0.4728  4.0662  1.0005
 4560SOL     OW25141   2.144   2.286   0.155 -0.8524 -0.1589  0.0896
 4560SOL    HW125142   2.161   2.201   0.114  0.3877 -1.0423  2.5023
 4560SOL    HW225143   2.058   2.269   0.193 -1.2804 -0.2119 -0.8834
 4561SOL     OW25144   3.216   0.420   6.375  0.2335 -0.4110  0.0861
 4561SOL    HW125145   3.266   0.460   6.447  0.0362 -2.1956  1.1906
 4561SOL    HW225146   3.128   0.418   6.412  0.6576 -1.4656  1.0102
 4562SOL     OW25147   4.720   3.180   6.002 -0.2118 -0.4418  0.1571
 4562SOL    HW125148   0.011   3.164   6.095  0.0861 -1.5656 -0.0934
 4562SOL    HW225149   0.088   3.179   5.976  0.9042  2.4020  3.8976
 4563SOL     OW25150   2.655   2.646   2.904 -0.5991 -0.2905  0.2408
 4563SOL    HW125151   2.670   2.726   2.853  2.3066 -1.4384 -0.6632
 4563SOL    HW225152   2.742   2.606   2.904 -0.6599 -0.4459 -1.2296
 4564SOL     OW25153   0.553   3.211   9.301 -0.2248  0.2075 -0.2654
 4564SOL    HW125154   0.514   3.281   9.249 -1.4772  0.1728  0.6382
 4564SOL    HW225155   0.643   3.245   9.301 -0.1392 -0.0210  0.8586
 4565SOL     OW25156   0.690   0.390  17.483 -0.1646  0.7325  0.5168
 4565SOL    HW125157   0.711   0.413  17.574  0.9750  2.3595 -0.1413
 4565SOL    HW225158   0.596   0.406  17.485 -0.1063  1.1721 -0.3159
 4566SOL     OW25159   2.636   1.529   0.664  0.3471 -0.0789 -0.6729
 4566SOL    HW125160   2.650   1.479   0.584  0.3371 -0.5530 -0.3797
 4566SOL    HW225161   2.728   1.548   0.685  0.0261  1.3096 -0.5001
 4567SOL     OW25162   1.170   4.509   0.227 -0.1445  0.4413 -0.4294
 4567SOL    HW125163   1.128   4.465   0.152 -2.8599  2.3265 -0.0337
 4567SOL    HW225164   1.168   4.599   0.193 -1.3865  1.5712  2.6969
 4568SOL     OW25165   1.844   3.593   7.357  0.3509  0.3288 -0.1475
 4568SOL    HW125166   1.803   3.509   7.337  1.2769  0.0277 -0.7748
 4568SOL    HW225167   1.903   3.609   7.285  1.4308 -0.9200  0.4575
 4569SOL     OW25168   2.067   0.595   3.599 -0.8376 -0.1397  0.3949
 4569SOL    HW125169   2.050   0.536   3.526  0.3902  1.0347 -0.8476
 4569SOL    HW225170   2.132   0.661   3.575 -1.2659  0.6200  1.2969
 4570SOL     OW25171   3.471   4.195   0.920 -0.2504  0.5956  0.1086
 4570SOL    HW125172   3.533   4.163   0.854 -0.9412  0.8583 -0.6682
 4570SOL    HW225173   3.514   4.279   0.939 -0.8435  0.9547 -0.1616
 4571SOL     OW25174   3.386   0.522   1.705 -0.1824  0.1122 -0.4108
 4571SOL    HW125175   3.297   0.535   1.673  0.1657  1.9023 -0.6378
 4571SOL    HW225176   3.425   0.609   1.701 -0.5450  0.1718 -2.4710
 4572SOL     OW25177   1.952   4.002   6.229 -0.3243  0.2896  0.6286
 4572SOL    HW125178   2.010   4.005   6.153  0.7224 -0.1696  1.4107
 4572SOL    HW225179   1.870   4.032   6.191 -0.2789 -1.3359 -0.7735
 4573SOL     OW25180   3.899   2.887   7.180  0.3511 -0.5605 -0.2643
 4573SOL    HW125181   3.841   2.939   7.126 -1.7006 -0.1396  2.3613
 4573SOL    HW225182   3.879   2.798   7.149  0.1400 -0.7926  0.5541
 4574SOL     OW25183   1.407   2.827   5.969  0.5735 -0.0057  0.4823
 4574SOL    HW125184   1.438   2.765   6.035  1.4588 -0.8937 -0.7841
 4574SOL    HW225185   1.471   2.898   5.974  0.9524 -0.3352  0.3364
 4575SOL     OW25186   0.052   4.443  16.847 -0.9238  0.2024  0.1224
 4575SOL    HW125187   0.142   4.461  16.820 -1.3423  1.9464 -0.1520
 4575SOL    HW225188   0.060   4.376  16.915 -0.6280 -0.0957 -0.2057
 4576SOL     OW25189   1.372   2.545   8.986 -0.0183 -0.5857 -0.2224
 4576SOL    HW125190   1.280   2.523   8.999 -0.1156 -1.4163 -2.2150
 4576SOL    HW225191   1.375   2.640   8.995 -0.3233 -0.2672 -3.5160
 4577SOL     OW25192   3.736   0.423   8.241 -0.2607  0.1611  0.2479
 4577SOL    HW125193   3.802   0.404   8.307 -1.8747  0.1300  1.8303
 4577SOL    HW225194   3.746   0.336   8.202  0.5581  0.8007 -0.9890
 4578SOL     OW25195   4.324   3.733  14.154 -0.1517  0.4979 -0.1833
 4578SOL    HW125196   4.401   3.742  14.210 -0.7204  1.3596  0.4470
 4578SOL    HW225197   4.336   3.813  14.103  3.2257 -2.3566 -3.8502
 4579SOL     OW25198   0.467   1.810   8.200  0.0918 -0.5920  0.5545
 4579SOL    HW125199   0.474   1.870   8.125  1.5254  0.5348  1.5962
 4579SOL    HW225200   0.408   1.860   8.256 -0.0896  0.4214 -0.5243
 4580SOL     OW25201   0.553   0.897  15.387 -0.9235  0.0385  0.1388
 4580SOL    HW125202   0.564   0.992  15.396 -2.7177  0.1205  1.4040
 4580SOL    HW225203   0.483   0.889  15.321 -1.5418 -2.4377  1.1190
 4581SOL     OW25204   0.081   3.626   6.740 -0.3496 -0.0270  0.7456
 4581SOL    HW125205   0.043   3.647   6.825 -1.2717  0.1109  0.2928
 4581SOL    HW225206   0.166   3.670   6.738 -0.8766  0.9828  0.7817
 4582SOL     OW25207   2.727   2.884   5.217  0.0434 -0.0662  0.2589
 4582SOL    HW125208   2.715   2.966   5.169 -1.4872 -0.1764  0.4570
 4582SOL    HW225209   2.763   2.832   5.146 -2.4106  1.3221 -2.0004
 4583SOL     OW25210   0.626   1.875   8.704  0.1356  0.5493 -0.4445
 4583SOL    HW125211   0.588   1.836   8.783  1.3261 -0.2253 -0.2479
 4583SOL    HW225212   0.548   1.870   8.649 -0.2770  1.5396  0.0490
 4584SOL     OW25213   1.425   3.372   6.600 -0.0913  0.1474 -0.4818
 4584SOL    HW125214   1.444   3.461   6.631 -1.7245  0.0242  0.8858
 4584SOL    HW225215   1.398   3.326   6.680  2.1921 -1.2294 -0.5290
 4585SOL     OW25216   4.353   0.734   8.611  0.1293 -0.3685  0.3490
 4585SOL    HW125217   4.327   0.818   8.574 -2.8283 -0.4958  2.1474
 4585SOL    HW225218   4.345   0.674   8.537  0.4805  0.5356 -0.4185
 4586SOL     OW25219   1.959   4.667  11.676 -0.1582 -0.6681  0.5812
 4586SOL    HW125220   1.881   4.713  11.644  1.1380  0.4127 -1.0694
 4586SOL    HW225221   1.946   4.580  11.639  1.6314 -0.3641 -0.7763
 4587SOL     OW25222   1.713   1.749   2.726 -0.0704 -0.6328 -0.5169
 4587SOL    HW125223   1.623   1.722   2.744  0.6189 -1.2328  2.0244
 4587SOL    HW225224   1.760   1.668   2.750 -1.6619 -1.6780 -0.9429
 4588SOL     OW25225   3.143   1.922   1.233 -0.1070 -0.0342 -0.4282
 4588SOL    HW125226   3.212   1.883   1.179 -0.9124  0.3080 -1.7088
 4588SOL    HW225227   3.070   1.861   1.218  0.2885 -0.5720 -0.1776
 4589SOL     OW25228   3.906   2.081   8.837  0.1909 -0.4905 -0.5693
 4589SOL    HW125229   3.910   2.082   8.933 -0.5004 -2.3550 -0.5208
 4589SOL    HW225230   3.877   1.991   8.821 -0.9714 -0.5720  1.9633
 4590SOL     OW25231   2.996   1.605   2.646  0.2413 -0.0036  0.4275
 4590SOL    HW125232   2.996   1.618   2.741  1.4041  1.2826  0.2644
 4590SOL    HW225233   2.943   1.526   2.643 -1.0897  0.8296  2.3747
 4591SOL     OW25234   0.617   2.176   2.650 -0.1043 -0.0816 -0.1815
 4591SOL    HW125235   0.626   2.271   2.661  0.0302 -0.0088 -0.9853
 4591SOL    HW225236   0.534   2.165   2.606 -0.0876  1.3198 -0.5548
 4592SOL     OW25237   3.996   0.218   9.335  0.0996  0.3504 -0.4180
 4592SOL    HW125238   3.965   0.150   9.276  0.7439  2.0492 -2.7166
 4592SOL    HW225239   3.968   0.183   9.419  0.9293 -0.2510 -0.3952
 4593SOL     OW25240   1.852   2.363   2.419  0.6320 -0.0789 -0.8341
 4593SOL    HW125241   1.765   2.382   2.385 -0.2432  1.5421  2.3499
 4593SOL    HW225242   1.891   2.337   2.335 -0.9753  0.8844 -1.8681
 4594SOL     OW25243   1.624   1.179   7.101  0.1674  0.1499  0.2218
 4594SOL    HW125244   1.606   1.258   7.153  0.1077  0.4784 -0.3039
 4594SOL    HW225245   1.699   1.214   7.054  1.2300  0.2454  1.9701
 4595SOL     OW25246   1.171   1.370   8.911 -0.2568 -0.3090 -0.2001
 4595SOL    HW125247   1.100   1.426   8.881  1.1303  3.7115  3.8860
 4595SOL    HW225248   1.164   1.398   9.002 -0.2252  0.3688 -0.4045
 4596SOL     OW25249   1.363   2.722  13.695  0.2022 -0.6008 -0.1035
 4596SOL    HW125250   1.295   2.783  13.724 -0.0616 -1.5406  1.2917
 4596SOL    HW225251   1.424   2.728  13.769 -2.0863  1.4292  1.6110
 4597SOL     OW25252   3.839   2.734   9.168 -0.1252 -0.4854  0.1269
 4597SOL    HW125253   3.859   2.641   9.178  0.4273 -0.2348  1.2732
 4597SOL    HW225254   3.796   2.749   9.252  2.0849 -0.7638  1.2925
 4598SOL     OW25255   2.014   1.105   0.234  0.0393  0.1616  0.1895
 4598SOL    HW125256   1.993   1.193   0.265 -0.9048  0.7207 -1.9961
 4598SOL    HW225257   2.109   1.116   0.231 -0.0970  1.0930 -0.5498
 4599SOL     OW25258   0.526   2.239   8.513  0.3882 -0.9364  0.4596
 4599SOL    HW125259   0.507   2.327   8.481  3.4795 -1.1220 -1.9205
 4599SOL    HW225260   0.486   2.180   8.449  2.7679 -1.0890 -0.8939
 4600SOL     OW25261   3.347   3.063   8.706 -0.0460 -0.6736 -0.3584
 4600SOL    HW125262   3.366   2.974   8.678  0.0119 -1.1148  1.0920
 4600SOL    HW225263   3.370   3.057   8.799  1.1558 -0.2499 -0.6188
 4601SOL     OW25264   0.638   3.258   6.073  0.5217 -0.0159 -0.0051
 4601SOL    HW125265   0.721   3.247   6.026 -0.8531 -0.9136 -2.2329
 4601SOL    HW225266   0.587   3.317   6.017 -0.4120 -0.5611  0.2788
 4602SOL     OW25267   1.672   2.169  14.656  0.3134 -0.3489 -0.1132
 4602SOL    HW125268   1.637   2.244  14.703  1.1967 -0.9782  1.5229
 4602SOL    HW225269   1.590   2.123  14.637 -0.1044  0.1155  0.5971
 4603SOL     OW25270   1.907   0.559  15.173 -0.2733 -0.0765 -0.7264
 4603SOL    HW125271   1.966   0.626  15.140  0.8148 -1.0045 -0.6653
 4603SOL    HW225272   1.918   0.494  15.104  0.7606  0.1074 -0.7392
 4604SOL     OW25273   4.499   3.081  16.596  0.6068  0.2362 -0.6411
 4604SOL    HW125274   4.566   3.128  16.547  1.6180  1.0856  1.5321
 4604SOL    HW225275   4.547   3.024  16.658 -2.0585 -3.5371 -2.0478
 4605SOL     OW25276   0.898   1.313   6.060 -0.0314  0.0547  0.2572
 4605SOL    HW125277   0.802   1.310   6.052  0.1428  1.5432 -2.4248
 4605SOL    HW225278   0.920   1.237   6.006 -0.2113  0.4292 -0.3459
 4606SOL     OW25279   0.916   3.198   8.587  0.0677  0.6079 -0.4789
 4606SOL    HW125280   0.947   3.133   8.650  0.0911  1.1896  0.1020
 4606SOL    HW225281   0.867   3.253   8.647 -0.4386 -1.4823  1.0503
 4607SOL     OW25282   4.162   4.562   8.165  0.5551  0.8377 -0.2018
 4607SOL    HW125283   4.087   4.527   8.214  0.7417  3.5425  1.9560
 4607SOL    HW225284   4.214   4.583   8.242  0.2492 -1.8754  0.7655
 4608SOL     OW25285   2.616   1.844   1.973  0.3531  0.0716  0.2675
 4608SOL    HW125286   2.699   1.842   2.021  0.0970  2.0910  0.8068
 4608SOL    HW225287   2.593   1.937   1.982 -0.0893  0.0896 -1.0890
 4609SOL     OW25288   1.125   3.441  16.394 -0.0530 -0.1644  0.0515
 4609SOL    HW125289   1.155   3.420  16.306  1.1852 -0.3186  0.5079
 4609SOL    HW225290   1.088   3.529  16.390  2.6051  0.8605 -1.2871
 4610SOL     OW25291   2.654   3.577  16.752 -0.2556  0.3336  0.0994
 4610SOL    HW125292   2.562   3.550  16.753  0.1699 -1.0335  2.1975
 4610SOL    HW225293   2.671   3.610  16.840  0.1003 -0.5731  0.3727
 4611SOL     OW25294   2.150   2.278   2.442  0.2635  0.2343 -0.1124
 4611SOL    HW125295   2.184   2.345   2.502 -0.7706  1.3968 -0.8191
 4611SOL    HW225296   2.056   2.276   2.460  0.5682 -0.6815  1.3700
 4612SOL     OW25297   0.330   0.478  13.987  0.8015  0.1442  0.8067
 4612SOL    HW125298   0.290   0.520  14.062  1.0289  0.8056  0.5520
 4612SOL    HW225299   0.403   0.439  14.036  0.3986  0.5617  1.7218
 4613SOL     OW25300   0.982   2.807   8.106 -0.3486 -0.2195  0.0213
 4613SOL    HW125301   1.059   2.757   8.080 -1.1406 -1.0095 -0.8283
 4613SOL    HW225302   0.942   2.813   8.020 -1.0945  0.2186  0.3950
 4614SOL     OW25303   1.831   0.528  15.811  0.7107 -0.4891  0.1371
 4614SOL    HW125304   1.781   0.485  15.881 -1.4420  1.6892 -0.0442
 4614SOL    HW225305   1.904   0.472  15.786  0.6991  0.0722 -1.1349
 4615SOL     OW25306   0.343   1.592  10.751 -0.4622 -0.4617  0.1009
 4615SOL    HW125307   0.386   1.506  10.750 -2.0707 -1.2400 -2.4721
 4615SOL    HW225308   0.360   1.617  10.660  0.4329  0.0846  0.4177
 4616SOL     OW25309   0.040   2.078   8.516  0.4508  0.3466 -0.4927
 4616SOL    HW125310   0.039   2.068   8.611 -0.1752 -0.6080 -0.5952
 4616SOL    HW225311   0.056   2.172   8.509 -0.6147  0.6897  1.7418
 4617SOL     OW25312   3.477   3.313   2.843 -0.1545 -0.6937 -0.2381
 4617SOL    HW125313   3.527   3.340   2.766  1.4836 -0.8493  0.7698
 4617SOL    HW225314   3.391   3.342   2.813  0.8588  1.0373 -1.5498
 4618SOL     OW25315   4.710   0.887   4.091 -0.3602  0.1084 -0.4778
 4618SOL    HW125316   0.057   0.947   4.074 -0.0172 -0.4975 -1.1391
 4618SOL    HW225317   4.715   0.880   4.187  0.3695  0.6898 -0.4778
 4619SOL     OW25318   2.026   1.606  10.264  0.0926  0.0041  0.2569
 4619SOL    HW125319   2.119   1.591  10.285  0.5184  1.9271 -0.2946
 4619SOL    HW225320   2.046   1.658  10.187 -2.8187 -0.8937 -1.1070
 4620SOL     OW25321   0.785   2.122   4.027  0.2197  0.3473  0.6960
 4620SOL    HW125322   0.775   2.060   3.955  3.0796  0.1402  0.4937
 4620SOL    HW225323   0.845   2.076   4.085 -1.0898 -1.3335  0.7178
 4621SOL     OW25324   2.891   1.318  10.088  0.1240 -0.0270 -0.1632
 4621SOL    HW125325   2.804   1.355  10.074  0.4620  0.4695 -0.9477
 4621SOL    HW225326   2.866   1.229  10.062 -1.7098  0.5151 -0.2807
 4622SOL     OW25327   2.482   0.330   7.965  0.3813  0.4423 -0.6263
 4622SOL    HW125328   2.466   0.247   7.919 -1.6515  0.9075 -0.7580
 4622SOL    HW225329   2.398   0.374   7.948  0.2922  0.4663 -0.0988
 4623SOL     OW25330   1.941   2.772   4.042  0.6223 -0.2522 -0.5124
 4623SOL    HW125331   1.998   2.760   4.117  1.0317 -0.4922 -0.8623
 4623SOL    HW225332   1.854   2.742   4.068  0.1001  2.2744  0.6474
 4624SOL     OW25333   1.791   1.910   4.753 -0.2133  0.2628 -0.5156
 4624SOL    HW125334   1.785   1.816   4.766  0.5439  0.0465 -1.6747
 4624SOL    HW225335   1.883   1.924   4.728 -0.5407  0.6221 -1.5548
 4625SOL     OW25336   4.551   2.916   0.358  0.5167  0.0744 -0.5386
 4625SOL    HW125337   4.562   2.923   0.453  1.1917  1.1031 -0.6905
 4625SOL    HW225338   4.464   2.876   0.350  0.5374 -0.0278 -0.2515
 4626SOL     OW25339   3.719   4.706  11.765  0.1059  0.2618 -0.2218
 4626SOL    HW125340   3.742   0.074  11.765 -0.8453  0.4933  0.7725
 4626SOL    HW225341   3.809   4.672  11.763  0.3132  0.7907  0.0983
 4627SOL     OW25342   0.470   0.646  17.348  0.3370  0.0898 -0.3123
 4627SOL    HW125343   0.454   0.568  17.400 -0.2774 -0.1664 -0.8851
 4627SOL    HW225344   0.511   0.608  17.270 -1.4811 -2.8968  0.1960
 4628SOL     OW25345   3.732   1.918   8.535 -0.9678  0.1633  0.2319
 4628SOL    HW125346   3.685   1.930   8.617  1.6429 -0.7990  1.8811
 4628SOL    HW225347   3.711   1.825   8.519  0.4035 -0.1897  0.4437
 4629SOL     OW25348   0.203   3.758   0.844 -0.2194 -0.6542 -0.2230
 4629SOL    HW125349   0.250   3.714   0.915 -0.3346 -0.9843 -0.3477
 4629SOL    HW225350   0.117   3.716   0.846 -0.2184 -0.6025  0.6764
 4630SOL     OW25351   0.086   0.568   7.025 -0.0173  0.0550 -0.0401
 4630SOL    HW125352   0.043   0.483   7.022  0.2714 -0.0634 -0.9260
 4630SOL    HW225353   0.103   0.594   6.934 -1.4648  0.7110 -0.1198
 4631SOL     OW25354   4.480   0.630   2.011 -0.2338 -0.3926  0.0996
 4631SOL    HW125355   4.442   0.544   1.998  0.8643 -0.8569 -0.0246
 4631SOL    HW225356   4.573   0.608   2.011 -0.7714 -2.5910 -1.0158
 4632SOL     OW25357   2.651   0.377   8.204  0.2918 -0.1109  0.7505
 4632SOL    HW125358   2.588   0.369   8.132 -0.4663  0.7867  1.3191
 4632SOL    HW225359   2.710   0.302   8.199  1.9942  1.3577 -1.2087
 4633SOL     OW25360   3.569   4.456   6.613 -0.0028 -1.0391  0.3373
 4633SOL    HW125361   3.537   4.445   6.703  0.8709  1.2750  0.9365
 4633SOL    HW225362   3.508   4.521   6.580  1.9472  1.8339  2.2851
 4634SOL     OW25363   0.669   1.178  12.018  0.2812  0.3756  0.5926
 4634SOL    HW125364   0.594   1.237  12.007  1.3178  1.4322 -0.8595
 4634SOL    HW225365   0.695   1.173  11.926  2.6954  0.8703  1.2370
 4635SOL     OW25366   1.853   1.625  14.932  0.2308  0.6299 -0.2771
 4635SOL    HW125367   1.768   1.601  14.893  0.1036  0.5495  0.0447
 4635SOL    HW225368   1.900   1.548  14.900 -0.7687 -0.1391  0.0809
 4636SOL     OW25369   0.327   0.789   5.983  0.1908  0.1459 -0.5508
 4636SOL    HW125370   0.264   0.746   5.925 -0.0237 -0.8525  0.4373
 4636SOL    HW225371   0.414   0.765   5.951  1.1208  3.2502 -0.3465
 4637SOL     OW25372   0.952   0.320   4.334 -0.0434  0.6020  0.1647
 4637SOL    HW125373   1.042   0.315   4.368 -0.3049 -0.3521  0.6889
 4637SOL    HW225374   0.961   0.374   4.255 -2.1564  0.2275 -0.3169
 4638SOL     OW25375   2.765   2.757  13.943  0.5709  0.4353 -1.3076
 4638SOL    HW125376   2.755   2.666  13.915  1.9483 -0.6281  1.6756
 4638SOL    HW225377   2.728   2.760  14.031 -0.8723 -0.6162 -1.8717
 4639SOL     OW25378   2.392   3.012   7.297  0.2691 -0.4539  0.1401
 4639SOL    HW125379   2.410   3.032   7.389 -2.1119  1.7046  0.1189
 4639SOL    HW225380   2.309   3.057   7.283 -0.4946 -1.5952  0.9933
 4640SOL     OW25381   3.983   4.601   5.727 -0.4372  0.0178 -0.7649
 4640SOL    HW125382   3.910   4.605   5.665 -1.5642 -1.2486  0.5039
 4640SOL    HW225383   3.944   4.635   5.807 -1.8107 -0.3956 -1.2606
 4641SOL     OW25384   4.380   3.427   7.863  0.4461  0.0490  0.2417
 4641SOL    HW125385   4.323   3.367   7.913 -0.2813  1.1516  0.7342
 4641SOL    HW225386   4.450   3.362   7.858  1.9771  1.7505 -0.2818
 4642SOL     OW25387   1.824   1.720   2.194 -0.4691 -0.2670 -0.0263
 4642SOL    HW125388   1.859   1.809   2.198 -0.3408 -0.4450  3.0190
 4642SOL    HW225389   1.808   1.705   2.287 -1.3328 -0.9688 -0.2956
 4643SOL     OW25390   3.083   1.579   3.994  0.6803  0.1052 -0.0172
 4643SOL    HW125391   3.032   1.542   3.922  1.1207  3.2152 -1.9684
 4643SOL    HW225392   3.020   1.593   4.064 -0.1245  0.5724 -0.8298
 4644SOL     OW25393   1.490   3.093  10.560  0.3263 -0.0011  0.2993
 4644SOL    HW125394   1.580   3.125  10.559 -0.0836  1.1600  0.3839
 4644SOL    HW225395   1.485   3.012  10.611 -1.7097 -0.3077 -0.3563
 4645SOL     OW25396   0.275   0.031  13.410  0.4417  0.0700 -0.2111
 4645SOL    HW125397   0.250   0.104  13.467 -1.0393 -2.1170  1.9134
 4645SOL    HW225398   0.329   4.703  13.469 -0.3707 -1.6746 -1.0323
 4646SOL     OW25399   4.562   0.512   7.980  0.6303 -0.4688  0.1529
 4646SOL    HW125400   4.649   0.548   7.962  0.0628  0.6781 -0.2885
 4646SOL    HW225401   4.527   0.589   8.026  0.8875 -0.1470 -0.1898
 4647SOL     OW25402   1.889   4.486   8.765 -0.2073  0.2107  0.4735
 4647SOL    HW125403   1.800   4.516   8.786 -0.4865  1.3413 -2.2738
 4647SOL    HW225404   1.944   4.553   8.805  1.1507 -1.0706  0.7473
 4648SOL     OW25405   3.892   0.559   1.494 -0.6157  0.5973  0.1920
 4648SOL    HW125406   3.799   0.535   1.498 -0.4463  0.3121  2.2730
 4648SOL    HW225407   3.927   0.487   1.546  0.8272  1.4923  0.4359
 4649SOL     OW25408   1.187   4.094   7.742 -0.1851  0.1811 -0.0939
 4649SOL    HW125409   1.252   4.029   7.716 -0.1084  1.0101 -1.9728
 4649SOL    HW225410   1.243   4.171   7.749  1.5825 -1.1005  0.0721
 4650SOL     OW25411   3.977   0.936  12.969  0.0246 -0.4626  0.1891
 4650SOL    HW125412   4.052   0.878  12.953 -0.1307 -0.5520 -0.2085
 4650SOL    HW225413   4.024   1.008  13.009 -0.0327  0.3269 -1.1686
 4651SOL     OW25414   0.111   2.901   0.307 -0.0124  0.8577 -0.1952
 4651SOL    HW125415   0.028   2.895   0.258 -1.1730  0.0686  1.8566
 4651SOL    HW225416   0.087   2.954   0.383  3.0939  3.0027 -0.7428
 4652SOL     OW25417   4.377   2.663  12.169  0.1286  0.0272  0.4514
 4652SOL    HW125418   4.360   2.757  12.174  0.9203  0.1713  0.3961
 4652SOL    HW225419   4.327   2.645  12.248 -0.2270  0.7011  0.3840
 4653SOL     OW25420   1.575   4.027   2.989 -0.0787  0.0642  0.1508
 4653SOL    HW125421   1.648   3.991   3.040 -1.2761 -2.4042  0.0941
 4653SOL    HW225422   1.614   4.071   2.914  2.3135 -0.7013  0.9506
 4654SOL     OW25423   2.025   1.523   6.646  0.4621 -0.5179  0.2869
 4654SOL    HW125424   2.111   1.502   6.683  0.6724 -0.6949 -0.2908
 4654SOL    HW225425   2.028   1.618   6.649  0.0860 -0.4972 -0.0315
 4655SOL     OW25426   1.266   0.305   2.654 -0.2069  0.0721 -0.7294
 4655SOL    HW125427   1.244   0.224   2.608  0.3565 -0.6290  0.2181
 4655SOL    HW225428   1.257   0.371   2.586 -0.1399 -1.0450 -1.8318
 4656SOL     OW25429   0.413   1.443   4.598 -0.3547  0.1313  0.4687
 4656SOL    HW125430   0.372   1.358   4.582 -1.6869  0.5163  1.9267
 4656SOL    HW225431   0.507   1.424   4.594 -0.4462 -0.0370 -0.8757
 4657SOL     OW25432   3.500   0.257  13.352 -0.9282 -0.4708 -0.0679
 4657SOL    HW125433   3.470   0.339  13.311 -1.1347  0.2316  1.4790
 4657SOL    HW225434   3.450   0.265  13.433 -1.0763 -0.5393 -0.1526
 4658SOL     OW25435   4.317   3.803   6.296  0.0249  0.7587 -0.7751
 4658SOL    HW125436   4.403   3.826   6.263  1.3296 -2.5272  0.3691
 4658SOL    HW225437   4.264   3.876   6.264 -0.6035  0.9150  0.6112
 4659SOL     OW25438   1.624   1.297   8.558 -0.2417  0.6899  0.5203
 4659SOL    HW125439   1.583   1.284   8.472  1.7996 -1.5966 -0.1070
 4659SOL    HW225440   1.551   1.286   8.619 -0.5313 -1.6945 -0.2670
 4660SOL     OW25441   1.465   0.130   9.996 -0.3772  0.3329  0.3485
 4660SOL    HW125442   1.503   0.106   9.911  1.4159 -1.1977  1.5700
 4660SOL    HW225443   1.374   0.146   9.971  0.4225 -0.9036 -3.4586
 4661SOL     OW25444   2.516   2.006  10.429 -0.5332 -0.1137  0.3144
 4661SOL    HW125445   2.463   2.083  10.408  1.5077  0.3405 -3.2294
 4661SOL    HW225446   2.487   1.940  10.366 -1.9285 -1.0406  1.9385
 4662SOL     OW25447   3.769   2.845   3.264 -0.5399 -0.0042  0.0318
 4662SOL    HW125448   3.726   2.912   3.317  0.8225  0.0434  1.0858
 4662SOL    HW225449   3.780   2.893   3.182  0.9429 -2.1193 -1.0090
 4663SOL     OW25450   2.593   4.381   3.140  0.1896 -0.8067 -0.4628
 4663SOL    HW125451   2.610   4.401   3.233 -0.3587  1.1795 -0.7787
 4663SOL    HW225452   2.678   4.350   3.109 -0.3566 -2.4693 -0.2939
 4664SOL     OW25453   3.571   3.635   4.517 -0.0017 -0.1993  0.0878
 4664SOL    HW125454   3.651   3.663   4.472  0.0341  0.5590  0.6264
 4664SOL    HW225455   3.521   3.606   4.441 -0.9465 -0.0029  0.6447
 4665SOL     OW25456   3.054   1.965   3.251  0.4820  0.4190  0.5281
 4665SOL    HW125457   3.149   1.957   3.263  0.6274  1.4532  0.0623
 4665SOL    HW225458   3.032   1.879   3.287 -1.9982  0.1203 -1.6980
 4666SOL     OW25459   0.376   2.611   5.053  0.6220 -0.0205 -0.0137
 4666SOL    HW125460   0.463   2.619   5.090  0.9610 -1.1313 -0.5696
 4666SOL    HW225461   0.383   2.538   4.991  0.0120 -0.2126  0.1451
 4667SOL     OW25462   2.490   3.147   6.021  0.5407  0.0831 -0.4059
 4667SOL    HW125463   2.464   3.055   6.023 -1.0434  0.5049 -0.7963
 4667SOL    HW225464   2.514   3.165   6.112 -1.2222 -1.3546  0.3532
 4668SOL     OW25465   1.007   1.412   3.752  0.1877  0.5824 -0.4055
 4668SOL    HW125466   0.982   1.370   3.835  2.5872  2.3144  1.1743
 4668SOL    HW225467   1.026   1.497   3.790  2.3306 -0.1856  0.2642
 4669SOL     OW25468   3.053   2.281  15.067 -0.7081  0.8349  0.1633
 4669SOL    HW125469   3.073   2.227  15.143  2.0452 -0.4718 -1.4878
 4669SOL    HW225470   3.014   2.206  15.022  1.3670 -1.5247  2.3126
 4670SOL     OW25471   1.891   2.621  13.033 -0.0010  0.0208  0.0590
 4670SOL    HW125472   1.811   2.602  13.081  0.0434 -0.5258 -0.0849
 4670SOL    HW225473   1.956   2.638  13.101  0.3224  1.0398 -0.5078
 4671SOL     OW25474   3.863   1.424   7.175  0.3458 -0.5066  0.2850
 4671SOL    HW125475   3.790   1.373   7.209 -0.1471  0.0133 -0.0019
 4671SOL    HW225476   3.937   1.383   7.220 -0.0302  0.5672  1.8706
 4672SOL     OW25477   2.078   3.301   7.540  0.2212 -0.1142  0.3038
 4672SOL    HW125478   2.045   3.237   7.475  1.5919  0.4846 -0.9787
 4672SOL    HW225479   2.143   3.357   7.498 -1.1870  0.4770 -1.1324
 4673SOL     OW25480   2.090   4.283   6.098 -0.4742 -0.8304 -0.0992
 4673SOL    HW125481   2.022   4.220   6.123 -0.0796 -1.7377 -1.3391
 4673SOL    HW225482   2.110   4.315   6.187  1.1955  0.2269 -0.8556
 4674SOL     OW25483   3.366   2.700   1.993  0.1479 -0.3133  0.6648
 4674SOL    HW125484   3.404   2.770   1.939 -0.0522 -0.1120  0.7843
 4674SOL    HW225485   3.335   2.636   1.930  1.9952  0.7818 -1.3580
 4675SOL     OW25486   1.068   2.255  14.580  0.0422 -0.4650 -0.2645
 4675SOL    HW125487   1.001   2.242  14.647 -1.1833  0.7855 -1.2453
 4675SOL    HW225488   1.017   2.306  14.517  1.8216  0.2686 -1.1140
 4676SOL     OW25489   0.555   0.583   6.162 -0.4227  0.4501  0.2806
 4676SOL    HW125490   0.508   0.551   6.239  0.3726 -0.3624  0.4337
 4676SOL    HW225491   0.592   0.667   6.189  0.4704  0.1537 -0.0114
 4677SOL     OW25492   2.942   1.200   5.546  0.0348  0.4944  0.5242
 4677SOL    HW125493   2.928   1.248   5.627  0.8014 -1.7244  1.9886
 4677SOL    HW225494   3.021   1.155   5.577  0.3917  1.0244  0.3772
 4678SOL     OW25495   4.507   1.914   4.145  0.5416 -0.1382  0.5722
 4678SOL    HW125496   4.519   1.820   4.151 -1.5139 -0.5329 -1.0980
 4678SOL    HW225497   4.411   1.915   4.142  0.5572  1.9270  0.3427
 4679SOL     OW25498   2.514   0.668   2.374 -0.2867 -0.3800 -0.3016
 4679SOL    HW125499   2.480   0.743   2.324  1.3872  0.3807 -0.3052
 4679SOL    HW225500   2.506   0.701   2.463 -1.4370  1.2959 -1.0294
 4680SOL     OW25501   2.846   2.425  16.138 -0.2411  0.0275  0.2450
 4680SOL    HW125502   2.828   2.482  16.213 -0.8689 -0.1701  0.2449
 4680SOL    HW225503   2.893   2.357  16.187  3.0371  1.3079 -1.1715
 4681SOL     OW25504   3.722   2.396   5.709 -0.3442 -0.5840 -0.8650
 4681SOL    HW125505   3.677   2.375   5.627  2.6837 -1.3184 -2.3528
 4681SOL    HW225506   3.669   2.357   5.778  0.5948 -3.2434 -1.6325
 4682SOL     OW25507   1.163   2.681   8.652 -0.5044  0.0874  0.6947
 4682SOL    HW125508   1.155   2.603   8.708  1.6027 -1.3467 -0.9975
 4682SOL    HW225509   1.073   2.713   8.658 -1.5684 -2.6722 -0.3923
 4683SOL     OW25510   4.049   2.492   9.516  0.0769 -0.3438  0.1200
 4683SOL    HW125511   4.101   2.551   9.462 -1.9615  0.4594 -0.9876
 4683SOL    HW225512   4.027   2.554   9.586  1.5511 -0.4015  0.6125
 4684SOL     OW25513   3.412   3.378   5.364  0.2017  0.0987  0.0193
 4684SOL    HW125514   3.435   3.406   5.275  1.6512  0.0528  0.3733
 4684SOL    HW225515   3.465   3.298   5.375  0.1912 -0.4061 -3.4083
 4685SOL     OW25516   0.167   3.597   2.047  0.4746  0.1844  0.0337
 4685SOL    HW125517   0.193   3.684   2.077 -0.3963  0.4387  0.0265
 4685SOL    HW225518   0.074   3.615   2.033  0.3425  0.6672  1.4493
 4686SOL     OW25519   0.364   1.394   1.119  0.2778 -0.3185  0.2169
 4686SOL    HW125520   0.379   1.411   1.026  1.1020  1.6938  0.7444
 4686SOL    HW225521   0.412   1.312   1.133 -1.0312 -1.2274 -0.4940
 4687SOL     OW25522   3.967   0.242  12.680  0.4126 -0.2688  0.1290
 4687SOL    HW125523   4.020   0.162  12.677  1.4001  0.3686  1.0876
 4687SOL    HW225524   4.035   0.308  12.689 -0.5969  0.8650 -0.4930
 4688SOL     OW25525   3.773   3.841   7.676 -0.2542 -0.4680  0.6703
 4688SOL    HW125526   3.758   3.913   7.614  2.9819  1.1483  1.7480
 4688SOL    HW225527   3.851   3.809   7.630 -0.9940  0.1962 -1.0557
 4689SOL     OW25528   1.681   1.352  14.774 -0.6013 -0.4935 -0.0109
 4689SOL    HW125529   1.774   1.373  14.784 -0.8211  0.5398 -0.1652
 4689SOL    HW225530   1.674   1.334  14.681  1.4675  1.0688 -0.4676
 4690SOL     OW25531   3.927   0.624   3.361 -0.4370 -0.0467 -0.0051
 4690SOL    HW125532   3.964   0.540   3.334  1.3775  0.7730 -0.1207
 4690SOL    HW225533   4.003   0.677   3.335  1.5417 -3.2566 -0.6483
 4691SOL     OW25534   0.063   0.126   7.221 -0.4247  0.7166  0.2411
 4691SOL    HW125535   0.131   0.126   7.154 -2.0770  1.2275 -1.4616
 4691SOL    HW225536   0.097   0.189   7.285 -0.7181 -0.5976  1.6845
 4692SOL     OW25537   3.899   0.488   5.945 -0.0932  0.0872  0.3319
 4692SOL    HW125538   3.907   0.440   6.027 -1.9213 -1.9951 -0.7263
 4692SOL    HW225539   3.849   0.563   5.976 -2.5537 -1.4898  0.2041
 4693SOL     OW25540   4.549   3.887  15.428 -0.0679 -0.0274 -0.2632
 4693SOL    HW125541   4.599   3.961  15.463 -0.4216 -1.2911  2.9690
 4693SOL    HW225542   4.496   3.868  15.505  0.8133 -0.3497  0.2657
 4694SOL     OW25543   0.379   3.940   3.839  0.0430 -0.3278 -0.1927
 4694SOL    HW125544   0.410   4.017   3.887  2.1078  0.1236 -2.1969
 4694SOL    HW225545   0.286   3.943   3.858  0.1076 -4.3029  0.6723
 4695SOL     OW25546   3.706   3.455   7.654  0.0071  0.2831  0.4851
 4695SOL    HW125547   3.624   3.457   7.703 -0.9765 -0.6919 -1.1147
 4695SOL    HW225548   3.673   3.400   7.583 -0.5040  1.1117  0.0724
 4696SOL     OW25549   2.587   3.663   5.393 -0.4576  0.1993 -0.1208
 4696SOL    HW125550   2.589   3.748   5.349 -0.8548 -0.8570 -2.1500
 4696SOL    HW225551   2.560   3.699   5.478 -0.6049 -2.5610  1.0143
 4697SOL     OW25552   1.036   2.589   7.424  0.0954 -0.6854  0.0442
 4697SOL    HW125553   0.973   2.524   7.391  0.4088 -0.5880 -0.7568
 4697SOL    HW225554   0.980   2.665   7.444  0.5845  0.1783 -1.8322
 4698SOL     OW25555   3.047   1.706   1.864 -0.0585  0.6349  0.9278
 4698SOL    HW125556   3.064   1.612   1.875 -1.3915  0.2862 -0.0546
 4698SOL    HW225557   3.129   1.744   1.832 -0.6044  0.0511 -1.1551
 4699SOL     OW25558   2.438   1.134   9.827  0.4742 -0.0545  0.4998
 4699SOL    HW125559   2.495   1.057   9.821  0.3947  0.1561 -3.0621
 4699SOL    HW225560   2.354   1.100   9.858 -1.5751  1.4588 -3.4466
 4700SOL     OW25561   2.158   3.558   1.894  0.2600 -0.1302 -0.1287
 4700SOL    HW125562   2.146   3.467   1.866 -0.0606  0.7401 -2.8199
 4700SOL    HW225563   2.193   3.584   1.809 -3.2836 -1.9592 -2.1610
 4701SOL     OW25564   0.447   3.539   1.765 -0.0603 -0.6744 -0.3729
 4701SOL    HW125565   0.460   3.629   1.735 -0.5392 -0.2395  0.7142
 4701SOL    HW225566   0.528   3.510   1.807  0.0927 -1.6890 -1.3652
 4702SOL     OW25567   3.319   2.584   2.874  0.1073 -0.4163 -0.2418
 4702SOL    HW125568   3.275   2.628   2.946  0.6819 -0.2862  0.0259
 4702SOL    HW225569   3.279   2.629   2.799 -1.8406 -0.7509  0.5888
 4703SOL     OW25570   1.585   0.535  13.063  0.4103  0.2979 -0.4049
 4703SOL    HW125571   1.661   0.590  13.080  0.2696  0.9660 -1.9269
 4703SOL    HW225572   1.625   0.453  13.092 -0.3613 -0.0026 -0.1938
 4704SOL     OW25573   1.195   3.848   2.268 -0.3254  0.1544  0.0746
 4704SOL    HW125574   1.222   3.940   2.267  1.1694 -0.3085 -1.5453
 4704SOL    HW225575   1.200   3.821   2.360 -3.2891 -0.1901  0.1355
 4705SOL     OW25576   4.710   4.477  14.678  0.2014  0.3338  0.4665
 4705SOL    HW125577   0.058   4.432  14.719  1.3391  2.1313  0.4381
 4705SOL    HW225578   0.014   4.568  14.667  1.2778 -0.1618 -0.7823
 4706SOL     OW25579   1.269   4.130   2.361 -0.0151  0.4048  0.2324
 4706SOL    HW125580   1.212   4.206   2.356  0.1497  0.6901  2.5152
 4706SOL    HW225581   1.300   4.146   2.451 -0.3079  0.3300  0.3457
 4707SOL     OW25582   2.664   0.727   5.884 -0.2268  0.0361 -0.3552
 4707SOL    HW125583   2.623   0.781   5.951 -0.0666  1.9222 -1.7882
 4707SOL    HW225584   2.637   0.772   5.804 -1.8323 -3.2264 -1.6349
 4708SOL     OW25585   3.153   3.280  15.988 -0.0841  0.3183 -0.0190
 4708SOL    HW125586   3.194   3.364  15.967  0.2160  0.3291  0.6003
 4708SOL    HW225587   3.226   3.221  15.970 -0.2005  0.5018 -1.0544
 4709SOL     OW25588   0.913   1.295   0.844  0.0950 -0.1305 -0.0657
 4709SOL    HW125589   0.964   1.284   0.925 -1.5591 -1.4189  0.7975
 4709SOL    HW225590   0.980   1.332   0.787  1.0864  0.3244  1.3873
 4710SOL     OW25591   0.653   2.092   6.045  0.8991 -0.4708  0.1466
 4710SOL    HW125592   0.719   2.131   6.102 -1.6938  0.0848  2.7916
 4710SOL    HW225593   0.708   2.021   6.011  0.6081  0.0761 -1.4373
 4711SOL     OW25594   3.950   4.186   4.617 -0.1091 -0.3858  0.1818
 4711SOL    HW125595   3.867   4.227   4.642  0.1507 -0.6873  1.5630
 4711SOL    HW225596   3.917   4.143   4.538 -0.2930 -0.0199  0.0642
 4712SOL     OW25597   0.662   0.920  13.245  0.5530 -0.5955 -0.5941
 4712SOL    HW125598   0.707   1.000  13.217  1.2193 -1.1378 -1.0513
 4712SOL    HW225599   0.731   0.856  13.230 -0.1392 -1.1829 -1.2878
 4713SOL     OW25600   3.690   1.644   7.174 -0.1687 -0.5845 -0.9148
 4713SOL    HW125601   3.758   1.577   7.167  1.1363  0.6858 -0.5831
 4713SOL    HW225602   3.739   1.707   7.228 -2.0147  0.8920 -0.9439
 4714SOL     OW25603   2.496   0.364   4.143 -0.3339  0.3403  0.2805
 4714SOL    HW125604   2.509   0.439   4.084 -0.2511  1.6715  2.0154
 4714SOL    HW225605   2.454   0.414   4.212  0.4672  0.5812  0.5954
 4715SOL     OW25606   1.901   2.320   9.304  0.4385 -0.0836  0.0331
 4715SOL    HW125607   1.963   2.276   9.363  1.8652  2.6330  0.5535
 4715SOL    HW225608   1.816   2.280   9.325  0.4777 -0.5231 -0.6446
 4716SOL     OW25609   3.781   2.367   5.290 -1.0014 -0.3295  0.3375
 4716SOL    HW125610   3.784   2.281   5.332 -0.3544 -0.9251 -0.9200
 4716SOL    HW225611   3.692   2.365   5.255 -1.1598 -1.2213  0.7946
 4717SOL     OW25612   0.823   1.322  11.043  0.0181 -0.1187  0.1142
 4717SOL    HW125613   0.792   1.266  11.115 -0.9198 -0.1311 -0.2909
 4717SOL    HW225614   0.889   1.260  11.013 -0.3709 -1.9410  2.9637
 4718SOL     OW25615   2.268   4.199  11.631  0.2519  0.3982  0.3437
 4718SOL    HW125616   2.343   4.163  11.679  0.6932  1.3998  0.3997
 4718SOL    HW225617   2.238   4.135  11.566 -2.1322  1.0266  0.8401
 4719SOL     OW25618   0.391   0.333   6.601  1.1196  0.3306  0.3372
 4719SOL    HW125619   0.398   0.237   6.603 -1.1107  0.1418 -0.4503
 4719SOL    HW225620   0.313   0.339   6.657 -0.2216 -0.9375 -1.3605
 4720SOL     OW25621   3.970   1.146   4.937 -0.4892 -0.0728  0.0063
 4720SOL    HW125622   4.051   1.099   4.958 -0.2654 -0.3848 -1.5433
 4720SOL    HW225623   3.912   1.071   4.924 -3.4869  1.9967  1.3339
 4721SOL     OW25624   2.963   2.447  15.876 -0.1773 -0.1758  0.0686
 4721SOL    HW125625   2.913   2.443  15.958 -0.1667 -0.7951  0.0377
 4721SOL    HW225626   3.047   2.486  15.902  0.0345  0.5048 -1.6825
 4722SOL     OW25627   4.518   1.632   8.331 -0.7269 -0.0426  0.0010
 4722SOL    HW125628   4.457   1.706   8.343 -0.2206  0.4339 -0.4197
 4722SOL    HW225629   4.487   1.558   8.383  1.9832  0.5014  2.4362
 4723SOL     OW25630   4.151   0.351  16.470  0.1303 -0.1797 -0.2031
 4723SOL    HW125631   4.069   0.397  16.485  0.0428 -0.4905  0.2569
 4723SOL    HW225632   4.130   0.262  16.443 -1.8260  0.3268 -0.3725
 4724SOL     OW25633   2.941   4.569   9.162  0.5025  0.8792  0.0389
 4724SOL    HW125634   2.872   4.507   9.137  1.8796 -1.3219  1.7186
 4724SOL    HW225635   3.016   4.515   9.138 -1.5693 -1.4828 -1.1888
 4725SOL     OW25636   1.501   1.287   9.643  0.3059 -0.4661 -0.3520
 4725SOL    HW125637   1.584   1.244   9.625  0.7978  1.0751 -1.7741
 4725SOL    HW225638   1.491   1.267   9.736  1.3278 -3.2464 -0.8462
 4726SOL     OW25639   3.359   3.843   3.879 -0.6156 -0.2794 -0.6408
 4726SOL    HW125640   3.334   3.868   3.968 -0.1153 -3.2625  0.3221
 4726SOL    HW225641   3.380   3.930   3.846 -0.5807  0.6260  1.7487
 4727SOL     OW25642   1.308   4.312  15.323  0.3569  0.3488 -0.3831
 4727SOL    HW125643   1.290   4.397  15.282 -1.4611 -0.1698 -0.6485
 4727SOL    HW225644   1.280   4.327  15.413  1.1304 -0.6707  0.0261
 4728SOL     OW25645   3.039   2.138   1.744  0.0126 -0.5869 -0.2606
 4728SOL    HW125646   2.979   2.148   1.670 -0.2667 -0.0686  0.0338
 4728SOL    HW225647   3.034   2.045   1.766  1.0131 -0.5288  0.2232
 4729SOL     OW25648   1.319   0.742   8.266  0.2316 -0.1596 -0.5876
 4729SOL    HW125649   1.361   0.794   8.335  0.8285 -0.9387 -0.3670
 4729SOL    HW225650   1.264   0.694   8.328  0.7901  2.5353  1.9975
 4730SOL     OW25651   2.208   3.680   1.656 -0.0476 -0.1520 -0.2910
 4730SOL    HW125652   2.179   3.771   1.646 -3.9865 -1.1785  1.6769
 4730SOL    HW225653   2.161   3.635   1.586  2.4646 -2.3693 -0.5323
 4731SOL     OW25654   1.271   4.170   3.400 -0.0345  0.5421  0.3157
 4731SOL    HW125655   1.324   4.115   3.458 -0.4864  2.4672  2.5567
 4731SOL    HW225656   1.325   4.155   3.322  0.4617  1.6040  0.4556
 4732SOL     OW25657   4.268   0.520   9.667 -0.3830  0.0986 -0.0230
 4732SOL    HW125658   4.266   0.604   9.621 -0.5930 -0.2904 -0.7091
 4732SOL    HW225659   4.362   0.500   9.666 -0.7591 -1.4975 -2.6299
 4733SOL     OW25660   2.378   4.432   1.172  0.5304 -0.3818  0.2730
 4733SOL    HW125661   2.307   4.405   1.115  0.5294  0.4018 -0.0979
 4733SOL    HW225662   2.392   4.525   1.152  1.0660 -0.2722  1.1312
 4734SOL     OW25663   4.200   4.672  14.898  0.1495  0.0080 -0.1224
 4734SOL    HW125664   4.191   4.584  14.934 -0.3138  0.3689  0.6495
 4734SOL    HW225665   4.157   4.657  14.814  0.2520  0.0017 -0.1730
 4735SOL     OW25666   0.026   0.722   3.079  0.3009  0.4902  0.0548
 4735SOL    HW125667   4.722   0.715   2.988  2.7932 -3.6284 -0.4526
 4735SOL    HW225668   0.031   0.630   3.107  1.4583  1.5185  3.2136
 4736SOL     OW25669   3.483   3.807   4.852 -0.6467  0.6293  0.7134
 4736SOL    HW125670   3.564   3.856   4.862  0.4051 -1.2643  1.4864
 4736SOL    HW225671   3.487   3.759   4.935  1.8453 -0.0759  0.1683
 4737SOL     OW25672   0.927   1.198   6.308  0.1886  0.2357 -0.0043
 4737SOL    HW125673   0.999   1.222   6.367 -1.1149  1.3563  1.1259
 4737SOL    HW225674   0.945   1.233   6.221 -2.2172  0.6032 -0.3514
 4738SOL     OW25675   2.493   0.925   4.012 -0.3398 -0.1224  0.0968
 4738SOL    HW125676   2.534   0.841   3.991  0.3420 -0.0281  1.0339
 4738SOL    HW225677   2.577   0.972   4.009 -0.9089  1.0379  2.3175
 4739SOL     OW25678   0.869   4.315  16.719  0.4275 -0.4568 -0.4789
 4739SOL    HW125679   0.927   4.333  16.645  1.9499  1.4354  1.1971
 4739SOL    HW225680   0.829   4.232  16.692  0.7494 -0.0022 -2.4100
 4740SOL     OW25681   4.251   1.731  10.821  0.6813  0.3403 -0.0800
 4740SOL    HW125682   4.290   1.805  10.868 -1.6414  0.2896  1.9180
 4740SOL    HW225683   4.317   1.664  10.840 -1.0289 -1.4386 -0.5292
 4741SOL     OW25684   0.915   1.436   4.866  0.3796  0.0284 -0.2147
 4741SOL    HW125685   1.010   1.425   4.869  0.1317 -1.5201  2.2388
 4741SOL    HW225686   0.914   1.473   4.778  0.9452 -0.2245 -0.3282
 4742SOL     OW25687   2.535   1.195   4.272  0.5770 -0.8359 -0.4713
 4742SOL    HW125688   2.488   1.204   4.189  0.7830 -1.1507 -0.6206
 4742SOL    HW225689   2.458   1.176   4.326  0.9278  0.7198  0.5610
 4743SOL     OW25690   0.957   4.035   1.410 -0.3167 -0.1358  0.3130
 4743SOL    HW125691   0.927   3.945   1.398  0.8572 -0.1067 -2.9078
 4743SOL    HW225692   0.921   4.075   1.330 -0.5801 -0.9642  0.0150
 4744SOL     OW25693   2.849   3.718   2.288  0.2867  0.6983  0.2644
 4744SOL    HW125694   2.890   3.678   2.364 -1.3698 -1.4572  0.0312
 4744SOL    HW225695   2.774   3.659   2.282  1.7720 -1.1942  0.4987
 4745SOL     OW25696   1.881   1.089   4.975 -0.1851 -0.0565 -0.1291
 4745SOL    HW125697   1.825   1.070   5.050  0.5627 -0.9351  0.2052
 4745SOL    HW225698   1.818   1.101   4.903  0.0438  3.3153  0.2670
 4746SOL     OW25699   2.825   0.253  11.094  0.0322  0.1020 -0.1864
 4746SOL    HW125700   2.826   0.165  11.057 -0.4748 -1.3846  3.3182
 4746SOL    HW225701   2.823   0.310  11.017 -1.2188  0.8901  0.4398
 4747SOL     OW25702   1.832   3.591  17.390 -0.4532  0.2157 -0.0619
 4747SOL    HW125703   1.770   3.630  17.328  0.7715 -0.4630 -1.7155
 4747SOL    HW225704   1.866   3.675  17.420  0.0001  0.0127 -0.0009
 4748SOL     OW25705   3.912   2.375   7.532 -0.6074  0.3387 -0.9338
 4748SOL    HW125706   3.887   2.378   7.440 -1.2912 -1.7244 -0.8215
 4748SOL    HW225707   3.998   2.333   7.526 -0.4551  0.4487  0.4105
 4749SOL     OW25708   0.149   1.671   6.350  0.0738 -0.4964 -0.2889
 4749SOL    HW125709   0.198   1.705   6.275  1.0395 -0.2397  0.4590
 4749SOL    HW225710   0.066   1.717   6.343  0.5234  0.5268  0.9615
 4750SOL     OW25711   2.312   0.146   9.229  0.0479  0.3079  0.3279
 4750SOL    HW125712   2.236   0.174   9.279  0.7244  2.6316  0.0506
 4750SOL    HW225713   2.322   0.051   9.242  0.7105  0.1405 -1.3604
 4751SOL     OW25714   3.156   2.570   4.992 -0.1725  0.1302 -0.4044
 4751SOL    HW125715   3.172   2.663   5.005  0.3662  0.5508 -4.0838
 4751SOL    HW225716   3.121   2.564   5.081  1.2759 -1.0164  0.0967
 4752SOL     OW25717   4.143   2.041   8.718 -0.0379 -0.1839 -0.0274
 4752SOL    HW125718   4.133   2.132   8.748  2.8053 -0.2408  1.1408
 4752SOL    HW225719   4.066   2.031   8.663  1.0015 -0.1558 -1.5064
 4753SOL     OW25720   3.712   1.943  14.053  0.2549  0.2729  0.5111
 4753SOL    HW125721   3.621   1.917  14.062 -0.1965  1.9298  0.8026
 4753SOL    HW225722   3.714   2.016  14.116 -0.8290 -0.9158  1.9297
 4754SOL     OW25723   4.539   3.285   5.536 -0.2257 -0.9359  0.6034
 4754SOL    HW125724   4.511   3.306   5.447  0.8942 -3.1447 -0.2526
 4754SOL    HW225725   4.455   3.251   5.567 -2.6560  2.2294 -2.5746
 4755SOL     OW25726   0.230   2.802   2.644  0.6025 -0.0124  0.3508
 4755SOL    HW125727   0.309   2.826   2.596 -0.0895 -1.3855 -1.4747
 4755SOL    HW225728   0.172   2.877   2.629 -0.5854 -0.9416  0.2695
 4756SOL     OW25729   2.488   1.208   2.469  0.2596  0.2628 -0.0221
 4756SOL    HW125730   2.521   1.271   2.533  1.6647  1.3356 -1.8167
 4756SOL    HW225731   2.394   1.213   2.490  0.7541  2.6405  1.6350
 4757SOL     OW25732   3.321   1.914   9.082 -0.2482 -0.3617  0.0294
 4757SOL    HW125733   3.414   1.925   9.060 -0.1620 -1.4713 -0.1926
 4757SOL    HW225734   3.300   1.851   9.012  1.3042 -0.9725  0.1030
 4758SOL     OW25735   3.382   4.243  17.373 -0.4519 -0.3028 -0.3469
 4758SOL    HW125736   3.451   4.178  17.360 -1.6088 -1.8190  1.1122
 4758SOL    HW225737   3.426   4.317  17.416  0.4719 -0.7881 -0.4737
 4759SOL     OW25738   2.499   1.559   8.371  0.0344 -0.4110  0.8678
 4759SOL    HW125739   2.403   1.552   8.367 -0.1297  2.3258 -0.0347
 4759SOL    HW225740   2.523   1.640   8.414  1.1477  0.2625 -1.0282
 4760SOL     OW25741   0.450   4.724   1.319 -0.4666 -0.0535  0.3391
 4760SOL    HW125742   0.421   4.665   1.389 -3.3802  2.8763  1.6020
 4760SOL    HW225743   0.416   4.680   1.241 -1.0437 -0.0015  0.5613
 4761SOL     OW25744   2.666   4.205   6.680  0.6173  0.0563  0.6152
 4761SOL    HW125745   2.658   4.110   6.683 -0.7177  0.0892 -1.1493
 4761SOL    HW225746   2.701   4.214   6.591  1.9708 -1.1863  1.0210
 4762SOL     OW25747   3.739   1.985   5.150  0.0389  0.1371 -0.1821
 4762SOL    HW125748   3.664   1.964   5.095 -1.6605  1.1199  1.7441
 4762SOL    HW225749   3.808   1.947   5.097  1.8928  0.7606  1.7485
 4763SOL     OW25750   2.304   3.351   5.449 -0.4514  0.2296  0.4532
 4763SOL    HW125751   2.375   3.379   5.506  0.7902  2.4405 -2.1856
 4763SOL    HW225752   2.296   3.260   5.476  1.2867  0.7004  2.5689
 4764SOL     OW25753   0.610   3.402   8.535  0.5694 -0.4655  0.1864
 4764SOL    HW125754   0.631   3.376   8.625  0.3535 -0.2293  0.3055
 4764SOL    HW225755   0.517   3.420   8.541  0.5239 -0.9588  1.0098
 4765SOL     OW25756   3.323   4.159   2.188  0.2550  0.0183 -0.0500
 4765SOL    HW125757   3.410   4.197   2.178  0.0665  0.3492 -0.4260
 4765SOL    HW225758   3.294   4.202   2.269 -1.3925  0.1962 -0.7299
 4766SOL     OW25759   4.578   0.387  10.192  0.3661  0.0688 -0.0889
 4766SOL    HW125760   4.658   0.365  10.144  1.8270 -0.8003  2.7439
 4766SOL    HW225761   4.569   0.481  10.177  1.7194  0.2333  0.1190
 4767SOL     OW25762   1.658   1.536   8.706  0.2884 -0.0950 -0.6403
 4767SOL    HW125763   1.753   1.550   8.710  0.0074  1.9904 -1.2205
 4767SOL    HW225764   1.659   1.456   8.652 -0.4038  0.2355 -1.1433
 4768SOL     OW25765   0.929   3.810   5.782 -0.4138 -0.7745 -0.1887
 4768SOL    HW125766   0.925   3.891   5.832  0.8778 -0.2585 -0.9181
 4768SOL    HW225767   0.986   3.753   5.833  0.6127 -0.4552 -0.9815
 4769SOL     OW25768   2.499   0.101   5.478  0.3876  0.5127  0.1381
 4769SOL    HW125769   2.584   0.084   5.518  0.9017  0.5993 -0.9099
 4769SOL    HW225770   2.441   0.047   5.531 -1.4617 -0.0097 -2.4407
 4770SOL     OW25771   4.529   4.340   7.273 -0.0835 -0.6295 -0.1806
 4770SOL    HW125772   4.536   4.420   7.222 -1.4593  0.2531  1.0306
 4770SOL    HW225773   4.480   4.297   7.203 -1.6513 -1.2680  1.3356
 4771SOL     OW25774   3.343   0.918   3.868  0.2306 -0.6823 -0.2172
 4771SOL    HW125775   3.382   0.980   3.807 -0.5636  0.3240  0.2950
 4771SOL    HW225776   3.422   0.890   3.914  0.5644  0.0218 -0.3686
 4772SOL     OW25777   3.618   1.864   6.452  0.4105 -0.0982  0.9336
 4772SOL    HW125778   3.667   1.828   6.378  0.4487 -1.9291  1.8503
 4772SOL    HW225779   3.681   1.847   6.522  0.2457 -0.9543  0.8667
 4773SOL     OW25780   0.933   3.801   5.511  0.1677  0.1791  0.4111
 4773SOL    HW125781   0.904   3.786   5.601 -0.1642  0.6967  0.3899
 4773SOL    HW225782   1.012   3.747   5.507 -0.3279 -0.5517  0.5481
 4774SOL     OW25783   1.124   0.413   7.144  0.0020  0.3674 -0.0847
 4774SOL    HW125784   1.041   0.394   7.188 -1.6478  0.0992 -3.3447
 4774SOL    HW225785   1.104   0.369   7.061 -1.5397 -0.5160  0.7631
 4775SOL     OW25786   3.261   0.827  14.527 -0.2192  0.3217  0.1583
 4775SOL    HW125787   3.355   0.828  14.544 -0.5243 -0.4132  1.9156
 4775SOL    HW225788   3.247   0.830  14.432  2.7192 -1.9259 -0.3384
 4776SOL     OW25789   4.649   2.965   7.525  0.1589  0.1408  0.2062
 4776SOL    HW125790   4.596   2.980   7.447  2.8753  2.8215 -1.0691
 4776SOL    HW225791   0.004   3.009   7.498 -0.7386  1.3306 -0.5187
 4777SOL     OW25792   4.690   1.378  16.375 -0.2146  0.1886 -0.3253
 4777SOL    HW125793   4.617   1.337  16.421  0.3207 -1.1960 -0.7084
 4777SOL    HW225794   0.033   1.341  16.430  0.7831  1.0892 -0.9490
 4778SOL     OW25795   0.893   0.346   7.299 -0.5498 -0.2640  0.0122
 4778SOL    HW125796   0.908   0.416   7.363 -1.7417 -2.4591  2.6646
 4778SOL    HW225797   0.799   0.356   7.284 -0.9415 -3.1114  0.6213
 4779SOL     OW25798   2.332   1.144   8.776 -0.7282 -0.2010 -1.0433
 4779SOL    HW125799   2.425   1.145   8.751 -0.7120  0.4042 -0.9555
 4779SOL    HW225800   2.281   1.134   8.695  0.0640 -2.1055 -1.3099
 4780SOL     OW25801   2.392   0.193  14.871  0.0146  0.3623  0.4111
 4780SOL    HW125802   2.316   0.200  14.929 -1.4329  2.4632 -1.7029
 4780SOL    HW225803   2.470   0.220  14.920  0.6191  1.4494 -1.1379
 4781SOL     OW25804   2.071   0.286  11.295  0.2392  0.1631 -0.9476
 4781SOL    HW125805   2.060   0.337  11.214  1.3522 -0.2914 -1.3911
 4781SOL    HW225806   2.098   0.354  11.357 -1.3643 -1.5189  1.5681
 4782SOL     OW25807   3.172   0.833   4.109  0.0882  0.0925  0.3249
 4782SOL    HW125808   3.234   0.759   4.110  0.1000  0.0828 -1.3294
 4782SOL    HW225809   3.206   0.886   4.037  0.2992  1.3243  1.3399
 4783SOL     OW25810   3.313   3.568  14.340 -0.4042  0.1067 -0.2048
 4783SOL    HW125811   3.314   3.652  14.384 -0.7850 -1.0894  2.0894
 4783SOL    HW225812   3.225   3.564  14.302 -1.0858  2.4483  1.1477
 4784SOL     OW25813   1.188   4.108   6.575 -0.3749 -0.0572  0.3721
 4784SOL    HW125814   1.202   4.133   6.483  0.4649  0.7433  0.7204
 4784SOL    HW225815   1.122   4.174   6.597  1.9627  1.3385  3.1759
 4785SOL     OW25816   3.176   2.236  15.927  0.6299 -0.1439  0.2805
 4785SOL    HW125817   3.193   2.320  15.969  3.4796 -1.2324  1.2729
 4785SOL    HW225818   3.143   2.264  15.841  2.2560 -0.1616 -0.3550
 4786SOL     OW25819   0.999   3.242   6.224 -0.2579 -0.4161  0.2060
 4786SOL    HW125820   1.032   3.164   6.179 -2.3480 -0.5523 -1.1190
 4786SOL    HW225821   1.020   3.318   6.169  0.2333  0.4126  1.5493
 4787SOL     OW25822   2.746   2.451   6.228  0.1915 -0.0878  0.8155
 4787SOL    HW125823   2.783   2.539   6.229 -1.4723  0.6099  0.8496
 4787SOL    HW225824   2.828   2.406   6.246 -0.1823 -1.5359 -1.0970
 4788SOL     OW25825   0.514   1.087   3.287 -0.8143 -0.0844  0.1133
 4788SOL    HW125826   0.606   1.099   3.310 -1.1354 -1.1827  2.0250
 4788SOL    HW225827   0.472   1.172   3.302  0.4270  0.6962 -0.8778
 4789SOL     OW25828   4.555   2.493   3.475  0.5111  0.0311 -0.1963
 4789SOL    HW125829   4.518   2.581   3.469 -0.0608 -0.1716  0.3515
 4789SOL    HW225830   4.640   2.514   3.436  0.4823 -1.3718 -1.0293
 4790SOL     OW25831   2.428   3.302   8.444  0.3349  0.5058 -1.2590
 4790SOL    HW125832   2.471   3.370   8.497  0.5693  0.3396 -1.2314
 4790SOL    HW225833   2.364   3.354   8.397  0.0114  0.4542 -0.8797
 4791SOL     OW25834   4.002   0.839   0.223  0.8612 -0.3526 -0.3783
 4791SOL    HW125835   4.088   0.797   0.214  1.4781  0.5593  1.1451
 4791SOL    HW225836   4.029   0.905   0.287 -0.7525  1.4928 -1.6096
 4792SOL     OW25837   2.539   4.067   3.389 -0.1029  0.3601 -0.4543
 4792SOL    HW125838   2.500   4.152   3.409  0.9809  1.1610 -1.8047
 4792SOL    HW225839   2.467   4.011   3.419  1.5117 -0.8472  1.2128
 4793SOL     OW25840   1.597   1.028   3.601 -0.1573 -0.2309  0.5512
 4793SOL    HW125841   1.608   0.934   3.588  0.2945 -0.1155  0.0889
 4793SOL    HW225842   1.552   1.032   3.685 -0.0393 -0.0218  0.6053
 4794SOL     OW25843   4.461   0.854   8.002  0.1803 -0.1097 -1.2471
 4794SOL    HW125844   4.382   0.832   7.952 -0.4541 -1.2368  0.2568
 4794SOL    HW225845   4.515   0.885   7.929 -1.2989  2.3595 -1.2827
 4795SOL     OW25846   0.520   0.926   3.018 -0.5593 -0.2780 -0.2297
 4795SOL    HW125847   0.562   0.945   3.102 -1.2474 -1.1419  0.2985
 4795SOL    HW225848   0.435   0.895   3.048 -1.0739  0.7422 -0.6315
 4796SOL     OW25849   2.870   2.819   3.575 -0.3564  0.1610  0.8160
 4796SOL    HW125850   2.943   2.763   3.602 -0.0541  0.1616  0.0290
 4796SOL    HW225851   2.795   2.775   3.614 -0.8378 -1.5207 -1.9665
 4797SOL     OW25852   3.390   2.766  15.659  0.2075 -0.0403 -0.1368
 4797SOL    HW125853   3.321   2.810  15.608 -1.3507 -0.9083  1.2256
 4797SOL    HW225854   3.451   2.746  15.588  0.0394 -0.5454 -0.1389
 4798SOL     OW25855   1.469   4.365  11.115 -0.1291  0.3426 -0.4139
 4798SOL    HW125856   1.520   4.411  11.181 -3.3653 -0.9733  2.9702
 4798SOL    HW225857   1.385   4.363  11.160  0.6611 -0.8861  0.9656
 4799SOL     OW25858   2.115   3.570   9.096 -0.2803 -0.4427  0.2585
 4799SOL    HW125859   2.086   3.548   9.185 -2.5244 -2.1953 -0.9209
 4799SOL    HW225860   2.179   3.501   9.081 -0.9462 -1.1568  0.7087
 4800SOL     OW25861   3.490   0.097   4.943  0.1180 -0.0467  0.3421
 4800SOL    HW125862   3.564   0.126   4.890 -0.5514  1.8488  0.4246
 4800SOL    HW225863   3.535   0.017   4.968 -0.6173 -0.6408 -0.2128
 4801SOL     OW25864   4.473   1.405   3.724 -0.2810  1.2476  0.0670
 4801SOL    HW125865   4.554   1.355   3.732  0.8502  3.1352  0.4404
 4801SOL    HW225866   4.453   1.369   3.638 -0.5987  0.0892  0.6313
 4802SOL     OW25867   2.004   0.063   8.074 -0.1035 -0.3501  0.1299
 4802SOL    HW125868   2.059   0.127   8.028 -2.8437 -0.2320 -3.0175
 4802SOL    HW225869   2.059   4.710   8.080 -0.7866 -0.7570  0.9750
 4803SOL     OW25870   3.779   1.626   2.873  0.2737 -0.3117 -0.3986
 4803SOL    HW125871   3.723   1.672   2.811  0.8303 -1.2893 -1.6327
 4803SOL    HW225872   3.839   1.587   2.809  0.9060 -0.9683  0.5865
 4804SOL     OW25873   0.370   4.697   8.223  0.0542  0.4341 -0.0170
 4804SOL    HW125874   0.338   0.004   8.308 -3.3035 -0.5866 -0.9076
 4804SOL    HW225875   0.351   4.604   8.228  0.1191  0.4807  1.0947
 4805SOL     OW25876   3.229   4.616  15.100 -0.6315  1.0095  0.0927
 4805SOL    HW125877   3.291   4.624  15.028 -0.5602 -2.7135 -0.2576
 4805SOL    HW225878   3.215   4.710  15.118  2.3421  1.3463  0.5628
 4806SOL     OW25879   2.956   4.160  17.247  0.1953  0.6890  0.2583
 4806SOL    HW125880   2.988   4.079  17.286 -0.7667 -0.6435 -1.7134
 4806SOL    HW225881   2.864   4.171  17.273  0.4944  2.3220  0.6378
 4807SOL     OW25882   1.289   1.376   7.258  0.1623  0.6426 -0.5963
 4807SOL    HW125883   1.270   1.283   7.244  2.4051 -0.1752  1.7144
 4807SOL    HW225884   1.356   1.370   7.326  0.3149 -1.3353 -0.9193
 4808SOL     OW25885   1.715   0.006   5.342  0.3020 -0.6492  0.1406
 4808SOL    HW125886   1.718   0.093   5.302  0.2864 -1.0579 -0.7448
 4808SOL    HW225887   1.649   0.010   5.411 -1.0773 -0.6819 -1.1785
 4809SOL     OW25888   3.756   2.472  16.216 -0.2086 -0.2222 -0.2962
 4809SOL    HW125889   3.835   2.522  16.233  0.7354 -1.6254 -0.6035
 4809SOL    HW225890   3.728   2.514  16.134  0.6360 -1.6045 -1.3025
 4810SOL     OW25891   3.581   1.924   8.769  0.1336  0.4513  0.0449
 4810SOL    HW125892   3.603   1.855   8.831 -1.1591 -0.0471 -0.0624
 4810SOL    HW225893   3.497   1.901   8.730  0.6230 -2.4214  0.7201
 4811SOL     OW25894   0.675   0.052  10.978  0.2108  0.4551  0.3772
 4811SOL    HW125895   0.763   0.042  10.944  0.4430 -1.3720  1.5623
 4811SOL    HW225896   0.672   4.703  11.039 -1.2809  0.3023  0.1135
 4812SOL     OW25897   2.242   4.073   4.993 -0.3837  0.4431 -0.3715
 4812SOL    HW125898   2.331   4.052   4.965  0.5490  2.3404  1.1689
 4812SOL    HW225899   2.204   3.985   4.989  1.5615 -0.4044 -0.2846
 4813SOL     OW25900   2.020   1.429  16.452 -0.0640  0.0514 -0.7212
 4813SOL    HW125901   2.048   1.357  16.510 -0.3400  0.9714  0.5570
 4813SOL    HW225902   1.977   1.392  16.375 -1.0808  0.6441 -0.4325
 4814SOL     OW25903   1.888   2.066   6.147  0.2474  0.5251 -0.2170
 4814SOL    HW125904   1.853   2.011   6.217  1.1006 -0.0252 -0.2147
 4814SOL    HW225905   1.921   1.991   6.098  0.2210  1.3474 -1.4743
 4815SOL     OW25906   4.216   0.055   2.137 -0.5737 -0.1398  0.6255
 4815SOL    HW125907   4.175   0.042   2.222  1.7877  2.5068  2.1613
 4815SOL    HW225908   4.156   0.018   2.072 -1.4679 -0.2720  1.5267
 4816SOL     OW25909   3.244   3.136   6.565 -0.2648  0.6602 -0.4072
 4816SOL    HW125910   3.279   3.193   6.497  0.3432 -0.5355 -1.0853
 4816SOL    HW225911   3.326   3.101   6.599 -0.4780  0.7560  0.2126
 4817SOL     OW25912   1.120   4.650   9.143 -0.6525  0.1150  0.0423
 4817SOL    HW125913   1.184   4.718   9.162  0.6650 -1.5381  1.5830
 4817SOL    HW225914   1.170   4.572   9.169  0.5662  1.1702  0.8553
 4818SOL     OW25915   4.201   0.257   7.483 -0.9415 -0.1887 -0.3290
 4818SOL    HW125916   4.107   0.242   7.493 -0.2564 -4.5863 -0.6957
 4818SOL    HW225917   4.221   0.186   7.422 -1.2610  0.0961 -0.7650
 4819SOL     OW25918   4.228   3.702  10.129  0.1442  0.4907  0.3029
 4819SOL    HW125919   4.165   3.773  10.147 -1.2789 -0.6435 -0.2103
 4819SOL    HW225920   4.224   3.719  10.035 -1.5403 -1.2285  0.0574
 4820SOL     OW25921   4.532   3.522   4.983  0.1769 -0.0800  0.0371
 4820SOL    HW125922   4.546   3.429   4.965  0.2014 -0.0748  0.0300
 4820SOL    HW225923   4.563   3.529   5.073 -1.4742  1.6921  0.4812
 4821SOL     OW25924   2.191   4.100   9.014  0.1383  0.1911 -0.3672
 4821SOL    HW125925   2.115   4.155   8.995 -0.1667  0.2690  1.0892
 4821SOL    HW225926   2.184   4.019   8.963  0.2994 -0.0860  0.0504
 4822SOL     OW25927   0.531   4.421   9.011 -0.7805  0.1926  0.5440
 4822SOL    HW125928   0.618   4.457   8.994 -1.5606  1.2124 -1.3495
 4822SOL    HW225929   0.487   4.506   9.012  0.8140  1.0756 -3.3488
 4823SOL     OW25930   4.431   0.671   4.626 -0.1076 -0.0502 -0.4155
 4823SOL    HW125931   4.481   0.752   4.632 -0.4475  0.1649 -0.4650
 4823SOL    HW225932   4.471   0.640   4.544  1.9236 -2.4010  1.4616
 4824SOL     OW25933   2.367   1.107   2.905 -0.1134  0.1684 -0.0126
 4824SOL    HW125934   2.345   1.047   2.976 -0.0099 -0.5834 -0.6251
 4824SOL    HW225935   2.293   1.167   2.902 -0.9160 -0.7366  1.5813
 4825SOL     OW25936   2.399   1.134   7.944 -0.1498 -0.1246  0.4838
 4825SOL    HW125937   2.396   1.230   7.951  2.5371 -0.1162  1.6414
 4825SOL    HW225938   2.351   1.118   8.025 -1.3750 -0.7713 -0.3925
 4826SOL     OW25939   3.763   3.369   3.899 -0.1731 -0.0013  0.0129
 4826SOL    HW125940   3.700   3.431   3.862 -2.1191 -2.4798 -0.9016
 4826SOL    HW225941   3.757   3.292   3.843  0.0151 -0.9141  1.2351
 4827SOL     OW25942   4.043   4.692  14.652 -0.1118  0.3877  0.2776
 4827SOL    HW125943   4.103   0.033  14.616  0.0245  0.7408  1.1383
 4827SOL    HW225944   3.958   4.715  14.615  0.4225 -0.3970 -1.4533
 4828SOL     OW25945   1.933   1.111   8.057 -0.2162  1.0833 -0.2257
 4828SOL    HW125946   1.858   1.076   8.106  0.7803  0.5883  0.9403
 4828SOL    HW225947   1.968   1.032   8.017  2.6798  0.4422  3.5359
 4829SOL     OW25948   2.753   4.516   4.900  0.1662  0.2381 -0.0496
 4829SOL    HW125949   2.758   4.565   4.982 -1.1330  0.6181 -0.1928
 4829SOL    HW225950   2.842   4.486   4.883  1.1300  2.1063  1.6949
 4830SOL     OW25951   4.047   2.902   7.893  0.0286  0.3783  0.2889
 4830SOL    HW125952   4.117   2.841   7.920  1.3222  1.9054  0.3688
 4830SOL    HW225953   4.084   2.988   7.874  0.5329  0.2264  0.5542
 4831SOL     OW25954   1.013   4.034   4.702 -0.0512  0.1873  0.1424
 4831SOL    HW125955   1.033   3.965   4.766 -1.1480 -0.5568 -0.3173
 4831SOL    HW225956   1.066   4.107   4.734  1.7041 -1.5278  1.1628
 4832SOL     OW25957   2.645   2.816   5.487  0.2024  0.2350 -0.2056
 4832SOL    HW125958   2.687   2.857   5.563  1.5767 -1.7944  0.1100
 4832SOL    HW225959   2.696   2.839   5.409  0.4980  0.1327 -0.0412
 4833SOL     OW25960   1.364   0.352   5.394  0.1983 -0.0054  0.0548
 4833SOL    HW125961   1.287   0.383   5.442  1.3662  1.1760  1.1359
 4833SOL    HW225962   1.423   0.428   5.395 -0.0959  0.2277 -0.3693
 4834SOL     OW25963   2.529   0.156   7.466  0.4785  0.3150  0.0695
 4834SOL    HW125964   2.477   0.211   7.525  0.1121 -0.5881  0.5830
 4834SOL    HW225965   2.474   0.160   7.388  0.0275 -0.7334  0.3349
 4835SOL     OW25966   3.837   3.156   2.789  0.2782  0.5203 -0.0532
 4835SOL    HW125967   3.831   3.214   2.865  0.1201  0.2417  0.1482
 4835SOL    HW225968   3.746   3.131   2.775  1.4243 -2.5590 -2.1008
 4836SOL     OW25969   1.727   3.219   8.672 -0.2446  0.0162  0.1016
 4836SOL    HW125970   1.799   3.163   8.702 -0.1219  0.9457  1.5326
 4836SOL    HW225971   1.763   3.308   8.672 -1.1058  0.3678  0.0414
 4837SOL     OW25972   0.574   2.911   5.920  0.2890 -0.1494  0.2259
 4837SOL    HW125973   0.589   2.984   5.859 -0.9446 -0.5140 -0.5186
 4837SOL    HW225974   0.596   2.832   5.871 -2.6160 -0.7515 -0.1011
 4838SOL     OW25975   1.298   0.516   8.741 -0.5859 -0.0640 -0.2674
 4838SOL    HW125976   1.256   0.590   8.784  1.3258  0.4262  0.7373
 4838SOL    HW225977   1.382   0.561   8.748 -0.5585 -0.2463  0.5990
 4839SOL     OW25978   3.490   3.699   0.513  0.3653  0.1446 -0.0217
 4839SOL    HW125979   3.454   3.637   0.577 -0.2998  1.6367  1.0493
 4839SOL    HW225980   3.581   3.718   0.533  0.6945 -0.8747 -0.5604
 4840SOL     OW25981   3.783   1.137   7.864 -0.5096 -0.4183 -0.1483
 4840SOL    HW125982   3.759   1.223   7.896  1.4394  0.2484 -0.4667
 4840SOL    HW225983   3.868   1.163   7.829 -0.5826  0.6965  0.5229
 4841SOL     OW25984   3.434   2.433   3.932 -0.0912  0.3353 -0.2656
 4841SOL    HW125985   3.382   2.511   3.953  0.5565 -0.3091  3.7368
 4841SOL    HW225986   3.433   2.427   3.836 -1.5582 -0.2211 -0.2137
 4842SOL     OW25987   1.890   0.063  11.366 -0.5486  0.4653 -0.6771
 4842SOL    HW125988   1.821   0.099  11.421  0.8979 -0.3855  1.6980
 4842SOL    HW225989   1.939   0.141  11.339 -0.9460  1.3220  1.1468
 4843SOL     OW25990   4.272   1.700  14.125  0.3262 -0.1435 -0.5675
 4843SOL    HW125991   4.314   1.641  14.187 -1.2569  0.4247  1.0355
 4843SOL    HW225992   4.320   1.781  14.145  0.0761 -0.1110 -0.1013
 4844SOL     OW25993   2.956   1.477  13.048  0.0023 -0.2128  0.1907
 4844SOL    HW125994   2.874   1.515  13.081  1.2455  0.0186  2.9882
 4844SOL    HW225995   2.939   1.449  12.958  1.1933  1.2157 -0.4671
 4845SOL     OW25996   0.526   4.393   0.963 -1.1375 -0.4541  0.0755
 4845SOL    HW125997   0.581   4.407   0.886 -0.7318  2.9308  0.9717
 4845SOL    HW225998   0.585   4.359   1.031  0.6065  1.7136 -0.3857
 4846SOL     OW25999   3.983   2.301   8.249 -0.0797 -0.5795  0.5719
 4846SOL    HW126000   3.896   2.263   8.239 -0.0538 -0.7977  1.1958
 4846SOL    HW226001   4.043   2.227   8.245 -0.4447 -0.8038 -0.8931
 4847SOL     OW26002   1.530   4.428   9.562 -0.0469  0.3924  0.6411
 4847SOL    HW126003   1.459   4.477   9.603 -1.3928  0.4123 -1.7269
 4847SOL    HW226004   1.561   4.496   9.502  1.2097 -1.5284 -0.9164
 4848SOL     OW26005   0.456   2.572   6.899 -0.4857  0.6221  0.2373
 4848SOL    HW126006   0.375   2.528   6.926 -0.6663  2.5964  2.9889
 4848SOL    HW226007   0.434   2.662   6.873 -0.6319  0.5892  0.2466
 4849SOL     OW26008   0.548   0.078   5.411 -0.4645 -0.2985  0.3420
 4849SOL    HW126009   0.618   0.022   5.443  1.2081  1.1747 -0.7583
 4849SOL    HW226010   0.475   0.043   5.463 -2.0989  1.0796 -1.0060
 4850SOL     OW26011   4.562   4.541   6.977  0.2548 -0.1197 -0.0375
 4850SOL    HW126012   4.477   4.584   6.963 -0.8036 -2.0725  0.4305
 4850SOL    HW226013   4.583   4.579   7.062  0.5890 -2.1560  0.7882
 4851SOL     OW26014   2.890   4.720   0.708 -0.2163  0.1858  0.0404
 4851SOL    HW126015   2.931   0.043   0.635  1.9186 -0.4375  0.8322
 4851SOL    HW226016   2.902   0.052   0.784 -1.1199 -0.2630  0.5062
 4852SOL     OW26017   3.125   1.442   1.872 -0.3351  0.2151 -0.0600
 4852SOL    HW126018   3.104   1.354   1.840  0.8613 -0.5203  1.1819
 4852SOL    HW226019   3.217   1.440   1.847  0.2025  0.6925  1.8977
 4853SOL     OW26020   0.805   0.053  16.883  0.1556  0.6320 -0.1099
 4853SOL    HW126021   0.857   0.101  16.948 -3.2873  0.3462  2.8357
 4853SOL    HW226022   0.769   4.713  16.943 -0.1869  2.7243  1.9289
 4854SOL     OW26023   0.287   0.781   9.053 -0.1184  0.2154 -0.2961
 4854SOL    HW126024   0.320   0.692   9.045  1.6218  0.7473  0.9564
 4854SOL    HW226025   0.361   0.829   9.092 -1.1104  2.2946 -0.9649
 4855SOL     OW26026   2.293   3.872   5.809  0.7637 -0.2349 -0.4269
 4855SOL    HW126027   2.337   3.824   5.739  0.3459 -2.1785  0.6204
 4855SOL    HW226028   2.364   3.925   5.843 -0.0587  0.4344  0.2425
 4856SOL     OW26029   2.159   2.161   4.407 -0.5540  0.3011  0.0288
 4856SOL    HW126030   2.161   2.100   4.333 -2.9370  0.3095 -0.0203
 4856SOL    HW226031   2.241   2.132   4.449 -0.3744  0.8328  0.0496
 4857SOL     OW26032   4.088   4.366   3.363  0.2972  0.4824  0.7359
 4857SOL    HW126033   4.070   4.397   3.452 -0.0986  2.9925 -0.1967
 4857SOL    HW226034   4.167   4.313   3.374 -0.6902 -0.6930  2.1060
 4858SOL     OW26035   0.011   2.438  11.822  0.2515 -0.5890 -0.8392
 4858SOL    HW126036   4.653   2.441  11.872  0.6388  1.7254 -0.3425
 4858SOL    HW226037   0.018   2.528  11.790  0.8101  0.2388  1.5690
 4859SOL     OW26038   3.696   0.106   5.215 -0.3393 -0.0585  0.2176
 4859SOL    HW126039   3.601   0.113   5.220 -0.5010 -2.7511  0.9314
 4859SOL    HW226040   3.716   0.182   5.161  3.3233 -1.4502 -0.3781
 4860SOL     OW26041   3.893   3.013   7.612 -0.2512 -0.1629  0.3317
 4860SOL    HW126042   3.972   3.019   7.667 -1.5792  2.1863  1.9831
 4860SOL    HW226043   3.834   2.947   7.648 -0.0971  0.6400  2.0346
 4861SOL     OW26044   1.964   1.629   8.959 -0.1216  0.1568  0.8039
 4861SOL    HW126045   1.923   1.549   8.993  1.8943 -2.4899 -2.9964
 4861SOL    HW226046   1.947   1.692   9.029  0.5185  2.6981 -1.3279
 4862SOL     OW26047   2.585   0.898  10.356 -0.3529  0.6912  0.0235
 4862SOL    HW126048   2.509   0.920  10.410  1.0324  0.8884  1.8845
 4862SOL    HW226049   2.546   0.830  10.300 -0.0899 -0.0891  0.7897
 4863SOL     OW26050   0.557   4.034   3.197 -0.0891  0.2282 -0.3700
 4863SOL    HW126051   0.584   3.975   3.268 -1.9014  0.4804  0.5073
 4863SOL    HW226052   0.512   3.979   3.134 -0.2038  0.3814 -0.4204
 4864SOL     OW26053   0.543   3.278   8.987 -0.1858  0.0646  0.1691
 4864SOL    HW126054   0.466   3.221   8.979  1.2706 -1.6786 -1.5623
 4864SOL    HW226055   0.524   3.337   9.060  0.7558  1.5973 -0.8384
 4865SOL     OW26056   0.993   2.113   8.215 -0.2111  0.3961 -0.3400
 4865SOL    HW126057   1.048   2.135   8.290 -2.0709  1.4224  0.7068
 4865SOL    HW226058   0.904   2.128   8.247 -0.8589 -1.4326 -1.2603
 4866SOL     OW26059   3.333   3.468   3.453 -0.4317  0.2907  0.2789
 4866SOL    HW126060   3.396   3.503   3.390 -0.6311 -0.2974 -0.2479
 4866SOL    HW226061   3.283   3.415   3.390 -2.0172 -0.6708  2.3347
 4867SOL     OW26062   3.656   2.065   0.573 -0.5182  0.4243  0.1240
 4867SOL    HW126063   3.717   1.995   0.599 -0.1957 -0.4500 -2.9935
 4867SOL    HW226064   3.719   2.135   0.556 -1.0811  0.6268 -1.0916
 4868SOL     OW26065   2.494   1.211  10.395  0.7301  0.8844 -0.0415
 4868SOL    HW126066   2.510   1.248  10.481 -3.2907  2.3331  0.0918
 4868SOL    HW226067   2.446   1.133  10.423  3.0271 -0.1490  1.0518
 4869SOL     OW26068   2.551   3.188   3.070 -0.1520  0.0811 -0.0682
 4869SOL    HW126069   2.485   3.140   3.120 -0.1547  3.1227  2.8784
 4869SOL    HW226070   2.554   3.270   3.120  1.6980  0.1955 -0.3557
 4870SOL     OW26071   1.333   0.098   9.208  0.1463 -0.3912  0.0576
 4870SOL    HW126072   1.336   0.188   9.176 -3.2661  0.3777  1.8806
 4870SOL    HW226073   1.326   0.113   9.303 -0.9885 -4.3650  0.6201
 4871SOL     OW26074   1.573   2.940  10.316  0.1776  0.1751 -0.1169
 4871SOL    HW126075   1.619   2.875  10.369 -0.4066 -1.1125 -1.1835
 4871SOL    HW226076   1.522   2.993  10.378 -2.1628 -2.6859  0.4164
 4872SOL     OW26077   2.282   1.372   1.371  0.7078  0.9273 -0.1752
 4872SOL    HW126078   2.303   1.380   1.464 -1.3934  0.7986  0.3033
 4872SOL    HW226079   2.201   1.422   1.363 -0.6301 -1.2676 -0.6046
 4873SOL     OW26080   1.823   2.980   3.864 -0.6255 -1.0295  0.2280
 4873SOL    HW126081   1.730   3.000   3.857 -0.2464  0.2400 -1.1355
 4873SOL    HW226082   1.846   2.978   3.957 -1.6406  0.3991  0.5061
 4874SOL     OW26083   2.693   2.690   7.922  0.6564  0.2298  0.0519
 4874SOL    HW126084   2.756   2.703   7.994  1.2906 -1.0420 -0.2742
 4874SOL    HW226085   2.711   2.596   7.916  1.1183  0.3648 -0.6511
 4875SOL     OW26086   2.138   4.564   4.524  0.0681 -0.3884 -0.6304
 4875SOL    HW126087   2.104   4.489   4.573  0.5082 -0.1101  0.0996
 4875SOL    HW226088   2.222   4.526   4.498  1.1598  2.3374 -1.0664
 4876SOL     OW26089   2.128   3.138  11.204 -0.2812 -0.7953 -1.1632
 4876SOL    HW126090   2.204   3.109  11.152  0.2001 -1.5053 -0.0717
 4876SOL    HW226091   2.151   3.103  11.290  3.7195 -0.6310 -2.1257
 4877SOL     OW26092   1.484   3.951   7.309 -0.4908 -0.6078 -0.5822
 4877SOL    HW126093   1.543   3.901   7.365  0.4381  1.7815  0.5528
 4877SOL    HW226094   1.421   3.880   7.295 -1.2336  0.1898 -1.3008
 4878SOL     OW26095   4.028   2.975   4.418 -0.4203 -0.1890 -0.2499
 4878SOL    HW126096   3.940   2.964   4.455  0.3320 -1.1719  1.2769
 4878SOL    HW226097   4.016   2.943   4.329 -0.7990 -0.6748 -0.0249
 4879SOL     OW26098   0.285   4.018   7.654  0.3265  0.1475 -0.1025
 4879SOL    HW126099   0.307   4.110   7.636  1.7708 -0.3292 -0.8091
 4879SOL    HW226100   0.341   3.972   7.591 -1.1940 -0.5088 -0.9505
 4880SOL     OW26101   3.720   1.778   9.598  0.0541  0.2342  0.2414
 4880SOL    HW126102   3.813   1.765   9.582  0.3234  1.5024  0.7813
 4880SOL    HW226103   3.679   1.785   9.512  0.9271 -1.1829 -0.2837
 4881SOL     OW26104   0.992   2.785   4.839  0.1696 -0.1513  0.8805
 4881SOL    HW126105   0.933   2.823   4.905 -0.8662 -0.6362  0.2378
 4881SOL    HW226106   0.952   2.702   4.814  2.4050 -1.4005  1.4797
 4882SOL     OW26107   3.731   4.369   8.471 -0.2603  0.3230  0.5103
 4882SOL    HW126108   3.713   4.276   8.479  2.0466 -0.1260  0.5883
 4882SOL    HW226109   3.712   4.403   8.558  0.6230  1.7144  0.1694
 4883SOL     OW26110   0.321   3.748  12.279  0.1727 -0.3242  0.0212
 4883SOL    HW126111   0.372   3.733  12.358 -0.3175  0.2115  0.4427
 4883SOL    HW226112   0.376   3.740  12.201  0.4063  2.0648 -0.0572
 4884SOL     OW26113   2.361   2.508  17.045  0.1109 -0.1139  0.5151
 4884SOL    HW126114   2.331   2.439  17.104 -0.1056 -0.3954  0.0740
 4884SOL    HW226115   2.423   2.550  17.104  0.6666 -0.0631 -0.1082
 4885SOL     OW26116   3.058   4.448   2.632  0.1569  0.6723  0.0374
 4885SOL    HW126117   3.138   4.497   2.646 -0.0087  0.7282  0.7768
 4885SOL    HW226118   3.000   4.518   2.602 -0.7812  0.7348  1.9801
 4886SOL     OW26119   4.439   0.009  14.123  0.8542  0.4450  0.4831
 4886SOL    HW126120   4.345   0.001  14.109  1.0420  2.0888 -1.6920
 4886SOL    HW226121   4.460   4.657  14.178 -0.3601  0.6066  1.1640
 4887SOL     OW26122   4.089   4.078   8.177 -0.4454  0.2240 -0.2958
 4887SOL    HW126123   4.013   4.063   8.120 -1.6654 -1.4970  1.7825
 4887SOL    HW226124   4.097   3.987   8.206  1.8668  0.8637  1.0132
 4888SOL     OW26125   2.609   0.125  13.556  0.1649  0.2794 -0.3636
 4888SOL    HW126126   2.638   0.164  13.474 -2.9751  2.1592 -0.5982
 4888SOL    HW226127   2.516   0.150  13.554  0.4632  1.6734  3.0172
 4889SOL     OW26128   4.008   2.205   1.021  0.3646 -0.5422  0.0660
 4889SOL    HW126129   3.995   2.291   1.062  0.9882  0.4100 -1.7268
 4889SOL    HW226130   3.959   2.220   0.940  2.7843  2.7004 -0.8218
 4890SOL     OW26131   1.341   0.070   3.990  0.0855 -0.0653  0.3775
 4890SOL    HW126132   1.421   0.045   3.943  1.4127  1.8497  1.6165
 4890SOL    HW226133   1.312   4.714   4.031  1.5335 -1.7542 -1.9350
 4891SOL     OW26134   1.491   1.016   2.975 -0.5033 -0.1608 -0.7459
 4891SOL    HW126135   1.530   0.984   3.057  0.5327  1.4686 -0.6149
 4891SOL    HW226136   1.497   1.108   3.001 -0.6490 -0.2340 -0.4393
 4892SOL     OW26137   2.153   2.947   3.079  0.3528  0.4796 -0.3224
 4892SOL    HW126138   2.225   3.010   3.088  0.4019  0.0932  1.9122
 4892SOL    HW226139   2.153   2.901   3.162 -2.3144  1.5472  0.2939
 4893SOL     OW26140   4.045   0.798  12.562  0.6777 -0.3988  0.2594
 4893SOL    HW126141   4.121   0.855  12.571  0.3510 -0.0546  0.8260
 4893SOL    HW226142   4.044   0.789  12.466  0.0018 -0.9837  0.3194
 4894SOL     OW26143   4.067   3.160   2.113 -0.6442  0.0012 -0.0356
 4894SOL    HW126144   4.029   3.074   2.131 -0.2439  0.4305  2.8537
 4894SOL    HW226145   4.150   3.163   2.162 -0.1656 -0.4516 -0.8116
 4895SOL     OW26146   3.194   3.791   5.971 -0.1613  0.2169 -0.1875
 4895SOL    HW126147   3.233   3.873   6.001  2.7630 -1.6546  1.2139
 4895SOL    HW226148   3.118   3.797   6.028  0.6094  2.3048  0.6055
 4896SOL     OW26149   1.905   4.167   2.033  0.2859  0.5248  0.3956
 4896SOL    HW126150   1.822   4.138   1.994 -0.5524  4.4468 -0.6940
 4896SOL    HW226151   1.928   4.100   2.097  0.1836  1.5974  1.5566
 4897SOL     OW26152   2.247   0.926  12.229 -0.1494 -0.2726  0.1056
 4897SOL    HW126153   2.278   0.836  12.233  1.8099  0.5021  2.6373
 4897SOL    HW226154   2.203   0.935  12.313  0.1308 -1.7311  0.4126
 4898SOL     OW26155   3.289   4.113  12.034  0.3080  0.4514 -0.5389
 4898SOL    HW126156   3.241   4.166  12.097  0.2370 -0.3281  0.0568
 4898SOL    HW226157   3.373   4.117  12.079 -0.9759 -2.8854  2.1602
 4899SOL     OW26158   3.925   2.930   2.154 -0.5347  0.1913 -0.0374
 4899SOL    HW126159   3.919   2.840   2.186 -0.2037 -0.2871 -1.3437
 4899SOL    HW226160   3.832   2.952   2.145 -0.3877  0.8931  0.2016
 4900SOL     OW26161   3.775   3.689   6.357  0.3253 -0.3575  0.1341
 4900SOL    HW126162   3.700   3.735   6.395 -0.8340  0.1740 -2.7618
 4900SOL    HW226163   3.787   3.620   6.422  1.7504  0.9688  1.2853
 4901SOL     OW26164   1.681   2.282  10.006  0.0175 -0.1288 -0.2964
 4901SOL    HW126165   1.656   2.366   9.967  1.4824 -0.4238 -1.8174
 4901SOL    HW226166   1.697   2.229   9.928  1.4308  0.1922 -0.2307
 4902SOL     OW26167   4.389   3.734   8.193  0.1789  0.2753  0.3136
 4902SOL    HW126168   4.425   3.654   8.156 -0.5270  0.5939 -1.0705
 4902SOL    HW226169   4.402   3.723   8.287  0.2942 -1.6141  0.0899
 4903SOL     OW26170   2.773   3.826   0.961 -0.5351 -0.7833  0.0207
 4903SOL    HW126171   2.817   3.751   0.921  1.1912  1.3648 -2.0890
 4903SOL    HW226172   2.753   3.886   0.889  2.1152  0.8035  0.5857
 4904SOL     OW26173   2.961   0.211  16.842  0.4417  0.2950 -0.1238
 4904SOL    HW126174   2.947   0.135  16.898  2.6129  0.0218  0.0310
 4904SOL    HW226175   3.011   0.268  16.901  2.4702 -1.3990 -0.2241
 4905SOL     OW26176   2.307   4.534  11.923  0.1412 -0.3007  0.9064
 4905SOL    HW126177   2.335   4.445  11.904  0.5927  0.1695 -0.6372
 4905SOL    HW226178   2.386   4.587  11.909  0.2230 -0.9406 -0.9770
 4906SOL     OW26179   0.673   2.664   5.293  0.2172 -0.6034 -0.0073
 4906SOL    HW126180   0.676   2.667   5.388  0.6535 -1.0140 -0.0076
 4906SOL    HW226181   0.716   2.747   5.270  3.1214 -1.7697  1.2770
 4907SOL     OW26182   3.305   3.504   7.552 -0.0252  0.2054  0.1146
 4907SOL    HW126183   3.267   3.416   7.549 -0.7996  0.5762 -0.7245
 4907SOL    HW226184   3.326   3.535   7.464  0.2704 -0.5182 -0.0676
 4908SOL     OW26185   3.387   4.053   7.882  0.1096 -0.7686  0.0631
 4908SOL    HW126186   3.411   3.961   7.893  0.0142 -0.8470 -0.3761
 4908SOL    HW226187   3.379   4.083   7.973 -1.1847 -2.1762  0.4163
 4909SOL     OW26188   3.187   1.317  10.843 -0.1596  0.8871  0.1012
 4909SOL    HW126189   3.113   1.354  10.892 -1.1955 -0.1264 -0.6851
 4909SOL    HW226190   3.242   1.273  10.907 -0.9585 -1.0529 -0.5427
 4910SOL     OW26191   3.032   1.366  17.511  0.0733  0.1765  0.5114
 4910SOL    HW126192   2.983   1.364  17.429 -0.1705  0.8674  0.6424
 4910SOL    HW226193   2.987   1.291  17.551  1.8515 -1.8881 -1.3913
 4911SOL     OW26194   2.205   0.777   4.074 -0.2289 -0.2028 -0.4875
 4911SOL    HW126195   2.193   0.746   3.984  0.3595  0.4519 -0.7973
 4911SOL    HW226196   2.172   0.867   4.075  1.7605  0.5058  2.1144
 4912SOL     OW26197   1.030   4.434   4.179  0.6611 -0.8406 -0.6254
 4912SOL    HW126198   0.959   4.371   4.188  2.1591 -2.3425  0.6868
 4912SOL    HW226199   1.006   4.488   4.254 -1.2229 -3.5406  0.7036
 4913SOL     OW26200   2.905   2.708   7.586  0.0114  0.3168 -0.2447
 4913SOL    HW126201   2.971   2.753   7.639 -0.8579 -1.4118  2.3049
 4913SOL    HW226202   2.829   2.764   7.599 -0.1501 -0.2972  1.5082
 4914SOL     OW26203   3.009   0.899   2.311  0.7629  0.0057 -0.3738
 4914SOL    HW126204   2.945   0.846   2.264  0.1891  0.2690  0.1123
 4914SOL    HW226205   3.048   0.828   2.364  2.7230 -1.1185 -3.3369
 4915SOL     OW26206   3.804   1.754   7.679  0.4143 -0.2177  0.0741
 4915SOL    HW126207   3.724   1.777   7.631 -0.4204 -2.2181  0.5186
 4915SOL    HW226208   3.772   1.682   7.733  0.3397 -1.0939 -1.1549
 4916SOL     OW26209   3.419   0.937  16.042  0.1737 -0.3261  0.4883
 4916SOL    HW126210   3.361   1.002  16.082 -0.1199  0.0655 -0.5903
 4916SOL    HW226211   3.434   0.999  15.970 -5.0515  3.1607  2.4327
 4917SOL     OW26212   0.143   4.671  10.794  0.2971  0.1468  0.1946
 4917SOL    HW126213   0.193   4.601  10.752 -0.6040  0.3160 -1.1801
 4917SOL    HW226214   0.056   4.632  10.791 -0.1590  1.2405 -1.0118
 4918SOL     OW26215   3.346   4.015   5.777 -0.7214 -0.3381 -0.2483
 4918SOL    HW126216   3.335   3.920   5.771  2.0679 -0.7859  1.7287
 4918SOL    HW226217   3.358   4.048   5.687 -4.3990  1.1754 -0.1713
 4919SOL     OW26218   0.471   0.208  10.890  0.0606  0.1650 -0.0564
 4919SOL    HW126219   0.520   0.280  10.929 -0.9204  0.9278 -0.2383
 4919SOL    HW226220   0.540   0.142  10.896  1.0744  1.1836 -0.5469
 4920SOL     OW26221   1.205   1.372   1.257 -0.3445 -0.5106  0.3751
 4920SOL    HW126222   1.281   1.399   1.308 -1.1193  1.3929  0.4982
 4920SOL    HW226223   1.131   1.386   1.315  1.8661  3.2039  2.2662
 4921SOL     OW26224   2.571   2.605   7.420  0.6729 -0.3244 -0.4664
 4921SOL    HW126225   2.580   2.677   7.483 -0.6792  1.2697 -2.0869
 4921SOL    HW226226   2.505   2.548   7.460 -0.4641  1.5829  0.3789
 4922SOL     OW26227   4.544   2.686   4.117 -0.7761  0.3484  0.3151
 4922SOL    HW126228   4.523   2.653   4.030  1.6041 -1.0078  0.2461
 4922SOL    HW226229   4.626   2.642   4.142 -0.5277  0.5178 -0.2017
 4923SOL     OW26230   2.150   2.180  13.706  0.2766 -0.0366 -0.0477
 4923SOL    HW126231   2.128   2.088  13.689  2.4545 -0.2995 -1.4761
 4923SOL    HW226232   2.121   2.186  13.797 -3.0760  1.5795 -1.2363
 4924SOL     OW26233   0.401   1.305  16.583  0.0331 -0.3415 -0.3429
 4924SOL    HW126234   0.418   1.244  16.654 -0.7306 -1.8873 -1.4916
 4924SOL    HW226235   0.445   1.246  16.522  1.1522 -0.6557  0.7771
 4925SOL     OW26236   2.881   1.696  17.293  0.4755  0.2120  0.1197
 4925SOL    HW126237   2.961   1.722  17.339  1.4418 -0.1010 -1.3889
 4925SOL    HW226238   2.873   1.777  17.244  0.6070  1.3597  1.9799
 4926SOL     OW26239   3.148   4.565   1.710 -0.0652  0.5049  0.1279
 4926SOL    HW126240   3.067   4.602   1.675 -1.6256 -0.9353  2.2268
 4926SOL    HW226241   3.184   4.535   1.627  1.7448 -1.5024  1.6509
 4927SOL     OW26242   3.900   2.464   9.092 -0.4190  0.1121  0.0498
 4927SOL    HW126243   3.831   2.404   9.063 -0.2010 -0.2854  0.3509
 4927SOL    HW226244   3.943   2.461   9.007  3.0545  2.0352  1.7105
 4928SOL     OW26245   0.469   4.301   1.664  0.3216  0.5925  0.1484
 4928SOL    HW126246   0.556   4.263   1.647  0.5044  2.3892 -3.0461
 4928SOL    HW226247   0.489   4.383   1.709  0.3750  0.1221  0.9731
 4929SOL     OW26248   0.242   3.414   7.636  0.2120  0.3080 -0.7779
 4929SOL    HW126249   0.204   3.435   7.721 -0.6868  0.8785 -1.3265
 4929SOL    HW226250   0.331   3.395   7.664 -0.9740  0.2383  2.9734
 4930SOL     OW26251   4.619   0.686   8.563 -0.4735 -0.3869 -0.2371
 4930SOL    HW126252   4.533   0.685   8.606 -1.4360 -0.7103 -2.1715
 4930SOL    HW226253   4.620   0.776   8.532 -0.7563 -0.1510  0.4353
 4931SOL     OW26254   3.647   1.545  10.310 -1.0366  0.6105 -0.5206
 4931SOL    HW126255   3.600   1.610  10.258 -2.3644 -0.2962 -0.4645
 4931SOL    HW226256   3.583   1.531  10.381 -0.9892  0.2427 -0.5535
 4932SOL     OW26257   3.959   0.739  15.351  0.4148 -0.4299 -0.0717
 4932SOL    HW126258   3.969   0.721  15.258 -1.1057  1.0528 -0.5143
 4932SOL    HW226259   3.884   0.681  15.365  2.5615 -2.9223  1.2493
 4933SOL     OW26260   0.544   2.773  11.895  0.3902 -0.1959  0.1975
 4933SOL    HW126261   0.560   2.746  11.805  0.0799  1.4708 -0.3604
 4933SOL    HW226262   0.610   2.839  11.916 -0.9557  0.8228  1.2682
 4934SOL     OW26263   1.554   3.283  14.763 -0.2283  0.2095  0.0893
 4934SOL    HW126264   1.578   3.359  14.816 -1.5268 -0.1518  1.1722
 4934SOL    HW226265   1.625   3.228  14.796  0.9947  2.1609  0.6965
 4935SOL     OW26266   3.973   4.041  11.358  0.4759  0.0159 -0.4137
 4935SOL    HW126267   3.882   4.044  11.326  0.2142  1.3909  0.4770
 4935SOL    HW226268   3.975   4.126  11.403  1.6070 -1.7997  2.9255
 4936SOL     OW26269   4.612   2.586   0.384  0.0490  0.6994  0.4376
 4936SOL    HW126270   4.612   2.490   0.389 -2.1805  0.4802 -4.0461
 4936SOL    HW226271   4.621   2.598   0.290 -1.5758 -1.3212  0.0202
 4937SOL     OW26272   1.311   4.644   6.818  0.5162  0.2387  0.1768
 4937SOL    HW126273   1.391   4.658   6.868  0.4684 -3.1478  1.1896
 4937SOL    HW226274   1.289   4.556   6.846  0.5739  0.6075  1.3576
 4938SOL     OW26275   2.509   1.528  11.066  0.1106 -0.3837 -0.1965
 4938SOL    HW126276   2.545   1.616  11.060 -1.4364  0.4493  2.8050
 4938SOL    HW226277   2.424   1.543  11.025 -0.7096 -1.4299  1.0852
 4939SOL     OW26278   1.666   3.795   7.454  0.4206  0.7144 -0.4655
 4939SOL    HW126279   1.631   3.734   7.519  1.4914  1.1384  0.4967
 4939SOL    HW226280   1.732   3.741   7.410  3.0076  0.9494  3.1488
 4940SOL     OW26281   1.267   1.498   3.506  0.1243 -0.2471 -0.3108
 4940SOL    HW126282   1.287   1.590   3.526  4.2188 -0.8274 -1.6840
 4940SOL    HW226283   1.172   1.504   3.496  0.5611  0.9270 -3.5341
 4941SOL     OW26284   2.759   3.771   6.164  0.3440 -0.3056  0.2790
 4941SOL    HW126285   2.749   3.676   6.156  1.1082 -0.2804 -0.9485
 4941SOL    HW226286   2.669   3.796   6.184  1.2934  2.5587  1.0085
 4942SOL     OW26287   0.085   2.050   2.918  0.9617 -0.2096  0.2825
 4942SOL    HW126288   0.051   1.982   2.860 -0.7210  1.3174 -0.5216
 4942SOL    HW226289   0.086   2.124   2.857 -0.7581 -2.4617 -2.4941
 4943SOL     OW26290   3.090   2.952   2.372 -0.4866 -0.5146 -0.2775
 4943SOL    HW126291   3.109   2.957   2.279 -2.4579  1.7677 -0.5682
 4943SOL    HW226292   3.075   2.859   2.387  2.5986 -0.5314  2.6900
 4944SOL     OW26293   4.566   3.817  17.630 -0.2833  0.0123  0.0561
 4944SOL    HW126294   4.585   3.725  17.609 -0.5079 -0.1968  0.7680
 4944SOL    HW226295   4.625   3.870  17.576  0.1654  1.7916  2.3210
 4945SOL     OW26296   2.012   2.561  15.377  0.3640 -0.3800  0.9305
 4945SOL    HW126297   2.027   2.637  15.320 -1.4363 -0.4129  0.3890
 4945SOL    HW226298   2.101   2.538  15.402  0.1475 -1.0864  1.0425
 4946SOL     OW26299   0.334   3.917   5.276  0.2500  0.1949 -0.5253
 4946SOL    HW126300   0.284   3.909   5.358  2.1960  1.1013  0.7438
 4946SOL    HW226301   0.276   3.970   5.221 -0.0972  0.8412  0.4586
 4947SOL     OW26302   0.087   2.112   8.174  0.2233  0.5297 -0.4750
 4947SOL    HW126303   0.086   2.103   8.269  0.2332  1.1586 -0.4173
 4947SOL    HW226304   0.169   2.150   8.142  0.3055 -0.7950 -1.8400
 4948SOL     OW26305   3.288   4.049   0.621  0.3872 -0.4429  0.3599
 4948SOL    HW126306   3.243   4.132   0.605  2.5442  0.5657 -0.4712
 4948SOL    HW226307   3.214   3.999   0.657  0.1192 -0.1511  0.2180
 4949SOL     OW26308   3.717   0.894   5.485  0.5608 -0.0938 -0.3100
 4949SOL    HW126309   3.793   0.923   5.435  0.0995  1.0594 -0.3295
 4949SOL    HW226310   3.744   0.927   5.571 -0.4340 -1.8076  0.6529
 4950SOL     OW26311   0.865   1.720   4.052 -0.2928  0.3661  0.5250
 4950SOL    HW126312   0.927   1.709   3.980 -1.5315  0.2857 -0.5147
 4950SOL    HW226313   0.912   1.674   4.122 -0.3246  0.3478  0.5343
 4951SOL     OW26314   2.296   2.677   4.157  0.0826  0.0761 -0.0382
 4951SOL    HW126315   2.294   2.643   4.067  0.2797  0.0594 -0.0360
 4951SOL    HW226316   2.248   2.610   4.207  0.2587  1.0273  1.3910
 4952SOL     OW26317   2.023   0.664  15.995 -0.1760  0.1993  0.5817
 4952SOL    HW126318   1.995   0.691  15.907 -0.5836 -0.9900  0.3378
 4952SOL    HW226319   1.936   0.662  16.034 -0.6113  0.9301 -0.3520
 4953SOL     OW26320   1.433   0.994   3.368  0.5953 -0.3045 -0.0512
 4953SOL    HW126321   1.383   0.912   3.366 -1.5198  1.0156 -1.1958
 4953SOL    HW226322   1.464   1.007   3.458 -1.8566  0.5659  0.6627
 4954SOL     OW26323   0.933   3.333  11.206  0.0745  0.8968 -0.2157
 4954SOL    HW126324   1.025   3.349  11.227 -0.1891  2.2356 -0.0270
 4954SOL    HW226325   0.893   3.406  11.254 -0.6009  0.9807 -0.8911
 4955SOL     OW26326   2.725   1.898  11.983  0.2438  0.0062 -1.1395
 4955SOL    HW126327   2.816   1.889  12.010 -0.2407 -0.9102  0.1691
 4955SOL    HW226328   2.697   1.940  12.064  0.9882  0.0384 -0.9025
 4956SOL     OW26329   2.968   3.693   7.029 -0.0853 -0.2391  0.1509
 4956SOL    HW126330   3.005   3.608   7.049  2.9856  0.7055 -1.4931
 4956SOL    HW226331   3.004   3.704   6.941  0.6272 -3.5786  0.0574
 4957SOL     OW26332   1.986   1.806   3.582  0.1705 -0.6241 -0.0262
 4957SOL    HW126333   2.038   1.875   3.622 -0.3553 -1.9052  2.8551
 4957SOL    HW226334   1.915   1.854   3.540 -0.8480 -0.5354  1.7929
 4958SOL     OW26335   3.492   0.068   5.647 -0.0179  0.2877  0.1252
 4958SOL    HW126336   3.460   0.050   5.559  1.0252 -2.2562  0.2789
 4958SOL    HW226337   3.560   0.131   5.624  1.2219 -0.7830  0.8791
 4959SOL     OW26338   4.505   0.224   5.193 -1.1343 -0.7327 -0.0420
 4959SOL    HW126339   4.446   0.220   5.268 -0.8243  0.1588  0.2468
 4959SOL    HW226340   4.495   0.134   5.162 -1.5267 -0.2819 -1.2123
 4960SOL     OW26341   2.066   2.409   3.114  0.1985  0.2634 -0.2437
 4960SOL    HW126342   2.091   2.500   3.130  0.8562  0.5152 -2.7075
 4960SOL    HW226343   2.148   2.369   3.143 -0.1145  0.5042  0.9595
 4961SOL     OW26344   1.222   0.021   7.969  0.3721 -0.0105  0.6473
 4961SOL    HW126345   1.127   0.026   7.970  0.4740  1.7354  1.3786
 4961SOL    HW226346   1.245   0.069   8.048  2.5978 -0.9234  0.5630
 4962SOL     OW26347   0.247   0.335   5.068 -0.2360  0.1899  0.0243
 4962SOL    HW126348   0.158   0.360   5.092 -0.0202 -1.2462  2.3993
 4962SOL    HW226349   0.235   0.243   5.092 -0.2179 -0.0655 -0.9366
 4963SOL     OW26350   2.433   2.478   2.801  0.5881  0.0953  0.0117
 4963SOL    HW126351   2.487   2.400   2.816  0.7856 -0.2756 -2.7552
 4963SOL    HW226352   2.477   2.551   2.844 -1.7448  0.0665  2.4642
 4964SOL     OW26353   3.554   2.513   2.754 -0.0774 -0.5692  0.1690
 4964SOL    HW126354   3.580   2.582   2.694 -1.0191  0.8315  1.3844
 4964SOL    HW226355   3.482   2.548   2.805 -0.2290  0.7067 -0.9355
 4965SOL     OW26356   1.795   4.059   7.372 -0.1575 -0.3424 -0.2638
 4965SOL    HW126357   1.737   3.990   7.404 -1.1446  0.2444 -0.8100
 4965SOL    HW226358   1.760   4.082   7.286  1.1963  0.4126 -0.6168
 4966SOL     OW26359   2.417   4.226   2.297 -0.5550  0.3747 -0.1207
 4966SOL    HW126360   2.371   4.149   2.331 -1.5909  2.2150  2.5900
 4966SOL    HW226361   2.346   4.251   2.238 -0.1222  1.0760 -0.3427
 4967SOL     OW26362   4.550   3.843  14.271 -0.0489 -0.0880 -0.1162
 4967SOL    HW126363   4.599   3.795  14.339  1.3728  0.7384 -0.5512
 4967SOL    HW226364   4.549   3.931  14.308  1.0843  0.2200 -0.8306
 4968SOL     OW26365   3.864   2.557   3.771 -0.1081 -0.2371  0.6249
 4968SOL    HW126366   3.775   2.527   3.750  0.1245 -0.8841  0.5570
 4968SOL    HW226367   3.889   2.568   3.679 -1.6215  1.0358  0.3740
 4969SOL     OW26368   1.679   2.755   3.456 -0.2811  0.0419 -0.5635
 4969SOL    HW126369   1.719   2.671   3.436  1.0101  0.9830 -1.9306
 4969SOL    HW226370   1.743   2.806   3.407  2.0456 -2.2981  0.0487
 4970SOL     OW26371   3.909   0.585   7.559 -0.0905  0.7020  0.0765
 4970SOL    HW126372   3.888   0.504   7.511  0.6940  0.2930  0.4345
 4970SOL    HW226373   4.003   0.584   7.545 -0.2545 -0.4363 -1.0797
 4971SOL     OW26374   0.634   2.133   8.995  0.0479  0.6334 -0.1290
 4971SOL    HW126375   0.640   2.093   8.909  3.4031  1.5329 -0.3284
 4971SOL    HW226376   0.623   2.228   8.983 -1.5365  0.5165  0.3776
 4972SOL     OW26377   1.261   3.206   8.741 -0.1996 -0.0831 -0.1462
 4972SOL    HW126378   1.217   3.243   8.818  0.0171  0.1067 -0.1127
 4972SOL    HW226379   1.208   3.132   8.714  0.9745 -0.9556 -0.0518
 4973SOL     OW26380   1.113   2.533   4.576 -0.0529  0.5789  0.1954
 4973SOL    HW126381   1.064   2.502   4.500 -1.1436  0.5973  0.8987
 4973SOL    HW226382   1.187   2.579   4.536 -1.4337 -1.4385 -4.5964
 4974SOL     OW26383   2.574   2.233   1.832 -0.2351 -0.2535  0.4356
 4974SOL    HW126384   2.494   2.231   1.780 -1.5864 -0.4770  2.5190
 4974SOL    HW226385   2.581   2.138   1.844  0.0159  0.2850  4.5751
 4975SOL     OW26386   0.073   2.074  14.809 -0.9194  0.0077 -0.2763
 4975SOL    HW126387   0.066   2.104  14.899 -0.4898 -1.9673  0.4155
 4975SOL    HW226388   0.086   2.154  14.759 -1.5189 -0.7036 -1.5817
 4976SOL     OW26389   0.530   2.184  10.847 -0.5183  0.0734 -0.4642
 4976SOL    HW126390   0.514   2.274  10.874  3.0620  0.9251 -1.1585
 4976SOL    HW226391   0.561   2.150  10.931 -3.5582 -1.2120  0.1562
 4977SOL     OW26392   0.210   3.259   5.322 -0.3936  0.0710  0.4315
 4977SOL    HW126393   0.119   3.236   5.338 -1.0850  3.0670  0.8246
 4977SOL    HW226394   0.249   3.175   5.299  1.1444  1.2226 -1.2652
 4978SOL     OW26395   1.619   2.539  17.251  0.0636  0.0129 -0.3120
 4978SOL    HW126396   1.613   2.565  17.159  1.6161  0.4296 -0.2991
 4978SOL    HW226397   1.662   2.618  17.286  0.7713  0.6644 -2.6577
 4979SOL     OW26398   3.427   2.466   5.582  0.2952  0.7231  0.2001
 4979SOL    HW126399   3.406   2.544   5.529  1.9890 -0.0047 -1.5534
 4979SOL    HW226400   3.386   2.478   5.668 -2.8018 -1.4763 -0.9520
 4980SOL     OW26401   4.519   3.928   1.313  0.0641  0.4129 -0.8048
 4980SOL    HW126402   4.481   3.854   1.360 -1.0054  2.4591  1.5815
 4980SOL    HW226403   4.597   3.951   1.363 -0.2055 -0.5733  0.0648
 4981SOL     OW26404   3.410   1.949   0.163 -0.2612  0.1368  0.1824
 4981SOL    HW126405   3.357   1.963   0.242 -0.8849 -0.7496 -0.0750
 4981SOL    HW226406   3.481   2.013   0.170  0.5003 -0.7217  0.3770
 4982SOL     OW26407   2.000   2.728  12.796 -0.4762  0.2181  0.4226
 4982SOL    HW126408   1.959   2.677  12.866 -0.1530 -0.9981 -0.2893
 4982SOL    HW226409   2.006   2.661  12.728 -0.2327  0.0279  0.6381
 4983SOL     OW26410   4.418   0.098   4.553 -0.1569 -0.6254  0.0203
 4983SOL    HW126411   4.388   0.010   4.530  0.2179 -0.9678  0.8197
 4983SOL    HW226412   4.346   0.130   4.607 -1.1796 -0.6955 -1.3172
 4984SOL     OW26413   0.988   1.012   0.372 -0.5529  0.0481 -0.0488
 4984SOL    HW126414   1.001   1.106   0.385 -0.4836  0.2048 -1.2060
 4984SOL    HW226415   0.952   0.991   0.458 -2.2968 -1.9292 -1.2642
 4985SOL     OW26416   4.245   1.444   8.684 -0.0156  0.6660 -0.1899
 4985SOL    HW126417   4.306   1.489   8.742 -0.7907 -0.1806  1.2894
 4985SOL    HW226418   4.289   1.453   8.599 -0.1836  1.6089 -0.1712
 4986SOL     OW26419   0.755   2.407  16.493  0.5058 -0.0690  0.2486
 4986SOL    HW126420   0.800   2.486  16.461 -0.4461  0.3008 -0.1904
 4986SOL    HW226421   0.723   2.442  16.576 -0.7347  0.3149 -0.3747
 4987SOL     OW26422   0.477   1.936   3.122  0.7309  0.0684  0.1369
 4987SOL    HW126423   0.510   1.901   3.205 -1.8279 -0.6488  0.8569
 4987SOL    HW226424   0.382   1.930   3.136  0.8494 -0.5460  0.7008
 4988SOL     OW26425   2.419   2.127   4.557 -0.1084 -0.4893 -0.6367
 4988SOL    HW126426   2.381   2.155   4.641  0.0164 -0.0785 -0.7163
 4988SOL    HW226427   2.444   2.213   4.524 -1.9719 -0.3506 -1.7226
 4989SOL     OW26428   4.127   2.038   5.258  0.7393  0.1553  0.0283
 4989SOL    HW126429   4.137   2.055   5.352 -0.0066 -0.3538  0.1962
 4989SOL    HW226430   4.085   1.953   5.267  0.4414  0.4025  0.9855
 4990SOL     OW26431   0.052   0.561  15.102  0.1570  0.5250  0.5359
 4990SOL    HW126432   4.713   0.625  15.069 -2.8828 -2.9777 -0.4017
 4990SOL    HW226433   0.135   0.608  15.101  0.9801 -0.9866 -2.1968
 4991SOL     OW26434   1.056   1.963  12.123 -0.1101 -0.5433  0.0414
 4991SOL    HW126435   1.127   1.904  12.145 -1.8761 -3.1145 -1.1217
 4991SOL    HW226436   0.972   1.929  12.154 -1.5632  1.8827 -1.2164
 4992SOL     OW26437   3.816   2.158   2.364  0.1502  0.1136 -0.1710
 4992SOL    HW126438   3.806   2.068   2.394 -1.2144  0.0126 -0.9242
 4992SOL    HW226439   3.892   2.180   2.417  0.6870 -1.0227 -0.4826
 4993SOL     OW26440   1.230   0.239   6.026 -0.5212  0.3949 -0.2353
 4993SOL    HW126441   1.200   0.187   5.952 -0.0215  0.5006 -0.5122
 4993SOL    HW226442   1.155   0.296   6.038 -1.0104 -0.1058 -0.9351
 4994SOL     OW26443   2.866   3.365   6.267 -0.2302  0.0896 -0.3311
 4994SOL    HW126444   2.812   3.438   6.239 -1.6886 -1.7489 -2.3343
 4994SOL    HW226445   2.943   3.385   6.214 -1.7922  2.0482 -1.8120
 4995SOL     OW26446   4.015   0.359   7.767 -0.0330 -0.2726  0.1826
 4995SOL    HW126447   3.984   0.307   7.693  1.0757 -1.5226  0.5946
 4995SOL    HW226448   4.058   0.296   7.826  0.4533 -1.3845 -1.3647
 4996SOL     OW26449   1.914   2.877   5.870  0.1565  0.2341  0.5848
 4996SOL    HW126450   1.906   2.946   5.936  0.1614 -1.4091  2.2746
 4996SOL    HW226451   1.924   2.807   5.934 -0.0292 -0.5588 -0.2543
 4997SOL     OW26452   1.700   1.907   2.949  0.2332 -0.5534  0.4489
 4997SOL    HW126453   1.759   1.876   2.880  1.0568  1.3884  0.3009
 4997SOL    HW226454   1.656   1.984   2.915  0.7562 -1.1512 -1.5978
 4998SOL     OW26455   0.308   0.193  11.764 -0.0788 -0.0363  0.1990
 4998SOL    HW126456   0.267   0.107  11.767  2.1504 -1.1487 -1.8175
 4998SOL    HW226457   0.239   0.248  11.726 -0.3772 -1.7461 -1.6894
 4999SOL     OW26458   1.931   3.667   8.914 -0.7128 -0.2943 -0.0927
 4999SOL    HW126459   1.991   3.635   8.980 -3.0594 -1.3384  1.5478
 4999SOL    HW226460   1.853   3.671   8.970 -0.2056  0.6170  0.5610
 5000SOL     OW26461   4.694   0.317   7.018 -0.5345 -0.3580  0.7737
 5000SOL    HW126462   4.715   0.248   7.080  4.0551  1.9031  1.7654
 5000SOL    HW226463   4.600   0.330   7.029 -0.0934 -0.0037  4.0106
 5001SOL     OW26464   1.833   0.688   5.337 -0.4585 -0.1151 -0.2834
 5001SOL    HW126465   1.846   0.703   5.243 -0.4932  1.8042  0.0037
 5001SOL    HW226466   1.869   0.767   5.378 -0.7563 -0.7054  1.0875
 5002SOL     OW26467   0.293   1.456   6.287 -0.1266  0.0310  0.1138
 5002SOL    HW126468   0.265   1.473   6.197 -1.9421 -0.7839  0.5216
 5002SOL    HW226469   0.227   1.514   6.324 -1.8132  0.3475 -3.3953
 5003SOL     OW26470   2.541   1.960  13.469 -0.3522 -0.8992  0.1894
 5003SOL    HW126471   2.581   2.041  13.439  0.2292 -1.1606  0.2454
 5003SOL    HW226472   2.480   2.004  13.528 -2.0314 -1.6016 -1.0364
 5004SOL     OW26473   1.811   3.805  14.138 -0.1088 -0.6190 -0.1668
 5004SOL    HW126474   1.875   3.804  14.066 -0.0983  1.2639 -0.1903
 5004SOL    HW226475   1.842   3.743  14.204  0.8863 -3.5479 -3.3625
 5005SOL     OW26476   1.596   0.284   3.451  0.3142 -0.3064 -0.1251
 5005SOL    HW126477   1.618   0.191   3.453  0.6965 -0.2128  0.1218
 5005SOL    HW226478   1.568   0.283   3.360 -0.7104 -2.0111  0.2156
 5006SOL     OW26479   1.441   0.754   4.566 -0.2819  0.0698 -0.3411
 5006SOL    HW126480   1.391   0.831   4.538  2.3130  2.0976  0.5670
 5006SOL    HW226481   1.499   0.791   4.632 -1.1072 -0.3056  0.5828
 5007SOL     OW26482   2.816   3.044   6.118 -0.1517  0.7285  0.5270
 5007SOL    HW126483   2.765   3.122   6.143 -1.2793  0.7230 -1.8098
 5007SOL    HW226484   2.757   2.970   6.133  1.3021 -0.8231 -1.4521
 5008SOL     OW26485   0.104   2.464   2.881 -0.3577  0.1364  0.1891
 5008SOL    HW126486   0.065   2.532   2.827  0.4090  0.8755  0.5691
 5008SOL    HW226487   0.037   2.396   2.876  0.7633 -0.9435 -0.2451
 5009SOL     OW26488   0.816   4.481   9.073 -0.2979 -0.2050 -0.3827
 5009SOL    HW126489   0.873   4.553   9.047 -0.3720  0.4213  1.2070
 5009SOL    HW226490   0.776   4.522   9.149  0.8256 -1.7994  1.0624
 5010SOL     OW26491   3.600   2.557   8.498 -0.2561 -0.2865 -0.3523
 5010SOL    HW126492   3.554   2.474   8.505 -0.9485  0.1750  0.5872
 5010SOL    HW226493   3.667   2.548   8.564 -0.3898  1.6918  0.0729
 5011SOL     OW26494   0.349   2.219   4.680 -0.0184 -0.1444 -0.0340
 5011SOL    HW126495   0.272   2.268   4.651 -1.9664 -1.2882  3.2658
 5011SOL    HW226496   0.332   2.127   4.661  1.2657  0.3625 -3.6200
 5012SOL     OW26497   3.939   1.252  11.937  0.2837  0.3688  0.1055
 5012SOL    HW126498   3.983   1.195  12.000  2.1042  0.8712 -0.7202
 5012SOL    HW226499   3.861   1.202  11.913  0.8327 -0.0325 -0.8255
 5013SOL     OW26500   0.298   2.125  13.276 -0.3675 -0.0633 -0.7067
 5013SOL    HW126501   0.341   2.167  13.201  1.0623  0.1270  0.2409
 5013SOL    HW226502   0.337   2.174  13.348 -2.7515  0.5510  0.1594
 5014SOL     OW26503   3.206   1.775   8.863 -0.2145 -0.5613  0.3335
 5014SOL    HW126504   3.178   1.819   8.783 -1.1401  1.4960  1.7758
 5014SOL    HW226505   3.258   1.703   8.830 -0.8529 -0.5000 -0.8034
 5015SOL     OW26506   2.437   2.864   7.052 -0.3645  0.1264 -0.1890
 5015SOL    HW126507   2.493   2.791   7.079 -0.2065  0.2334 -0.2283
 5015SOL    HW226508   2.438   2.915   7.133  0.7920  1.2663 -0.9235
 5016SOL     OW26509   3.423   0.029  14.453  0.1725  0.4543 -0.2897
 5016SOL    HW126510   3.452   4.674  14.409 -0.1414  0.4041 -0.4061
 5016SOL    HW226511   3.406   0.092  14.383  1.1552 -1.0795 -1.9045
 5017SOL     OW26512   2.676   4.505   6.777 -0.2091 -0.6033 -0.2013
 5017SOL    HW126513   2.679   4.420   6.733  0.5084 -0.4168 -0.5103
 5017SOL    HW226514   2.760   4.507   6.822 -0.2057 -3.2830 -0.1112
 5018SOL     OW26515   3.094   1.009  15.727 -0.8450 -0.5199  0.1579
 5018SOL    HW126516   3.111   1.070  15.655  1.7342  0.4042  1.5486
 5018SOL    HW226517   3.001   0.988  15.719 -0.4337 -1.4202 -2.3431
 5019SOL     OW26518   3.511   3.212   7.540  0.0491 -0.5012  0.0615
 5019SOL    HW126519   3.450   3.235   7.470  1.3123 -1.6367 -1.4118
 5019SOL    HW226520   3.533   3.126   7.505 -1.6013 -1.0696  0.4189
 5020SOL     OW26521   3.949   1.733   4.763 -0.1555 -0.2552  0.0857
 5020SOL    HW126522   3.854   1.724   4.750  0.0350 -0.6583 -1.0236
 5020SOL    HW226523   3.976   1.641   4.767 -1.0585 -0.5146  0.3347
 5021SOL     OW26524   1.608   1.943  10.112  0.4244  0.6758  0.3241
 5021SOL    HW126525   1.549   1.883  10.067 -0.1413  1.1548  0.4212
 5021SOL    HW226526   1.541   1.983  10.168 -1.6992 -0.0834 -1.6529
 5022SOL     OW26527   2.862   2.113  15.615 -0.7794  0.2029 -0.3543
 5022SOL    HW126528   2.779   2.112  15.663 -0.4003  0.9887  0.3292
 5022SOL    HW226529   2.917   2.053  15.664 -0.9679 -0.7044 -1.2667
 5023SOL     OW26530   3.408   1.155   5.809  0.0442  0.3440 -0.4546
 5023SOL    HW126531   3.341   1.112   5.756 -0.8046  0.2000  0.7563
 5023SOL    HW226532   3.456   1.191   5.734 -0.7051  1.4244 -0.4230
 5024SOL     OW26533   2.305   1.689   5.373 -0.7360  0.2197 -0.4088
 5024SOL    HW126534   2.293   1.595   5.390  0.2981  0.5064  1.8025
 5024SOL    HW226535   2.216   1.724   5.368 -0.7085  0.4995  1.2912
 5025SOL     OW26536   3.750   0.185   6.353 -0.0057 -0.2059 -0.5089
 5025SOL    HW126537   3.675   0.244   6.351 -0.3382 -0.6886 -2.0218
 5025SOL    HW226538   3.806   0.232   6.291 -1.0755  0.4370 -0.9738
 5026SOL     OW26539   1.574   0.591  16.734 -0.3526  0.2171  0.4281
 5026SOL    HW126540   1.509   0.534  16.776  1.6610  0.8562  4.3032
 5026SOL    HW226541   1.629   0.518  16.704 -0.0854  0.2037  0.9656
 5027SOL     OW26542   2.969   2.500  14.010  0.4447  0.2012 -0.2382
 5027SOL    HW126543   2.894   2.506  14.069 -0.8095 -2.9940 -1.5183
 5027SOL    HW226544   2.927   2.521  13.926  2.7866  1.7958 -1.0100
 5028SOL     OW26545   0.496   4.165   6.786 -0.1716  0.0221 -0.9779
 5028SOL    HW126546   0.466   4.241   6.836  0.3254  1.5315 -2.9740
 5028SOL    HW226547   0.433   4.170   6.715 -1.8083  0.4747  0.5083
 5029SOL     OW26548   4.063   2.309   6.522  0.1238  0.1633 -0.1551
 5029SOL    HW126549   4.065   2.244   6.451 -2.2477  0.9454 -0.9354
 5029SOL    HW226550   4.152   2.345   6.520  0.2501 -0.1476 -0.1216
 5030SOL     OW26551   0.589   4.261  12.015 -0.2036  0.1583 -0.0616
 5030SOL    HW126552   0.579   4.241  11.922  0.5260 -0.0946 -0.0897
 5030SOL    HW226553   0.503   4.294  12.040  0.9486 -0.3762  4.5937
 5031SOL     OW26554   2.064   0.577   6.541  0.3640  0.1574  0.2428
 5031SOL    HW126555   2.050   0.652   6.597  2.6556  0.0900  0.9015
 5031SOL    HW226556   2.158   0.566   6.559 -0.0128 -0.4492  1.8231
 5032SOL     OW26557   1.077   1.751  15.648 -0.7672  0.3718  0.0057
 5032SOL    HW126558   0.994   1.792  15.624 -1.2479  0.2873  1.5576
 5032SOL    HW226559   1.051   1.678  15.704 -2.0659 -1.4746 -3.0041
 5033SOL     OW26560   3.583   3.529   3.323 -0.1142  0.1434  0.0360
 5033SOL    HW126561   3.649   3.589   3.287 -0.3948  0.8713  0.7453
 5033SOL    HW226562   3.572   3.468   3.250 -1.9343  0.2230  0.2401
 5034SOL     OW26563   3.984   2.372  16.452  0.2247 -0.1384  0.1446
 5034SOL    HW126564   4.078   2.391  16.449  0.8655 -3.3179 -0.0088
 5034SOL    HW226565   3.956   2.445  16.397 -0.7501 -1.0712 -0.5863
 5035SOL     OW26566   2.854   4.050  16.049 -0.3031 -0.0353  0.0384
 5035SOL    HW126567   2.771   4.056  16.096 -1.0733  2.0226 -1.6256
 5035SOL    HW226568   2.868   3.955  16.043 -1.1354 -0.2331  1.3808
 5036SOL     OW26569   1.868   0.645   2.585 -0.0516 -0.6664 -0.2598
 5036SOL    HW126570   1.894   0.640   2.493  2.5936 -0.2066  0.4577
 5036SOL    HW226571   1.781   0.683   2.575 -0.1556 -0.5768  1.0042
 5037SOL     OW26572   2.745   2.493  14.171  0.1413 -0.0494 -0.0533
 5037SOL    HW126573   2.677   2.548  14.209 -0.4894 -1.4986  0.9314
 5037SOL    HW226574   2.793   2.463  14.248 -1.4073 -0.2043  0.8483
 5038SOL     OW26575   4.298   2.716   6.058 -0.0120  0.6319  0.2057
 5038SOL    HW126576   4.350   2.643   6.089 -1.7849 -1.1233 -0.9548
 5038SOL    HW226577   4.319   2.728   5.965  2.6140  1.1622  0.8583
 5039SOL     OW26578   4.507   4.131   5.669 -0.1604 -0.3009  1.0418
 5039SOL    HW126579   4.441   4.077   5.712  2.0798 -0.2970  4.4893
 5039SOL    HW226580   4.546   4.064   5.612  1.2152 -1.1189  2.9709
 5040SOL     OW26581   1.560   0.243   3.195 -0.6849  0.2055  0.0643
 5040SOL    HW126582   1.595   0.306   3.132  2.6152 -0.4411  1.2344
 5040SOL    HW226583   1.524   0.177   3.137 -0.4799  0.3185 -0.1908
 5041SOL     OW26584   3.554   0.210   2.374  0.2908 -0.3743 -0.9057
 5041SOL    HW126585   3.484   0.251   2.426  2.2070  0.6654  0.8524
 5041SOL    HW226586   3.625   0.212   2.438  0.3234  1.1067 -0.9875
 5042SOL     OW26587   2.373   1.124   7.674 -0.5866 -0.3251 -0.2156
 5042SOL    HW126588   2.294   1.174   7.694  0.8781  1.5050  0.9991
 5042SOL    HW226589   2.405   1.107   7.763  1.9626 -0.5013 -1.1493
 5043SOL     OW26590   1.270   0.349   3.482  0.1231  0.1480  0.7941
 5043SOL    HW126591   1.356   0.369   3.519  0.3210  0.8875 -0.0539
 5043SOL    HW226592   1.246   0.434   3.444  0.0981 -0.6464 -0.9904
 5044SOL     OW26593   1.327   2.816   2.309 -0.5872  0.1501  0.1492
 5044SOL    HW126594   1.248   2.799   2.259 -1.2292  0.3423  1.0887
 5044SOL    HW226595   1.383   2.740   2.293  0.9596  1.1685  0.6396
 5045SOL     OW26596   4.669   3.270  16.522 -0.4502  0.6888  0.1847
 5045SOL    HW126597   4.596   3.332  16.530 -1.0494 -0.2369  1.9461
 5045SOL    HW226598   4.693   3.291  16.432  0.0527 -1.4762 -0.1882
 5046SOL     OW26599   0.148   2.285  12.618 -0.3787 -0.0890 -0.0163
 5046SOL    HW126600   0.174   2.242  12.537 -0.1647 -1.9744  1.0365
 5046SOL    HW226601   0.183   2.372  12.599  2.2982 -0.9778  0.7746
 5047SOL     OW26602   1.766   3.072   8.161 -0.2046 -0.0858  0.3413
 5047SOL    HW126603   1.775   3.089   8.255 -2.3614 -0.7886  0.6764
 5047SOL    HW226604   1.744   2.979   8.163 -2.7261  0.5618  2.1855
 5048SOL     OW26605   1.779   3.592  13.687 -0.1319  0.6969  0.2691
 5048SOL    HW126606   1.854   3.581  13.629 -0.2518  0.6889  0.1144
 5048SOL    HW226607   1.821   3.590  13.773  0.5116  0.6175 -0.0459
 5049SOL     OW26608   4.553   0.274   7.723  0.2322  0.3606  0.1255
 5049SOL    HW126609   4.483   0.330   7.756  0.0968  1.0088 -1.2712
 5049SOL    HW226610   4.540   0.209   7.792 -1.7752 -1.2304 -1.7690
 5050SOL     OW26611   3.534   0.524   3.917  0.5482 -0.0769  0.3041
 5050SOL    HW126612   3.532   0.439   3.872  2.4050  0.3364 -0.5288
 5050SOL    HW226613   3.586   0.572   3.853  1.5026  0.1487  1.2435
 5051SOL     OW26614   3.254   4.484  13.284 -0.1168  0.0149  0.1316
 5051SOL    HW126615   3.321   4.445  13.228 -1.1319 -1.9028  0.2457
 5051SOL    HW226616   3.210   4.516  13.206 -0.2712 -0.7922 -0.1117
 5052SOL     OW26617   3.069   0.086   9.244 -0.4904 -0.1773  0.1877
 5052SOL    HW126618   3.055   4.718   9.225 -3.0525  0.3058 -0.3853
 5052SOL    HW226619   3.019   0.116   9.168  2.1562 -2.6256 -2.5070
 5053SOL     OW26620   1.335   4.206  10.223  0.3085  0.0137 -0.1975
 5053SOL    HW126621   1.406   4.229  10.284  1.9604  0.3629 -2.2502
 5053SOL    HW226622   1.367   4.135  10.167  0.7296 -2.2797  2.9071
 5054SOL     OW26623   1.124   0.296   8.685 -0.5160 -0.0489  0.0130
 5054SOL    HW126624   1.131   0.385   8.721 -3.4963  0.1811  0.0384
 5054SOL    HW226625   1.140   0.245   8.764 -1.7134  2.3164  1.7955
 5055SOL     OW26626   2.666   0.642   4.158  0.2023  0.5495  0.5068
 5055SOL    HW126627   2.742   0.598   4.196 -1.6891 -2.5833  0.6977
 5055SOL    HW226628   2.703   0.681   4.079 -0.8904  0.0815 -0.2430
 5056SOL     OW26629   4.556   3.504   8.217 -0.7071  0.2586  0.2720
 5056SOL    HW126630   4.566   3.427   8.161 -1.6973  0.1064  0.3191
 5056SOL    HW226631   4.645   3.519   8.249 -0.8914  0.6742  0.5811
 5057SOL     OW26632   4.717   3.825   2.666 -0.0121 -0.0881  0.0624
 5057SOL    HW126633   0.086   3.842   2.658  0.3392 -1.1816  1.8439
 5057SOL    HW226634   4.687   3.864   2.584 -0.7258  0.4043  0.5614
 5058SOL     OW26635   2.979   0.685   8.444  1.2413  0.9231 -0.3262
 5058SOL    HW126636   2.907   0.734   8.484 -0.5741 -0.7988 -1.4838
 5058SOL    HW226637   2.937   0.667   8.360  2.4329  0.3350 -0.7873
 5059SOL     OW26638   0.127   4.010   0.746  0.0000 -0.0131 -0.6665
 5059SOL    HW126639   0.151   3.926   0.786  0.5783  1.2845  1.6921
 5059SOL    HW226640   0.134   4.065   0.824  1.0236 -2.7903  1.2128
 5060SOL     OW26641   2.207   4.125   3.156 -0.2691 -0.2581 -0.3619
 5060SOL    HW126642   2.157   4.063   3.104 -0.4796  0.8980 -1.5537
 5060SOL    HW226643   2.165   4.121   3.242 -2.1559  0.8871 -1.2227
 5061SOL     OW26644   1.308   1.984  12.321  0.7951  0.3100  0.3935
 5061SOL    HW126645   1.337   1.916  12.383  1.6596  0.0335 -0.3077
 5061SOL    HW226646   1.230   2.016  12.365  0.5228 -0.6782  0.6231
 5062SOL     OW26647   1.841   1.293  15.544 -0.5991  0.1219  0.1092
 5062SOL    HW126648   1.873   1.322  15.629  0.0980 -2.1164  0.5956
 5062SOL    HW226649   1.802   1.208  15.564  2.2133 -0.7419  1.7831
 5063SOL     OW26650   4.303   4.591   4.631  0.0168  0.6388 -0.0509
 5063SOL    HW126651   4.278   4.502   4.656  0.3283  0.5064 -0.2061
 5063SOL    HW226652   4.318   4.633   4.715  0.9899  0.0048  0.0902
 5064SOL     OW26653   3.529   1.471   6.423  0.4543  0.3494  0.4426
 5064SOL    HW126654   3.501   1.531   6.493  2.1324  0.9366  0.6068
 5064SOL    HW226655   3.532   1.391   6.476 -0.8358 -0.5510 -0.8332
 5065SOL     OW26656   3.970   2.340   6.795 -0.6219  0.4883 -0.2561
 5065SOL    HW126657   4.000   2.347   6.704 -1.3706 -1.3603 -0.6599
 5065SOL    HW226658   3.965   2.432   6.820 -0.1053 -0.2907  2.6695
 5066SOL     OW26659   1.901   3.969   5.176 -0.2506  0.3164 -0.2423
 5066SOL    HW126660   1.908   4.059   5.208  0.6328 -0.1733  0.9461
 5066SOL    HW226661   1.887   3.928   5.262 -2.0360  0.6121 -0.3789
 5067SOL     OW26662   0.363   2.726   9.186  0.2800 -0.9865  0.4090
 5067SOL    HW126663   0.384   2.761   9.099 -1.2776 -0.1187  0.3963
 5067SOL    HW226664   0.386   2.795   9.249 -0.3067 -0.5896  0.1844
 5068SOL     OW26665   2.445   3.953   8.705  0.1923  0.0803  0.1562
 5068SOL    HW126666   2.436   4.048   8.699 -0.9760 -0.0843 -0.8052
 5068SOL    HW226667   2.371   3.929   8.762  0.9419 -0.9943  0.6704
 5069SOL     OW26668   0.582   2.201   3.124 -0.2475 -0.1652  0.0833
 5069SOL    HW126669   0.514   2.247   3.173  0.1123 -0.5802  0.9651
 5069SOL    HW226670   0.560   2.109   3.138  0.2080 -0.3291 -0.2645
 5070SOL     OW26671   3.688   4.023   2.917 -0.4703 -0.4195  0.2610
 5070SOL    HW126672   3.641   4.028   3.000 -1.0462  2.2299 -0.1964
 5070SOL    HW226673   3.741   3.944   2.911 -0.6186 -0.3652 -1.6406
 5071SOL     OW26674   1.150   2.403   8.325 -0.0692  0.2011 -0.0622
 5071SOL    HW126675   1.165   2.325   8.378 -1.7901  0.5159  0.8720
 5071SOL    HW226676   1.064   2.420   8.364  0.0433 -0.8104  0.6385
 5072SOL     OW26677   0.034   4.645  17.072 -0.4258 -0.0847 -0.0959
 5072SOL    HW126678   0.079   0.005  17.060 -0.1443 -0.5640 -2.4125
 5072SOL    HW226679   0.019   4.616  16.983  0.6077 -0.3631 -0.1792
 5073SOL     OW26680   3.101   0.044   9.911  0.2084 -0.0281 -0.4063
 5073SOL    HW126681   3.022   4.721   9.936  0.4696  0.2436  0.9502
 5073SOL    HW226682   3.075   0.081   9.827 -0.8217 -1.7131 -0.8406
 5074SOL     OW26683   2.273   2.763   6.214  0.3504 -0.7376  0.0501
 5074SOL    HW126684   2.244   2.676   6.185 -3.0870 -0.4238  2.6177
 5074SOL    HW226685   2.280   2.753   6.308 -1.2514 -1.9980  0.0263
 5075SOL     OW26686   1.343   0.067   4.704  0.0144 -0.4840 -0.0910
 5075SOL    HW126687   1.394   0.146   4.727  0.1017 -1.2579  2.3883
 5075SOL    HW226688   1.376   0.045   4.617  1.9346  1.3104  0.1723
 5076SOL     OW26689   4.586   0.926   1.723  0.0383  0.9593 -0.8970
 5076SOL    HW126690   4.555   0.929   1.632  1.2131 -1.1829 -1.3851
 5076SOL    HW226691   4.664   0.871   1.710  0.2566  1.4630 -1.7727
 5077SOL     OW26692   1.107   4.486   0.503 -0.3513 -0.2501 -0.3209
 5077SOL    HW126693   1.117   4.516   0.412 -2.5938  1.9036  0.1403
 5077SOL    HW226694   1.163   4.548   0.549 -2.4869  0.2873  1.5863
 5078SOL     OW26695   0.139   1.126   6.725  0.2337 -0.6860  1.0415
 5078SOL    HW126696   0.149   1.041   6.769 -0.5367 -1.4173 -0.1670
 5078SOL    HW226697   0.197   1.185   6.772  0.5892 -1.0640  1.0744
 5079SOL     OW26698   4.688   3.285  16.250  0.5284  0.0622 -0.2236
 5079SOL    HW126699   4.594   3.305  16.251  0.7155  0.9487 -0.4409
 5079SOL    HW226700   4.714   3.336  16.174 -2.9625  2.0229 -0.1414
 5080SOL     OW26701   3.452   4.636  12.490 -0.3982 -0.1355  0.4369
 5080SOL    HW126702   3.522   4.644  12.425 -0.2821 -0.9836  0.4527
 5080SOL    HW226703   3.493   4.606  12.572 -1.0248 -0.6317  0.5708
 5081SOL     OW26704   1.943   2.465   8.952  0.2568  0.0585 -0.0657
 5081SOL    HW126705   2.038   2.459   8.944  0.2555 -0.7451  0.5738
 5081SOL    HW226706   1.910   2.382   8.986  0.6858 -0.3517 -0.6487
 5082SOL     OW26707   3.400   2.285   8.538  0.1736  0.6183 -0.2312
 5082SOL    HW126708   3.341   2.230   8.590  1.0489 -1.5018 -1.4672
 5082SOL    HW226709   3.343   2.360   8.550  0.6744  1.3631 -2.6208
 5083SOL     OW26710   1.519   0.107   5.134 -0.0886 -0.4042  0.1319
 5083SOL    HW126711   1.507   0.019   5.099 -1.2837 -0.3993  0.5253
 5083SOL    HW226712   1.513   0.089   5.228  1.4303  2.9599  0.8863
 5084SOL     OW26713   3.460   0.926  14.325  0.3113  0.1461 -0.1749
 5084SOL    HW126714   3.468   0.867  14.250 -0.5530  0.8552 -0.8177
 5084SOL    HW226715   3.508   0.884  14.397  1.2420  1.2484 -0.1458
 5085SOL     OW26716   0.375   3.797  16.754  0.2906  0.5063  0.6860
 5085SOL    HW126717   0.386   3.880  16.708  0.8648  0.1229  0.1261
 5085SOL    HW226718   0.466   3.769  16.755  0.5625  1.2239 -2.4329
 5086SOL     OW26719   3.954   1.028   2.573  0.2882  0.0639  0.2384
 5086SOL    HW126720   3.966   0.961   2.640 -0.5758  1.4315  1.7721
 5086SOL    HW226721   3.996   0.983   2.500  0.7326  1.4288 -0.3468
 5087SOL     OW26722   3.417   3.901   7.196  0.5074 -0.0816 -0.1862
 5087SOL    HW126723   3.337   3.868   7.238  0.1633 -0.2732 -0.9838
 5087SOL    HW226724   3.489   3.863   7.246  0.1279  0.4278  0.7436
 5088SOL     OW26725   2.548   2.153   7.459 -0.1217 -0.1008 -0.6188
 5088SOL    HW126726   2.633   2.155   7.414  1.0012  1.0136  1.5775
 5088SOL    HW226727   2.560   2.222   7.524 -1.1388  1.5829 -2.2020
 5089SOL     OW26728   3.141   1.683  11.641 -0.3382  0.5741  0.4079
 5089SOL    HW126729   3.113   1.600  11.680 -1.3470  0.5353 -0.3938
 5089SOL    HW226730   3.235   1.665  11.647 -0.4876 -0.4713 -0.2353
 5090SOL     OW26731   2.291   2.970  13.884 -0.3528 -0.0984 -0.5901
 5090SOL    HW126732   2.364   2.997  13.828  0.9308 -0.2194  1.0348
 5090SOL    HW226733   2.224   2.954  13.817  0.7011 -0.1710 -1.6118
 5091SOL     OW26734   0.128   3.780   7.375 -0.1370 -0.1646 -0.0843
 5091SOL    HW126735   0.066   3.853   7.368  2.5625  1.8852 -2.3518
 5091SOL    HW226736   0.200   3.831   7.413 -2.1912  0.8423  2.5123
 5092SOL     OW26737   2.506   0.375   6.264  0.4535 -0.6353  0.1609
 5092SOL    HW126738   2.438   0.313   6.290 -0.6613  0.7325  0.5074
 5092SOL    HW226739   2.477   0.458   6.303 -3.1017 -0.3293 -3.0923
 5093SOL     OW26740   0.481   0.678   3.882 -0.6532 -0.2076  0.0512
 5093SOL    HW126741   0.462   0.584   3.879  1.1338 -0.6624  3.2318
 5093SOL    HW226742   0.576   0.669   3.878 -0.7077 -0.8970  0.3350
 5094SOL     OW26743   1.222   0.058   2.122  0.2153 -0.3742 -0.5196
 5094SOL    HW126744   1.245   0.150   2.139 -2.1209 -0.1817  1.7941
 5094SOL    HW226745   1.131   0.065   2.093  0.4023 -1.5286 -1.3721
 5095SOL     OW26746   0.953   3.686   7.771  0.4017  0.2484  0.2191
 5095SOL    HW126747   0.904   3.631   7.710  1.6622 -1.8936  1.1518
 5095SOL    HW226748   0.904   3.676   7.853 -0.4216 -2.4127 -0.5849
 5096SOL     OW26749   2.716   4.279   7.812  0.3266  0.3815 -0.2778
 5096SOL    HW126750   2.721   4.184   7.803  0.4387  0.1959  1.6967
 5096SOL    HW226751   2.735   4.292   7.905  1.7814 -0.5995 -0.4272
 5097SOL     OW26752   0.908   2.632   2.451 -0.5552  0.1049  0.2829
 5097SOL    HW126753   0.967   2.700   2.420 -1.8482  0.6854 -0.9056
 5097SOL    HW226754   0.835   2.657   2.394  1.1384  2.1894 -0.9695
 5098SOL     OW26755   4.633   0.183  17.042 -0.0072 -0.1134 -0.2538
 5098SOL    HW126756   4.571   0.238  17.090  1.0315  1.4821 -0.7435
 5098SOL    HW226757   4.690   0.253  17.011  1.1270 -1.5480 -1.3991
 5099SOL     OW26758   3.130   1.992   2.271  0.1108 -0.1322  0.2817
 5099SOL    HW126759   3.174   2.009   2.354 -0.2781  0.3654  0.3873
 5099SOL    HW226760   3.188   1.932   2.224  1.1889  2.1591 -1.3114
 5100SOL     OW26761   1.895   0.342   9.509  0.0233 -0.0004 -0.6243
 5100SOL    HW126762   1.849   0.423   9.531  3.0095  1.4505  0.2405
 5100SOL    HW226763   1.952   0.360   9.435  1.1578  0.2731  0.3185
 5101SOL     OW26764   2.205   3.023   6.109  0.6066  0.2750 -0.0335
 5101SOL    HW126765   2.221   2.937   6.149 -0.2987  0.1088 -0.0305
 5101SOL    HW226766   2.110   3.028   6.120  0.3771  0.0049 -1.9650
 5102SOL     OW26767   1.808   2.198   7.672  0.0026 -0.1021  0.8549
 5102SOL    HW126768   1.868   2.255   7.625  1.7614 -1.3939  1.5372
 5102SOL    HW226769   1.722   2.225   7.640 -0.0758  0.0891  1.2213
 5103SOL     OW26770   4.265   4.226  17.014  0.5896 -0.2257 -0.4027
 5103SOL    HW126771   4.337   4.181  16.970  1.0387 -0.8008  0.9293
 5103SOL    HW226772   4.192   4.207  16.955 -0.2089  0.0798  0.4684
 5104SOL     OW26773   0.421   3.837   5.675 -0.3397 -0.2416 -0.0274
 5104SOL    HW126774   0.425   3.776   5.749 -1.1646  1.0732  1.0899
 5104SOL    HW226775   0.477   3.911   5.698 -2.0457  1.1261 -0.2566
 5105SOL     OW26776   3.021   3.988   5.725 -0.3638 -0.1455  0.1564
 5105SOL    HW126777   3.015   4.057   5.792  0.0282  0.4023 -0.3750
 5105SOL    HW226778   3.010   4.053   5.656  0.7064 -0.6547 -0.4913
 5106SOL     OW26779   0.850   2.192   5.448  0.3103  0.1738  0.4283
 5106SOL    HW126780   0.895   2.111   5.470  0.8685  0.9364  2.0499
 5106SOL    HW226781   0.834   2.178   5.354  2.1948 -1.4583  0.3532
 5107SOL     OW26782   3.035   1.804   5.173 -0.0108  0.2140 -0.1912
 5107SOL    HW126783   2.952   1.756   5.178 -0.0042  0.2572  0.3302
 5107SOL    HW226784   3.030   1.841   5.261  0.3699 -0.6577  0.1969
 5108SOL     OW26785   4.591   4.290   6.395 -0.1894 -0.1263  0.2521
 5108SOL    HW126786   4.577   4.241   6.476 -0.0092 -3.0130 -1.4348
 5108SOL    HW226787   4.506   4.275   6.353 -0.3323  0.4669  0.3353
 5109SOL     OW26788   4.244   1.288   5.738 -0.1912  0.1880  0.4386
 5109SOL    HW126789   4.333   1.274   5.706  0.3137  4.1670  0.1179
 5109SOL    HW226790   4.207   1.266   5.653  1.8011 -0.4108 -0.2714
 5110SOL     OW26791   2.193   0.018  17.418  0.5054  0.5653  0.7328
 5110SOL    HW126792   2.249   0.065  17.357  2.0304 -0.7708  1.0898
 5110SOL    HW226793   2.251   4.675  17.455  0.9466 -0.0949 -1.1823
 5111SOL     OW26794   4.362   3.747   2.702  0.1485 -0.5253 -0.2272
 5111SOL    HW126795   4.301   3.813   2.735  0.8098 -0.0039 -0.0385
 5111SOL    HW226796   4.358   3.770   2.610 -0.8830 -1.0007 -0.2971
 5112SOL     OW26797   3.580   2.563  10.873  0.7785 -0.2202 -0.1999
 5112SOL    HW126798   3.604   2.592  10.961 -0.8082  0.5727 -0.0234
 5112SOL    HW226799   3.573   2.643  10.822 -0.2443 -1.3801 -1.8832
 5113SOL     OW26800   4.279   3.690   5.578  0.9111  0.6895 -0.5672
 5113SOL    HW126801   4.238   3.682   5.664  3.1758 -0.1638  0.4321
 5113SOL    HW226802   4.371   3.675   5.601  0.6952  0.5507  0.2103
 5114SOL     OW26803   1.645   2.855   0.613 -0.1890 -0.6006  0.4611
 5114SOL    HW126804   1.641   2.950   0.624  0.2987 -0.2063 -2.7730
 5114SOL    HW226805   1.618   2.821   0.698 -0.7763 -1.9271 -0.2383
 5115SOL     OW26806   3.076   0.434  13.617  0.7325  0.0262 -0.1519
 5115SOL    HW126807   3.019   0.358  13.622 -0.6103  1.0476  0.1408
 5115SOL    HW226808   3.165   0.400  13.604  0.6944 -0.6536  1.3433
 5116SOL     OW26809   2.836   3.143   2.460 -0.0486 -1.0286 -0.3248
 5116SOL    HW126810   2.782   3.068   2.434 -0.2674 -0.6642 -0.9331
 5116SOL    HW226811   2.897   3.132   2.388  0.1864  1.2839 -0.4949
 5117SOL     OW26812   3.275   0.083  12.607  0.1687  0.6514  0.2392
 5117SOL    HW126813   3.342   0.031  12.564  0.6661  1.3505  0.1597
 5117SOL    HW226814   3.319   0.168  12.616 -0.0837  0.7822  0.2227
 5118SOL     OW26815   0.023   3.571   8.511 -0.5240  0.1523  0.4562
 5118SOL    HW126816   4.722   3.554   8.421 -0.2673  0.3164  0.3537
 5118SOL    HW226817   0.040   3.665   8.511 -0.2268  0.0995  0.5574
 5119SOL     OW26818   4.473   3.817   8.989 -0.0264 -0.0101  0.3444
 5119SOL    HW126819   4.498   3.734   8.948  0.2923  0.2313  0.0445
 5119SOL    HW226820   4.419   3.780   9.059  0.7857  1.8543  1.9712
 5120SOL     OW26821   3.886   0.621   4.050  0.5432 -0.1808 -0.2528
 5120SOL    HW126822   3.819   0.555   4.032  1.6644 -1.6246  0.8798
 5120SOL    HW226823   3.947   0.570   4.103 -0.4654 -0.2487  0.8482
 5121SOL     OW26824   1.977   1.606  14.240 -0.6161 -0.2503 -0.2300
 5121SOL    HW126825   2.053   1.637  14.190  0.2385  0.4012  1.4751
 5121SOL    HW226826   1.962   1.520  14.201 -1.8610  0.9288 -2.3535
 5122SOL     OW26827   1.311   0.044  12.230 -0.1649  0.1541 -0.6603
 5122SOL    HW126828   1.287   0.081  12.144  2.3690 -0.1046 -1.4650
 5122SOL    HW226829   1.356   0.118  12.273 -0.9588 -0.5549  1.3803
 5123SOL     OW26830   4.069   2.974  14.942  0.1471  0.0903 -0.6091
 5123SOL    HW126831   4.003   2.918  14.901  0.3807 -0.8230  0.2722
 5123SOL    HW226832   4.027   3.059  14.955 -0.8691 -0.3363 -1.1556
 5124SOL     OW26833   4.629   1.715   3.032  0.3373 -0.0051  0.5810
 5124SOL    HW126834   4.640   1.661   3.110  2.5207 -1.0711 -0.4622
 5124SOL    HW226835   4.551   1.768   3.050  0.7085  0.6206  0.3526
 5125SOL     OW26836   4.118   0.445  15.373 -0.1032  0.5540  0.0549
 5125SOL    HW126837   4.173   0.522  15.391  1.0860  0.1608 -1.9745
 5125SOL    HW226838   4.055   0.445  15.445 -0.4774  3.3899 -0.2925
 5126SOL     OW26839   1.613   2.993   5.941 -0.3402  0.0194  0.4626
 5126SOL    HW126840   1.561   3.058   5.990 -0.6798  0.2308 -0.1794
 5126SOL    HW226841   1.644   3.041   5.864  1.8746 -1.1051  0.6534
 5127SOL     OW26842   3.801   4.117   8.860 -0.1356 -0.1168  0.1166
 5127SOL    HW126843   3.830   4.045   8.804 -2.0840 -2.3524  1.9989
 5127SOL    HW226844   3.885   4.142   8.900 -1.5158  0.5737  2.6050
 5128SOL     OW26845   2.842   1.283  11.194 -0.1048 -0.4002 -0.6759
 5128SOL    HW126846   2.794   1.332  11.261  1.3581  2.3061 -1.6111
 5128SOL    HW226847   2.796   1.281  11.110  1.3114  1.4477 -1.4921
 5129SOL     OW26848   1.628   3.928   2.200  0.0945  0.0990 -0.0174
 5129SOL    HW126849   1.569   3.861   2.165 -0.4180 -0.4175  1.8450
 5129SOL    HW226850   1.587   4.008   2.165 -0.0938 -0.3616 -0.8453
 5130SOL     OW26851   1.685   3.123  13.607  0.0093 -0.0803 -0.5015
 5130SOL    HW126852   1.761   3.175  13.632 -1.1571  1.0638  0.6654
 5130SOL    HW226853   1.660   3.071  13.683  1.7068  0.5718  0.4901
 5131SOL     OW26854   4.522   0.452   9.662 -0.7759 -0.2703  0.1974
 5131SOL    HW126855   4.567   0.446   9.578 -1.8856  1.3864 -0.5186
 5131SOL    HW226856   4.562   0.388   9.720  0.4625  2.0376  1.8969
 5132SOL     OW26857   3.850   3.301   1.640 -0.4061  0.6276  0.2879
 5132SOL    HW126858   3.864   3.270   1.730 -1.8806 -0.9309 -0.0266
 5132SOL    HW226859   3.822   3.218   1.602  2.3854 -1.2445  2.3637
 5133SOL     OW26860   3.866   1.159   1.826  0.2972  0.6627 -0.5072
 5133SOL    HW126861   3.861   1.242   1.873 -2.8453  0.1743  0.0223
 5133SOL    HW226862   3.915   1.107   1.890 -1.4927  0.7649  0.9475
 5134SOL     OW26863   0.241   1.573  12.419  0.2594  0.3188 -0.0490
 5134SOL    HW126864   0.187   1.627  12.362 -0.9247 -1.0387 -0.2107
 5134SOL    HW226865   0.222   1.611  12.506 -1.0352  0.1786 -0.2627
 5135SOL     OW26866   0.306   1.211   4.515  0.6661  0.0114 -0.5321
 5135SOL    HW126867   0.381   1.153   4.508  0.2904 -0.5097 -0.2267
 5135SOL    HW226868   0.231   1.154   4.531  1.3936 -0.7013  0.3320
 5136SOL     OW26869   3.318   1.939  13.683  0.5279  0.6078 -0.3454
 5136SOL    HW126870   3.310   2.030  13.713 -0.6234  0.8973 -1.5269
 5136SOL    HW226871   3.268   1.883  13.743  0.8292 -0.9357 -1.5391
 5137SOL     OW26872   4.497   0.897   5.005  0.3862 -0.0015 -0.2546
 5137SOL    HW126873   4.478   0.803   5.010 -2.0764  0.4931 -0.6845
 5137SOL    HW226874   4.587   0.894   5.039  0.5471  0.6722 -0.6254
 5138SOL     OW26875   0.020   1.786   4.723  0.9858 -0.4027 -0.1160
 5138SOL    HW126876   4.661   1.831   4.738  1.2699 -0.0750  0.4321
 5138SOL    HW226877   0.014   1.791   4.627 -2.4048  0.8031  0.1679
 5139SOL     OW26878   1.282   4.003   4.576 -0.3327 -0.5739 -0.2141
 5139SOL    HW126879   1.219   4.074   4.560 -1.3458 -1.8120 -1.7199
 5139SOL    HW226880   1.252   3.936   4.515 -0.3185 -1.1978  0.4668
 5140SOL     OW26881   0.347   2.089  12.960  0.5392  0.4878 -0.1431
 5140SOL    HW126882   0.421   2.110  13.018 -0.0586 -1.3861  1.3062
 5140SOL    HW226883   0.305   2.026  13.019  0.7162  0.8201  0.3423
 5141SOL     OW26884   1.416   3.039  16.343  0.4003  0.0017  0.0560
 5141SOL    HW126885   1.357   3.019  16.415  3.6020 -3.4603  1.6866
 5141SOL    HW226886   1.482   3.096  16.382  0.4254 -0.6156  0.8973
 5142SOL     OW26887   3.540   4.511   5.580 -0.0651  0.1547 -0.2178
 5142SOL    HW126888   3.459   4.481   5.620  0.0485  0.1688  0.0244
 5142SOL    HW226889   3.526   4.482   5.490 -0.2309 -0.1334 -0.0992
 5143SOL     OW26890   0.241   2.839   5.956 -0.6016  0.6865  0.1692
 5143SOL    HW126891   0.290   2.764   5.991 -1.7872  0.4647  1.3944
 5143SOL    HW226892   0.293   2.856   5.878  1.4450  4.4422  2.3689
 5144SOL     OW26893   4.438   0.568  15.449 -0.2875  0.7520  0.5388
 5144SOL    HW126894   4.367   0.628  15.473 -0.8065  0.2526  0.2531
 5144SOL    HW226895   4.413   0.486  15.491  0.6048 -0.6709 -1.7641
 5145SOL     OW26896   3.314   1.962   3.819  0.6658  0.1171 -0.4844
 5145SOL    HW126897   3.375   2.031   3.846  0.0245  0.4342  0.1708
 5145SOL    HW226898   3.374   1.891   3.797  0.7807 -0.1987  0.8121
 5146SOL     OW26899   2.296   4.294   2.747  0.4176  0.0319 -0.1997
 5146SOL    HW126900   2.324   4.303   2.838  1.5059  1.2279 -0.6417
 5146SOL    HW226901   2.239   4.218   2.752  0.2663  0.2417  1.1286
 5147SOL     OW26902   2.670   1.971  10.048 -0.1829  0.1551  0.7081
 5147SOL    HW126903   2.643   1.925  10.128 -0.3701 -2.2148 -0.7301
 5147SOL    HW226904   2.759   1.936  10.047 -0.7727 -1.2409 -1.1524
 5148SOL     OW26905   3.425   2.224  17.654 -0.1388 -0.5673  0.6855
 5148SOL    HW126906   3.441   2.265  17.569  2.9116 -0.4300  1.3409
 5148SOL    HW226907   3.330   2.219  17.663 -0.2244 -0.9415 -0.5005
 5149SOL     OW26908   0.132   2.098   3.452 -0.0355 -0.0935  0.3693
 5149SOL    HW126909   0.070   2.171   3.458 -0.0149 -0.2421  2.5245
 5149SOL    HW226910   0.092   2.039   3.389  1.4799 -0.4719 -0.2370
 5150SOL     OW26911   3.626   4.701  12.286 -0.1290  0.2046  0.0654
 5150SOL    HW126912   3.707   4.724  12.332 -0.4317  0.3774  0.5027
 5150SOL    HW226913   3.606   0.056  12.237  0.0041 -0.6015 -1.3121
 5151SOL     OW26914   4.404   0.024   0.991 -0.0043 -0.1457 -0.4034
 5151SOL    HW126915   4.345   4.678   0.968  0.5626 -0.8164  0.2157
 5151SOL    HW226916   4.362   0.047   1.074 -0.5288  0.3704 -0.8102
 5152SOL     OW26917   0.455   3.189  11.720 -0.6135  0.1556 -0.4361
 5152SOL    HW126918   0.522   3.124  11.699  1.4292  2.3300 -0.5805
 5152SOL    HW226919   0.402   3.173  11.641 -2.3504 -2.1185  1.1710
 5153SOL     OW26920   4.168   0.305   5.166  0.9723 -0.5823 -0.6109
 5153SOL    HW126921   4.169   0.209   5.171  1.2311 -0.5705 -0.4464
 5153SOL    HW226922   4.095   0.317   5.225 -2.2146 -1.3055 -4.3931
 5154SOL     OW26923   2.096   3.329  10.942 -0.0792 -0.1267  0.0463
 5154SOL    HW126924   2.189   3.343  10.924  0.4039 -1.5212  1.4919
 5154SOL    HW226925   2.081   3.395  11.010  1.2773 -0.2232  0.4547
 5155SOL     OW26926   4.269   0.333   4.378 -0.0235 -0.1460  0.0144
 5155SOL    HW126927   4.337   0.399   4.389 -1.9292  1.5006  1.9435
 5155SOL    HW226928   4.313   0.272   4.319 -0.9988 -0.6763 -0.1763
 5156SOL     OW26929   2.807   2.480   4.029 -0.3529  0.3230 -0.5224
 5156SOL    HW126930   2.789   2.499   4.121 -3.1456 -1.5090 -0.6940
 5156SOL    HW226931   2.737   2.415   4.021  0.9875 -0.6897 -4.2692
 5157SOL     OW26932   2.021   3.699   4.159  0.2471 -0.5816  0.0918
 5157SOL    HW126933   2.059   3.711   4.246  1.0801 -2.0585 -0.0665
 5157SOL    HW226934   2.040   3.781   4.113 -0.4899 -1.0511 -1.0587
 5158SOL     OW26935   4.647   3.635   1.921  0.6108 -0.1700 -0.0105
 5158SOL    HW126936   4.637   3.730   1.912  1.1377 -0.1751 -0.6218
 5158SOL    HW226937   4.589   3.609   1.850  0.0839 -0.7237  0.6270
 5159SOL     OW26938   4.564   2.293  11.665 -0.4085 -0.3604 -0.2366
 5159SOL    HW126939   4.531   2.231  11.730 -0.2455 -0.3282 -0.1224
 5159SOL    HW226940   4.625   2.347  11.715  0.6346 -1.7264 -0.0497
 5160SOL     OW26941   4.076   4.403   1.423 -0.5084  0.4810 -0.2932
 5160SOL    HW126942   4.061   4.445   1.507 -1.8090  0.1423 -0.3586
 5160SOL    HW226943   4.162   4.438   1.398 -0.2849 -0.5303 -0.9529
 5161SOL     OW26944   0.577   0.123   8.709  0.1897 -0.2787 -0.4814
 5161SOL    HW126945   0.642   0.192   8.721  0.3373 -0.3363 -0.9551
 5161SOL    HW226946   0.605   0.093   8.623 -0.2681 -0.2489 -0.6429
 5162SOL     OW26947   1.459   1.410   4.570  0.2282  0.2269  0.1417
 5162SOL    HW126948   1.415   1.341   4.520  0.0592  0.2245  0.2918
 5162SOL    HW226949   1.449   1.477   4.503  0.6084 -0.6798 -0.8178
 5163SOL     OW26950   1.551   3.119   7.194  0.3375  0.0499 -0.0887
 5163SOL    HW126951   1.486   3.079   7.251  2.4066  0.0319  2.2571
 5163SOL    HW226952   1.505   3.096   7.113  0.0463 -1.3495  0.4713
 5164SOL     OW26953   1.429   3.138  13.456  0.4052 -0.2074 -0.1351
 5164SOL    HW126954   1.500   3.139  13.519  1.7388 -1.3946 -1.6173
 5164SOL    HW226955   1.369   3.066  13.473  1.0139 -0.4357  0.9758
 5165SOL     OW26956   3.105   3.734  17.491  0.6924  0.4748  0.2899
 5165SOL    HW126957   3.133   3.646  17.466 -1.3284 -0.2566  0.6315
 5165SOL    HW226958   3.111   3.729  17.587  1.6496  0.1881  0.2215
 5166SOL     OW26959   1.658   1.933   0.912 -0.3818 -0.2519  0.4532
 5166SOL    HW126960   1.696   1.867   0.970 -0.7142  1.0593  2.1781
 5166SOL    HW226961   1.578   1.958   0.958 -0.6514 -1.6224  0.7282
 5167SOL     OW26962   0.996   2.214   1.016 -0.1006  0.4166  0.1597
 5167SOL    HW126963   1.011   2.267   0.938 -0.4143  1.2564  0.6769
 5167SOL    HW226964   1.020   2.286   1.073 -0.4233 -0.6038  1.5970
 5168SOL     OW26965   4.187   0.886   4.054  0.2061 -0.3429  0.1922
 5168SOL    HW126966   4.129   0.960   4.035  1.4969  0.2256 -1.4783
 5168SOL    HW226967   4.267   0.931   4.028 -0.8120  0.8508 -0.8740
 5169SOL     OW26968   2.834   2.904  17.585  0.0191  0.2078 -0.1085
 5169SOL    HW126969   2.872   2.840  17.526 -1.8769  0.2541 -1.3701
 5169SOL    HW226970   2.847   2.989  17.544  1.3188  0.4066  0.6829
 5170SOL     OW26971   1.697   1.393   0.888  0.2063 -0.4844 -0.0987
 5170SOL    HW126972   1.729   1.332   0.821  2.1775  0.3312  0.0873
 5170SOL    HW226973   1.760   1.373   0.958  1.8448  2.9717 -0.6140
 5171SOL     OW26974   2.166   0.191  12.802  0.5899 -0.0268  0.4708
 5171SOL    HW126975   2.184   0.156  12.714 -0.0863  1.4177 -0.2312
 5171SOL    HW226976   2.146   0.281  12.778 -1.9137 -0.3607  1.3175
 5172SOL     OW26977   4.438   4.258  12.982 -0.1187 -0.5941  0.1944
 5172SOL    HW126978   4.445   4.220  13.070 -1.0500 -2.5103 -0.5327
 5172SOL    HW226979   4.346   4.282  12.978  0.1778  0.6444  0.8450
 5173SOL     OW26980   2.870   1.795   7.056  0.0624  0.4120 -0.1027
 5173SOL    HW126981   2.801   1.742   7.018  1.8550  0.8716 -3.9466
 5173SOL    HW226982   2.931   1.726   7.082  0.6041  0.9841  0.1347
 5174SOL     OW26983   0.822   3.804   9.001 -0.3207 -0.0707  0.2355
 5174SOL    HW126984   0.912   3.773   8.993 -0.9480 -2.1313  1.1865
 5174SOL    HW226985   0.834   3.898   9.008 -0.1249  0.0125 -1.3193
 5175SOL     OW26986   2.143   4.477   5.731 -0.2105  0.1350 -0.0885
 5175SOL    HW126987   2.096   4.461   5.813  0.6688  0.2757  0.4489
 5175SOL    HW226988   2.151   4.384   5.710  0.1314  0.4034 -1.1403
 5176SOL     OW26989   1.324   0.138   9.468 -0.0974  0.5289 -0.5121
 5176SOL    HW126990   1.339   0.096   9.553 -0.8975  0.2296 -0.5208
 5176SOL    HW226991   1.338   0.232   9.477  1.6846  0.1367  0.8300
 5177SOL     OW26992   1.280   4.633   5.379 -0.4147 -0.4598  0.0530
 5177SOL    HW126993   1.311   4.543   5.391  0.1610 -0.1469  0.9267
 5177SOL    HW226994   1.211   4.626   5.313 -1.4128  0.8222  0.9612
 5178SOL     OW26995   4.587   2.209   8.030  0.2030  0.3534  0.0641
 5178SOL    HW126996   4.589   2.253   7.945  1.9696  2.9919  1.4851
 5178SOL    HW226997   4.675   2.173   8.039  0.0293 -0.4198 -1.4074
 5179SOL     OW26998   0.677   4.555   0.770  0.1408  0.3211  0.4745
 5179SOL    HW126999   0.663   4.648   0.750  1.2069  0.0624 -1.4595
 5179SOL    HW227000   0.769   4.549   0.795  0.3199 -0.7721 -0.4481
 5180SOL     OW27001   2.468   3.044   6.675  0.0987 -0.1724 -0.2125
 5180SOL    HW127002   2.515   3.040   6.758  0.0753 -1.0765 -0.2472
 5180SOL    HW227003   2.415   3.121   6.696  1.4154  0.6330  0.1439
 5181SOL     OW27004   2.488   2.434   6.060 -0.7147  0.0983  0.1066
 5181SOL    HW127005   2.565   2.428   6.117 -1.3102  2.0221  1.0776
 5181SOL    HW227006   2.521   2.475   5.980  2.4058 -1.2765  0.6939
 5182SOL     OW27007   1.190   2.309   6.238 -0.7678 -0.1722  0.3395
 5182SOL    HW127008   1.168   2.232   6.186  1.8402 -0.0921 -0.8638
 5182SOL    HW227009   1.112   2.364   6.247 -1.1592 -0.3252 -2.3462
 5183SOL     OW27010   3.498   2.013  10.175 -0.0501  0.1217  1.0453
 5183SOL    HW127011   3.537   1.926  10.165  0.2797  0.4312 -0.3408
 5183SOL    HW227012   3.420   2.014  10.119 -1.2111 -1.9355  2.6306
 5184SOL     OW27013   3.378   4.047  11.373  0.4920 -0.0770 -0.3859
 5184SOL    HW127014   3.307   4.073  11.432 -1.5210 -2.2395 -1.8630
 5184SOL    HW227015   3.368   4.108  11.300 -4.2054  1.7126  1.7707
 5185SOL     OW27016   4.361   0.754  16.351  0.1407 -0.2452 -0.4443
 5185SOL    HW127017   4.455   0.771  16.362 -0.2954  1.9633 -0.2416
 5185SOL    HW227018   4.344   0.781  16.261 -0.1805 -1.8907 -0.8782
 5186SOL     OW27019   2.334   0.864   8.298 -0.2210 -0.2787 -0.0043
 5186SOL    HW127020   2.344   0.811   8.377 -0.8145 -0.3932 -0.0056
 5186SOL    HW227021   2.400   0.818   8.246 -0.9449 -0.3329 -0.8724
 5187SOL     OW27022   1.216   3.545   9.440 -0.0988  0.1310  0.0583
 5187SOL    HW127023   1.176   3.537   9.353  1.3325 -3.3200 -0.2769
 5187SOL    HW227024   1.208   3.639   9.455  3.5262  1.1169 -4.1103
 5188SOL     OW27025   2.149   0.605  12.291 -0.1881 -0.0554  0.5573
 5188SOL    HW127026   2.084   0.643  12.350 -1.5391 -0.9424 -0.3816
 5188SOL    HW227027   2.139   0.512  12.311  1.4807  0.0092  1.7027
 5189SOL     OW27028   3.715   3.266   6.263  0.4288 -1.4130 -0.0699
 5189SOL    HW127029   3.783   3.332   6.246 -0.9580 -0.4147 -1.7060
 5189SOL    HW227030   3.658   3.273   6.187  0.2170 -1.3674  0.0946
 5190SOL     OW27031   4.538   2.438  15.522  0.2099  0.4620  0.3519
 5190SOL    HW127032   4.621   2.447  15.569  1.0216 -0.0054 -0.9787
 5190SOL    HW227033   4.510   2.524  15.493  3.1553  1.1578 -0.4816
 5191SOL     OW27034   3.174   1.252   3.485 -0.5762  0.1477  0.2295
 5191SOL    HW127035   3.141   1.340   3.502 -2.5159 -0.0766 -2.5164
 5191SOL    HW227036   3.242   1.268   3.419 -0.1288 -0.4678  0.5441
 5192SOL     OW27037   2.425   4.448   8.033 -0.6120  0.0271 -0.0665
 5192SOL    HW127038   2.512   4.460   7.994 -0.5917  2.4492  0.7532
 5192SOL    HW227039   2.368   4.504   7.981  1.4746  1.4198 -0.8823
 5193SOL     OW27040   2.612   4.431  11.751 -0.0048  0.5751  0.6129
 5193SOL    HW127041   2.602   4.525  11.765 -1.8260  0.4457  0.0982
 5193SOL    HW227042   2.699   4.428  11.711 -1.1049 -0.4457 -1.6664
 5194SOL     OW27043   3.653   4.121  17.658 -0.5870 -0.4871 -0.0005
 5194SOL    HW127044   3.619   4.099  17.571 -1.5586  0.2382  0.1906
 5194SOL    HW227045   3.743   4.088  17.664 -0.0060  0.9246 -0.8535
 5195SOL     OW27046   1.994   1.808   9.608  0.2825 -0.0514 -0.7679
 5195SOL    HW127047   1.912   1.852   9.586  2.4133  2.6571 -3.2783
 5195SOL    HW227048   2.013   1.849   9.692  0.2165 -1.4621 -0.0563
 5196SOL     OW27049   4.008   2.096   5.523 -0.5746 -0.1782 -0.6695
 5196SOL    HW127050   3.935   2.106   5.462 -1.9104 -2.6341  0.5331
 5196SOL    HW227051   3.956   2.078   5.602 -0.1497  0.8361 -0.1545
 5197SOL     OW27052   0.773   2.404   2.221 -1.0979 -0.2753 -0.1585
 5197SOL    HW127053   0.783   2.488   2.177  0.2196  0.5595  1.7336
 5197SOL    HW227054   0.698   2.409   2.280 -0.8498  1.3931  0.0047
 5198SOL     OW27055   2.194   1.167   5.431 -0.8809 -0.0630  0.1197
 5198SOL    HW127056   2.142   1.155   5.352 -0.2840  1.2339 -0.4794
 5198SOL    HW227057   2.283   1.145   5.402 -0.6093  1.2979 -0.1252
 5199SOL     OW27058   1.911   1.690   7.732 -0.3483 -0.0440 -0.3878
 5199SOL    HW127059   1.878   1.779   7.739 -1.2186 -0.2400 -2.0974
 5199SOL    HW227060   1.834   1.663   7.682 -0.8892  0.3072  0.2521
 5200SOL     OW27061   0.841   1.929   5.940 -0.4715  0.3031  0.3749
 5200SOL    HW127062   0.858   1.913   6.033 -0.9174  1.8192  0.7125
 5200SOL    HW227063   0.928   1.928   5.900 -0.4729  1.4077  0.3468
 5201SOL     OW27064   3.225   1.885   5.974  0.2067 -0.2304 -0.6711
 5201SOL    HW127065   3.319   1.893   5.987  0.0025 -0.2205  0.8230
 5201SOL    HW227066   3.206   1.963   5.921 -2.8479 -0.2080  0.4554
 5202SOL     OW27067   0.746   1.682   8.275  0.7718  0.2482 -0.8120
 5202SOL    HW127068   0.811   1.679   8.205  1.5934  0.8323 -0.0792
 5202SOL    HW227069   0.664   1.685   8.226  0.3248  1.3943  0.0056
 5203SOL     OW27070   3.561   3.919   8.827 -0.1324 -0.4866 -0.3954
 5203SOL    HW127071   3.519   3.920   8.913 -0.9736 -0.5456 -0.8047
 5203SOL    HW227072   3.571   4.013   8.811  2.2423 -0.9524 -1.6559
 5204SOL     OW27073   2.132   2.716   1.396 -0.3249  0.2508 -0.1342
 5204SOL    HW127074   2.192   2.659   1.348  0.4371  1.2578 -0.3871
 5204SOL    HW227075   2.180   2.799   1.405  2.2402 -1.1194 -1.3673
 5205SOL     OW27076   1.620   2.815   8.161 -0.2428  0.3114 -0.1274
 5205SOL    HW127077   1.664   2.747   8.110 -0.9056  0.6776 -1.1847
 5205SOL    HW227078   1.555   2.857   8.105 -0.7219 -1.7337 -1.1075
 5206SOL     OW27079   2.246   1.828  15.246 -0.2829  0.1129 -0.5272
 5206SOL    HW127080   2.160   1.787  15.232  0.6472 -2.1825  0.4539
 5206SOL    HW227081   2.277   1.783  15.168  0.7139 -0.7674  0.3754
 5207SOL     OW27082   0.449   3.785   1.666 -0.1846 -0.0111  0.0426
 5207SOL    HW127083   0.404   3.794   1.582  1.4336 -0.7220 -0.8978
 5207SOL    HW227084   0.474   3.876   1.686  2.3608 -0.4394 -1.1894
 5208SOL     OW27085   2.365   2.547  16.333 -0.2996 -0.1839  0.2346
 5208SOL    HW127086   2.338   2.612  16.397 -1.7068 -1.8410  1.3233
 5208SOL    HW227087   2.327   2.581  16.251 -1.7581 -2.5332 -0.0792
 5209SOL     OW27088   3.119   1.101   7.378  0.1294  0.9084  0.3668
 5209SOL    HW127089   3.194   1.066   7.329 -1.8729 -1.7083 -0.7995
 5209SOL    HW227090   3.103   1.186   7.337 -1.1790  0.4580 -0.0523
 5210SOL     OW27091   4.006   0.756   5.573  0.2100  0.3411 -0.9019
 5210SOL    HW127092   4.099   0.737   5.584 -0.3637 -2.3323 -0.6007
 5210SOL    HW227093   4.010   0.849   5.594 -0.4282  0.5766 -1.8205
 5211SOL     OW27094   4.465   2.072   4.556 -0.5519 -0.3848  0.6149
 5211SOL    HW127095   4.490   2.028   4.637  2.2634 -1.4197 -0.8362
 5211SOL    HW227096   4.549   2.065   4.512 -0.6855  0.1932  0.2739
 5212SOL     OW27097   4.324   0.768   5.238 -0.2367  0.3408 -0.1248
 5212SOL    HW127098   4.270   0.696   5.206  1.5310 -0.5687 -1.0779
 5212SOL    HW227099   4.412   0.730   5.245 -0.2648 -0.0831 -1.8737
 5213SOL     OW27100   4.661   3.743   5.336  0.2337 -0.3437 -0.0492
 5213SOL    HW127101   4.619   3.665   5.300 -0.4996 -1.3624  2.9600
 5213SOL    HW227102   0.025   3.722   5.307  0.6082  3.2535 -1.4159
 5214SOL     OW27103   3.447   1.543   2.764  0.1136 -0.8859 -0.2057
 5214SOL    HW127104   3.516   1.609   2.771 -0.2430 -0.4763 -0.5715
 5214SOL    HW227105   3.497   1.466   2.738 -1.4243 -2.2600  0.8746
 5215SOL     OW27106   3.768   3.706   0.607 -0.2648 -0.8063  0.8218
 5215SOL    HW127107   3.861   3.682   0.611 -0.6661 -2.7025 -0.7723
 5215SOL    HW227108   3.750   3.701   0.701 -1.2861  0.2455  0.6731
 5216SOL     OW27109   3.221   1.514  15.579 -0.1646  0.6739  0.5703
 5216SOL    HW127110   3.208   1.429  15.536 -1.9035  0.5621  1.3183
 5216SOL    HW227111   3.315   1.509  15.597  0.1717  1.4318 -0.9862
 5217SOL     OW27112   1.554   0.665   7.076 -0.0686  0.1394  0.5800
 5217SOL    HW127113   1.618   0.737   7.072 -0.1558  0.3475  2.6083
 5217SOL    HW227114   1.608   0.587   7.088 -0.3966  0.1835  2.3573
 5218SOL     OW27115   0.849   2.195   7.831  0.0182 -0.1684  0.2188
 5218SOL    HW127116   0.804   2.226   7.753  0.0524  0.7797  0.5686
 5218SOL    HW227117   0.778   2.163   7.886  1.0398 -0.5886  1.3042
 5219SOL     OW27118   0.380   2.407  16.191  0.0609  0.6540 -0.8000
 5219SOL    HW127119   0.447   2.354  16.235 -1.5192 -0.6369  0.0386
 5219SOL    HW227120   0.417   2.436  16.108 -2.5719 -3.0344 -3.2675
 5220SOL     OW27121   4.311   3.719   8.481 -0.4841 -0.4359  0.1827
 5220SOL    HW127122   4.258   3.776   8.537 -0.4606 -0.1288 -0.1078
 5220SOL    HW227123   4.245   3.653   8.461  1.0007 -0.7117 -3.9812
 5221SOL     OW27124   3.047   4.380  15.128 -0.4359  0.1719  0.3871
 5221SOL    HW127125   3.020   4.365  15.037  0.1659 -0.9855  0.4022
 5221SOL    HW227126   3.112   4.449  15.119  1.5718 -1.7387  0.3753
 5222SOL     OW27127   3.505   2.267   1.446 -0.2972  0.3304  0.5440
 5222SOL    HW127128   3.415   2.291   1.467 -0.5147 -0.6640  0.7537
 5222SOL    HW227129   3.536   2.223   1.525 -2.4756 -2.9562 -0.4604
 5223SOL     OW27130   3.134   3.371   0.765  0.6554  0.1083 -0.0601
 5223SOL    HW127131   3.193   3.412   0.828  2.0207 -3.2797  0.8962
 5223SOL    HW227132   3.046   3.380   0.801  1.3230 -0.4532  1.6710
 5224SOL     OW27133   4.274   4.307  10.420 -0.5129 -0.1887 -0.2091
 5224SOL    HW127134   4.300   4.221  10.454 -0.9425 -0.2329  0.0167
 5224SOL    HW227135   4.271   4.281  10.328  0.2027 -0.3802 -0.1782
 5225SOL     OW27136   3.787   0.862  13.143 -0.5073  0.1431  0.2087
 5225SOL    HW127137   3.845   0.896  13.074 -0.5726 -0.9042 -0.3720
 5225SOL    HW227138   3.830   0.870  13.228 -1.7573 -1.4876  0.9937
 5226SOL     OW27139   0.968   3.791   9.277 -0.5647  0.4037  0.3241
 5226SOL    HW127140   1.021   3.848   9.221 -0.6914 -1.5827 -1.8439
 5226SOL    HW227141   1.038   3.769   9.339  0.9956 -1.2127 -2.0091
 5227SOL     OW27142   3.129   2.832  15.038  0.0623  0.2093 -0.4065
 5227SOL    HW127143   3.165   2.763  15.092 -0.4451  0.6128  0.4510
 5227SOL    HW227144   3.081   2.882  15.104  1.4201 -1.0264  1.4779
 5228SOL     OW27145   1.029   1.580   6.657 -0.0860  0.0336  0.1782
 5228SOL    HW127146   1.100   1.517   6.644  0.8533  1.6064 -2.2115
 5228SOL    HW227147   0.982   1.539   6.730 -0.6823 -1.8016 -1.2328
 5229SOL     OW27148   2.117   3.182   5.853 -0.6127  0.1797  0.1771
 5229SOL    HW127149   2.195   3.237   5.857 -0.9963  0.8091 -1.0392
 5229SOL    HW227150   2.119   3.138   5.938 -2.1060 -1.0770 -0.4352
 5230SOL     OW27151   1.719   2.944   2.762  0.0756 -0.2193  0.0923
 5230SOL    HW127152   1.748   3.020   2.712  1.3402 -0.5260  0.3599
 5230SOL    HW227153   1.666   2.984   2.831 -1.0208  1.0368 -1.4777
 5231SOL     OW27154   1.839   0.990  10.493 -0.0588  0.2029  0.3862
 5231SOL    HW127155   1.778   0.991  10.567 -0.8803 -1.1225 -0.2733
 5231SOL    HW227156   1.801   0.923  10.436 -0.7388  0.8806  0.0422
 5232SOL     OW27157   1.795   4.101   1.380  0.0571  0.0155 -0.1494
 5232SOL    HW127158   1.742   4.150   1.317 -1.2244  2.2041  2.6478
 5232SOL    HW227159   1.849   4.175   1.406 -0.7418  0.5934 -0.1393
 5233SOL     OW27160   2.782   4.509   4.021 -0.1337 -0.1875  0.6116
 5233SOL    HW127161   2.872   4.477   4.016 -1.6284 -4.0816 -1.8013
 5233SOL    HW227162   2.792   4.580   3.957 -0.8791  0.0346  0.7438
 5234SOL     OW27163   1.225   3.190  16.877  0.1240  0.4012 -0.8835
 5234SOL    HW127164   1.212   3.130  16.804 -0.4083 -1.7880  1.0010
 5234SOL    HW227165   1.315   3.210  16.855  0.2126 -0.7704 -1.6051
 5235SOL     OW27166   4.125   2.177   0.704  0.2157 -0.2925 -0.1862
 5235SOL    HW127167   4.189   2.140   0.642  2.2189  1.4216  0.8588
 5235SOL    HW227168   4.134   2.134   0.789 -1.6939  1.2930  0.8185
 5236SOL     OW27169   0.546   1.777   7.782  0.2366 -0.1785 -0.3771
 5236SOL    HW127170   0.509   1.863   7.761  0.3521  0.4078  1.7613
 5236SOL    HW227171   0.633   1.805   7.813  0.0793 -1.0916  0.8873
 5237SOL     OW27172   0.411   1.077   9.898  0.3457 -0.0347 -1.1245
 5237SOL    HW127173   0.491   1.117   9.933  1.0033 -0.5384 -2.0606
 5237SOL    HW227174   0.358   1.156   9.886  0.3291  0.0643 -0.3521
 5238SOL     OW27175   2.142   1.358   2.338 -0.0447 -0.4417  0.2435
 5238SOL    HW127176   2.153   1.442   2.293 -0.1589 -0.0478  0.9465
 5238SOL    HW227177   2.056   1.379   2.375  0.6934  1.5822  0.8391
 5239SOL     OW27178   1.562   2.891   5.255 -0.1217  0.5872  0.7462
 5239SOL    HW127179   1.641   2.913   5.304 -0.4488  2.9060  0.2288
 5239SOL    HW227180   1.548   2.801   5.286 -0.7347  0.4276  0.0050
 5240SOL     OW27181   1.382   1.392   5.346  0.4449 -0.4100 -0.0658
 5240SOL    HW127182   1.384   1.383   5.441  1.8783  0.3197 -0.0197
 5240SOL    HW227183   1.331   1.472   5.333 -2.7664 -2.3895  0.3933
 5241SOL     OW27184   0.239   4.461  12.434  0.6544  0.5484 -0.1996
 5241SOL    HW127185   0.253   4.427  12.522  1.2551 -0.0146 -0.5136
 5241SOL    HW227186   0.176   4.397  12.399  0.8435  0.7430 -0.9065
 5242SOL     OW27187   2.478   4.627   3.157  0.1890 -0.5383  0.3415
 5242SOL    HW127188   2.503   4.534   3.153  0.2069 -0.5864  1.3489
 5242SOL    HW227189   2.507   4.657   3.072  0.6094 -0.7530  0.4115
 5243SOL     OW27190   3.695   1.895   5.771  0.2236  0.7048 -0.5334
 5243SOL    HW127191   3.755   1.839   5.820 -0.2993  0.0889 -0.6039
 5243SOL    HW227192   3.751   1.972   5.761  2.0720 -0.6436 -0.5547
 5244SOL     OW27193   1.454   1.753  10.630  0.4115  0.2357 -0.0163
 5244SOL    HW127194   1.434   1.840  10.663 -0.8614 -0.3632  0.7870
 5244SOL    HW227195   1.527   1.780  10.574 -1.3222  0.5066 -2.1655
 5245SOL     OW27196   1.605   1.485   9.204 -1.2158  0.1969 -0.1834
 5245SOL    HW127197   1.605   1.474   9.299 -1.0383  1.7628 -0.0029
 5245SOL    HW227198   1.585   1.579   9.198  1.9689  0.8487 -0.3510
 5246SOL     OW27199   0.372   2.966  16.658 -0.7834 -0.1082  0.0158
 5246SOL    HW127200   0.354   2.873  16.665 -1.7859  0.1091  0.2429
 5246SOL    HW227201   0.364   3.001  16.746 -1.2158  1.0757 -0.4966
 5247SOL     OW27202   1.394   2.900   6.274  0.1287  0.3513 -0.2288
 5247SOL    HW127203   1.369   2.812   6.300 -1.0534  0.3305 -1.4377
 5247SOL    HW227204   1.438   2.930   6.353  1.6713  1.1551 -1.3894
 5248SOL     OW27205   1.801   3.381   4.593  0.1568 -0.5958  1.1234
 5248SOL    HW127206   1.718   3.427   4.578  0.3717 -0.6530 -0.2330
 5248SOL    HW227207   1.849   3.424   4.523 -1.2894  0.9653  1.1028
 5249SOL     OW27208   1.776   1.172   6.755 -0.4196  0.4670 -0.3317
 5249SOL    HW127209   1.810   1.234   6.691  2.2017 -0.5615  0.0753
 5249SOL    HW227210   1.681   1.172   6.748 -0.6500 -1.5730  2.5910
 5250SOL     OW27211   4.366   1.803   1.389  0.0426  0.1626 -0.7140
 5250SOL    HW127212   4.379   1.881   1.336 -1.1722 -0.1993 -1.5221
 5250SOL    HW227213   4.349   1.842   1.475 -0.4190  0.5842 -0.9987
 5251SOL     OW27214   2.008   0.938  15.585 -0.0265  0.1708  0.1034
 5251SOL    HW127215   2.079   0.941  15.520  0.7756  0.7148  0.9998
 5251SOL    HW227216   2.007   1.028  15.618 -1.7222  1.4070 -3.3519
 5252SOL     OW27217   1.062   3.278   0.434  0.4629 -0.0290 -0.6316
 5252SOL    HW127218   0.985   3.245   0.388 -0.5354  0.8391  0.4350
 5252SOL    HW227219   1.062   3.365   0.395 -1.8342  0.0548 -0.4448
 5253SOL     OW27220   4.092   1.064   1.234  0.6577 -0.3327  0.4865
 5253SOL    HW127221   4.106   1.149   1.277  1.1333 -1.0823  1.8049
 5253SOL    HW227222   4.072   1.099   1.147  0.7935 -3.0379 -0.6043
 5254SOL     OW27223   3.330   2.393   7.385  0.0189 -0.4540  0.6237
 5254SOL    HW127224   3.294   2.350   7.307  1.8920 -0.4739 -0.2191
 5254SOL    HW227225   3.245   2.429   7.411  0.6616  1.6233 -0.1821
 5255SOL     OW27226   4.440   3.616   6.020 -0.0811  0.0745  0.1043
 5255SOL    HW127227   4.346   3.610   6.038 -0.1062  1.2108  0.3527
 5255SOL    HW227228   4.464   3.524   6.010 -0.1255 -0.0837  1.5759
 5256SOL     OW27229   1.631   3.477  17.524 -0.2540 -0.1200  0.4893
 5256SOL    HW127230   1.708   3.516  17.482 -0.1757 -0.6208  0.1738
 5256SOL    HW227231   1.651   3.494  17.616 -1.6006  2.8895  0.2392
 5257SOL     OW27232   3.010   4.253  16.715 -0.3736  0.2145  0.2120
 5257SOL    HW127233   3.046   4.224  16.798 -0.5759 -1.2581 -0.2005
 5257SOL    HW227234   3.087   4.251  16.659  0.6707  2.2458  1.5942
 5258SOL     OW27235   4.545   2.551   7.765 -0.2986 -0.1454 -0.4564
 5258SOL    HW127236   4.606   2.478   7.778  1.7257  1.6553  0.3263
 5258SOL    HW227237   4.472   2.503   7.726 -0.7223  0.4895 -0.4414
 5259SOL     OW27238   3.688   0.862   6.554 -0.3432 -0.1391 -0.3989
 5259SOL    HW127239   3.781   0.856   6.576 -0.4057  2.4498  0.5643
 5259SOL    HW227240   3.657   0.786   6.603  0.0296 -0.8383 -1.2468
 5260SOL     OW27241   1.104   3.313   3.733 -0.3812 -0.7320 -0.5015
 5260SOL    HW127242   1.052   3.252   3.786 -0.4097  0.4673  0.8483
 5260SOL    HW227243   1.115   3.389   3.791 -1.2409  0.1781 -1.5284
 5261SOL     OW27244   0.808   0.493   7.535 -0.2583  0.2234  0.3588
 5261SOL    HW127245   0.779   0.433   7.603 -2.4679 -1.7003 -2.2919
 5261SOL    HW227246   0.725   0.521   7.498 -0.6839  1.1730  2.0199
 5262SOL     OW27247   1.901   1.979  14.390  0.5030 -0.0709 -0.4332
 5262SOL    HW127248   1.822   2.009  14.436 -1.4757  1.1732 -4.6757
 5262SOL    HW227249   1.968   1.996  14.457 -0.0151  0.9415 -0.1685
 5263SOL     OW27250   1.374   4.121   2.099  0.1667  0.0295  0.2162
 5263SOL    HW127251   1.328   4.121   2.183 -0.9414  3.7344 -0.3932
 5263SOL    HW227252   1.306   4.150   2.038  1.1534  0.7209 -0.5565
 5264SOL     OW27253   1.078   1.669   3.857  0.1637 -0.4474 -0.0245
 5264SOL    HW127254   1.086   1.754   3.815 -1.8547 -0.5730 -0.6856
 5264SOL    HW227255   1.170   1.643   3.854  0.1591 -0.4771  0.0903
 5265SOL     OW27256   3.651   2.768   2.657 -0.0361  0.2647 -0.1492
 5265SOL    HW127257   3.706   2.837   2.694 -0.4593  0.2850  0.4462
 5265SOL    HW227258   3.684   2.768   2.567  1.9198  1.2788  0.5728
 5266SOL     OW27259   3.437   0.602  13.656 -0.4989 -0.3940  0.5256
 5266SOL    HW127260   3.473   0.673  13.709 -0.0808 -0.4195  0.2721
 5266SOL    HW227261   3.380   0.657  13.603  0.3240 -0.7356 -0.6930
 5267SOL     OW27262   3.672   0.408   8.845  0.0397 -0.3712  0.4395
 5267SOL    HW127263   3.676   0.327   8.794  0.3216  1.6011 -2.6978
 5267SOL    HW227264   3.599   0.451   8.800  1.3658  0.0513 -1.3003
 5268SOL     OW27265   2.444   3.476   0.951 -0.2446  0.0797  0.0650
 5268SOL    HW127266   2.512   3.474   1.018  1.1944  1.5112 -1.3273
 5268SOL    HW227267   2.436   3.571   0.952  1.3412  0.2221  0.1764
 5269SOL     OW27268   4.274   2.962   6.318  0.0045 -0.2891  0.0306
 5269SOL    HW127269   4.322   2.882   6.340 -0.4675 -0.5446  0.1290
 5269SOL    HW227270   4.338   3.033   6.325  0.1847 -0.3667 -0.8723
 5270SOL     OW27271   2.657   3.340  13.426 -0.1236  0.1114  0.7274
 5270SOL    HW127272   2.725   3.296  13.375  0.1689  0.5584  0.7259
 5270SOL    HW227273   2.618   3.266  13.473 -1.1299  0.0051 -0.2694
 5271SOL     OW27274   1.165   2.641  17.195  0.2228  0.0606  0.5629
 5271SOL    HW127275   1.121   2.725  17.193  0.8853  0.4378  2.2852
 5271SOL    HW227276   1.161   2.619  17.288  0.1154  2.0446  1.0129
 5272SOL     OW27277   3.707   0.854  15.154  0.4208 -0.6185  0.7424
 5272SOL    HW127278   3.752   0.771  15.136 -2.5319 -2.4208  1.5349
 5272SOL    HW227279   3.656   0.869  15.075  0.2844 -0.4266  0.8661
 5273SOL     OW27280   3.118   1.869   4.236  0.1434  0.3204  0.6041
 5273SOL    HW127281   3.186   1.842   4.175  0.0419 -2.6250  1.7653
 5273SOL    HW227282   3.120   1.962   4.216  1.7861  0.2867  0.6366
 5274SOL     OW27283   0.458   1.156   4.844  0.0325 -0.3061 -0.3977
 5274SOL    HW127284   0.432   1.248   4.846  1.8503  0.1924  0.3006
 5274SOL    HW227285   0.548   1.174   4.871 -0.1340 -0.6763  0.4099
 5275SOL     OW27286   3.851   3.638   8.296  0.4919 -0.1878  0.6217
 5275SOL    HW127287   3.894   3.556   8.271 -0.3444 -0.2062 -0.7527
 5275SOL    HW227288   3.762   3.627   8.264  0.2806  2.1462  0.4400
 5276SOL     OW27289   0.069   3.376   4.260 -0.0874  0.0466 -0.0075
 5276SOL    HW127290   0.098   3.328   4.183  1.2522  1.6036 -0.4693
 5276SOL    HW227291   0.149   3.400   4.306  0.1196  0.1620 -0.4361
 5277SOL     OW27292   2.384   2.518   9.629  0.0662  0.2272 -0.5489
 5277SOL    HW127293   2.439   2.466   9.689 -1.2661  1.5423  1.8315
 5277SOL    HW227294   2.337   2.443   9.593  0.8362 -0.0208 -1.0299
 5278SOL     OW27295   3.068   3.564   3.223  0.9964 -0.1841  0.5363
 5278SOL    HW127296   3.089   3.654   3.196  1.1067 -0.7332 -1.1649
 5278SOL    HW227297   3.119   3.517   3.157  0.3780 -0.4272  0.2412
 5279SOL     OW27298   1.571   0.910   4.725  0.4595 -0.4875 -0.4686
 5279SOL    HW127299   1.551   0.936   4.815  0.7536 -1.0630 -0.2355
 5279SOL    HW227300   1.581   0.999   4.690  0.7002 -0.5167 -0.4766
 5280SOL     OW27301   1.775   2.320   5.206  0.0982 -0.3949  0.0966
 5280SOL    HW127302   1.807   2.232   5.224  0.8287 -0.1566 -0.0286
 5280SOL    HW227303   1.831   2.337   5.129  0.9429 -3.4153  0.0523
 5281SOL     OW27304   2.825   3.758   3.628 -0.1839 -0.2696 -0.3845
 5281SOL    HW127305   2.793   3.670   3.645  0.3265 -0.2724  0.5616
 5281SOL    HW227306   2.823   3.793   3.717 -0.2357 -1.9073  0.2546
 5282SOL     OW27307   3.231   4.422   6.758 -0.0297 -0.1527  0.1740
 5282SOL    HW127308   3.274   4.339   6.742  1.8013  0.7302  0.5666
 5282SOL    HW227309   3.303   4.461   6.807 -1.0390 -1.3106  2.6009
 5283SOL     OW27310   3.698   3.940   8.226  0.1409 -0.3111 -0.5726
 5283SOL    HW127311   3.617   3.989   8.212  2.1092  2.9942 -0.5675
 5283SOL    HW227312   3.653   3.859   8.248  0.0482 -0.4147 -1.1655
 5284SOL     OW27313   0.343   1.612   3.838 -0.2173 -0.0137 -0.3649
 5284SOL    HW127314   0.261   1.635   3.793 -0.8608 -0.6519  0.4693
 5284SOL    HW227315   0.301   1.545   3.893 -1.6241 -0.0041 -1.4153
 5285SOL     OW27316   2.552   0.104   5.205 -0.3084  0.1933  0.1448
 5285SOL    HW127317   2.478   0.078   5.150 -0.5988  1.0990  0.1088
 5285SOL    HW227318   2.515   0.127   5.290 -0.8899  1.6735 -0.5095
 5286SOL     OW27319   1.644   3.129   3.173  0.0214 -0.5014 -0.1422
 5286SOL    HW127320   1.738   3.147   3.172  0.0363 -0.5174  0.7091
 5286SOL    HW227321   1.625   3.172   3.257 -0.3584 -0.9397 -0.0032
 5287SOL     OW27322   3.581   1.420   4.245 -0.2573  0.2238 -0.0541
 5287SOL    HW127323   3.571   1.516   4.239  0.6917  0.1862 -2.4279
 5287SOL    HW227324   3.493   1.390   4.222  0.5194 -2.8002  0.9700
 5288SOL     OW27325   1.375   1.803  12.569 -0.6388  0.1709 -0.2246
 5288SOL    HW127326   1.466   1.830  12.555 -0.4943 -0.4522 -0.4852
 5288SOL    HW227327   1.369   1.771  12.659 -1.1869  2.3994  0.5242
 5289SOL     OW27328   1.972   2.666   0.578 -0.0395  0.6066 -0.4314
 5289SOL    HW127329   1.956   2.748   0.530  0.9606  1.7118  1.1053
 5289SOL    HW227330   2.067   2.674   0.585  0.1033 -0.7354 -0.9631
 5290SOL     OW27331   0.350   0.824   4.093 -0.0678  0.4170  0.8007
 5290SOL    HW127332   0.394   0.772   4.025 -0.7284 -2.7863  2.8452
 5290SOL    HW227333   0.338   0.906   4.044  0.6885  0.1364  0.1376
 5291SOL     OW27334   1.932   4.679   2.440  0.2355 -0.3521 -0.4561
 5291SOL    HW127335   2.020   4.643   2.428  0.3557  0.1928 -1.2005
 5291SOL    HW227336   1.943   0.035   2.389  2.2331 -0.4752 -0.2243
 5292SOL     OW27337   3.646   1.354   6.911 -0.0910  0.6061  0.2499
 5292SOL    HW127338   3.588   1.291   6.952 -0.8594  1.0454 -0.1675
 5292SOL    HW227339   3.715   1.349   6.977 -1.0478  1.5086  1.3260
 5293SOL     OW27340   4.641   3.042   4.027  0.2555  0.2854 -0.0799
 5293SOL    HW127341   4.634   2.969   4.088  0.5350  0.1060 -0.2611
 5293SOL    HW227342   4.554   3.082   4.025  0.3848  0.5698 -0.1225
 5294SOL     OW27343   1.459   2.490   0.122 -0.4168  0.1382 -0.5201
 5294SOL    HW127344   1.529   2.427   0.109  0.1101  0.7403 -0.6083
 5294SOL    HW227345   1.451   2.516   0.030 -0.6773 -1.0398 -0.8278
 5295SOL     OW27346   2.008   0.146   2.260 -0.0670 -0.5117 -0.2854
 5295SOL    HW127347   2.094   0.188   2.270 -1.1085  1.0233  2.1333
 5295SOL    HW227348   2.024   0.092   2.183 -1.4712 -1.8977  0.4088
 5296SOL     OW27349   0.784   2.337  13.380  0.0299  0.3268  0.3299
 5296SOL    HW127350   0.734   2.317  13.300  0.1109  1.7673 -0.0899
 5296SOL    HW227351   0.739   2.417  13.407  1.3974  1.2552 -0.1427
 5297SOL     OW27352   1.244   0.412   9.258  0.1651  0.1754 -0.2652
 5297SOL    HW127353   1.288   0.412   9.343  0.4626  0.2891 -0.4173
 5297SOL    HW227354   1.160   0.374   9.282  0.4067  1.0776  1.9913
 5298SOL     OW27355   2.500   4.184   2.606 -0.2298  0.3658  0.5205
 5298SOL    HW127356   2.419   4.228   2.629 -1.0494 -1.0430  0.3374
 5298SOL    HW227357   2.520   4.222   2.520  0.2514 -0.1558  0.4005
 5299SOL     OW27358   2.211   1.010   6.066 -0.4131  0.0210 -0.2847
 5299SOL    HW127359   2.158   0.933   6.086 -1.2495  0.1860 -1.8680
 5299SOL    HW227360   2.253   1.037   6.147  0.5642 -0.7364 -0.5448
 5300SOL     OW27361   0.589   3.700   8.639 -0.2026  0.7015  0.6902
 5300SOL    HW127362   0.557   3.618   8.604 -0.8956  0.9483  0.7433
 5300SOL    HW227363   0.517   3.761   8.621  1.1090  1.7629 -1.0098
 5301SOL     OW27364   0.849   4.394   0.554 -0.5121 -0.1125  0.0857
 5301SOL    HW127365   0.868   4.422   0.643  0.9276  0.1645 -0.3085
 5301SOL    HW227366   0.932   4.427   0.520 -0.3530 -0.5429  0.0680
 5302SOL     OW27367   0.245   2.254   6.067  0.3045  0.5919 -0.0733
 5302SOL    HW127368   0.296   2.177   6.094 -0.0223 -0.2821 -1.9107
 5302SOL    HW227369   0.310   2.300   6.014 -0.4019  1.2283 -0.3914
 5303SOL     OW27370   1.073   0.675   4.441 -0.2582 -0.3281 -0.3456
 5303SOL    HW127371   1.140   0.609   4.422 -2.4186 -2.2431 -1.2635
 5303SOL    HW227372   1.092   0.733   4.367 -0.2703 -1.5541 -1.3021
 5304SOL     OW27373   2.365   3.535  16.781  0.1866 -0.3216  0.0087
 5304SOL    HW127374   2.319   3.603  16.831  0.7868 -0.2989  0.5372
 5304SOL    HW227375   2.379   3.475  16.854  1.0976  1.4344  1.2961
 5305SOL     OW27376   3.502   2.099   6.474 -0.0558  0.2023  0.3008
 5305SOL    HW127377   3.432   2.052   6.428 -0.4634  0.6488  0.4675
 5305SOL    HW227378   3.572   2.037   6.454 -0.9988 -0.1176 -2.0639
 5306SOL     OW27379   4.023   1.822   2.628  0.3492 -0.5123 -0.3254
 5306SOL    HW127380   3.956   1.881   2.664  0.6901 -1.4492  1.8804
 5306SOL    HW227381   3.987   1.737   2.600 -1.1060  0.3491 -1.0890
 5307SOL     OW27382   1.117   1.656  12.585 -0.3109 -0.5999  0.5289
 5307SOL    HW127383   1.178   1.730  12.579  1.5871 -1.9438  3.2155
 5307SOL    HW227384   1.159   1.620  12.663  1.2420 -1.6455 -0.7894
 5308SOL     OW27385   0.253   2.649  13.862  0.0828  0.4697 -0.2222
 5308SOL    HW127386   0.160   2.670  13.869 -0.1571 -1.1758  1.5397
 5308SOL    HW227387   0.283   2.739  13.845  0.2725  0.3788 -0.3733
 5309SOL     OW27388   4.054   4.585  11.826 -0.1819 -0.1295 -0.3107
 5309SOL    HW127389   4.093   4.634  11.898 -1.1436  2.5949 -1.6442
 5309SOL    HW227390   4.049   4.654  11.760 -0.4812 -0.6578 -0.8336
 5310SOL     OW27391   4.409   2.694   6.936 -0.1283 -0.2662 -0.8194
 5310SOL    HW127392   4.407   2.686   6.841  0.7998 -0.9432 -0.7892
 5310SOL    HW227393   4.391   2.602   6.956 -3.0386  0.3763 -0.5928
 5311SOL     OW27394   2.425   3.451   6.175  0.3104  0.0166  0.1120
 5311SOL    HW127395   2.389   3.526   6.127 -4.2502 -0.1613  3.2286
 5311SOL    HW227396   2.356   3.386   6.180  0.2804 -0.0114 -0.5955
 5312SOL     OW27397   4.636   3.805   9.445  0.0021 -0.1928 -0.7715
 5312SOL    HW127398   4.701   3.776   9.509  1.7693  1.7215 -1.6711
 5312SOL    HW227399   4.630   3.718   9.405  1.3882 -0.8362  0.4015
 5313SOL     OW27400   2.969   0.167   6.288  0.4460  0.1610 -0.1128
 5313SOL    HW127401   2.925   0.085   6.265  3.6068 -1.9185  1.2798
 5313SOL    HW227402   2.903   0.228   6.255  0.9976 -1.7519 -4.8502
 5314SOL     OW27403   1.523   1.690   8.943 -0.4894 -0.1179  0.1674
 5314SOL    HW127404   1.600   1.694   8.886 -0.7639  0.4173 -0.1741
 5314SOL    HW227405   1.562   1.693   9.031  1.5951  0.4547 -0.7672
 5315SOL     OW27406   2.905   1.959  12.683 -0.7805 -0.0056 -0.1081
 5315SOL    HW127407   2.858   1.882  12.651 -2.9253  1.3040 -0.1358
 5315SOL    HW227408   2.846   1.991  12.752  3.5065  0.7053  3.2157
 5316SOL     OW27409   3.118   1.544   6.884  0.7414  0.2017  0.0143
 5316SOL    HW127410   3.163   1.583   6.959 -1.1984 -0.3230  1.4610
 5316SOL    HW227411   3.134   1.611   6.817  0.6685  1.1248  0.9123
 5317SOL     OW27412   1.044   2.334   4.175  0.0879  0.4609 -0.1291
 5317SOL    HW127413   0.994   2.374   4.104  0.5339  0.8840 -0.2004
 5317SOL    HW227414   1.008   2.381   4.251  1.6462  0.0006  0.8852
 5318SOL     OW27415   0.434   4.518  12.263  0.0761  0.4724 -0.4996
 5318SOL    HW127416   0.371   4.479  12.325  0.0100  1.0934 -0.1746
 5318SOL    HW227417   0.439   4.449  12.197  1.7308  0.7606 -0.6751
 5319SOL     OW27418   0.226   2.720  16.580  0.7936  0.0399 -0.0692
 5319SOL    HW127419   0.232   2.658  16.508 -2.4288 -0.4123  0.0382
 5319SOL    HW227420   0.180   2.798  16.547  0.8497 -0.4223 -1.2180
 5320SOL     OW27421   0.966   2.597   3.436 -0.8383  0.3163  0.1463
 5320SOL    HW127422   0.943   2.681   3.396 -2.6896 -0.3133 -0.0905
 5320SOL    HW227423   0.966   2.537   3.361 -0.3253  0.2274  0.2117
 5321SOL     OW27424   3.627   4.367   5.934  0.4402 -0.4106 -0.1176
 5321SOL    HW127425   3.535   4.345   5.944  0.1317  0.0030 -1.9674
 5321SOL    HW227426   3.619   4.459   5.907  0.1354 -1.2162 -2.8330
 5322SOL     OW27427   2.972   2.273   5.688 -0.4510  0.1004 -0.1096
 5322SOL    HW127428   2.885   2.267   5.728  1.2614 -1.8776  3.3748
 5322SOL    HW227429   2.962   2.258   5.594  1.7671 -0.0160 -0.3214
 5323SOL     OW27430   1.215   3.329   1.787  0.4870 -0.1727 -0.0747
 5323SOL    HW127431   1.155   3.391   1.829  2.1278  1.6925 -0.4934
 5323SOL    HW227432   1.230   3.369   1.702  1.2387  1.2001  0.7018
 5324SOL     OW27433   4.585   0.042   3.378  0.2209 -0.2586 -0.2247
 5324SOL    HW127434   4.677   0.064   3.360  0.0492 -0.1488 -0.9447
 5324SOL    HW227435   4.550   4.710   3.310  1.8184  0.0199 -1.2794
 5325SOL     OW27436   3.711   4.398   2.932  0.2662 -0.6709  0.1902
 5325SOL    HW127437   3.684   4.474   2.880 -0.9398 -1.1587  0.0884
 5325SOL    HW227438   3.634   4.342   2.919 -0.4372  0.9260 -2.5240
 5326SOL     OW27439   1.697   0.375  15.984  0.0598  0.0913 -0.5890
 5326SOL    HW127440   1.704   0.287  16.021 -1.7553 -0.1462 -0.8089
 5326SOL    HW227441   1.608   0.399  16.010 -0.4604 -1.5919 -0.8183
 5327SOL     OW27442   0.506   3.509   5.121  0.3008 -0.2979 -0.0301
 5327SOL    HW127443   0.486   3.504   5.214  4.2002  0.2893  0.7925
 5327SOL    HW227444   0.481   3.419   5.098  1.5642 -0.2230 -1.7068
 5328SOL     OW27445   0.198   1.717   3.096 -0.1441  0.1156 -0.2093
 5328SOL    HW127446   0.109   1.718   3.062 -0.8185 -0.0238  1.5987
 5328SOL    HW227447   0.237   1.648   3.042 -1.9590 -0.8819 -0.2570
 5329SOL     OW27448   3.937   3.343   6.098 -0.0631 -0.1721 -0.4098
 5329SOL    HW127449   3.979   3.260   6.075 -0.3476 -0.4746  0.1799
 5329SOL    HW227450   3.887   3.352   6.017  0.5456  1.2135 -0.6328
 5330SOL     OW27451   3.863   3.840   7.926  0.3480  0.6785  0.3286
 5330SOL    HW127452   3.784   3.790   7.946  1.7479 -1.4611  0.4994
 5330SOL    HW227453   3.843   3.856   7.834 -1.2807  2.0745  0.9222
 5331SOL     OW27454   3.177   2.008   7.099 -0.2958 -0.2636  0.8644
 5331SOL    HW127455   3.172   1.941   7.167 -2.7323 -1.7216 -0.7356
 5331SOL    HW227456   3.271   2.009   7.080 -0.6470 -0.5556 -0.9296
 5332SOL     OW27457   4.026   2.918   6.803  0.0743 -0.0189  0.8374
 5332SOL    HW127458   4.064   2.951   6.721 -2.1217  1.1991  0.2954
 5332SOL    HW227459   3.983   2.840   6.768  1.2176  0.9137 -2.6819
 5333SOL     OW27460   4.247   0.407   2.613  0.1047 -0.0003 -0.0423
 5333SOL    HW127461   4.312   0.374   2.552  0.0923  1.8866 -1.0661
 5333SOL    HW227462   4.162   0.398   2.569 -0.3005  1.9917  0.3339
 5334SOL     OW27463   3.338   1.610   5.752  0.6193 -0.1436 -0.0728
 5334SOL    HW127464   3.285   1.544   5.796 -1.3377  0.6303 -1.2949
 5334SOL    HW227465   3.334   1.575   5.663 -1.8837 -0.3175  0.1230
 5335SOL     OW27466   2.696   2.430   7.906  0.0259 -0.5707 -0.3822
 5335SOL    HW127467   2.762   2.364   7.928  1.3911  0.4942 -1.3236
 5335SOL    HW227468   2.623   2.372   7.926  0.2216 -0.1908  1.4729
 5336SOL     OW27469   1.981   2.593   3.627  0.0326 -0.2364  0.0055
 5336SOL    HW127470   1.918   2.650   3.671 -1.4969 -1.4305 -0.6338
 5336SOL    HW227471   1.917   2.554   3.567  0.7150  0.6589 -1.3165
 5337SOL     OW27472   1.232   1.880  10.113 -0.0153  0.2801  0.5741
 5337SOL    HW127473   1.199   1.842  10.195  0.4631 -2.1665 -0.3589
 5337SOL    HW227474   1.159   1.865  10.052  0.4561  0.5637 -0.0537
 5338SOL     OW27475   2.756   3.596   8.520 -0.1061  0.1605  0.0564
 5338SOL    HW127476   2.693   3.525   8.534 -1.1659  0.5943 -2.5298
 5338SOL    HW227477   2.721   3.664   8.576 -0.4315  0.8001 -0.9323
 5339SOL     OW27478   4.353   1.120   7.958 -1.0668  0.5921  0.1701
 5339SOL    HW127479   4.366   1.087   7.869  1.2421 -1.1697  1.1425
 5339SOL    HW227480   4.366   1.033   7.996 -0.7020  0.5425 -0.0624
 5340SOL     OW27481   4.630   1.846   6.008  0.0552 -0.1579 -0.0891
 5340SOL    HW127482   4.681   1.860   6.088 -0.5622 -0.5358  0.3751
 5340SOL    HW227483   4.629   1.751   6.002 -0.2905 -0.1123 -0.7660
 5341SOL     OW27484   2.866   2.520   5.254 -0.2722 -0.0669 -0.5807
 5341SOL    HW127485   2.961   2.529   5.265 -0.3702  0.5740 -0.2623
 5341SOL    HW227486   2.854   2.425   5.247 -1.7735  0.0019  1.1550
 5342SOL     OW27487   0.548   3.136   3.700 -0.4020 -0.1311 -0.3978
 5342SOL    HW127488   0.568   3.215   3.649  0.5286 -0.4699 -0.5587
 5342SOL    HW227489   0.457   3.152   3.724  0.2954  0.0670  2.1487
 5343SOL     OW27490   4.330   0.881  11.017  0.9730  0.1643 -0.0943
 5343SOL    HW127491   4.392   0.843  11.079 -2.7187 -1.8508  2.2986
 5343SOL    HW227492   4.381   0.886  10.936  0.6491 -1.2226 -0.3660
 5344SOL     OW27493   3.783   4.397   2.036 -0.3878  0.6678 -0.4190
 5344SOL    HW127494   3.821   4.314   2.006 -1.3287  0.2586 -0.4818
 5344SOL    HW227495   3.849   4.417   2.102  0.5864  0.7499 -1.4012
 5345SOL     OW27496   1.254   0.080   2.505  0.0949 -0.4485  0.0277
 5345SOL    HW127497   1.205   0.133   2.442  1.1602 -0.8294 -1.0983
 5345SOL    HW227498   1.182   0.047   2.559  0.2636  1.6847  1.5981
 5346SOL     OW27499   3.122   3.125   3.919 -0.2030 -0.1028 -0.3009
 5346SOL    HW127500   3.105   3.217   3.937 -0.6165  0.1707 -2.1042
 5346SOL    HW227501   3.054   3.102   3.855  1.0994 -0.7364 -1.4633
 5347SOL     OW27502   2.375   4.000  13.601 -0.3964  0.6146 -0.1149
 5347SOL    HW127503   2.285   3.996  13.568 -0.2812 -1.2510 -0.2009
 5347SOL    HW227504   2.409   3.938  13.537  1.2018  1.5095 -0.1095
 5348SOL     OW27505   3.090   4.116  12.717  0.1377 -0.1774 -0.5053
 5348SOL    HW127506   3.071   4.153  12.803  0.2660  1.2625 -1.1045
 5348SOL    HW227507   3.043   4.033  12.732  1.9998 -1.5379 -2.2900
 5349SOL     OW27508   2.396   1.927   7.445  0.3536 -0.0870 -0.4912
 5349SOL    HW127509   2.375   1.955   7.534 -4.0892  0.0425 -1.6040
 5349SOL    HW227510   2.464   1.992   7.424 -0.0134  0.3453 -0.3248
 5350SOL     OW27511   1.633   4.282   3.922 -0.6688  0.1933 -0.2227
 5350SOL    HW127512   1.684   4.360   3.901  1.7644 -1.5442 -0.8412
 5350SOL    HW227513   1.698   4.213   3.937 -1.3329 -0.5782 -0.8538
 5351SOL     OW27514   1.444   4.149   7.017  0.2531 -0.1658  0.0031
 5351SOL    HW127515   1.371   4.162   7.078 -0.9763  3.7311 -2.2411
 5351SOL    HW227516   1.439   4.055   7.005  1.2899 -0.3388  0.9639
 5352SOL     OW27517   3.816   2.389   9.402 -0.5565  0.6162 -0.1863
 5352SOL    HW127518   3.864   2.452   9.454  1.3439 -1.0385  0.0577
 5352SOL    HW227519   3.809   2.440   9.321 -2.3464  2.6302  1.2348
 5353SOL     OW27520   1.853   4.584   7.447  0.0260  0.1691  0.4724
 5353SOL    HW127521   1.909   4.514   7.482 -0.1255 -0.1022  0.1702
 5353SOL    HW227522   1.777   4.563   7.502 -0.5492 -1.5520 -0.9812
 5354SOL     OW27523   1.716   1.455   6.061 -0.2105  0.5257 -0.3501
 5354SOL    HW127524   1.763   1.381   6.023  0.5289 -0.9307  3.3831
 5354SOL    HW227525   1.772   1.527   6.034 -1.1491 -0.3089 -4.4411
 5355SOL     OW27526   2.305   1.342   1.671  0.4669  0.0132  0.3328
 5355SOL    HW127527   2.323   1.268   1.729 -3.3602 -0.0267  1.4720
 5355SOL    HW227528   2.339   1.409   1.729  2.7891 -1.7672  1.0277
 5356SOL     OW27529   1.830   2.000   8.485  0.6233  0.0563  0.0882
 5356SOL    HW127530   1.782   2.049   8.552 -2.4451 -2.6166 -0.1362
 5356SOL    HW227531   1.819   1.914   8.525 -0.5428  0.5685  0.8869
 5357SOL     OW27532   1.786   4.135   2.774 -0.4922 -0.2523 -0.2037
 5357SOL    HW127533   1.758   4.195   2.843  1.4642  2.3741 -1.6932
 5357SOL    HW227534   1.792   4.196   2.700 -0.5140 -0.2930 -0.2392
 5358SOL     OW27535   4.595   0.279   6.574 -0.0790  0.3868  0.4453
 5358SOL    HW127536   4.678   0.284   6.526 -1.8296  0.8441 -2.5454
 5358SOL    HW227537   4.576   0.370   6.595  1.1452  0.6561  0.3771
 5359SOL     OW27538   3.774   2.638   1.123  0.2223 -0.5485 -0.0822
 5359SOL    HW127539   3.721   2.602   1.052 -0.5820  0.1743  0.1522
 5359SOL    HW227540   3.704   2.655   1.186  0.2206 -2.0266  0.3274
 5360SOL     OW27541   3.073   0.522   1.113 -0.7349  0.1881 -0.1338
 5360SOL    HW127542   3.020   0.589   1.155 -0.1013  0.9046 -0.4712
 5360SOL    HW227543   3.152   0.573   1.095  0.5590 -0.9087  2.4629
 5361SOL     OW27544   3.450   0.229   3.334  0.2315 -0.2981  0.1775
 5361SOL    HW127545   3.494   0.196   3.413  0.1810 -1.4097 -0.2555
 5361SOL    HW227546   3.401   0.151   3.306  0.6230 -0.3368 -0.3988
 5362SOL     OW27547   3.439   3.299  13.048  0.1359  0.1074  0.8999
 5362SOL    HW127548   3.386   3.228  13.084  2.1871 -2.1891 -0.5972
 5362SOL    HW227549   3.421   3.368  13.112  1.6979  1.5688 -0.2239
 5363SOL     OW27550   1.400   0.928   8.438 -0.2233  0.0599  0.3122
 5363SOL    HW127551   1.481   0.957   8.479 -0.0118 -1.5884  1.0357
 5363SOL    HW227552   1.339   0.922   8.511 -0.3492 -2.0793  0.0221
 5364SOL     OW27553   2.125   4.720   6.068  0.4468 -0.7072 -0.3032
 5364SOL    HW127554   2.123   4.640   6.016  0.2387 -1.4385  0.8418
 5364SOL    HW227555   2.186   0.050   6.018  0.7992 -1.9366 -1.2139
 5365SOL     OW27556   3.384   2.935   5.649  0.3396  0.4640 -0.0464
 5365SOL    HW127557   3.300   2.897   5.673  2.2584 -2.5301  2.0117
 5365SOL    HW227558   3.358   3.005   5.589  2.0215  0.0694 -1.2398
 5366SOL     OW27559   1.352   0.443   5.874 -0.5174 -0.1952 -0.4936
 5366SOL    HW127560   1.313   0.425   5.960  1.8889 -0.4995  0.5376
 5366SOL    HW227561   1.384   0.359   5.841  1.6861  0.0092  1.1125
 5367SOL     OW27562   0.900   1.268   3.950  0.1178  0.6949  0.1367
 5367SOL    HW127563   0.852   1.334   4.000  1.3143  0.4311  1.6288
 5367SOL    HW227564   0.834   1.222   3.897  0.3089  1.5117 -0.8147
 5368SOL     OW27565   1.283   2.994  16.544  1.1148 -0.4608  0.2634
 5368SOL    HW127566   1.204   3.042  16.569  2.1676 -0.3223  3.2936
 5368SOL    HW227567   1.305   2.952  16.628 -0.4340 -1.0412  0.3887
 5369SOL     OW27568   0.566   0.889  16.635  0.2802  0.0722 -0.3718
 5369SOL    HW127569   0.567   0.864  16.727 -1.5218 -0.3113 -0.4672
 5369SOL    HW227570   0.560   0.985  16.634 -0.3418  0.0225 -1.2696
 5370SOL     OW27571   3.086   2.041  16.749  0.0275 -0.3524  0.3436
 5370SOL    HW127572   3.035   2.002  16.820  1.0154 -4.1395 -0.9862
 5370SOL    HW227573   3.172   2.022  16.787  0.9660 -0.1395 -1.6399
 5371SOL     OW27574   1.437   0.402  16.052  0.1341 -0.2678 -0.1098
 5371SOL    HW127575   1.358   0.448  16.080  0.9280 -0.2116  1.9901
 5371SOL    HW227576   1.414   0.311  16.068  0.7573 -0.2029  1.1503
 5372SOL     OW27577   0.440   1.076   7.109  0.1470  0.4756  0.6479
 5372SOL    HW127578   0.437   0.996   7.056  1.1596  0.0060  1.3142
 5372SOL    HW227579   0.374   1.072   7.178 -0.6260 -1.6758 -0.2142
 5373SOL     OW27580   0.413   3.873   7.459 -0.2527  0.1522 -0.0316
 5373SOL    HW127581   0.506   3.892   7.471 -0.1231 -0.3045 -0.3372
 5373SOL    HW227582   0.418   3.891   7.365  0.1378  1.0748  0.1670
 5374SOL     OW27583   3.158   1.672   4.445 -0.6262 -0.1981  0.0040
 5374SOL    HW127584   3.154   1.746   4.384 -0.8008  0.7342  1.1530
 5374SOL    HW227585   3.215   1.712   4.511 -0.1316  2.4851 -2.0174
 5375SOL     OW27586   3.759   3.018   8.839  0.0733 -0.1659  0.5033
 5375SOL    HW127587   3.848   2.991   8.817 -0.1855  0.5689 -1.4116
 5375SOL    HW227588   3.742   3.059   8.754  0.8107 -1.4487 -0.2550
 5376SOL     OW27589   0.528   0.022  12.582  0.3558  0.0258  0.1635
 5376SOL    HW127590   0.517   0.035  12.488 -0.4400 -2.0859 -0.0421
 5376SOL    HW227591   0.439   4.717  12.601  0.0439  0.5410 -0.4939
 5377SOL     OW27592   1.509   1.331   6.249 -0.0273  0.1899 -0.5085
 5377SOL    HW127593   1.581   1.296   6.196  1.0995  2.5280 -0.5316
 5377SOL    HW227594   1.430   1.293   6.211 -0.6481  0.5976  0.3731
 5378SOL     OW27595   1.074   2.225   6.001 -0.2628 -0.0397 -0.5347
 5378SOL    HW127596   1.016   2.260   5.933  1.5030 -2.0336 -3.0576
 5378SOL    HW227597   1.092   2.136   5.973 -0.1393 -0.4568  0.8810
 5379SOL     OW27598   3.054   4.528   7.464 -0.2314 -0.1054 -0.0386
 5379SOL    HW127599   2.998   4.450   7.461 -1.8702  1.0807 -1.2443
 5379SOL    HW227600   3.001   4.594   7.509  0.5599 -0.4918  1.4176
 5380SOL     OW27601   2.805   3.975  10.461 -0.3143 -0.0446  0.4292
 5380SOL    HW127602   2.795   3.965  10.556 -1.4802  1.0586  0.4179
 5380SOL    HW227603   2.744   4.045  10.436  2.2671  1.8670 -0.5422
 5381SOL     OW27604   0.278   4.497  15.730 -0.1089  0.2016 -0.0016
 5381SOL    HW127605   0.254   4.464  15.644 -1.2656 -2.0379  1.1729
 5381SOL    HW227606   0.196   4.542  15.752  0.0515  0.5403 -0.1069
 5382SOL     OW27607   0.022   2.139  14.429 -0.1965 -0.5347  0.3993
 5382SOL    HW127608   0.072   2.061  14.405  1.2095 -0.0591  1.7920
 5382SOL    HW227609   0.031   2.149  14.524  0.4703  1.0886  0.1686
 5383SOL     OW27610   1.726   3.806   8.581  0.9671  0.5575  0.0517
 5383SOL    HW127611   1.810   3.814   8.536  1.6847 -1.8673  0.9372
 5383SOL    HW227612   1.677   3.880   8.545  1.5073  0.6632 -0.4729
 5384SOL     OW27613   0.581   2.810   7.911  0.2308  0.2986  0.0681
 5384SOL    HW127614   0.584   2.753   7.987  0.2632  0.0860 -0.0912
 5384SOL    HW227615   0.675   2.827   7.908 -0.2235  3.0388  1.0164
 5385SOL     OW27616   4.533   4.529   4.825  0.1328  0.3285 -0.1122
 5385SOL    HW127617   4.531   4.515   4.731 -0.5952  1.8854 -0.3310
 5385SOL    HW227618   4.627   4.513   4.835 -0.1924 -1.0258  0.7488
 5386SOL     OW27619   1.674   0.480   7.716  0.1295 -0.0020 -0.2621
 5386SOL    HW127620   1.731   0.541   7.762 -1.2836  0.5087  0.8213
 5386SOL    HW227621   1.689   0.395   7.759  0.0981  1.0649  1.8293
 5387SOL     OW27622   1.011   0.979   3.344 -0.3087  0.0918 -0.0290
 5387SOL    HW127623   1.095   1.006   3.382  1.2847 -1.5201 -2.3907
 5387SOL    HW227624   1.033   0.895   3.303  0.3471  0.5642 -0.6531
 5388SOL     OW27625   0.760   4.106   6.285  0.7783  0.1558  0.1447
 5388SOL    HW127626   0.759   4.098   6.380 -2.7623  4.4801  0.4584
 5388SOL    HW227627   0.846   4.144   6.271  1.2900  0.2690  3.5635
 5389SOL     OW27628   0.884   2.860  12.731 -0.6777 -0.2840 -0.5810
 5389SOL    HW127629   0.804   2.878  12.681 -0.5127 -0.1663 -0.8046
 5389SOL    HW227630   0.932   2.799  12.675 -0.5132 -1.0193  0.3668
 5390SOL     OW27631   2.351   0.594   5.244  0.0513 -0.5169  0.0518
 5390SOL    HW127632   2.327   0.521   5.301  2.0208 -0.9959  0.2759
 5390SOL    HW227633   2.317   0.559   5.162 -0.7309 -0.8161  0.4955
 5391SOL     OW27634   3.541   4.515  13.423 -0.3497  0.3090  0.0528
 5391SOL    HW127635   3.456   4.534  13.461 -0.6133  0.9487 -0.8581
 5391SOL    HW227636   3.536   4.574  13.348 -0.1803  0.0379 -0.1711
 5392SOL     OW27637   4.094   0.868   9.431 -0.0274  0.3541  0.2709
 5392SOL    HW127638   4.143   0.844   9.510  3.8206 -1.4976 -2.6376
 5392SOL    HW227639   4.023   0.922   9.466 -0.1379  1.3605 -1.4932
 5393SOL     OW27640   3.944   1.606   6.115  0.0528 -0.1459  0.7589
 5393SOL    HW127641   4.024   1.557   6.094  1.6110  1.9662  1.6896
 5393SOL    HW227642   3.901   1.548   6.178 -0.8659  0.6032  0.8198
 5394SOL     OW27643   1.297   1.597   0.395 -0.4545  0.1112 -0.5720
 5394SOL    HW127644   1.373   1.603   0.453  0.7947 -0.1036 -2.2048
 5394SOL    HW227645   1.226   1.642   0.442 -0.4478  0.0891 -0.5406
 5395SOL     OW27646   1.748   3.036  15.187 -0.4410  0.7477 -0.0106
 5395SOL    HW127647   1.800   3.083  15.252  3.0570 -3.1266 -0.0487
 5395SOL    HW227648   1.790   3.052  15.102 -0.9249 -2.2323 -0.7849
 5396SOL     OW27649   2.065   1.856   3.294 -0.0561  0.0829  0.2425
 5396SOL    HW127650   2.042   1.764   3.295 -1.8253  0.5421  1.3664
 5396SOL    HW227651   1.992   1.883   3.350 -0.3731 -0.6145  0.1641
 5397SOL     OW27652   1.517   3.189   4.321 -0.1204 -0.4626 -0.1521
 5397SOL    HW127653   1.494   3.128   4.250  0.2288  0.4949 -1.0780
 5397SOL    HW227654   1.428   3.211   4.349  0.5654  0.8031  0.9950
 5398SOL     OW27655   3.226   3.399   7.909  0.7454  0.6944  0.3682
 5398SOL    HW127656   3.180   3.479   7.936  2.2499  2.4499 -2.2733
 5398SOL    HW227657   3.162   3.334   7.939 -1.9985  1.4029 -4.0407
 5399SOL     OW27658   3.859   4.056  16.775  0.0034  0.0112 -0.4782
 5399SOL    HW127659   3.845   4.151  16.772 -0.6086 -0.0641  0.0133
 5399SOL    HW227660   3.802   4.020  16.707 -0.5405 -0.4145  0.2021
 5400SOL     OW27661   1.363   0.598   4.793 -0.8004  0.3171  0.3116
 5400SOL    HW127662   1.396   0.629   4.708 -1.1491  0.5082  0.2480
 5400SOL    HW227663   1.275   0.569   4.770  0.6286 -2.3342 -1.9326
 5401SOL     OW27664   0.298   3.870   3.290 -0.0364  0.3309  0.2273
 5401SOL    HW127665   0.264   3.950   3.251  0.6571 -0.7304 -2.5349
 5401SOL    HW227666   0.250   3.802   3.242  0.1263 -0.3373  0.9923
 5402SOL     OW27667   1.704   2.350   4.139 -0.1675 -0.0403 -0.3414
 5402SOL    HW127668   1.793   2.336   4.171 -0.0060 -2.4630 -1.8547
 5402SOL    HW227669   1.695   2.296   4.060 -0.0059 -1.6211  0.7255
 5403SOL     OW27670   3.408   2.473   3.653 -0.0566 -0.0151 -0.9135
 5403SOL    HW127671   3.363   2.557   3.654  0.4336  0.2560 -1.3067
 5403SOL    HW227672   3.357   2.418   3.595  1.1328 -0.9527 -1.0842
 5404SOL     OW27673   2.238   3.491  11.936 -0.4760  0.3576  0.0983
 5404SOL    HW127674   2.240   3.406  11.980 -1.2019  0.6226  0.6347
 5404SOL    HW227675   2.305   3.541  11.983  0.2903  0.6690 -1.3124
 5405SOL     OW27676   1.130   2.381   9.243  0.1571 -0.1208  0.4089
 5405SOL    HW127677   1.037   2.368   9.260 -0.3876  2.7699 -0.3926
 5405SOL    HW227678   1.119   2.389   9.148  1.8575  0.6003  0.2633
 5406SOL     OW27679   4.452   2.014  12.146  0.0233 -0.1423 -0.5650
 5406SOL    HW127680   4.492   2.061  12.074  0.8789 -0.8795 -0.5788
 5406SOL    HW227681   4.364   2.044  12.125  0.2943  1.7043  0.9878
 5407SOL     OW27682   0.580   2.193   8.235 -0.0118  0.1904 -0.7244
 5407SOL    HW127683   0.639   2.267   8.250  0.4439  0.0822 -2.0259
 5407SOL    HW227684   0.632   2.123   8.276  1.1056 -0.0702 -2.5558
 5408SOL     OW27685   1.619   2.849   2.506 -0.0716 -0.1107 -0.3024
 5408SOL    HW127686   1.559   2.918   2.477  1.6683  0.4315 -2.6403
 5408SOL    HW227687   1.652   2.879   2.590 -1.4602  0.0994  0.1678
 5409SOL     OW27688   0.149   0.053   1.703  0.2323 -0.0616 -0.7870
 5409SOL    HW127689   0.128   0.014   1.618 -0.7013 -1.3728  0.0467
 5409SOL    HW227690   0.129   0.146   1.692 -3.1758 -0.7153 -0.1873
 5410SOL     OW27691   1.681   3.835  17.458 -0.4530  0.8793 -0.6706
 5410SOL    HW127692   1.594   3.800  17.478 -0.7632  0.9218 -1.9297
 5410SOL    HW227693   1.683   3.816  17.364 -1.7613 -0.0809 -0.5048
 5411SOL     OW27694   1.123   1.112   3.845 -0.0891  0.5090 -0.3355
 5411SOL    HW127695   1.028   1.117   3.860  0.1266 -3.3822  2.4852
 5411SOL    HW227696   1.149   1.198   3.877  1.9371 -0.0725 -0.4474
 5412SOL     OW27697   2.336   2.093   3.618 -0.0870  0.3908  0.1012
 5412SOL    HW127698   2.327   2.049   3.533 -0.8476 -1.3599  1.0898
 5412SOL    HW227699   2.429   2.077   3.636 -0.5235 -2.0853  0.2505
 5413SOL     OW27700   2.991   1.005  12.005 -0.2430 -0.2217 -0.0487
 5413SOL    HW127701   2.973   1.041  12.092  0.6808 -0.4353  0.2270
 5413SOL    HW227702   3.038   1.081  11.972  1.3756  0.0422  2.8923
 5414SOL     OW27703   1.893   1.180   4.628 -0.4534 -0.1983  0.2115
 5414SOL    HW127704   1.974   1.232   4.625 -0.8978  0.6051  2.2347
 5414SOL    HW227705   1.915   1.090   4.605 -1.7685  0.0319 -1.9152
 5415SOL     OW27706   0.914   3.818   2.237  0.3551  0.3932  0.3312
 5415SOL    HW127707   0.868   3.758   2.296  2.0859 -0.7084  0.5682
 5415SOL    HW227708   1.004   3.800   2.265 -0.0426 -0.0292  1.3511
 5416SOL     OW27709   0.739   0.243   4.544  0.0797  0.1710 -0.0589
 5416SOL    HW127710   0.798   0.292   4.487  0.0672 -1.2688 -1.3113
 5416SOL    HW227711   0.796   0.172   4.572  0.9771  0.2931 -1.5884
 5417SOL     OW27712   2.585   3.835   7.620  0.4224  0.0259 -0.0631
 5417SOL    HW127713   2.589   3.899   7.549 -1.2364  1.4543  1.1087
 5417SOL    HW227714   2.666   3.786   7.605  0.5372  0.0129  0.5787
 5418SOL     OW27715   2.646   0.795   7.721 -0.3117 -0.2327  0.0313
 5418SOL    HW127716   2.597   0.841   7.653 -0.4411  0.7947  0.8021
 5418SOL    HW227717   2.610   0.708   7.704  0.4334 -0.4090 -0.6215
 5419SOL     OW27718   0.227   1.203   5.461  0.1166 -0.0057 -0.4614
 5419SOL    HW127719   0.232   1.164   5.374 -1.0000  1.6870 -1.2787
 5419SOL    HW227720   0.268   1.140   5.521  1.1813 -0.6239 -1.8594
 5420SOL     OW27721   2.480   0.657   4.389  0.2061  0.4345  0.3409
 5420SOL    HW127722   2.536   0.659   4.311  2.3827  2.1491  1.9541
 5420SOL    HW227723   2.396   0.639   4.346  0.0335  1.4206  0.2537
 5421SOL     OW27724   1.595   3.231  16.450  0.0757  0.0516  1.2468
 5421SOL    HW127725   1.530   3.301  16.447 -0.0742 -0.1113  0.6695
 5421SOL    HW227726   1.672   3.271  16.409 -0.9450 -0.3910 -1.1033
 5422SOL     OW27727   3.996   1.863   8.130 -0.0978 -0.1483  0.6505
 5422SOL    HW127728   3.920   1.807   8.118 -0.4194  0.3273  0.4572
 5422SOL    HW227729   4.047   1.852   8.050 -1.0133 -0.0975  0.0561
 5423SOL     OW27730   0.459   0.260   6.231  0.0183 -0.3353  0.6701
 5423SOL    HW127731   0.483   0.323   6.163  0.8739 -1.5166 -0.1243
 5423SOL    HW227732   0.367   0.284   6.240  0.3829  1.1289  0.5053
 5424SOL     OW27733   4.287   3.833  17.577 -0.1427  0.6640  0.3025
 5424SOL    HW127734   4.379   3.848  17.598 -0.8807  1.2519  3.1521
 5424SOL    HW227735   4.258   3.810  17.665  2.2967  0.0621  0.9485
 5425SOL     OW27736   2.657   3.152   0.014 -0.0832 -0.0707 -0.8818
 5425SOL    HW127737   2.703   3.082   0.061  0.7968  2.5905  2.1733
 5425SOL    HW227738   2.573   3.107   0.008  2.1601 -4.1150 -2.6940
 5426SOL     OW27739   0.396   4.424  14.045 -0.4043  0.4285 -0.2662
 5426SOL    HW127740   0.317   4.479  14.037 -0.8665  0.2578  3.3669
 5426SOL    HW227741   0.451   4.493  14.083  0.3245  0.5080 -1.4477
 5427SOL     OW27742   1.219   2.770   7.797 -0.0382  0.0835  0.5050
 5427SOL    HW127743   1.182   2.858   7.803 -0.8242 -0.1416 -1.0654
 5427SOL    HW227744   1.261   2.751   7.881  1.4650  0.1372 -0.2232
 5428SOL     OW27745   2.749   2.094  16.312 -0.0874 -0.0718  0.0934
 5428SOL    HW127746   2.663   2.100  16.354 -0.9120 -0.2032 -1.5883
 5428SOL    HW227747   2.791   2.180  16.319 -0.1890 -0.0722  0.7193
 5429SOL     OW27748   4.677   4.329   5.374 -0.0875 -0.2550 -0.0620
 5429SOL    HW127749   4.669   4.348   5.468  1.3632  0.7579 -0.1336
 5429SOL    HW227750   0.033   4.278   5.383  0.6218  1.0868  1.3339
 5430SOL     OW27751   0.093   1.542  11.281 -0.3199  0.3945  0.0802
 5430SOL    HW127752   0.098   1.636  11.268 -1.8134  0.6303  1.2866
 5430SOL    HW227753   0.081   1.511  11.191 -1.1648 -0.1300  0.3728
 5431SOL     OW27754   2.915   2.127  12.479  0.3044 -0.5312  0.1397
 5431SOL    HW127755   2.930   2.063  12.548 -0.7049 -2.2644 -1.2460
 5431SOL    HW227756   2.819   2.132  12.477  0.2038 -1.9786  2.2263
 5432SOL     OW27757   0.674   3.216  15.649  0.3903 -0.1847  0.2084
 5432SOL    HW127758   0.640   3.175  15.570  0.0687  0.6240 -0.0749
 5432SOL    HW227759   0.609   3.286  15.658  0.9573  0.3744 -0.0924
 5433SOL     OW27760   3.898   1.361   7.719  0.5407  0.0773 -0.0805
 5433SOL    HW127761   3.856   1.326   7.640  0.4536  1.2287 -0.5462
 5433SOL    HW227762   3.904   1.453   7.693  0.9566 -0.6292 -2.4790
 5434SOL     OW27763   4.356   2.901  12.947 -0.0675 -0.2293 -0.0253
 5434SOL    HW127764   4.301   2.889  12.870 -1.4590  0.8004  0.8205
 5434SOL    HW227765   4.440   2.873  12.910 -0.2397  1.7307 -1.8832
 5435SOL     OW27766   3.755   3.052   9.243 -0.1170 -0.3006  0.3284
 5435SOL    HW127767   3.748   3.061   9.339  1.0922 -2.9989  0.6660
 5435SOL    HW227768   3.705   2.971   9.240 -0.5525 -0.0234  0.0778
 5436SOL     OW27769   3.383   1.450   7.531 -0.4142 -0.0510  0.3491
 5436SOL    HW127770   3.375   1.393   7.607  3.0306 -0.9270  0.0820
 5436SOL    HW227771   3.426   1.391   7.469 -0.3972  0.8195 -0.4740
 5437SOL     OW27772   3.402   2.359   8.947 -0.1235  0.3587  0.4234
 5437SOL    HW127773   3.424   2.447   8.976  2.0522 -0.8439  2.4091
 5437SOL    HW227774   3.322   2.342   8.997 -1.2339 -1.0769 -1.8398
 5438SOL     OW27775   3.091   4.503  16.891  0.2255  0.2337 -0.1795
 5438SOL    HW127776   3.085   4.417  16.934  1.2991  0.2977  0.0960
 5438SOL    HW227777   2.997   4.515  16.879 -0.1535 -2.6174 -0.1954
 5439SOL     OW27778   1.698   4.045   6.096 -0.2451 -0.1224 -0.2204
 5439SOL    HW127779   1.676   4.133   6.066  0.7113 -0.3723 -1.6300
 5439SOL    HW227780   1.731   3.999   6.019  0.6385  1.5719 -0.8521
 5440SOL     OW27781   4.407   3.692  10.324  0.9099 -0.1209 -0.1760
 5440SOL    HW127782   4.409   3.598  10.342  1.0187 -0.3279 -1.2876
 5440SOL    HW227783   4.348   3.693  10.248  1.4879 -0.0803 -0.6212
 5441SOL     OW27784   4.398   4.197  14.961 -1.2947  0.0826  0.6561
 5441SOL    HW127785   4.355   4.128  15.011  1.0200 -0.6251  1.6711
 5441SOL    HW227786   4.433   4.156  14.881 -2.5813  2.5070 -1.1325
 5442SOL     OW27787   4.241   4.262   4.113  0.1309  0.0919  0.5146
 5442SOL    HW127788   4.314   4.229   4.061  1.7788  1.8330  1.7436
 5442SOL    HW227789   4.183   4.286   4.040  0.7266 -1.3691 -0.4343
 5443SOL     OW27790   2.197   1.518   4.906 -0.4074  0.4453  0.0815
 5443SOL    HW127791   2.173   1.547   4.994 -0.0120  0.4771  0.1777
 5443SOL    HW227792   2.168   1.427   4.913 -1.1607  0.6189 -0.8197
 5444SOL     OW27793   2.426   2.965   8.046  0.0682 -0.3345 -0.6008
 5444SOL    HW127794   2.417   2.936   8.137  0.7938 -0.1098 -0.4590
 5444SOL    HW227795   2.404   3.057   8.062 -0.2212 -0.0464 -2.7463
 5445SOL     OW27796   4.043   4.051   4.975 -0.4007  0.1407 -0.2269
 5445SOL    HW127797   4.008   4.125   5.024  1.1493  0.7081  0.0408
 5445SOL    HW227798   4.137   4.066   4.985 -0.3176 -0.0396 -0.7043
 5446SOL     OW27799   3.391   0.404   5.276 -0.0603 -0.2689 -0.0505
 5446SOL    HW127800   3.473   0.447   5.253 -0.1673  0.5390  1.0511
 5446SOL    HW227801   3.327   0.474   5.283  0.2074 -0.3097  3.0223
 5447SOL     OW27802   2.644   4.199   8.909 -0.0658  0.0260  0.3363
 5447SOL    HW127803   2.553   4.194   8.880 -0.4888  1.3734  1.4211
 5447SOL    HW227804   2.660   4.279   8.859 -0.9867 -0.2272 -0.3695
 5448SOL     OW27805   4.468   1.582  10.907 -0.6720 -0.0703  0.1643
 5448SOL    HW127806   4.452   1.597  11.000  0.5871 -2.3798  0.7451
 5448SOL    HW227807   4.492   1.490  10.915 -0.4585  0.1156  1.5857
 5449SOL     OW27808   3.233   0.384   3.342  0.0339 -0.4508  0.0478
 5449SOL    HW127809   3.233   0.438   3.421  2.2028 -0.1836 -0.1387
 5449SOL    HW227810   3.309   0.327   3.355 -1.4065 -2.4309 -0.3457
 5450SOL     OW27811   1.453   1.228   4.032  0.5548 -0.1321  0.2526
 5450SOL    HW127812   1.425   1.273   3.952 -0.5198 -0.0387  0.6919
 5450SOL    HW227813   1.457   1.314   4.074  1.7935 -0.3647  0.6175
 5451SOL     OW27814   4.426   1.693   2.470 -0.1989  0.6312  0.3689
 5451SOL    HW127815   4.407   1.714   2.562  2.2278  0.5613  0.8759
 5451SOL    HW227816   4.456   1.777   2.435 -1.1979  0.3168 -1.2545
 5452SOL     OW27817   1.864   0.527   8.107  0.2778 -0.6052  0.0926
 5452SOL    HW127818   1.859   0.576   8.189 -0.8353  2.2455 -1.6726
 5452SOL    HW227819   1.849   0.440   8.144 -3.1290 -0.2886 -0.4918
 5453SOL     OW27820   0.503   1.465  16.925  0.4406  0.1051 -0.2803
 5453SOL    HW127821   0.586   1.502  16.956  0.9996  0.7424 -2.5373
 5453SOL    HW227822   0.533   1.428  16.842  0.9924 -3.2370  1.4096
 5454SOL     OW27823   0.439   0.221   0.950 -0.3346 -0.1472  0.1343
 5454SOL    HW127824   0.457   0.251   0.861  2.9216  1.5489  1.3607
 5454SOL    HW227825   0.507   0.155   0.965  0.4633  0.3167 -1.5194
 5455SOL     OW27826   2.610   0.238   6.520 -0.1643  0.1556  0.4062
 5455SOL    HW127827   2.587   0.277   6.604  1.0164  1.3954  0.1508
 5455SOL    HW227828   2.563   0.299   6.464  1.6652 -0.1717 -1.5001
 5456SOL     OW27829   0.165   1.229   7.849  0.0999 -0.6294 -0.2941
 5456SOL    HW127830   0.256   1.199   7.845  0.9745  1.9805 -0.3016
 5456SOL    HW227831   0.177   1.289   7.923 -0.6651  0.3278 -0.9408
 5457SOL     OW27832   1.608   1.017  14.706  0.5661  0.4159 -0.1082
 5457SOL    HW127833   1.578   1.008  14.615 -0.2155 -0.1827  0.2098
 5457SOL    HW227834   1.535   1.063  14.747 -1.8376 -2.6482 -0.9504
 5458SOL     OW27835   0.961   0.531   3.484 -0.2119  0.5697  0.0926
 5458SOL    HW127836   1.028   0.566   3.425  0.0908  0.4519  0.3704
 5458SOL    HW227837   0.912   0.612   3.498 -1.2894  0.3149 -2.1144
 5459SOL     OW27838   0.970   3.527   4.892  1.0788 -0.1204 -0.0228
 5459SOL    HW127839   0.877   3.509   4.881  1.3362 -1.1090 -0.6252
 5459SOL    HW227840   0.985   3.477   4.973  3.4769 -0.2489 -0.5563
 5460SOL     OW27841   4.462   1.218  11.140 -0.0266  0.1744 -0.1176
 5460SOL    HW127842   4.426   1.220  11.228 -0.0051 -1.1837 -0.0742
 5460SOL    HW227843   4.407   1.282  11.096  1.8981  1.8593 -0.0703
 5461SOL     OW27844   0.268   4.439   8.284  0.2013  0.1433  0.2006
 5461SOL    HW127845   0.273   4.345   8.303 -0.2950 -0.0115 -0.4394
 5461SOL    HW227846   0.216   4.466   8.359  0.6403 -0.1987  0.6309
 5462SOL     OW27847   4.073   0.304  10.697  0.1159  0.0119  0.2021
 5462SOL    HW127848   4.090   0.243  10.626  0.6456  0.3030  0.0796
 5462SOL    HW227849   4.086   0.254  10.778 -0.3167  2.2544  1.6824
 5463SOL     OW27850   1.580   0.715   2.597  0.0484 -0.2025 -0.2012
 5463SOL    HW127851   1.558   0.638   2.650 -1.3416  0.7815  0.6475
 5463SOL    HW227852   1.573   0.680   2.508  1.1899  1.1919 -0.8458
 5464SOL     OW27853   3.205   2.139   9.822  0.3011  0.3778 -0.0354
 5464SOL    HW127854   3.128   2.086   9.803 -0.0174  0.1827  1.7652
 5464SOL    HW227855   3.272   2.071   9.829 -0.5293 -0.4173  0.1764
 5465SOL     OW27856   0.500   1.177  16.807 -0.4252  1.5473 -0.0460
 5465SOL    HW127857   0.512   1.138  16.893  1.0630  2.6807  0.2573
 5465SOL    HW227858   0.591   1.174  16.778 -0.8749 -1.6064 -1.0853
 5466SOL     OW27859   3.190   0.540   3.117  0.1515 -0.7929  0.0067
 5466SOL    HW127860   3.222   0.486   3.189  0.8785  1.3462  1.3016
 5466SOL    HW227861   3.255   0.529   3.047 -0.0732 -0.4714 -0.2569
 5467SOL     OW27862   1.544   1.617   0.563 -0.4100  0.2883  0.3098
 5467SOL    HW127863   1.550   1.704   0.603 -0.1435  0.6254 -0.4631
 5467SOL    HW227864   1.489   1.574   0.628  1.5024 -1.2737  0.8727
 5468SOL     OW27865   3.752   0.424   7.315  0.2819 -0.5333 -0.1517
 5468SOL    HW127866   3.773   0.498   7.258 -1.3897  0.8819  1.0809
 5468SOL    HW227867   3.778   0.357   7.252 -0.6492  0.4455 -1.5596
 5469SOL     OW27868   0.287   1.958   4.260  0.0833 -0.1391  0.4941
 5469SOL    HW127869   0.296   1.863   4.258 -0.6705 -0.2207  0.9945
 5469SOL    HW227870   0.241   1.993   4.184  0.2888  0.2223  0.5355
 5470SOL     OW27871   1.785   1.958   8.954 -0.6187 -0.3317 -0.1094
 5470SOL    HW127872   1.845   2.022   8.992  0.3411 -2.2747  1.6117
 5470SOL    HW227873   1.819   1.879   8.996  0.2418  0.7832  1.2761
 5471SOL     OW27874   0.264   1.360   8.860  0.4623  0.3341  0.2466
 5471SOL    HW127875   0.217   1.420   8.917  0.5677  1.2969 -0.6781
 5471SOL    HW227876   0.352   1.367   8.895  1.4400  1.0650 -2.3554
 5472SOL     OW27877   0.436   1.480  13.024  0.4405 -0.0525 -0.3096
 5472SOL    HW127878   0.376   1.450  13.092  0.4390 -1.1562 -0.7932
 5472SOL    HW227879   0.520   1.453  13.061  0.0552  0.3835  0.8594
 5473SOL     OW27880   3.484   1.185  11.882 -1.2314 -0.2005 -0.4972
 5473SOL    HW127881   3.464   1.224  11.968  0.9996 -0.3790  0.0956
 5473SOL    HW227882   3.417   1.118  11.870 -1.3987 -0.1617  0.1877
 5474SOL     OW27883   2.356   2.764  14.033 -0.1606  0.2352  0.7052
 5474SOL    HW127884   2.330   2.827  13.966  0.4623  1.7934  1.9314
 5474SOL    HW227885   2.438   2.804  14.064 -0.0167 -0.5453  1.3372
 5475SOL     OW27886   0.273   2.667  10.672  0.3408  0.4659  0.4646
 5475SOL    HW127887   0.312   2.626  10.595  0.0188 -0.8845  1.0155
 5475SOL    HW227888   0.235   2.747  10.636  2.0866  1.5378  0.9841
 5476SOL     OW27889   1.868   1.908   7.228 -0.2074 -0.1689 -0.4112
 5476SOL    HW127890   1.897   1.869   7.311  0.7923 -0.3808 -0.8685
 5476SOL    HW227891   1.851   1.835   7.168  1.0573 -0.2291 -0.6862
 5477SOL     OW27892   3.520   3.300   8.764 -0.0890  0.0631 -0.0958
 5477SOL    HW127893   3.479   3.318   8.849  0.9298 -3.5222  1.1554
 5477SOL    HW227894   3.557   3.213   8.783  0.1398  1.2767  5.0213
 5478SOL     OW27895   2.758   1.599   8.665  0.3578  0.4450  0.0778
 5478SOL    HW127896   2.741   1.603   8.759 -1.6866  1.8630 -0.3612
 5478SOL    HW227897   2.779   1.506   8.652  0.1714  0.3544  0.4263
 5479SOL     OW27898   2.969   1.650   2.936  0.4912 -0.3956  0.4443
 5479SOL    HW127899   3.017   1.578   2.977 -0.1482 -0.2491  1.4307
 5479SOL    HW227900   3.026   1.722   2.962 -0.1705  0.3901 -0.2833
 5480SOL     OW27901   1.926   1.940   8.219  0.0327 -0.5803 -0.1024
 5480SOL    HW127902   1.835   1.958   8.196 -0.2772  0.7490  2.2257
 5480SOL    HW227903   1.937   1.955   8.313 -1.3031 -0.5134  0.0422
 5481SOL     OW27904   0.317   4.090   6.189  0.1712 -0.0085  0.9072
 5481SOL    HW127905   0.392   4.084   6.129 -1.4431 -1.3057 -0.9814
 5481SOL    HW227906   0.345   4.027   6.256 -0.7897 -0.1956  1.1296
 5482SOL     OW27907   3.467   2.707   8.313 -0.2527 -0.3149  0.2130
 5482SOL    HW127908   3.531   2.658   8.364 -1.4100 -1.8702  0.1924
 5482SOL    HW227909   3.437   2.772   8.377 -0.1056  0.5677 -0.6144
 5483SOL     OW27910   2.096   1.864  11.007 -0.2252 -0.4916 -0.5495
 5483SOL    HW127911   2.102   1.883  11.101 -0.5572 -1.5423 -0.3240
 5483SOL    HW227912   2.137   1.944  10.975 -0.7632  0.0126  0.0193
 5484SOL     OW27913   1.737   1.585   3.526  0.7350  0.0766  0.2363
 5484SOL    HW127914   1.661   1.537   3.493  0.6228  1.1072 -1.0075
 5484SOL    HW227915   1.749   1.526   3.600  0.1687  1.3366  1.3282
 5485SOL     OW27916   2.974   0.788   7.587 -0.6513  0.0216 -0.4925
 5485SOL    HW127917   3.068   0.795   7.597 -0.6871  0.7171 -0.6866
 5485SOL    HW227918   2.958   0.770   7.680 -0.4541 -0.1921 -0.5012
 5486SOL     OW27919   0.171   1.461  16.593  0.0590 -0.2474  0.3563
 5486SOL    HW127920   0.206   1.534  16.643  2.4264 -1.4050  0.4001
 5486SOL    HW227921   0.253   1.417  16.572  0.4580  0.8941 -0.4809
 5487SOL     OW27922   3.013   0.274   0.255  0.0893 -0.4124  0.2925
 5487SOL    HW127923   3.094   0.249   0.210  0.7051 -0.4105  1.4081
 5487SOL    HW227924   2.962   0.207   0.209 -1.0784  0.8044 -0.1924
 5488SOL     OW27925   4.710   2.274  10.671  0.0707 -0.3773 -0.1953
 5488SOL    HW127926   4.720   2.283  10.766 -2.6851 -1.3602  0.2057
 5488SOL    HW227927   4.677   2.184  10.664 -1.2767  0.0682  0.5303
 5489SOL     OW27928   3.621   4.565   9.709 -0.4395  0.2024  1.0927
 5489SOL    HW127929   3.605   4.523   9.794 -0.3173 -1.3236  0.3743
 5489SOL    HW227930   3.559   4.521   9.650  3.1508 -0.8024 -1.9087
 5490SOL     OW27931   3.791   1.429   6.267  0.2162  0.0929 -0.0685
 5490SOL    HW127932   3.710   1.443   6.317  0.6184 -0.9585  0.8741
 5490SOL    HW227933   3.776   1.337   6.245  0.0607  0.1095 -0.0293
 5491SOL     OW27934   1.010   4.238   0.076  0.3636 -0.1939  0.1446
 5491SOL    HW127935   1.046   4.211  17.692 -0.0525 -1.0996  0.2589
 5491SOL    HW227936   1.034   4.172   0.141  2.0288  1.2836  1.0101
 5492SOL     OW27937   3.578   4.575   9.187 -0.1916 -0.0574  0.3166
 5492SOL    HW127938   3.661   4.536   9.214 -0.1219  0.8281  1.3974
 5492SOL    HW227939   3.526   4.499   9.213  0.2546 -0.7294 -0.7561
 5493SOL     OW27940   2.289   1.541   2.541  0.6408 -0.1071  0.0375
 5493SOL    HW127941   2.208   1.588   2.561 -0.2532 -0.9517 -1.5629
 5493SOL    HW227942   2.257   1.455   2.515  0.3339  0.1609 -0.4844
 5494SOL     OW27943   3.143   1.669   7.780  0.2632 -0.1805 -0.5610
 5494SOL    HW127944   3.095   1.731   7.835 -0.8988 -1.1988 -0.4384
 5494SOL    HW227945   3.117   1.591   7.830 -2.5659  1.8573  1.1818
 5495SOL     OW27946   4.471   2.998   5.254 -0.2149 -0.0565  0.4929
 5495SOL    HW127947   4.427   3.075   5.217  0.2131  0.3956  0.9161
 5495SOL    HW227948   4.398   2.939   5.268  0.4035 -0.9958 -0.3024
 5496SOL     OW27949   4.284   1.858   7.085 -0.8350 -0.6124 -0.1529
 5496SOL    HW127950   4.377   1.877   7.073 -0.9105 -0.6079 -0.7090
 5496SOL    HW227951   4.263   1.817   7.001  1.2189 -3.5163  0.7528
 5497SOL     OW27952   1.359   4.295   5.745 -0.4859 -0.8513 -0.1929
 5497SOL    HW127953   1.301   4.354   5.696 -0.6395 -0.5591  0.3436
 5497SOL    HW227954   1.331   4.206   5.724 -4.3838  0.3947 -0.3840
 5498SOL     OW27955   4.313   2.771   3.638  0.6032 -0.0124  0.2823
 5498SOL    HW127956   4.355   2.719   3.570 -0.2803  1.0010 -1.0320
 5498SOL    HW227957   4.221   2.758   3.616 -0.1816  0.1195  3.4312
 5499SOL     OW27958   2.592   1.942  11.654 -0.3815  0.4123  0.6739
 5499SOL    HW127959   2.673   1.923  11.608  0.0731 -0.2723  1.7572
 5499SOL    HW227960   2.544   1.995  11.591 -1.9173  0.2006  1.6525
 5500SOL     OW27961   3.537   0.716   1.107  0.4644  0.5590  0.3344
 5500SOL    HW127962   3.561   0.759   1.189 -1.4421 -0.0064  1.1855
 5500SOL    HW227963   3.443   0.702   1.114  0.5126  0.8719  1.6226
 5501SOL     OW27964   1.397   2.199   1.187  0.4869  0.8216 -0.1985
 5501SOL    HW127965   1.403   2.112   1.147  1.0785  1.0954 -0.7121
 5501SOL    HW227966   1.326   2.181   1.248  1.4395  0.9325  0.9438
 5502SOL     OW27967   0.862   0.867  10.966 -0.2334  0.1201 -0.5208
 5502SOL    HW127968   0.922   0.792  10.967  1.4573  1.4236 -2.3682
 5502SOL    HW227969   0.914   0.940  10.934  0.2460 -0.3447 -0.8174
 5503SOL     OW27970   0.396   4.014  16.591 -0.3306  0.3939  0.1124
 5503SOL    HW127971   0.365   4.096  16.630  0.0828 -0.1631  1.6042
 5503SOL    HW227972   0.470   4.056  16.547 -0.7164  1.7274  0.7160
 5504SOL     OW27973   2.295   0.746  17.015 -0.5187 -1.0276  0.5149
 5504SOL    HW127974   2.224   0.797  17.055 -0.6741 -2.0738  1.5616
 5504SOL    HW227975   2.327   0.809  16.951 -2.0103 -1.3511 -0.5402
 5505SOL     OW27976   3.983   4.135  12.106  0.2254  0.3083  0.0681
 5505SOL    HW127977   3.907   4.105  12.056 -0.2347  0.3995  0.7183
 5505SOL    HW227978   4.050   4.108  12.043  0.6281 -1.1944  1.1238
 5506SOL     OW27979   3.598   3.874   1.851  0.0807 -0.3456  0.6157
 5506SOL    HW127980   3.580   3.913   1.937  0.8826  0.0433  0.6127
 5506SOL    HW227981   3.506   3.859   1.832 -0.1477  1.6532  0.1552
 5507SOL     OW27982   0.604   2.533   4.006 -0.3098 -0.5178 -0.8233
 5507SOL    HW127983   0.593   2.460   4.068 -1.6576  0.1529 -0.2606
 5507SOL    HW227984   0.603   2.480   3.927 -1.3574 -1.9419  0.1383
 5508SOL     OW27985   3.657   2.571   3.556  0.0640  0.3863 -0.1830
 5508SOL    HW127986   3.564   2.547   3.563  0.4103 -0.3590  1.7293
 5508SOL    HW227987   3.707   2.491   3.570 -1.1590 -0.3075  0.2546
 5509SOL     OW27988   2.297   2.204   6.988  0.0545 -0.2945  0.3735
 5509SOL    HW127989   2.379   2.223   7.035 -0.1256  3.5919 -0.9140
 5509SOL    HW227990   2.254   2.286   7.012 -0.0489 -0.7205  1.6794
 5510SOL     OW27991   0.951   0.634   5.828 -0.0866  0.1578  0.0164
 5510SOL    HW127992   0.906   0.596   5.903 -1.2536 -1.0388 -1.2821
 5510SOL    HW227993   0.917   0.582   5.754  0.6312  0.8540 -0.8052
 5511SOL     OW27994   1.818   3.806   1.208 -0.1650 -0.1821  0.5853
 5511SOL    HW127995   1.903   3.803   1.166 -0.7618 -0.0439 -0.6247
 5511SOL    HW227996   1.812   3.898   1.234 -2.1215 -0.6229  1.7808
 5512SOL     OW27997   2.784   3.603  13.969 -0.0174 -0.5027  0.0944
 5512SOL    HW127998   2.767   3.535  13.904 -0.7570  2.1332 -2.4534
 5512SOL    HW227999   2.861   3.641  13.927  0.0912 -0.6927  0.1225
 5513SOL     OW28000   0.764   2.381  10.158  0.2070  0.4044 -0.4977
 5513SOL    HW128001   0.694   2.370  10.093  1.0306 -0.8230 -1.1671
 5513SOL    HW228002   0.837   2.344  10.109  0.0530  0.3555 -0.6915
 5514SOL     OW28003   3.214   1.497   2.141  0.1896  0.4268  0.2937
 5514SOL    HW128004   3.192   1.480   2.049 -0.3978 -0.0038  0.5114
 5514SOL    HW228005   3.247   1.412   2.170 -1.2328  0.4568  1.9865
 5515SOL     OW28006   3.949   4.417   8.294  0.4390  0.0338  0.2898
 5515SOL    HW128007   3.898   4.410   8.374  0.7968 -0.0632  0.5079
 5515SOL    HW228008   4.025   4.362   8.311  1.0108  0.6049 -0.3846
 5516SOL     OW28009   3.069   1.696  16.717  0.5161 -0.5414 -0.1099
 5516SOL    HW128010   3.079   1.672  16.809  0.0818 -1.3039 -0.2593
 5516SOL    HW228011   2.986   1.744  16.721  0.2411 -1.0536  0.3150
 5517SOL     OW28012   1.182   3.469   8.818  0.1351 -0.2297  0.6493
 5517SOL    HW128013   1.250   3.425   8.768  0.1083 -1.0009  1.2918
 5517SOL    HW228014   1.160   3.541   8.759  1.2017 -0.0636  0.4622
 5518SOL     OW28015   1.515   2.957   6.532  0.1100 -0.3845 -0.0368
 5518SOL    HW128016   1.602   2.943   6.569 -0.8920 -1.7021  1.8125
 5518SOL    HW228017   1.456   2.896   6.575  1.3357  0.0988  2.3136
 5519SOL     OW28018   2.157   1.735   7.567  0.0634 -0.1342  0.0398
 5519SOL    HW128019   2.247   1.756   7.542 -0.0174 -1.6876 -1.5860
 5519SOL    HW228020   2.149   1.739   7.662  1.0030  1.3969  0.0600
 5520SOL     OW28021   0.291   1.348  11.281  0.3998  0.3054 -0.0596
 5520SOL    HW128022   0.268   1.391  11.364  0.7854 -1.4333  0.9613
 5520SOL    HW228023   0.245   1.401  11.216 -2.0698 -2.2267 -0.3861
 5521SOL     OW28024   3.753   0.076  12.872  0.3068  0.8231 -0.5593
 5521SOL    HW128025   3.834   0.106  12.829  1.2695  1.4983  1.7334
 5521SOL    HW228026   3.747   0.127  12.953 -1.4453 -0.3619  0.0409
 5522SOL     OW28027   3.942   2.170   3.966 -0.1759  0.1290  0.1124
 5522SOL    HW128028   3.908   2.092   4.009 -0.0476 -0.2149 -0.4128
 5522SOL    HW228029   3.867   2.214   3.928 -0.4058  0.3344  0.7971
 5523SOL     OW28030   0.102   4.457  15.087  1.2389  0.1143  0.2544
 5523SOL    HW128031   0.067   4.381  15.042 -1.1157  0.0494  2.2377
 5523SOL    HW228032   0.051   4.461  15.167  1.0464 -0.0685  0.1400
 5524SOL     OW28033   0.426   2.290   7.680 -0.0251  0.2514 -0.0492
 5524SOL    HW128034   0.475   2.372   7.675  3.3040 -1.6460  1.6689
 5524SOL    HW228035   0.357   2.307   7.743 -0.7180 -3.2749  0.1337
 5525SOL     OW28036   1.337   3.156   1.593 -0.4863 -0.7343  0.0585
 5525SOL    HW128037   1.427   3.144   1.624 -0.1623 -0.3799 -0.7414
 5525SOL    HW228038   1.297   3.188   1.673 -1.6847 -1.3962 -0.2674
 5526SOL     OW28039   0.909   1.233   2.316 -0.0686 -0.3265 -0.0826
 5526SOL    HW128040   0.866   1.258   2.234 -0.0876 -2.0106 -0.6077
 5526SOL    HW228041   0.918   1.138   2.308  0.9236 -0.2207 -0.1643
 5527SOL     OW28042   3.685   1.224   7.192 -0.2289 -0.0050 -0.2990
 5527SOL    HW128043   3.636   1.170   7.130 -0.1592 -0.6197  0.1808
 5527SOL    HW228044   3.636   1.227   7.274 -0.3716 -0.6697 -0.3593
 5528SOL     OW28045   3.116   2.176  16.520 -0.3493 -0.4605 -0.0052
 5528SOL    HW128046   3.144   2.085  16.514  1.7839  0.1618  0.6472
 5528SOL    HW228047   3.097   2.166  16.613 -1.3208 -0.9232 -0.2561
 5529SOL     OW28048   0.482   3.021   7.579  0.3770 -0.4753  0.3556
 5529SOL    HW128049   0.448   3.014   7.490  2.3058  1.3734 -0.5260
 5529SOL    HW228050   0.530   2.938   7.582 -1.6260 -1.7686 -3.3367
 5530SOL     OW28051   3.938   2.072  16.968  0.4917 -0.3687 -0.0500
 5530SOL    HW128052   3.944   1.983  16.932 -1.1707 -0.7170  0.5507
 5530SOL    HW228053   3.932   2.053  17.061  0.5132  2.7358  0.5825
 5531SOL     OW28054   0.617   1.444  11.246 -0.2997 -0.5841 -0.1833
 5531SOL    HW128055   0.711   1.440  11.260 -0.0736  0.8166 -1.3211
 5531SOL    HW228056   0.610   1.533  11.212  0.7566  0.3310  1.9946
 5532SOL     OW28057   3.608   0.743   1.740 -0.3600 -0.1564 -0.1085
 5532SOL    HW128058   3.558   0.819   1.710  0.4948  0.1636 -0.7358
 5532SOL    HW228059   3.695   0.784   1.750  0.3055 -1.2292 -1.5979
 5533SOL     OW28060   2.780   0.460  15.714 -0.6986 -0.0313 -0.1974
 5533SOL    HW128061   2.831   0.434  15.638 -0.1983 -0.2297  0.2018
 5533SOL    HW228062   2.806   0.398  15.782  1.8320  1.0366 -0.1990
 5534SOL     OW28063   3.974   2.705  15.854 -0.4367 -0.4692  0.3155
 5534SOL    HW128064   4.003   2.635  15.912  3.0640  0.1553 -0.6884
 5534SOL    HW228065   3.998   2.670  15.768 -0.3187  1.0428 -0.2657
 5535SOL     OW28066   2.917   2.236   1.199  0.2670 -0.1949 -0.0383
 5535SOL    HW128067   2.975   2.241   1.275 -1.0930 -3.1592  1.1879
 5535SOL    HW228068   2.836   2.220   1.248  1.6485 -0.8422  2.0184
 5536SOL     OW28069   0.506   2.446   5.388 -0.6612 -0.6644 -0.4633
 5536SOL    HW128070   0.545   2.501   5.320  0.7921 -0.7938  0.2756
 5536SOL    HW228071   0.418   2.437   5.351 -0.7078  0.6554 -0.6811
 5537SOL     OW28072   4.657   2.890   3.373  0.5508  0.2017  0.3213
 5537SOL    HW128073   4.721   2.955   3.401  0.7179  0.1810 -0.0029
 5537SOL    HW228074   4.718   2.818   3.356  0.7200  0.5734 -0.6639
 5538SOL     OW28075   2.235   1.145   3.543 -0.7373  0.1773  0.3402
 5538SOL    HW128076   2.283   1.173   3.621  1.6612  1.5050 -1.6142
 5538SOL    HW228077   2.299   1.149   3.471 -3.4490  3.2788 -1.8800
 5539SOL     OW28078   1.084   3.957   7.455  0.3354  0.6241  0.4694
 5539SOL    HW128079   1.005   4.006   7.478 -0.1009  1.0060 -1.7910
 5539SOL    HW228080   1.093   3.905   7.535  0.2150 -0.0892  0.0220
 5540SOL     OW28081   2.081   1.445   0.573  0.2992  0.4431  0.3661
 5540SOL    HW128082   2.142   1.419   0.642  1.4030  2.4612  0.1358
 5540SOL    HW228083   2.028   1.499   0.632 -2.6765 -0.9394 -1.0361
 5541SOL     OW28084   4.068   2.536   1.838 -0.7879 -0.6252 -0.2931
 5541SOL    HW128085   3.995   2.556   1.897  0.4752  1.2405  0.6516
 5541SOL    HW228086   4.027   2.476   1.776  1.1148 -1.5443 -0.6892
 5542SOL     OW28087   3.020   0.229   5.546 -0.4029 -0.1354 -0.2669
 5542SOL    HW128088   3.048   0.282   5.621  1.4738 -1.4352 -0.0551
 5542SOL    HW228089   3.042   0.141   5.577 -1.1920 -0.7817 -1.5496
 5543SOL     OW28090   3.500   4.400   5.342 -0.1255 -0.5056 -0.0575
 5543SOL    HW128091   3.568   4.356   5.291 -0.2981 -0.4302 -0.3533
 5543SOL    HW228092   3.432   4.389   5.275 -1.5095  0.9030  1.1279
 5544SOL     OW28093   1.556   1.932   1.925  0.3126 -0.0780  1.0348
 5544SOL    HW128094   1.530   1.943   1.834  1.9916 -0.7756  0.4670
 5544SOL    HW228095   1.603   1.848   1.925  2.0666  0.9045  2.1875
 5545SOL     OW28096   0.912   3.346   2.365 -0.5083 -0.4392 -1.1413
 5545SOL    HW128097   0.888   3.295   2.442  1.7715  0.1827 -0.0145
 5545SOL    HW228098   0.828   3.336   2.321 -0.6408  0.5147 -1.1247
 5546SOL     OW28099   2.044   3.268   3.614 -0.6485  0.6876  0.3702
 5546SOL    HW128100   1.983   3.306   3.677 -1.3425  0.3719 -0.1141
 5546SOL    HW228101   2.123   3.323   3.612  0.4093 -0.8504  0.2803
 5547SOL     OW28102   1.626   2.547   8.880 -0.6371 -0.6493  0.5009
 5547SOL    HW128103   1.547   2.509   8.919 -1.0187 -1.2025 -0.8196
 5547SOL    HW228104   1.686   2.533   8.953  0.2099  0.7916  0.0698
 5548SOL     OW28105   3.278   3.527   0.937  0.0683 -0.4517 -0.6788
 5548SOL    HW128106   3.199   3.574   0.965 -0.0496 -0.0673 -1.6611
 5548SOL    HW228107   3.328   3.524   1.019 -0.3858  0.9123 -0.3494
 5549SOL     OW28108   2.470   3.937   2.681  0.0813  0.3667  0.3043
 5549SOL    HW128109   2.494   4.026   2.655 -4.2460  2.2360  2.6880
 5549SOL    HW228110   2.543   3.885   2.649 -0.8274 -0.4200 -0.4963
 5550SOL     OW28111   2.409   1.255   6.380  0.1662  0.7231  0.5567
 5550SOL    HW128112   2.411   1.237   6.474  1.6153 -1.6275  0.0990
 5550SOL    HW228113   2.382   1.170   6.345  3.5096 -1.0746  2.2640
 5551SOL     OW28114   4.108   3.264   6.579 -0.4932 -0.1224  0.0797
 5551SOL    HW128115   4.079   3.306   6.498 -0.9506 -0.6443 -0.0232
 5551SOL    HW228116   4.082   3.172   6.575  1.0035 -0.5069 -0.9354
 5552SOL     OW28117   1.499   2.346  10.478  0.1972  0.6130  0.2913
 5552SOL    HW128118   1.581   2.298  10.485 -0.6182 -0.7065  0.8142
 5552SOL    HW228119   1.449   2.303  10.547  1.2989 -1.1894 -0.0524
 5553SOL     OW28120   1.994   1.503   4.527  0.0123  0.8365 -0.1689
 5553SOL    HW128121   1.918   1.522   4.472 -0.4722 -0.4918  0.0393
 5553SOL    HW228122   2.032   1.433   4.475 -0.0780 -0.0231  0.9207
 5554SOL     OW28123   0.772   1.524   4.415  0.0053  0.6763  0.4145
 5554SOL    HW128124   0.759   1.457   4.482  1.9872 -0.0750  0.0609
 5554SOL    HW228125   0.694   1.577   4.430 -0.9588 -0.9405  1.1206
 5555SOL     OW28126   3.008   2.453   8.034 -0.0215  0.2551 -0.2343
 5555SOL    HW128127   3.030   2.417   7.948  0.3388 -1.8944  0.7805
 5555SOL    HW228128   2.950   2.382   8.060 -0.8248  0.6204 -1.0316
 5556SOL     OW28129   3.763   4.384   3.793  0.3818 -0.3817 -0.6889
 5556SOL    HW128130   3.782   4.317   3.858 -1.5025 -0.3182 -0.0838
 5556SOL    HW228131   3.826   4.450   3.820 -1.5813  0.2083  2.4159
 5557SOL     OW28132   3.742   2.178  17.302  0.0640 -0.3325  0.1392
 5557SOL    HW128133   3.796   2.101  17.322  1.0770  0.2554 -0.3269
 5557SOL    HW228134   3.672   2.149  17.361 -0.6919 -0.7773 -0.9776
 5558SOL     OW28135   2.240   4.479   3.977  0.0433 -0.1381  0.3301
 5558SOL    HW128136   2.322   4.480   4.024  0.9706 -0.6548 -1.2607
 5558SOL    HW228137   2.242   4.391   3.939  0.2265  0.3373 -0.7873
 5559SOL     OW28138   2.095   3.097  12.452 -0.4410  0.3218 -0.2701
 5559SOL    HW128139   2.117   3.147  12.531 -0.0351  2.6567 -1.8715
 5559SOL    HW228140   2.109   3.012  12.493  1.4695  0.0176 -1.5538
 5560SOL     OW28141   2.125   2.739   8.322  0.4706  0.0578 -0.3023
 5560SOL    HW128142   2.126   2.823   8.368 -1.3603  0.2100 -0.5174
 5560SOL    HW228143   2.096   2.757   8.233  2.4805 -3.2878 -1.6279
 5561SOL     OW28144   1.720   2.264   3.882 -0.3828 -0.2442  0.2543
 5561SOL    HW128145   1.788   2.297   3.823 -0.2029 -0.2175  0.4788
 5561SOL    HW228146   1.651   2.243   3.819 -0.6215  0.7674  0.1761
 5562SOL     OW28147   3.056   1.251  15.571  0.1846 -0.0121 -0.8262
 5562SOL    HW128148   3.024   1.310  15.639 -1.5243 -0.6565 -1.0802
 5562SOL    HW228149   3.008   1.265  15.490  0.6702  0.1874 -1.0747
 5563SOL     OW28150   3.703   1.967   1.998  0.0809  0.3652  0.3238
 5563SOL    HW128151   3.718   1.880   2.037  1.3806  1.2853  1.8627
 5563SOL    HW228152   3.763   2.018   2.052  1.5930 -0.0585 -0.9981
 5564SOL     OW28153   2.237   2.876   2.162 -0.0152 -0.3112  0.0673
 5564SOL    HW128154   2.186   2.803   2.125 -1.7622  1.9672 -2.0090
 5564SOL    HW228155   2.283   2.830   2.232 -0.1966  0.2583  0.5540
 5565SOL     OW28156   0.443   3.871   9.044 -0.3463  0.3243  0.1950
 5565SOL    HW128157   0.399   3.896   9.125 -1.2171  1.0800 -0.5080
 5565SOL    HW228158   0.494   3.793   9.065 -1.0442 -0.2282 -0.1496
 5566SOL     OW28159   0.513   2.218  13.126  0.3046  0.7452  0.0255
 5566SOL    HW128160   0.546   2.274  13.055 -0.2632  1.7941  0.5786
 5566SOL    HW228161   0.596   2.185  13.161  0.7178  1.2509 -0.4642
 5567SOL     OW28162   0.180   0.426   9.399 -0.7217 -0.3374  0.8197
 5567SOL    HW128163   0.215   0.357   9.342 -0.4331 -1.4909  2.3839
 5567SOL    HW228164   0.180   0.505   9.345 -0.9223  0.2137  1.6308
 5568SOL     OW28165   3.601   2.395  13.448 -0.1292 -0.2687 -0.3019
 5568SOL    HW128166   3.646   2.472  13.481 -0.9080  0.6714 -1.4625
 5568SOL    HW228167   3.517   2.433  13.424  0.2600  1.4992  1.0953
 5569SOL     OW28168   0.356   3.983   9.307  0.5612 -0.1304  1.0779
 5569SOL    HW128169   0.261   3.979   9.296  0.6825 -1.4221  0.4942
 5569SOL    HW228170   0.369   3.968   9.400  0.9733  0.7989  1.1762
 5570SOL     OW28171   4.048   4.682   1.916  0.3715 -0.0883 -0.0451
 5570SOL    HW128172   4.098   4.639   1.846  2.2899  3.0753 -0.6698
 5570SOL    HW228173   3.979   4.616   1.918 -0.5476  0.8192 -1.3478
 5571SOL     OW28174   4.072   2.818  16.192 -0.4925  0.2509  0.0506
 5571SOL    HW128175   4.103   2.898  16.235 -0.8755  0.5200 -0.1772
 5571SOL    HW228176   4.142   2.801  16.129 -0.7870  0.1733 -0.2532
 5572SOL     OW28177   1.161   0.577   3.290  0.0669  0.1374 -0.1062
 5572SOL    HW128178   1.211   0.508   3.245 -0.4887 -2.2667  2.9860
 5572SOL    HW228179   1.133   0.627   3.213  1.1917  1.6813  0.5090
 5573SOL     OW28180   1.725   4.032   7.090 -0.0570  0.1458  0.2889
 5573SOL    HW128181   1.692   3.944   7.110  1.4450  0.2328  3.0579
 5573SOL    HW228182   1.645   4.070   7.053 -1.2100 -0.9295  1.6598
 5574SOL     OW28183   3.433   0.215   9.875  0.6942  0.3630  0.3317
 5574SOL    HW128184   3.518   0.204   9.918  1.0844  2.6859  0.1583
 5574SOL    HW228185   3.437   0.136   9.821  1.9425  0.3724  0.3986
 5575SOL     OW28186   1.039   3.692   8.388 -0.1449  0.8904 -0.1361
 5575SOL    HW128187   1.088   3.669   8.309  0.2398  0.0116  0.3474
 5575SOL    HW228188   1.003   3.780   8.380  1.0399  1.3776 -0.0469
 5576SOL     OW28189   4.193   3.142   3.515  0.7838  0.0007  0.7297
 5576SOL    HW128190   4.120   3.141   3.453  2.1923  2.9922 -0.9868
 5576SOL    HW228191   4.155   3.099   3.591 -0.1862  2.6176  1.7422
 5577SOL     OW28192   1.788   4.495   6.167 -0.1473 -0.1569 -0.1133
 5577SOL    HW128193   1.782   4.564   6.234 -0.3982 -0.2724 -0.0160
 5577SOL    HW228194   1.725   4.429   6.195 -1.1939  0.7216 -0.3880
 5578SOL     OW28195   0.764   1.252   2.072  0.3338 -0.6006  0.2013
 5578SOL    HW128196   0.745   1.224   1.982  0.7117 -0.2241  0.0014
 5578SOL    HW228197   0.684   1.294   2.105  0.2694 -1.6108  1.3262
 5579SOL     OW28198   2.428   4.362   4.767 -0.0861  0.2294  0.3493
 5579SOL    HW128199   2.448   4.335   4.857 -1.9289 -0.9280  0.3966
 5579SOL    HW228200   2.419   4.276   4.726 -1.3956  1.6600 -2.3175
 5580SOL     OW28201   1.488   0.505  12.479  0.0288 -0.0854 -0.0819
 5580SOL    HW128202   1.468   0.588  12.523  2.9457  0.2550  0.6371
 5580SOL    HW228203   1.423   0.517  12.410 -0.4467  0.9165  0.5405
 5581SOL     OW28204   2.559   4.672  11.834 -0.2366  0.2265 -0.0017
 5581SOL    HW128205   2.485   0.005  11.812 -1.4541 -0.6303  1.8647
 5581SOL    HW228206   2.623   0.012  11.806  1.9125 -1.0448  2.0400
 5582SOL     OW28207   1.031   1.650   9.105 -0.4247  0.4424 -0.3339
 5582SOL    HW128208   1.122   1.636   9.080  0.2467  1.7126  1.4521
 5582SOL    HW228209   1.044   1.684   9.193  0.2892 -0.9891  0.1074
 5583SOL     OW28210   0.248   1.673   1.392  0.1081 -0.1541 -0.6574
 5583SOL    HW128211   0.325   1.700   1.343  1.3352 -2.2852  0.0682
 5583SOL    HW228212   0.177   1.730   1.364  1.5313  1.1709 -1.5590
 5584SOL     OW28213   2.281   3.663   6.055  0.1189 -0.3889 -0.3196
 5584SOL    HW128214   2.203   3.677   6.109  0.6525  2.2282 -0.2249
 5584SOL    HW228215   2.237   3.673   5.971  0.2367  0.3355 -0.2945
 5585SOL     OW28216   3.230   3.840  13.454  0.2291 -0.1443 -0.6086
 5585SOL    HW128217   3.221   3.929  13.488  0.2171 -0.7011  0.8487
 5585SOL    HW228218   3.240   3.852  13.359  3.3586 -0.5329 -0.3365
 5586SOL     OW28219   3.696   0.414  13.866 -0.6014  0.0548 -0.1998
 5586SOL    HW128220   3.691   0.509  13.865 -2.6956 -0.0486 -0.3661
 5586SOL    HW228221   3.756   0.396  13.937 -3.3074 -1.6110  1.6762
 5587SOL     OW28222   3.565   2.103   0.304  0.1584  0.7565  0.3610
 5587SOL    HW128223   3.502   2.172   0.325 -0.5730  0.2626 -0.2405
 5587SOL    HW228224   3.614   2.096   0.386  0.6239  0.1688  0.0249
 5588SOL     OW28225   0.804   3.194   9.051 -0.0114 -0.4112  0.9583
 5588SOL    HW128226   0.844   3.145   8.980  0.9348  0.5523  0.8160
 5588SOL    HW228227   0.712   3.182   9.027 -0.0945 -0.0328  1.0812
 5589SOL     OW28228   0.588   4.137   5.421  0.6615 -0.3402 -0.2040
 5589SOL    HW128229   0.647   4.182   5.360 -1.1939  1.5409 -0.6161
 5589SOL    HW228230   0.640   4.123   5.500 -1.3731  0.5823  1.3124
 5590SOL     OW28231   2.860   1.587  11.235 -0.1238 -0.1344  0.1832
 5590SOL    HW128232   2.856   1.662  11.175  1.7535  1.3749  1.9384
 5590SOL    HW228233   2.780   1.595  11.287 -0.4904 -0.7828 -0.2814
 5591SOL     OW28234   1.675   2.715   8.466 -0.1620 -0.8241 -0.2966
 5591SOL    HW128235   1.694   2.809   8.467 -1.1991 -0.5926 -1.3209
 5591SOL    HW228236   1.598   2.705   8.410 -1.6143 -1.7365  1.8822
 5592SOL     OW28237   2.498   2.193   2.844 -0.2891 -0.0682  0.8949
 5592SOL    HW128238   2.517   2.101   2.826  0.4798  0.5644 -1.4983
 5592SOL    HW228239   2.445   2.190   2.925  0.7195  0.1162  1.5617
 5593SOL     OW28240   0.196   0.698  13.751 -0.2361 -0.2270  0.1134
 5593SOL    HW128241   0.269   0.729  13.697  0.9243  1.0803  2.4424
 5593SOL    HW228242   0.247   0.639  13.806  2.0151  0.0281 -1.6983
 5594SOL     OW28243   4.007   4.193   5.329  0.4199 -0.1733  0.0987
 5594SOL    HW128244   4.085   4.140   5.348  1.3298  0.3838 -2.1196
 5594SOL    HW228245   4.044   4.265   5.279  2.0370  0.5472  2.3173
 5595SOL     OW28246   4.657   1.826  12.556  0.1887 -0.5409 -0.2819
 5595SOL    HW128247   4.660   1.806  12.463 -1.3045 -0.8618 -0.2546
 5595SOL    HW228248   0.023   1.810  12.585 -0.1025 -1.0825  0.3423
 5596SOL     OW28249   3.895   3.075   6.410  0.2550 -0.5953  0.6138
 5596SOL    HW128250   3.817   3.033   6.445 -0.5384  0.7871  0.5256
 5596SOL    HW228251   3.863   3.137   6.344  1.9528 -2.4551 -1.9598
 5597SOL     OW28252   3.482   3.298   4.152 -0.7409  0.0941 -0.0629
 5597SOL    HW128253   3.577   3.299   4.141 -0.6811  4.8512  0.9740
 5597SOL    HW228254   3.456   3.234   4.086 -0.8508  3.1149 -2.9833
 5598SOL     OW28255   0.505   3.427   9.686  0.4583 -0.3819  0.1453
 5598SOL    HW128256   0.572   3.478   9.731  1.3909  1.1008 -2.9135
 5598SOL    HW228257   0.462   3.388   9.762  0.3578 -0.7419 -0.0977
 5599SOL     OW28258   0.705   3.850   2.578  0.2634  0.5663  0.0424
 5599SOL    HW128259   0.672   3.786   2.642  0.5241  0.7357  0.3472
 5599SOL    HW228260   0.761   3.788   2.531  0.6152  1.7179 -1.0538
 5600SOL     OW28261   3.757   4.207   4.023 -0.2070 -0.0954  0.6431
 5600SOL    HW128262   3.782   4.116   4.006 -0.4652 -0.2694  1.1660
 5600SOL    HW228263   3.673   4.192   4.068 -0.0806 -0.5906  0.7171
 5601SOL     OW28264   0.451   0.798   8.585  0.0976 -0.2775 -0.6641
 5601SOL    HW128265   0.363   0.827   8.564 -0.4040 -0.7001  0.8294
 5601SOL    HW228266   0.458   0.841   8.670  2.3357 -1.2030 -0.3767
 5602SOL     OW28267   1.074   1.788   7.377 -0.4055  0.1187 -0.6043
 5602SOL    HW128268   0.979   1.777   7.374 -0.6030  1.8190 -0.2469
 5602SOL    HW228269   1.106   1.711   7.329 -0.3929 -0.0240 -0.3641
 5603SOL     OW28270   1.236   4.472   5.984  0.2411 -0.5322 -0.7120
 5603SOL    HW128271   1.319   4.473   6.031  0.3581  3.4155 -1.0461
 5603SOL    HW228272   1.244   4.543   5.920 -2.0562  1.0759  0.7563
 5604SOL     OW28273   1.388   3.510   5.028  0.0365  0.1454 -0.0785
 5604SOL    HW128274   1.357   3.589   5.073 -2.9154 -1.1271  0.1018
 5604SOL    HW228275   1.382   3.538   4.937  0.3298  0.4383 -0.0121
 5605SOL     OW28276   2.624   0.114   4.239 -0.2063  0.1946  0.5998
 5605SOL    HW128277   2.586   0.196   4.207 -0.1339  0.9646  2.4669
 5605SOL    HW228278   2.702   0.159   4.271 -0.6194  0.1783  1.6247
 5606SOL     OW28279   1.614   3.896   4.107 -0.1646  0.8379 -0.3630
 5606SOL    HW128280   1.597   3.876   4.199  0.9313 -0.2767 -0.4059
 5606SOL    HW228281   1.563   3.977   4.095 -0.9394  0.5979  1.2882
 5607SOL     OW28282   3.383   4.115   5.516 -0.0308 -0.1453 -0.3103
 5607SOL    HW128283   3.325   4.173   5.468 -0.7157  0.1532  0.8634
 5607SOL    HW228284   3.432   4.079   5.443  1.9713  0.7023  0.6039
 5608SOL     OW28285   3.785   3.890  14.569  0.3467  0.0762 -0.1207
 5608SOL    HW128286   3.867   3.849  14.597  1.8780  2.6063 -0.8587
 5608SOL    HW228287   3.765   3.944  14.646 -2.2492 -0.0631 -0.6967
 5609SOL     OW28288   1.777   2.634   4.424  0.5380 -0.0053 -0.2253
 5609SOL    HW128289   1.777   2.727   4.445  3.0986 -0.4701  1.7822
 5609SOL    HW228290   1.761   2.626   4.330 -0.9232 -0.0477  0.0231
 5610SOL     OW28291   3.529   4.325   2.198 -0.9912 -0.2145 -0.9998
 5610SOL    HW128292   3.619   4.292   2.194 -1.1327 -0.5683 -1.3561
 5610SOL    HW228293   3.537   4.414   2.165  1.7009  0.4279  1.5228
 5611SOL     OW28294   0.872   2.560   3.954 -0.3832  0.0783 -0.3671
 5611SOL    HW128295   0.850   2.621   3.884  1.2024  2.5527  1.2975
 5611SOL    HW228296   0.782   2.542   3.980  0.6680 -1.8030  1.9459
 5612SOL     OW28297   1.076   0.019   9.587  0.1077 -0.1963 -0.1540
 5612SOL    HW128298   1.115   0.073   9.518 -0.3740 -0.1230 -0.3683
 5612SOL    HW228299   1.088   0.067   9.669 -1.8687  1.1488 -0.6641
 5613SOL     OW28300   4.450   2.690   4.629  0.4526 -0.7842 -0.6169
 5613SOL    HW128301   4.396   2.769   4.617  0.2329 -0.6199  1.5055
 5613SOL    HW228302   4.407   2.635   4.563 -0.2221 -1.1871  0.1574
 5614SOL     OW28303   3.420   2.414   7.979 -0.0795 -0.1178 -0.0595
 5614SOL    HW128304   3.458   2.415   8.067 -1.7214 -0.9499  0.6587
 5614SOL    HW228305   3.328   2.440   7.988 -0.0434 -0.2388  0.6504
 5615SOL     OW28306   0.965   3.924   8.269 -0.0947  0.0123  0.1096
 5615SOL    HW128307   1.000   4.005   8.306  1.2733  0.1710 -1.5093
 5615SOL    HW228308   0.870   3.937   8.266  0.2573  3.0091  1.9274
 5616SOL     OW28309   0.129   0.348   6.458 -0.2317 -0.1319 -0.0925
 5616SOL    HW128310   0.151   0.255   6.456 -0.2910 -0.1081 -1.6577
 5616SOL    HW228311   0.149   0.366   6.366 -0.8846 -1.5779 -0.5156
 5617SOL     OW28312   0.725   3.620   4.063  0.6701  0.0211 -0.2100
 5617SOL    HW128313   0.692   3.659   4.144  0.3339  0.4817 -0.5677
 5617SOL    HW228314   0.768   3.538   4.088 -1.9166 -1.2227  0.1587
 5618SOL     OW28315   2.527   3.509  15.276 -0.0885 -0.0702 -0.0175
 5618SOL    HW128316   2.541   3.593  15.232 -0.2732 -0.2984 -0.5029
 5618SOL    HW228317   2.611   3.465  15.258  0.5787 -0.5536  4.1628
 5619SOL     OW28318   0.240   0.714   6.544 -0.0858 -0.3376 -0.3641
 5619SOL    HW128319   0.318   0.770   6.543  0.1907 -0.7053  0.3003
 5619SOL    HW228320   0.178   0.785   6.531 -2.1500 -2.2154 -0.7266
 5620SOL     OW28321   2.783   1.227   7.050  0.1075 -0.4254  0.0152
 5620SOL    HW128322   2.812   1.149   7.098  1.6051  0.0077 -0.1721
 5620SOL    HW228323   2.870   1.239   7.011 -0.6451  0.7857 -1.2608
 5621SOL     OW28324   4.356   0.482   7.793  0.0108  0.4192 -0.5625
 5621SOL    HW128325   4.421   0.499   7.861 -0.6231 -2.1699  0.6925
 5621SOL    HW228326   4.289   0.430   7.838  1.0314 -0.4328 -0.0138
 5622SOL     OW28327   0.690   3.169   8.413 -0.4352 -0.0682  0.2818
 5622SOL    HW128328   0.773   3.175   8.461 -0.2149 -0.9124  0.0009
 5622SOL    HW228329   0.664   3.261   8.419 -0.8696 -0.0764 -1.4763
 5623SOL     OW28330   2.763   2.119   8.584  0.5182  0.1940  0.1565
 5623SOL    HW128331   2.800   2.112   8.672  0.8942 -0.0365 -0.0244
 5623SOL    HW228332   2.759   2.025   8.567 -0.8843  0.0397  1.3034
 5624SOL     OW28333   4.094   2.707   3.509  0.0769 -0.4909  0.1226
 5624SOL    HW128334   4.091   2.633   3.449  1.0726  1.8149 -2.8289
 5624SOL    HW228335   4.070   2.787   3.461 -0.4635 -1.1602 -0.7061
 5625SOL     OW28336   2.268   3.596   7.071 -0.1727 -0.0589 -0.4174
 5625SOL    HW128337   2.315   3.679   7.073  1.9083 -1.2018 -1.5427
 5625SOL    HW228338   2.317   3.548   7.005  0.8188  0.2387  0.0980
 5626SOL     OW28339   2.385   0.821  11.787 -0.5213  0.0587  0.2283
 5626SOL    HW128340   2.343   0.832  11.702  1.5757 -0.9491 -0.9250
 5626SOL    HW228341   2.371   0.906  11.830 -1.5473 -0.5013  0.9970
 5627SOL     OW28342   4.115   0.060   5.458 -0.0786 -0.0418 -0.3186
 5627SOL    HW128343   4.051   0.026   5.396 -1.8872  4.1404 -0.7632
 5627SOL    HW228344   4.080   0.010   5.532 -0.1622 -0.2871 -0.5253
 5628SOL     OW28345   2.224   1.992   6.037 -0.0163 -0.1650 -0.4854
 5628SOL    HW128346   2.233   1.959   5.948 -1.9111 -1.2626 -0.2700
 5628SOL    HW228347   2.178   1.917   6.075 -2.6113  1.3936 -0.5630
 5629SOL     OW28348   3.676   4.364   7.365  0.4481  0.0967  0.5085
 5629SOL    HW128349   3.638   4.277   7.352 -3.0332  2.0032 -2.0446
 5629SOL    HW228350   3.633   4.395   7.445  2.0613 -0.1285  1.4573
 5630SOL     OW28351   3.619   0.562   5.306  0.3788  0.5153 -0.2206
 5630SOL    HW128352   3.635   0.656   5.297  2.9282 -0.0739 -2.0159
 5630SOL    HW228353   3.647   0.548   5.397  1.4355  1.2005 -0.4369
 5631SOL     OW28354   0.412   0.581   4.626 -0.4673  1.0092 -0.4740
 5631SOL    HW128355   0.494   0.531   4.632  1.2961  3.8985 -0.0132
 5631SOL    HW228356   0.422   0.651   4.691  1.0086  0.0455  0.3552
 5632SOL     OW28357   3.018   0.672  13.466  0.0961  0.0484  0.2405
 5632SOL    HW128358   3.112   0.680  13.456 -0.4549  2.9785 -2.4746
 5632SOL    HW228359   3.024   0.596  13.525  1.0270 -0.6086 -0.7179
 5633SOL     OW28360   4.632   2.277  13.552 -0.7888 -0.0680 -0.1590
 5633SOL    HW128361   4.682   2.211  13.505 -0.3785 -0.1271  0.3688
 5633SOL    HW228362   4.548   2.233  13.541 -0.9784  0.3885 -0.5345
 5634SOL     OW28363   0.390   0.146   7.248  0.6552 -0.0011  0.0894
 5634SOL    HW128364   0.345   0.204   7.187 -0.6677 -0.1948  0.8765
 5634SOL    HW228365   0.362   0.176   7.335 -4.1495  2.0804 -2.1952
 5635SOL     OW28366   0.784   2.128  10.400  0.2251 -0.3984  0.2469
 5635SOL    HW128367   0.757   2.084  10.480  1.3434 -0.4544  0.5801
 5635SOL    HW228368   0.722   2.091  10.336  2.3137 -1.6854 -1.0108
 5636SOL     OW28369   3.199   1.138  12.207 -0.5743  0.2560 -0.3341
 5636SOL    HW128370   3.112   1.168  12.234 -0.5574 -1.4758  1.7049
 5636SOL    HW228371   3.192   1.048  12.239  1.3474  0.3460  0.2981
 5637SOL     OW28372   0.533   3.012   8.818  0.1281 -0.0120 -0.0738
 5637SOL    HW128373   0.459   3.061   8.853  0.4622 -0.5615  1.4130
 5637SOL    HW228374   0.511   3.003   8.725 -0.6229  2.3127 -0.1081
 5638SOL     OW28375   3.958   0.487   8.859  0.1633 -0.7389  0.1991
 5638SOL    HW128376   3.867   0.459   8.847 -0.3873  1.2380 -0.2091
 5638SOL    HW228377   3.991   0.514   8.773 -0.7897 -1.2588 -0.3247
 5639SOL     OW28378   0.222   3.319   2.869  0.1557 -0.1684 -0.2475
 5639SOL    HW128379   0.158   3.363   2.924  0.1645  2.6423 -2.4887
 5639SOL    HW228380   0.244   3.238   2.915  0.6958  0.3988  0.5060
 5640SOL     OW28381   3.591   3.067   2.865  0.1025  0.5311  0.7153
 5640SOL    HW128382   3.534   2.992   2.882 -0.6080  0.8192 -0.4080
 5640SOL    HW228383   3.527   3.130   2.896 -2.8630 -1.8673 -0.5901
 5641SOL     OW28384   3.995   4.204   6.737  0.6318  0.1257  0.2634
 5641SOL    HW128385   4.047   4.124   6.745  1.1293  0.5149  0.9018
 5641SOL    HW228386   4.012   4.220   6.644 -0.4720  1.6823  0.3277
 5642SOL     OW28387   1.879   2.081   1.175 -0.3919 -0.2190 -0.0340
 5642SOL    HW128388   1.958   2.080   1.228 -1.2071  0.4081  1.1881
 5642SOL    HW228389   1.865   1.988   1.154 -1.7757  0.2189 -1.1004
 5643SOL     OW28390   0.826   4.455   1.993 -0.7422  0.1237  0.4997
 5643SOL    HW128391   0.855   4.377   1.946  0.1363 -0.3327  1.8301
 5643SOL    HW228392   0.731   4.443   1.992 -0.4779 -1.9909  2.7622
 5644SOL     OW28393   1.512   3.182  15.203 -0.3452 -0.1656  0.1807
 5644SOL    HW128394   1.564   3.246  15.252  0.2860 -0.8515  0.3947
 5644SOL    HW228395   1.571   3.108  15.197  0.9600  0.7816  1.3052
 5645SOL     OW28396   4.134   1.598   7.483  0.4618 -0.9380 -0.5152
 5645SOL    HW128397   4.122   1.668   7.418 -0.0604  1.4274  2.0991
 5645SOL    HW228398   4.224   1.607   7.512  0.2068  0.9647 -0.2635
 5646SOL     OW28399   0.834   0.083   6.812  0.1649 -0.2203  0.0247
 5646SOL    HW128400   0.848   0.126   6.727 -0.3109 -0.3887 -0.1357
 5646SOL    HW228401   0.803   4.724   6.776  1.7805 -1.0145  0.4533
 5647SOL     OW28402   0.602   2.181  12.868 -0.3157  0.1028  0.8776
 5647SOL    HW128403   0.574   2.272  12.876  0.8429  0.5625 -0.3548
 5647SOL    HW228404   0.545   2.158  12.795 -0.2249 -0.8317  1.0981
 5648SOL     OW28405   4.252   0.562   6.928 -0.3163 -0.0120 -0.2818
 5648SOL    HW128406   4.343   0.581   6.906  0.4926 -1.7356  1.5693
 5648SOL    HW228407   4.241   0.594   7.017 -0.8683  1.9087 -1.0417
 5649SOL     OW28408   1.336   1.256   3.260  0.3225  0.4206 -0.4938
 5649SOL    HW128409   1.375   1.184   3.310  0.1118 -0.3678 -1.4570
 5649SOL    HW228410   1.407   1.267   3.196  0.6098  2.1204  0.1310
 5650SOL     OW28411   0.607   3.092   4.847 -0.3754  0.3343  0.0197
 5650SOL    HW128412   0.600   3.150   4.771  1.7465  0.9717  0.3103
 5650SOL    HW228413   0.561   3.011   4.825  0.5689  0.4959 -2.4868
 5651SOL     OW28414   0.195   4.441   8.559 -0.5240  0.6557 -0.1857
 5651SOL    HW128415   0.245   4.475   8.633  0.4608 -0.3898 -0.3798
 5651SOL    HW228416   0.189   4.348   8.581  1.7014  0.5200 -0.1549
 5652SOL     OW28417   0.211   1.684   8.748  0.0035  0.0345  0.7597
 5652SOL    HW128418   0.182   1.635   8.671 -1.4885 -0.1535  1.4384
 5652SOL    HW228419   0.280   1.730   8.699  1.1126 -1.1236  1.2715
 5653SOL     OW28420   2.816   1.787   5.760  0.2555  0.1385 -0.3126
 5653SOL    HW128421   2.854   1.733   5.830 -1.7277  1.0271  1.4494
 5653SOL    HW228422   2.862   1.868   5.785 -1.7226  1.8176 -2.1879
 5654SOL     OW28423   0.935   3.550   0.470 -0.4497  0.2916  0.2530
 5654SOL    HW128424   0.853   3.545   0.519 -1.3984 -0.3059 -1.4307
 5654SOL    HW228425   0.987   3.551   0.551 -0.9276  0.5708  0.5600
 5655SOL     OW28426   0.281   2.225   3.253 -0.2094  0.5857  0.2592
 5655SOL    HW128427   0.292   2.199   3.344  1.8276 -0.1502 -0.1778
 5655SOL    HW228428   0.256   2.141   3.212 -0.4059  1.5196 -1.5494
 5656SOL     OW28429   2.000   2.338  13.556  0.3208  0.6439 -0.3839
 5656SOL    HW128430   2.057   2.268  13.587  2.1314  1.6893 -1.3332
 5656SOL    HW228431   2.020   2.408  13.618 -0.7052  1.9324 -1.4969
 5657SOL     OW28432   3.959   4.708   5.212  0.2929  0.0618 -0.1385
 5657SOL    HW128433   3.878   0.007   5.257  0.9062  0.3540  0.8188
 5657SOL    HW228434   3.927   0.003   5.125 -0.1057 -1.7421 -0.4064
 5658SOL     OW28435   3.377   2.923  11.714 -0.4753 -0.3649 -0.0964
 5658SOL    HW128436   3.360   3.004  11.666 -1.6792  1.0159  2.6729
 5658SOL    HW228437   3.298   2.936  11.767  0.3702  2.1416  0.5815
 5659SOL     OW28438   1.934   1.556   7.985  0.2689 -0.3897  0.0467
 5659SOL    HW128439   1.939   1.462   7.971  3.3791 -0.4694  1.6719
 5659SOL    HW228440   1.945   1.588   7.896 -0.3620 -1.8589 -0.5618
 5660SOL     OW28441   2.564   3.043   6.908  0.8686  0.3635  0.0260
 5660SOL    HW128442   2.643   2.989   6.910  1.0131  0.6870  2.9505
 5660SOL    HW228443   2.506   2.990   6.961  0.2522  1.2784  0.2592
 5661SOL     OW28444   1.744   1.068   5.192 -0.9380  0.0382  0.6652
 5661SOL    HW128445   1.677   1.040   5.255  0.7181 -1.6490  1.6529
 5661SOL    HW228446   1.724   1.161   5.176 -0.9883 -0.0729  0.0809
 5662SOL     OW28447   4.703   2.472  13.875  0.5512 -0.4498  0.3565
 5662SOL    HW128448   4.650   2.489  13.797  2.5313 -0.4568 -0.9908
 5662SOL    HW228449   4.695   2.377  13.880  2.2785 -0.6588 -0.7242
 5663SOL     OW28450   3.862   0.093   3.686  0.3350 -0.8679  0.3489
 5663SOL    HW128451   3.795   0.025   3.687 -1.8142  1.2504 -0.0956
 5663SOL    HW228452   3.933   0.042   3.647 -0.4162 -1.4355 -0.2692
 5664SOL     OW28453   3.423   0.170   2.709 -0.6440 -0.0382  0.1820
 5664SOL    HW128454   3.499   0.161   2.767 -1.6190 -0.8961  1.3157
 5664SOL    HW228455   3.387   0.256   2.730  0.0777  0.8340 -2.1788
 5665SOL     OW28456   0.030   1.040   3.500  0.1710  0.4117 -0.1151
 5665SOL    HW128457   4.716   0.952   3.503  2.4611 -0.5976 -0.0774
 5665SOL    HW228458   0.077   1.037   3.417  0.1510 -0.5976 -0.0862
 5666SOL     OW28459   4.346   0.576   8.994 -0.0923 -0.3204 -0.1376
 5666SOL    HW128460   4.427   0.527   8.979  0.6420  0.2145  2.0456
 5666SOL    HW228461   4.280   0.509   9.011  1.9994 -1.9835  1.5394
 5667SOL     OW28462   4.233   2.480   4.200 -0.2447  0.3500 -0.3074
 5667SOL    HW128463   4.251   2.385   4.200  0.4308  0.4777 -0.8234
 5667SOL    HW228464   4.230   2.493   4.106 -0.0258  0.6171 -0.2772
 5668SOL     OW28465   4.282   0.786  12.298 -0.1245 -0.5155 -0.1757
 5668SOL    HW128466   4.198   0.831  12.288  1.0174  1.2774 -1.8773
 5668SOL    HW228467   4.269   0.722  12.367  1.0462  0.4784  0.9879
 5669SOL     OW28468   4.364   0.930   7.353  0.1970  0.1485 -0.1867
 5669SOL    HW128469   4.303   0.921   7.426  1.0055  3.3353  0.8698
 5669SOL    HW228470   4.377   0.840   7.324  1.5187 -0.2724  1.7052
 5670SOL     OW28471   1.661   1.647   1.037  0.1917  0.2186 -0.5460
 5670SOL    HW128472   1.663   1.571   0.978  1.1123  1.7425 -2.4952
 5670SOL    HW228473   1.566   1.656   1.030  0.0807  0.3070  1.0451
 5671SOL     OW28474   4.129   3.946   6.182  0.3203  0.2723  0.4647
 5671SOL    HW128475   4.073   4.021   6.163  0.6223  0.6469  1.0212
 5671SOL    HW228476   4.143   3.908   6.096  0.9755  0.7624  0.3501
 5672SOL     OW28477   0.390   3.692   6.424 -0.3598  0.3603 -0.0827
 5672SOL    HW128478   0.354   3.604   6.411 -1.0086  0.5228  0.6340
 5672SOL    HW228479   0.478   3.673   6.392 -0.5543 -2.0678  0.8077
 5673SOL     OW28480   1.526   2.867  17.515  0.6653 -0.6882 -0.1594
 5673SOL    HW128481   1.462   2.937  17.528 -0.4816 -1.8513  0.5093
 5673SOL    HW228482   1.498   2.843  17.426  1.9675 -1.1180 -0.4537
 5674SOL     OW28483   4.117   1.507   4.786  0.5398 -0.5510 -0.0704
 5674SOL    HW128484   4.142   1.435   4.729  4.4576 -0.4076  1.5106
 5674SOL    HW228485   4.204   1.534   4.816  0.2337 -0.6833  0.9684
 5675SOL     OW28486   0.599   1.101   0.661 -0.2134 -0.0639  0.7423
 5675SOL    HW128487   0.685   1.065   0.685 -0.7768 -1.7387  0.2693
 5675SOL    HW228488   0.578   1.078   0.571  0.7239  0.1150  0.4803
 5676SOL     OW28489   4.452   1.490  13.662 -0.1316  0.1625 -0.2456
 5676SOL    HW128490   4.425   1.431  13.732  0.7146 -0.0656 -0.1217
 5676SOL    HW228491   4.384   1.471  13.596 -1.2218  1.1728  0.5964
 5677SOL     OW28492   4.050   2.286  14.601 -0.6329 -0.1062 -0.2344
 5677SOL    HW128493   4.014   2.265  14.687 -2.4128  0.6239 -0.7966
 5677SOL    HW228494   4.133   2.239  14.607  0.6601  2.1333 -0.8100
 5678SOL     OW28495   3.842   4.679   2.997  0.1657  0.9464 -0.3129
 5678SOL    HW128496   3.782   4.697   3.070  0.2284  0.5702 -0.1688
 5678SOL    HW228497   3.911   4.628   3.040 -0.9796  1.2417  1.8769
 5679SOL     OW28498   0.722   2.053   0.761  0.1882  0.2392 -0.9932
 5679SOL    HW128499   0.734   2.146   0.742 -0.2616  0.4048 -0.4710
 5679SOL    HW228500   0.711   2.046   0.856  1.6899  0.2289 -0.8153
 5680SOL     OW28501   3.000   2.001   9.724 -0.1713  0.0493  0.1665
 5680SOL    HW128502   3.025   1.978   9.634 -0.8837 -1.2034  0.2803
 5680SOL    HW228503   2.911   1.964   9.724 -0.4690  0.7647 -2.9610
 5681SOL     OW28504   4.406   4.414   3.364 -0.2700 -0.0304  0.4254
 5681SOL    HW128505   4.375   4.492   3.318  0.2966  0.5367  0.9994
 5681SOL    HW228506   4.402   4.337   3.307  2.1709  1.2620 -1.5279
 5682SOL     OW28507   1.978   3.537   6.871 -0.1658  0.3232  0.0502
 5682SOL    HW128508   1.991   3.443   6.882 -2.3369  0.1306  1.0407
 5682SOL    HW228509   1.947   3.568   6.956  0.9017  0.5678  0.3517
 5683SOL     OW28510   3.141   2.600   6.274  0.1086  0.5439  0.2524
 5683SOL    HW128511   3.129   2.695   6.275 -0.8274  0.4229  0.9158
 5683SOL    HW228512   3.210   2.582   6.337 -0.6555 -1.4025  0.5379
 5684SOL     OW28513   3.369   1.303   3.329  0.0798 -0.6495 -0.1530
 5684SOL    HW128514   3.394   1.359   3.255  1.7445 -0.3046  0.6637
 5684SOL    HW228515   3.459   1.283   3.355  0.4123  1.4982  0.3250
 5685SOL     OW28516   2.973   3.787  10.489  0.0692  0.9178  0.1268
 5685SOL    HW128517   2.938   3.803  10.577  0.0001  0.1299  0.2402
 5685SOL    HW228518   2.918   3.842  10.434  0.2290 -0.6613 -1.6048
 5686SOL     OW28519   3.702   0.439   6.902 -0.0059  0.0232  0.3182
 5686SOL    HW128520   3.730   0.375   6.967 -1.2063 -0.0890  0.7346
 5686SOL    HW228521   3.791   0.453   6.870 -1.6726  1.9253 -3.4382
 5687SOL     OW28522   3.312   3.184   5.085  0.2055 -0.3431 -0.6155
 5687SOL    HW128523   3.239   3.138   5.126  1.3863 -1.7921 -0.1759
 5687SOL    HW228524   3.381   3.119   5.080 -0.9740 -1.7899  1.9457
 5688SOL     OW28525   2.259   1.861   2.218 -0.6569  0.8928 -0.1042
 5688SOL    HW128526   2.214   1.862   2.303 -1.7956 -0.9377 -0.6851
 5688SOL    HW228527   2.235   1.946   2.183 -1.8939 -0.4898 -2.5449
 5689SOL     OW28528   2.871   3.423   2.095  0.7000  0.0271  0.4784
 5689SOL    HW128529   2.918   3.342   2.115  1.0709 -0.5319 -2.6536
 5689SOL    HW228530   2.805   3.399   2.030  0.0240 -1.6662  1.7598
 5690SOL     OW28531   0.576   3.601   2.509 -0.5385 -0.0885  0.2482
 5690SOL    HW128532   0.482   3.606   2.523 -0.5718 -0.0780  0.0202
 5690SOL    HW228533   0.598   3.508   2.522  1.5753  0.4084  0.1722
 5691SOL     OW28534   3.518   4.153   4.161  0.7313 -0.3131  0.3207
 5691SOL    HW128535   3.508   4.069   4.204  0.5515 -0.9762 -1.0312
 5691SOL    HW228536   3.451   4.206   4.204  2.4622  1.0711  1.3241
 5692SOL     OW28537   0.151   0.027   2.648  0.6128 -0.4740  0.3218
 5692SOL    HW128538   0.151   4.659   2.672 -0.8308  0.1513  2.7385
 5692SOL    HW228539   0.126   0.070   2.730 -0.4515 -1.7894  0.6907
 5693SOL     OW28540   0.570   3.514   6.787  0.2558  0.0657 -0.7742
 5693SOL    HW128541   0.483   3.486   6.760  0.9167 -1.0106 -1.7892
 5693SOL    HW228542   0.626   3.515   6.709  0.4892 -2.1687 -0.6243
 5694SOL     OW28543   0.309   0.752   2.805  0.0087  0.2526  0.0868
 5694SOL    HW128544   0.242   0.688   2.830 -0.6686  1.0613  0.3292
 5694SOL    HW228545   0.282   0.840   2.830  2.5330  1.5042 -1.5638
 5695SOL     OW28546   3.614   0.787   8.582 -0.0839 -0.2670 -0.3029
 5695SOL    HW128547   3.539   0.759   8.528  0.2647  1.1737 -1.5543
 5695SOL    HW228548   3.584   0.870   8.619  2.1496 -0.0102  0.9150
 5696SOL     OW28549   0.772   4.575   5.472  0.6236  0.4128 -0.7839
 5696SOL    HW128550   0.741   4.516   5.403 -0.9615  1.9488 -1.3959
 5696SOL    HW228551   0.835   4.620   5.415  0.1272 -0.8748 -2.3325
 5697SOL     OW28552   3.917   4.056   2.070 -0.2050  0.3301 -0.0068
 5697SOL    HW128553   3.999   4.100   2.092  1.1205 -2.5304  0.7052
 5697SOL    HW228554   3.922   4.079   1.977  0.4001  0.8965  0.1701
 5698SOL     OW28555   1.700   0.588   3.821  0.4272  0.6495  0.5985
 5698SOL    HW128556   1.668   0.570   3.733 -1.4088 -0.9297  1.6059
 5698SOL    HW228557   1.782   0.625   3.786 -0.0019  1.1502  0.1252
 5699SOL     OW28558   0.413   0.749  11.305  0.0373 -0.3608  0.5022
 5699SOL    HW128559   0.411   0.698  11.386 -2.6962  0.0478  0.6946
 5699SOL    HW228560   0.466   0.702  11.241  1.0875  0.9203  0.4333
 5700SOL     OW28561   2.797   4.219  16.553 -0.1355  0.3336 -0.2299
 5700SOL    HW128562   2.756   4.300  16.583 -0.4917  0.4766 -1.1123
 5700SOL    HW228563   2.876   4.213  16.607  0.3586 -0.3953 -1.0267
 5701SOL     OW28564   2.782   3.534  17.433 -0.2497  0.1059  0.3169
 5701SOL    HW128565   2.731   3.607  17.400 -1.0972 -1.0090 -0.8423
 5701SOL    HW228566   2.762   3.549  17.526 -0.2506  0.2861  0.2867
 5702SOL     OW28567   0.756   1.455   4.058 -0.2566 -0.1924 -0.3035
 5702SOL    HW128568   0.681   1.478   4.112 -0.2555  1.5609 -1.0375
 5702SOL    HW228569   0.805   1.537   4.047 -0.0038 -0.3770 -0.5801
 5703SOL     OW28570   2.979   0.706   3.523 -0.4701 -0.2564 -0.1108
 5703SOL    HW128571   3.000   0.792   3.559 -1.4433 -0.4144  0.8571
 5703SOL    HW228572   3.067   0.681   3.497 -0.0349  0.8536  0.2863
 5704SOL     OW28573   0.536   4.193  12.939  0.4211  0.3141  0.6442
 5704SOL    HW128574   0.549   4.276  12.892 -1.0376 -0.3556 -0.9590
 5704SOL    HW228575   0.444   4.205  12.964 -0.1774 -0.7720 -0.9662
 5705SOL     OW28576   1.376   1.759  11.286 -0.0920 -0.1663 -0.2331
 5705SOL    HW128577   1.414   1.841  11.255  1.9248 -1.9603 -2.4488
 5705SOL    HW228578   1.380   1.774  11.381  0.8331 -0.3423 -0.2492
 5706SOL     OW28579   2.622   3.970   4.340  0.5332 -0.6026  0.6485
 5706SOL    HW128580   2.612   3.896   4.279 -0.5288  0.2604 -0.2160
 5706SOL    HW228581   2.693   4.015   4.295  0.1463 -0.8094 -0.1718
 5707SOL     OW28582   1.960   1.142  11.433  0.3594 -0.1624  0.0061
 5707SOL    HW128583   1.923   1.085  11.501  0.7858  0.1571  0.5043
 5707SOL    HW228584   1.890   1.134  11.368  1.3900  0.4361 -1.1930
 5708SOL     OW28585   0.393   1.876   2.813 -0.1304 -1.0416 -0.1192
 5708SOL    HW128586   0.481   1.843   2.796  0.7689  1.3361 -0.0180
 5708SOL    HW228587   0.413   1.924   2.892 -1.1800 -0.0272 -0.4676
 5709SOL     OW28588   0.005   3.000  17.304 -0.5719  0.2927  0.5626
 5709SOL    HW128589   0.002   2.916  17.258  2.0102  1.1650 -1.2095
 5709SOL    HW228590   4.721   3.050  17.222 -1.0668 -1.2825 -0.3473
 5710SOL     OW28591   2.654   2.060  12.422 -0.1666  0.1016  0.3454
 5710SOL    HW128592   2.626   2.000  12.491  1.0892 -1.4638 -0.5156
 5710SOL    HW228593   2.609   2.022  12.346 -1.9318  1.1520  0.8621
 5711SOL     OW28594   3.040   3.413  17.350  0.4125 -0.2975  0.2227
 5711SOL    HW128595   3.045   3.320  17.369  1.2071 -0.4429 -0.6561
 5711SOL    HW228596   2.950   3.445  17.358  0.8421  1.0185 -0.1649
 5712SOL     OW28597   3.549   0.311   7.450  0.2797 -0.5630 -0.0244
 5712SOL    HW128598   3.580   0.224   7.473  1.5214 -0.0106  0.3849
 5712SOL    HW228599   3.625   0.351   7.409  0.7300 -0.3106  1.0554
 5713SOL     OW28600   2.714   1.586  13.097 -0.1080  0.0268 -0.0354
 5713SOL    HW128601   2.637   1.531  13.080 -0.3704  0.0056  1.1993
 5713SOL    HW228602   2.680   1.645  13.165  1.1974 -1.9806  2.4019
 5714SOL     OW28603   2.503   2.053   6.104  0.4431 -0.4456  0.5366
 5714SOL    HW128604   2.510   1.972   6.054 -1.0037 -1.0457  1.3180
 5714SOL    HW228605   2.408   2.048   6.113  0.3984 -0.5173 -0.0040
 5715SOL     OW28606   1.454   1.849   9.542  0.2334  0.3051 -0.3830
 5715SOL    HW128607   1.407   1.773   9.577 -2.9972  2.0108 -1.0454
 5715SOL    HW228608   1.533   1.862   9.594  0.1120  0.3934 -0.2211
 5716SOL     OW28609   3.452   1.879   0.523 -0.3715  0.0312  0.3708
 5716SOL    HW128610   3.481   1.887   0.432 -1.0462 -0.7699  0.0919
 5716SOL    HW228611   3.505   1.947   0.565  1.1187 -1.1286  0.3582
 5717SOL     OW28612   1.537   1.640   6.625 -0.1361  0.3079  0.4617
 5717SOL    HW128613   1.559   1.551   6.597 -1.1597 -1.2873  4.7059
 5717SOL    HW228614   1.463   1.657   6.566 -0.8762 -1.1920  0.9499
 5718SOL     OW28615   4.195   3.412   2.280 -0.9722  0.0801  0.4488
 5718SOL    HW128616   4.248   3.482   2.243 -0.5362 -1.9347 -2.7787
 5718SOL    HW228617   4.228   3.338   2.229  1.5320  2.9151 -2.0440
 5719SOL     OW28618   0.001   1.319   3.827 -0.1223  0.0032 -0.2427
 5719SOL    HW128619   0.078   1.345   3.878  1.4004 -0.4437 -2.3094
 5719SOL    HW228620   0.041   1.253   3.771 -1.0945  1.1906 -2.3557
 5720SOL     OW28621   2.117   2.054  16.984  0.2617  0.1157  0.4845
 5720SOL    HW128622   2.121   1.967  17.023  1.4318 -0.5516 -1.1358
 5720SOL    HW228623   2.052   2.093  17.043 -0.6467 -0.6279 -0.0201
 5721SOL     OW28624   0.639   3.322   2.624 -0.0181 -0.3668  0.6147
 5721SOL    HW128625   0.587   3.253   2.666 -0.4732 -1.5575 -1.9256
 5721SOL    HW228626   0.732   3.299   2.633  0.4864  0.8695 -1.5964
 5722SOL     OW28627   0.810   1.015   9.594  0.1045  0.0629 -0.1038
 5722SOL    HW128628   0.831   0.926   9.566  1.2720 -0.2261  1.7093
 5722SOL    HW228629   0.715   1.004   9.588 -0.0044  1.4686 -1.1051
 5723SOL     OW28630   2.194   2.346  11.678 -0.2828  0.3745  0.1546
 5723SOL    HW128631   2.253   2.414  11.646  0.2244  0.4659  1.2565
 5723SOL    HW228632   2.191   2.366  11.772  0.2752  0.8376  0.0758
 5724SOL     OW28633   0.803   1.713   2.305 -0.0386  0.3247  0.1750
 5724SOL    HW128634   0.789   1.626   2.342 -3.7578  0.8079 -0.1069
 5724SOL    HW228635   0.722   1.761   2.320 -1.5841 -2.2068 -0.0159
 5725SOL     OW28636   3.744   1.011   9.926 -0.0141 -0.0480 -0.2648
 5725SOL    HW128637   3.692   0.961   9.989  0.5324 -0.6056 -0.2515
 5725SOL    HW228638   3.681   1.062   9.877  1.6057  0.4927 -1.7780
 5726SOL     OW28639   3.011   3.329   8.403 -0.3071  0.1807 -0.6124
 5726SOL    HW128640   3.065   3.256   8.435 -0.5190  0.8836  1.3655
 5726SOL    HW228641   3.022   3.390   8.476 -0.4983  1.5055 -1.6901
 5727SOL     OW28642   3.131   2.286   2.314  0.5351 -0.2059  0.5328
 5727SOL    HW128643   3.203   2.224   2.306 -0.1791 -1.0065  0.3718
 5727SOL    HW228644   3.159   2.369   2.273 -0.8975 -0.0356 -0.0980
 5728SOL     OW28645   3.638   0.457  12.362 -0.1642 -0.1172 -0.6230
 5728SOL    HW128646   3.682   0.378  12.394  1.1677  0.6436 -0.6076
 5728SOL    HW228647   3.641   0.515  12.438  4.0561  0.3990 -1.2229
 5729SOL     OW28648   2.129   0.112   3.963 -0.0616 -0.5724 -0.0130
 5729SOL    HW128649   2.131   0.105   4.058  1.1749 -1.0618 -0.0770
 5729SOL    HW228650   2.211   0.159   3.947 -1.0312  1.2019  0.2450
 5730SOL     OW28651   3.683   2.272   5.028  0.2110  0.5515  0.7334
 5730SOL    HW128652   3.743   2.229   4.968 -2.2438 -0.1806 -1.1775
 5730SOL    HW228653   3.719   2.360   5.020  1.6126 -0.3028 -2.1364
 5731SOL     OW28654   4.124   3.126   8.491  0.0810  0.1079 -0.4372
 5731SOL    HW128655   4.167   3.086   8.416 -0.0911  1.9397 -1.5078
 5731SOL    HW228656   4.191   3.168   8.545  0.3664  0.9308 -1.4408
 5732SOL     OW28657   3.130   3.709   8.384 -0.1967  0.5688 -0.3147
 5732SOL    HW128658   3.146   3.615   8.387 -0.0961  0.6163  0.5969
 5732SOL    HW228659   3.092   3.702   8.472 -1.7797 -3.2402 -1.2734
 5733SOL     OW28660   4.572   0.828   3.671  0.2259  0.2516 -0.3036
 5733SOL    HW128661   4.663   0.806   3.649 -0.2217  0.1438 -2.0606
 5733SOL    HW228662   4.558   0.738   3.699 -2.1398  1.4952  2.4397
 5734SOL     OW28663   3.772   0.771   7.882  0.1293  0.1034 -0.6823
 5734SOL    HW128664   3.776   0.793   7.789 -3.0984  0.8060 -0.6308
 5734SOL    HW228665   3.779   0.676   7.883 -1.5169 -0.0078  0.4109
 5735SOL     OW28666   4.173   4.458   7.096 -0.0974  0.5727  0.0375
 5735SOL    HW128667   4.110   4.478   7.027  0.6376 -0.8136 -1.0091
 5735SOL    HW228668   4.147   4.367   7.110 -1.2161  1.0318  0.9474
 5736SOL     OW28669   3.806   2.213   3.266  0.1101 -0.2629  0.6342
 5736SOL    HW128670   3.788   2.300   3.230 -2.1130 -0.6132  0.8780
 5736SOL    HW228671   3.732   2.159   3.241  0.1563 -0.2335  0.4285
 5737SOL     OW28672   0.101   0.428   3.462 -0.3678  0.1593  0.0064
 5737SOL    HW128673   0.110   0.366   3.390  3.2489  0.6916 -0.0029
 5737SOL    HW228674   0.181   0.479   3.453 -0.4473  0.0251 -1.4408
 5738SOL     OW28675   0.036   3.001   4.686 -0.2360  0.2769 -0.0911
 5738SOL    HW128676   0.114   3.053   4.666 -1.8945  2.7965 -0.0827
 5738SOL    HW228677   0.018   2.968   4.598 -0.1251  2.0830 -0.7960
 5739SOL     OW28678   2.266   4.099   4.688  0.0295  0.5313 -0.1711
 5739SOL    HW128679   2.289   4.007   4.702  0.3185  0.9242  1.9264
 5739SOL    HW228680   2.317   4.113   4.608 -0.1024 -0.0032 -0.3511
 5740SOL     OW28681   2.458   2.854   6.032  0.0462  0.7615 -0.3053
 5740SOL    HW128682   2.400   2.827   6.103 -0.9505  0.4031 -1.2629
 5740SOL    HW228683   2.398   2.861   5.958 -0.5602  1.0737  0.2247
 5741SOL     OW28684   3.088   2.082   4.671  0.4698  0.0255  0.2621
 5741SOL    HW128685   3.116   2.118   4.587  1.7549 -0.4723  0.4666
 5741SOL    HW228686   3.014   2.136   4.697  0.8849  1.0517 -0.6749
 5742SOL     OW28687   3.029   0.548   7.023  0.2118  0.2762  0.2310
 5742SOL    HW128688   3.038   0.588   7.110 -0.8383 -0.4597  0.6803
 5742SOL    HW228689   3.105   0.584   6.976 -0.8295  0.1827 -1.5171
 5743SOL     OW28690   2.498   0.808  12.406  0.7413  0.5244 -0.0105
 5743SOL    HW128691   2.550   0.875  12.451  0.6270  0.0300  0.8596
 5743SOL    HW228692   2.418   0.820  12.456  1.8229 -1.4595  2.2204
 5744SOL     OW28693   2.398   2.589   9.337  0.3949 -0.3738 -0.2679
 5744SOL    HW128694   2.312   2.572   9.378  0.6495 -1.8065 -0.2987
 5744SOL    HW228695   2.452   2.531   9.392  2.8792  1.0008 -1.2736
 5745SOL     OW28696   0.808   2.614   2.088 -0.4792 -0.0354 -0.2115
 5745SOL    HW128697   0.869   2.562   2.037 -1.4092 -0.9541 -0.3851
 5745SOL    HW228698   0.835   2.700   2.056 -1.0039  0.7218  1.3704
 5746SOL     OW28699   2.954   1.069   0.879 -0.6672 -0.1474  0.2788
 5746SOL    HW128700   2.898   1.096   0.806 -0.2520 -0.3460 -0.1126
 5746SOL    HW228701   2.938   1.134   0.948 -0.7795  0.9230 -0.7510
 5747SOL     OW28702   0.380   1.440   7.094  0.4293 -0.7855 -0.3881
 5747SOL    HW128703   0.359   1.382   7.168 -1.0017 -1.1312 -1.0589
 5747SOL    HW228704   0.405   1.513   7.149  2.0123 -0.4608 -1.5386
 5748SOL     OW28705   3.085   3.265   3.366  0.0602 -0.1495 -0.5627
 5748SOL    HW128706   3.010   3.227   3.320  0.3473 -3.1188  1.4155
 5748SOL    HW228707   3.143   3.189   3.366  0.4546  0.1506 -1.6895
 5749SOL     OW28708   4.488   1.972   8.148 -0.4965 -0.2257 -0.3878
 5749SOL    HW128709   4.505   1.994   8.057  0.7721  2.8427  0.5950
 5749SOL    HW228710   4.572   1.970   8.194  0.2412  1.5427 -1.7075
 5750SOL     OW28711   4.696   0.793   4.417  0.0482 -0.4649 -0.1302
 5750SOL    HW128712   0.020   0.752   4.489  0.3075 -1.2817 -0.7752
 5750SOL    HW228713   0.030   0.787   4.342  0.3611  3.1904 -0.1968
 5751SOL     OW28714   4.229   3.467   8.762  0.2592  0.0732  0.3203
 5751SOL    HW128715   4.312   3.436   8.724 -0.2329 -0.9716  0.0791
 5751SOL    HW228716   4.184   3.522   8.698 -1.2997 -0.3025  1.1105
 5752SOL     OW28717   0.943   2.932  13.944 -0.3302 -0.0014 -0.2510
 5752SOL    HW128718   0.932   3.025  13.964  0.1413 -0.0466  0.2365
 5752SOL    HW228719   0.854   2.907  13.921 -1.0693  1.5987  0.8671
 5753SOL     OW28720   1.308   1.191  14.532  0.0118 -0.4090 -0.9757
 5753SOL    HW128721   1.307   1.171  14.626 -2.7076 -0.5850 -1.0474
 5753SOL    HW228722   1.402   1.196  14.511  0.5015  0.5490  1.3566
 5754SOL     OW28723   4.536   3.126  15.361  0.0418 -0.2172 -0.4930
 5754SOL    HW128724   4.521   3.041  15.402 -1.6480 -0.1488 -0.9494
 5754SOL    HW228725   4.557   3.095  15.273  0.0110  0.1248 -0.6219
 5755SOL     OW28726   1.478   1.963   4.930  0.0769  0.4061 -0.2307
 5755SOL    HW128727   1.496   2.054   4.907  2.5352 -0.0789 -0.2263
 5755SOL    HW228728   1.418   1.940   4.859  1.3314  1.3018 -1.5716
 5756SOL     OW28729   3.778   0.377  10.613  0.4391  0.5915  0.0300
 5756SOL    HW128730   3.850   0.358  10.673 -0.9445 -2.2155  0.7986
 5756SOL    HW228731   3.823   0.377  10.529  0.1013  1.1010 -0.1492
 5757SOL     OW28732   2.113   1.077   1.880 -0.1417  0.4008  0.0783
 5757SOL    HW128733   2.138   1.162   1.917 -0.3204  0.1136  0.8496
 5757SOL    HW228734   2.095   1.088   1.786  1.2315 -2.1587 -0.4765
 5758SOL     OW28735   3.312   2.732   3.682  0.2128 -0.1990 -0.3386
 5758SOL    HW128736   3.289   2.701   3.770 -0.7015  1.1767 -0.0752
 5758SOL    HW228737   3.387   2.786   3.707 -1.3474  1.1238  1.5411
 5759SOL     OW28738   4.367   3.839   9.649  0.8626 -0.0093  0.2453
 5759SOL    HW128739   4.388   3.892   9.571  1.6477 -1.0947 -0.2832
 5759SOL    HW228740   4.330   3.757   9.616  1.2501  0.1321 -0.5515
 5760SOL     OW28741   2.877   4.232  14.302  0.0434  0.0827  0.4670
 5760SOL    HW128742   2.951   4.269  14.350  0.5693  0.2053 -0.4488
 5760SOL    HW228743   2.921   4.165  14.249  1.2571  2.0235 -0.9716
 5761SOL     OW28744   0.262   2.796   4.897  0.3574  0.0199  0.0604
 5761SOL    HW128745   0.226   2.731   4.837 -0.1938 -1.6377  2.1575
 5761SOL    HW228746   0.297   2.738   4.965  0.2292 -0.2607 -0.1146
 5762SOL     OW28747   0.948   2.086  17.599 -0.4042 -0.4933 -0.4277
 5762SOL    HW128748   0.974   2.136  17.522  4.9801  1.2721  2.4774
 5762SOL    HW228749   1.035   2.060  17.631 -0.1592 -0.9542 -1.4985
 5763SOL     OW28750   1.691   1.850   6.590 -0.4320  0.2145  0.1361
 5763SOL    HW128751   1.771   1.810   6.624  1.2373  1.5142 -2.2009
 5763SOL    HW228752   1.626   1.781   6.604  1.3140 -1.6448 -0.7586
 5764SOL     OW28753   0.602   0.999   3.597  0.3786  0.8013 -0.3327
 5764SOL    HW128754   0.556   0.928   3.553  0.2377  0.7379 -0.0799
 5764SOL    HW228755   0.530   1.041   3.642 -0.1465 -0.7074  0.2311
 5765SOL     OW28756   2.093   2.077   2.179  0.1547 -0.3551  0.0036
 5765SOL    HW128757   2.057   2.166   2.170 -1.4544 -1.0131 -0.0144
 5765SOL    HW228758   2.029   2.028   2.232  1.5779 -1.0207  1.0903
 5766SOL     OW28759   4.292   2.117  10.546  0.0910 -0.3932  0.1465
 5766SOL    HW128760   4.380   2.120  10.583 -0.1121 -1.4468  0.7211
 5766SOL    HW228761   4.306   2.107  10.452 -1.4428  0.9817 -0.2265
 5767SOL     OW28762   4.556   1.930   7.055  0.4268 -0.1202 -0.3427
 5767SOL    HW128763   4.609   1.886   6.989  0.8125 -1.3324  0.7709
 5767SOL    HW228764   4.588   2.018   7.036 -0.6057 -0.0198 -1.5955
 5768SOL     OW28765   2.332   2.836   4.917 -0.0680 -0.2800 -0.1638
 5768SOL    HW128766   2.385   2.784   4.977  0.7137  1.8239  0.9611
 5768SOL    HW228767   2.359   2.793   4.835 -2.4086 -1.2081 -0.4311
 5769SOL     OW28768   2.859   1.165   6.696  0.1408  0.0082  0.5087
 5769SOL    HW128769   2.896   1.108   6.629  1.4327  0.3208  0.9577
 5769SOL    HW228770   2.881   1.253   6.667 -1.4391 -0.2977 -1.6242
 5770SOL     OW28771   1.646   2.348  11.210  0.0655  0.2883 -0.3068
 5770SOL    HW128772   1.706   2.384  11.145  0.0929 -0.6688 -0.8126
 5770SOL    HW228773   1.717   2.314  11.264  0.2032  0.2418 -0.5190
 5771SOL     OW28774   3.150   1.837   4.755 -0.0849 -0.0732  0.1781
 5771SOL    HW128775   3.143   1.932   4.743  1.4016  0.0122 -0.0406
 5771SOL    HW228776   3.169   1.835   4.848 -1.8945 -0.7626  0.5347
 5772SOL     OW28777   0.193   0.044  13.148 -0.0934 -0.1545  0.2767
 5772SOL    HW128778   0.121   4.705  13.151  1.4677 -1.9020  0.8255
 5772SOL    HW228779   0.234   0.024  13.232 -2.6474  0.6575  1.7079
 5773SOL     OW28780   4.200   4.308   9.572  0.5802 -0.2255 -0.3079
 5773SOL    HW128781   4.214   4.225   9.526 -0.7688  0.1271 -1.3282
 5773SOL    HW228782   4.291   4.323   9.597 -0.0587 -0.3501  2.0783
 5774SOL     OW28783   3.224   1.834   7.331 -0.0816  0.0965  0.0176
 5774SOL    HW128784   3.226   1.765   7.397 -2.3126  1.2330  1.2514
 5774SOL    HW228785   3.295   1.892   7.357 -0.8670  2.2014 -2.5180
 5775SOL     OW28786   2.475   4.201   0.111  0.7015 -0.4600 -0.3382
 5775SOL    HW128787   2.397   4.255   0.104  0.9658 -0.0850 -0.3681
 5775SOL    HW228788   2.436   4.126   0.157 -2.4217  2.6778  2.0901
 5776SOL     OW28789   0.266   3.927   0.499  0.0892 -0.5026  0.4972
 5776SOL    HW128790   0.276   4.023   0.499  0.8972 -0.5917  0.8100
 5776SOL    HW228791   0.195   3.916   0.563  0.8555  0.1746  1.4552
 5777SOL     OW28792   3.724   1.940  10.631  0.0198 -0.3812 -0.5103
 5777SOL    HW128793   3.668   2.015  10.612  0.8203  0.3280 -0.0748
 5777SOL    HW228794   3.698   1.906  10.717  0.1957  1.5457  0.2992
 5778SOL     OW28795   1.152   4.111  17.251 -0.2076  0.4768 -0.0735
 5778SOL    HW128796   1.222   4.106  17.187 -0.9376  0.2588 -0.8486
 5778SOL    HW228797   1.075   4.088  17.200  0.6347 -1.7410 -0.3696
 5779SOL     OW28798   1.946   2.776   1.952 -0.1674  0.4446  0.0614
 5779SOL    HW128799   2.023   2.734   1.990  1.6839  2.6425 -1.2678
 5779SOL    HW228800   1.918   2.829   2.026  2.1381  2.2388 -0.3559
 5780SOL     OW28801   0.459   4.642   0.998 -0.1838 -0.4172 -0.6534
 5780SOL    HW128802   0.434   4.671   0.911 -1.1287  1.1393  0.1454
 5780SOL    HW228803   0.463   4.548   0.980  0.3322 -0.0790 -2.3186
 5781SOL     OW28804   3.532   2.133  10.440 -0.4817 -0.0501 -0.0975
 5781SOL    HW128805   3.527   2.055  10.383  1.0128 -0.0640 -0.2085
 5781SOL    HW228806   3.449   2.176  10.420  0.6623  2.3438  0.3766
 5782SOL     OW28807   1.964   0.424   4.861 -0.0340 -0.3307  0.7437
 5782SOL    HW128808   1.901   0.474   4.912 -0.9038  0.5722 -1.1950
 5782SOL    HW228809   2.031   0.492   4.852 -0.5795  0.2409  0.9723
 5783SOL     OW28810   1.791   0.952   1.157  0.4452 -0.6253 -0.3969
 5783SOL    HW128811   1.785   0.948   1.062 -1.8170 -2.4367 -0.1849
 5783SOL    HW228812   1.865   0.894   1.174 -0.3050 -1.6988 -0.8185
 5784SOL     OW28813   4.634   4.129   9.547  0.1523 -0.4051 -0.4566
 5784SOL    HW128814   4.701   4.084   9.494 -0.5621  0.4576 -2.0775
 5784SOL    HW228815   4.556   4.084   9.515  0.0143  0.5702 -1.5153
 5785SOL     OW28816   3.562   3.602   8.632  0.2422 -0.1815  0.3535
 5785SOL    HW128817   3.498   3.656   8.585  0.2500  0.4931  1.1189
 5785SOL    HW228818   3.502   3.532   8.657 -1.0738  0.4818 -0.9354
 5786SOL     OW28819   0.655   2.958   9.197 -0.4541  0.1334  0.3888
 5786SOL    HW128820   0.621   3.048   9.195 -1.6621 -0.3273 -0.7913
 5786SOL    HW228821   0.614   2.917   9.273  0.2100 -1.4710 -0.1240
 5787SOL     OW28822   1.073   1.799   5.074 -0.2776 -0.1887 -0.0305
 5787SOL    HW128823   1.054   1.824   5.165 -0.7968 -1.0116  0.0847
 5787SOL    HW228824   0.994   1.749   5.053 -0.7516  0.6981 -0.3769
 5788SOL     OW28825   4.142   1.524  15.513  0.2262  0.5249 -0.0970
 5788SOL    HW128826   4.214   1.565  15.560 -1.5538  4.7502 -1.0198
 5788SOL    HW228827   4.068   1.542  15.570 -0.6396 -3.6994  0.1275
 5789SOL     OW28828   4.550   3.992   8.591  0.1516  0.3265 -0.1870
 5789SOL    HW128829   4.527   3.997   8.498  0.1492  0.4844 -0.1783
 5789SOL    HW228830   4.597   3.911   8.610  0.5147  0.3052 -1.1481
 5790SOL     OW28831   3.727   0.349   1.270 -0.0046  0.0259 -0.2607
 5790SOL    HW128832   3.715   0.344   1.365  1.5060 -1.3748 -0.1315
 5790SOL    HW228833   3.685   0.273   1.230 -0.9396  1.8871 -2.7993
 5791SOL     OW28834   0.467   1.391  14.610 -0.2179 -0.3370  0.0011
 5791SOL    HW128835   0.530   1.414  14.541 -0.7202  0.1713 -0.2915
 5791SOL    HW228836   0.384   1.411  14.567 -1.6537 -1.9291  2.0259
 5792SOL     OW28837   1.248   1.888  10.427 -0.0216 -0.1476 -0.3671
 5792SOL    HW128838   1.187   1.962  10.425 -1.2596 -1.2446 -3.4178
 5792SOL    HW228839   1.323   1.919  10.477 -1.8167  1.2828  1.4223
 5793SOL     OW28840   2.040   3.095   1.847  0.1511  0.1229 -0.2462
 5793SOL    HW128841   2.120   3.146   1.859 -0.4032  0.4894  1.9217
 5793SOL    HW228842   2.080   3.009   1.855  0.5741  0.3294 -0.1590
 5794SOL     OW28843   3.969   3.406   8.289  0.1088  0.2067 -0.1144
 5794SOL    HW128844   4.001   3.376   8.204  0.3231  1.4051 -0.4526
 5794SOL    HW228845   3.908   3.337   8.317  0.5008 -1.1212 -2.6048
 5795SOL     OW28846   0.497   4.365  15.693  0.3787 -0.1875 -0.7013
 5795SOL    HW128847   0.412   4.397  15.722  0.4486  0.1061 -0.8226
 5795SOL    HW228848   0.532   4.452  15.673 -0.8079 -0.2463 -3.0267
 5796SOL     OW28849   0.619   0.321  16.255  0.4602 -0.5483 -0.2437
 5796SOL    HW128850   0.588   0.379  16.186  0.8547  0.8439  0.7394
 5796SOL    HW228851   0.713   0.313  16.239  0.1880 -0.3419 -1.8792
 5797SOL     OW28852   3.318   3.811  11.733 -0.0971  0.0318  0.2083
 5797SOL    HW128853   3.267   3.887  11.762  0.7176  1.3080 -1.6919
 5797SOL    HW228854   3.332   3.757  11.810 -0.7783 -1.2119 -0.5351
 5798SOL     OW28855   0.031   0.971   2.476 -0.2081 -0.2566  0.2065
 5798SOL    HW128856   4.711   1.019   2.407 -0.3836 -0.8531 -0.0958
 5798SOL    HW228857   0.053   1.045   2.532 -3.6406  1.2387 -0.4267
 5799SOL     OW28858   4.253   2.043   6.459  0.1890  0.1833  0.2570
 5799SOL    HW128859   4.201   1.965   6.440 -0.6515  0.6848  0.4745
 5799SOL    HW228860   4.226   2.054   6.550 -0.2111  0.9619  0.0463
 5800SOL     OW28861   1.296   2.992  14.745 -0.2214 -0.8056  0.0281
 5800SOL    HW128862   1.351   3.027  14.816 -1.5678 -1.3663  1.3578
 5800SOL    HW228863   1.291   2.900  14.773  1.8597 -0.5736  1.2261
 5801SOL     OW28864   2.069   2.344  16.745  0.2526 -0.4712  0.1901
 5801SOL    HW128865   2.066   2.251  16.764 -0.3561 -0.2751  1.0368
 5801SOL    HW228866   2.050   2.349  16.651 -0.0748 -1.3292  0.2129
 5802SOL     OW28867   3.122   4.075   3.873 -0.3629  0.6726  0.0363
 5802SOL    HW128868   3.090   4.008   3.812 -0.3081 -1.8670  2.8155
 5802SOL    HW228869   3.210   4.091   3.838  1.0278  1.7947  4.0821
 5803SOL     OW28870   1.708   4.260  12.799  0.0797  0.2300 -0.2179
 5803SOL    HW128871   1.660   4.238  12.879 -0.3313 -1.9545 -1.0715
 5803SOL    HW228872   1.784   4.204  12.817 -0.7580 -1.0949 -0.8015
 5804SOL     OW28873   3.353   3.847   3.113  0.3855 -0.1419  0.5387
 5804SOL    HW128874   3.442   3.880   3.123  1.2996 -2.7607  1.0985
 5804SOL    HW228875   3.367   3.773   3.053  0.9581  0.4028  0.0021
 5805SOL     OW28876   0.217   4.233   3.381  0.4195 -0.2822  0.0404
 5805SOL    HW128877   0.299   4.226   3.331  0.6185 -0.7494  0.4401
 5805SOL    HW228878   0.174   4.309   3.342  1.1573  0.5711  0.8634
 5806SOL     OW28879   0.721   1.613  12.274 -0.6100  0.5523  0.2620
 5806SOL    HW128880   0.767   1.529  12.264 -1.1520  0.2629  0.1849
 5806SOL    HW228881   0.670   1.600  12.354 -2.2569 -1.5244 -1.1413
 5807SOL     OW28882   2.820   4.156   2.166 -0.2210  0.3439  0.4169
 5807SOL    HW128883   2.886   4.087   2.171 -0.7612 -0.2383 -0.4719
 5807SOL    HW228884   2.821   4.200   2.251  0.7082 -0.2140  0.6983
 5808SOL     OW28885   2.041   3.431  16.423 -0.0740  0.1145  1.0283
 5808SOL    HW128886   2.110   3.476  16.470 -1.9584  1.7974  2.1829
 5808SOL    HW228887   2.065   3.441  16.330 -1.6965 -0.2058  0.5692
 5809SOL     OW28888   2.007   2.201   6.625 -0.0967 -0.0815  0.0632
 5809SOL    HW128889   2.005   2.214   6.530  0.0859  0.5802  0.1507
 5809SOL    HW228890   2.097   2.223   6.647 -0.3932  0.5835  0.6179
 5810SOL     OW28891   1.012   3.912  16.674  0.3470  0.1993 -0.4855
 5810SOL    HW128892   1.030   3.963  16.753  0.9817 -2.1420  0.8992
 5810SOL    HW228893   0.922   3.943  16.666  0.1093 -0.4716 -0.4666
 5811SOL     OW28894   3.726   3.334   3.483  0.4513  0.2141  0.0754
 5811SOL    HW128895   3.788   3.391   3.529 -0.4945  1.0363  0.3224
 5811SOL    HW228896   3.676   3.399   3.432 -1.4968 -1.6684 -0.4044
 5812SOL     OW28897   3.378   4.212  14.418  0.6964 -0.3972  0.1388
 5812SOL    HW128898   3.462   4.176  14.448  0.5964 -1.2586 -0.6557
 5812SOL    HW228899   3.396   4.304  14.441  1.5294 -0.7635  0.9503
 5813SOL     OW28900   2.353   4.478   5.240 -0.4669 -0.0624 -0.5546
 5813SOL    HW128901   2.419   4.469   5.309  0.1381 -0.3225 -1.1609
 5813SOL    HW228902   2.278   4.514   5.288 -0.4033  1.1399 -1.3515
 5814SOL     OW28903   3.936   0.621   8.152  0.0726  0.5923 -0.5304
 5814SOL    HW128904   4.013   0.579   8.192 -0.4796 -0.9861 -1.1177
 5814SOL    HW228905   3.927   0.583   8.065  0.3988  0.3236 -0.4489
 5815SOL     OW28906   3.838   2.596   2.912 -0.2457  0.1536 -0.3732
 5815SOL    HW128907   3.810   2.687   2.914  0.7448  0.4641 -0.4506
 5815SOL    HW228908   3.873   2.584   2.824  0.3546  1.6953 -0.3483
 5816SOL     OW28909   1.987   0.185   8.984 -0.2135  0.0603  0.1732
 5816SOL    HW128910   1.976   0.174   9.079 -0.4024  3.1047  0.5052
 5816SOL    HW228911   1.918   0.242   8.950  0.6526  0.1900 -1.3252
 5817SOL     OW28912   2.514   1.583   3.284 -0.2501 -0.1788  0.1806
 5817SOL    HW128913   2.532   1.543   3.199 -0.4369 -1.8425  0.9362
 5817SOL    HW228914   2.583   1.649   3.278 -1.3026  0.9346  0.3636
 5818SOL     OW28915   0.083   4.096   1.934 -0.1976 -0.1792  0.4090
 5818SOL    HW128916   0.016   4.162   1.918 -0.3466 -0.8565 -1.7030
 5818SOL    HW228917   0.154   4.129   1.880 -1.2351  1.9895  0.3874
 5819SOL     OW28918   4.291   3.747   6.611  0.2840 -0.5864 -0.0507
 5819SOL    HW128919   4.243   3.824   6.580 -1.0162 -0.9921  0.9667
 5819SOL    HW228920   4.382   3.764   6.587 -0.0811 -0.6043 -1.4461
 5820SOL     OW28921   1.585   0.604   2.357  0.0638  0.1904 -0.1349
 5820SOL    HW128922   1.659   0.652   2.320  0.3725 -1.9563 -2.3136
 5820SOL    HW228923   1.516   0.616   2.292 -2.4200 -1.1597  2.2564
 5821SOL     OW28924   3.414   2.009   1.392  0.3700  0.2691 -0.0653
 5821SOL    HW128925   3.480   1.951   1.354  1.0070  1.4104 -0.6996
 5821SOL    HW228926   3.463   2.088   1.413  1.3088 -0.3399  0.0344
 5822SOL     OW28927   1.401   3.990  14.738 -0.6174 -0.3116  0.2512
 5822SOL    HW128928   1.316   3.947  14.747  0.7875 -2.8919  1.2401
 5822SOL    HW228929   1.386   4.034  14.654 -1.5588  3.2009  2.2634
 5823SOL     OW28930   3.503   4.395   3.838 -0.1954 -0.8385  0.3242
 5823SOL    HW128931   3.454   4.416   3.758  3.3351  2.7280 -0.9142
 5823SOL    HW228932   3.589   4.434   3.823 -0.1248 -1.0115  0.2791
 5824SOL     OW28933   3.443   0.151   4.544 -0.0496  0.4852 -0.1243
 5824SOL    HW128934   3.412   0.163   4.454 -0.2251  0.0443 -0.1251
 5824SOL    HW228935   3.468   0.243   4.553  0.2834  0.3380  0.4320
 5825SOL     OW28936   3.181   3.126   8.507 -0.0600 -0.4030  0.0041
 5825SOL    HW128937   3.223   3.094   8.587  2.8968  1.0122 -0.9823
 5825SOL    HW228938   3.127   3.049   8.487 -0.6443 -1.0306  3.9051
 5826SOL     OW28939   0.342   2.464   5.653 -0.0525  0.0954 -0.8680
 5826SOL    HW128940   0.405   2.427   5.592  0.3858  1.7433 -1.4066
 5826SOL    HW228941   0.274   2.396   5.648 -0.4567  0.4118  0.2102
 5827SOL     OW28942   0.267   1.707   5.751  0.3514 -0.1503 -0.4937
 5827SOL    HW128943   0.248   1.801   5.751 -0.2810 -0.2836  0.7604
 5827SOL    HW228944   0.362   1.708   5.765  0.3552  1.2997 -0.6166
 5828SOL     OW28945   2.310   3.773   6.728 -0.5642  0.0659  0.2033
 5828SOL    HW128946   2.287   3.712   6.659 -0.1807  2.3064 -1.9172
 5828SOL    HW228947   2.356   3.713   6.786  1.2876  0.8968 -0.3982
 5829SOL     OW28948   1.340   4.408   7.437 -0.2498 -0.0069 -0.6550
 5829SOL    HW128949   1.402   4.464   7.485  0.0578 -1.9420  1.2317
 5829SOL    HW228950   1.266   4.467   7.453  1.0801  1.1950  1.1277
 5830SOL     OW28951   0.164   3.388   4.966  0.2934 -0.0395  0.7845
 5830SOL    HW128952   0.102   3.332   5.013  0.8319 -0.3907  1.0731
 5830SOL    HW228953   0.228   3.396   5.036  0.9498  1.1320  0.0597
 5831SOL     OW28954   4.626   3.571   4.623  0.7454  0.2825 -0.3402
 5831SOL    HW128955   4.532   3.550   4.629  0.3408  2.1464 -0.3655
 5831SOL    HW228956   4.633   3.591   4.529 -2.9546  2.0955 -0.2545
 5832SOL     OW28957   3.489   3.241  13.936  0.2156 -0.3378  0.0179
 5832SOL    HW128958   3.561   3.298  13.910 -0.0149  0.0828  0.3093
 5832SOL    HW228959   3.536   3.157  13.940  2.0978  0.7411  0.4751
 5833SOL     OW28960   1.929   4.546   2.881 -0.5061 -0.4749  0.6394
 5833SOL    HW128961   1.950   4.624   2.830  0.6241 -2.0980 -1.3455
 5833SOL    HW228962   2.017   4.510   2.869 -0.5400 -0.2506 -0.2807
 5834SOL     OW28963   2.771   0.109   5.568  0.1822  0.0364 -0.0957
 5834SOL    HW128964   2.779   0.144   5.657 -1.5454  4.8347 -1.8214
 5834SOL    HW228965   2.849   0.137   5.519  1.2809  1.8366  2.6956
 5835SOL     OW28966   3.100   3.160   7.931  0.7755  0.4358  0.1057
 5835SOL    HW128967   3.066   3.076   7.962  1.5532 -0.7564 -2.2765
 5835SOL    HW228968   3.029   3.179   7.870 -0.5995 -0.1203  1.5376
 5836SOL     OW28969   1.503   0.031   1.520  0.0742 -0.3933 -0.6624
 5836SOL    HW128970   1.555   0.109   1.501  0.3352 -0.1810  0.9299
 5836SOL    HW228971   1.501   4.709   1.437 -1.2806  0.1308 -0.9218
 5837SOL     OW28972   0.764   0.754  16.513  0.1133  0.2989  0.2210
 5837SOL    HW128973   0.828   0.823  16.534 -2.2549  2.3272  0.8342
 5837SOL    HW228974   0.686   0.792  16.554 -1.3854 -2.0728 -0.4670
 5838SOL     OW28975   3.294   4.014   4.835 -0.3260 -0.2298 -0.5983
 5838SOL    HW128976   3.353   4.072   4.788 -0.6418  0.6645  0.1050
 5838SOL    HW228977   3.339   3.930   4.832 -2.2014 -1.2810  0.2061
 5839SOL     OW28978   0.163   2.715  16.862  0.2266 -0.0576 -0.1086
 5839SOL    HW128979   0.209   2.717  16.778  0.9637 -3.3186  0.2319
 5839SOL    HW228980   0.080   2.676  16.837 -0.8266  3.2581 -1.8179
 5840SOL     OW28981   2.855   2.289  15.385 -0.6279  0.0234 -0.1365
 5840SOL    HW128982   2.834   2.225  15.453  3.1996 -1.5054 -0.3888
 5840SOL    HW228983   2.940   2.254  15.360  0.1037  1.2426  0.6085
 5841SOL     OW28984   1.673   0.771   3.476 -0.0860 -0.1319  0.1649
 5841SOL    HW128985   1.616   0.785   3.400 -0.0255 -0.0213  0.1401
 5841SOL    HW228986   1.651   0.680   3.497 -2.5229  0.4937  0.4027
 5842SOL     OW28987   1.787   2.533  10.568 -0.3440 -0.3889 -0.1899
 5842SOL    HW128988   1.790   2.618  10.610  0.3309 -0.6159  0.2079
 5842SOL    HW228989   1.695   2.515  10.590  0.0236 -3.0429 -0.8147
 5843SOL     OW28990   1.286   1.356  16.599  0.4857  0.1399 -0.1220
 5843SOL    HW128991   1.234   1.366  16.679 -0.0545  1.8678 -0.6767
 5843SOL    HW228992   1.285   1.260  16.600 -0.4777  0.1321 -1.1910
 5844SOL     OW28993   3.709   1.353   8.008 -0.5433  0.5962 -0.4025
 5844SOL    HW128994   3.721   1.342   8.102  0.3689  0.1449 -0.5775
 5844SOL    HW228995   3.621   1.316   8.002 -1.7929  3.3774  0.8997
 5845SOL     OW28996   2.692   2.237   5.275 -0.6113  0.0910  0.1608
 5845SOL    HW128997   2.643   2.251   5.356 -1.9849 -2.4980 -0.2322
 5845SOL    HW228998   2.632   2.188   5.219  2.8427 -1.6991 -1.9720
 5846SOL     OW28999   3.959   2.329   7.253  0.0368 -0.9733 -0.5885
 5846SOL    HW129000   4.038   2.382   7.265  0.2557 -1.0701 -1.6093
 5846SOL    HW229001   3.988   2.275   7.180 -0.2939 -1.3069 -0.4738
 5847SOL     OW29002   1.935   3.546   3.490  0.1062  0.1653 -0.1200
 5847SOL    HW129003   1.864   3.510   3.544 -0.4087  0.7369 -0.4146
 5847SOL    HW229004   2.001   3.568   3.556 -0.9521  0.0604  0.9800
 5848SOL     OW29005   2.498   2.290  13.954 -0.4257  0.1253 -0.2759
 5848SOL    HW129006   2.520   2.325  13.868 -0.2016 -1.7194 -0.9709
 5848SOL    HW229007   2.449   2.211  13.929 -0.2656  0.3029 -1.1753
 5849SOL     OW29008   2.665   4.644   0.925  0.2628 -0.1275 -0.0657
 5849SOL    HW129009   2.739   4.705   0.924  0.9711 -0.9676  0.3553
 5849SOL    HW229010   2.651   4.631   1.018 -0.0411 -1.0248 -0.2303
 5850SOL     OW29011   1.012   0.053   4.243  0.3857 -0.3563  0.2908
 5850SOL    HW129012   1.104   0.074   4.262  0.4404  0.3250 -0.7065
 5850SOL    HW229013   0.959   0.130   4.266 -1.2781 -0.8465 -1.9208
 5851SOL     OW29014   4.409   3.213   5.051  0.1564  0.0517  0.2148
 5851SOL    HW129015   4.416   3.130   5.003 -1.6290 -1.4967  2.6463
 5851SOL    HW229016   4.359   3.267   4.990 -0.4621 -2.2541 -1.3094
 5852SOL     OW29017   4.597   0.079   5.464  0.4455  0.2676 -0.0506
 5852SOL    HW129018   4.509   0.117   5.460  1.0006  1.6454  0.8504
 5852SOL    HW229019   4.594   0.015   5.535 -2.0905  2.7518  2.0781
 5853SOL     OW29020   1.136   3.917  10.197  0.2052 -0.6262  0.6847
 5853SOL    HW129021   1.101   3.866  10.269 -0.5353 -0.2006  0.6267
 5853SOL    HW229022   1.230   3.920  10.217  0.4531 -0.2855 -0.5186
 5854SOL     OW29023   1.780   3.637   0.690  0.3294  0.3840 -0.1020
 5854SOL    HW129024   1.787   3.693   0.767 -3.2783  1.8121 -0.8053
 5854SOL    HW229025   1.744   3.697   0.624 -0.2765  0.2419  0.0961
 5855SOL     OW29026   3.764   3.254   7.869 -0.3660 -0.1669  0.4776
 5855SOL    HW129027   3.726   3.312   7.803  0.4706  0.7426  0.7963
 5855SOL    HW229028   3.691   3.253   7.931  0.1206  2.6494  1.0806
 5856SOL     OW29029   2.112   1.253   4.937 -0.3417  0.2369 -1.0215
 5856SOL    HW129030   2.163   1.186   4.982  0.2705  0.7622 -0.9323
 5856SOL    HW229031   2.032   1.206   4.916  0.4754 -0.3189 -2.8166
 5857SOL     OW29032   2.173   4.017   7.264 -0.7682 -0.2641  0.2941
 5857SOL    HW129033   2.157   4.110   7.252  2.0742  0.1651 -0.1359
 5857SOL    HW229034   2.113   3.979   7.201 -0.7238 -2.0827  1.3383
 5858SOL     OW29035   2.465   3.758   2.035 -0.2413  0.0580 -1.0859
 5858SOL    HW129036   2.484   3.850   2.051  3.0864 -0.5891 -1.3296
 5858SOL    HW229037   2.541   3.720   1.990  1.0176  0.0209  1.0442
 5859SOL     OW29038   4.250   3.935  13.598  0.8176 -0.5473  0.4688
 5859SOL    HW129039   4.177   3.949  13.537  0.0383 -2.6864  0.9138
 5859SOL    HW229040   4.226   4.005  13.658 -0.0530  0.6929 -1.3442
 5860SOL     OW29041   2.958   1.539   7.416 -0.0026 -0.2792 -0.4047
 5860SOL    HW129042   3.016   1.615   7.427  0.3321 -0.5169 -0.5491
 5860SOL    HW229043   2.890   1.567   7.355 -0.7535 -0.7649  0.2160
 5861SOL     OW29044   3.166   3.956  16.615 -0.1195  0.3207 -0.4293
 5861SOL    HW129045   3.189   4.041  16.653  0.8285  0.2346 -0.8169
 5861SOL    HW229046   3.074   3.967  16.638  0.9313  1.7109  3.0150
 5862SOL     OW29047   1.603   3.774   7.096 -0.6372  0.1835 -0.2820
 5862SOL    HW129048   1.588   3.689   7.138  2.5456 -0.6266 -0.7523
 5862SOL    HW229049   1.515   3.810   7.094 -1.3109 -1.2567  3.2900
 5863SOL     OW29050   1.093   2.956   5.810  0.1015 -0.1464 -0.3811
 5863SOL    HW129051   1.018   2.898   5.797 -0.2520  0.0311  0.8504
 5863SOL    HW229052   1.139   2.946   5.727  0.8582  0.2065  0.0015
 5864SOL     OW29053   0.594   3.346   7.040  0.2561 -0.6837  0.2502
 5864SOL    HW129054   0.671   3.387   6.999 -1.5073  1.5658 -0.8303
 5864SOL    HW229055   0.534   3.346   6.966  0.7736  0.8625 -0.1868
 5865SOL     OW29056   4.538   0.027   6.129  0.1959 -0.1691  0.0107
 5865SOL    HW129057   4.540   0.042   6.223 -2.2143  1.0645 -0.1503
 5865SOL    HW229058   4.589   0.104   6.101  0.9149 -0.4439  0.5563
 5866SOL     OW29059   0.408   4.566   6.451 -0.1226  0.2992  0.1115
 5866SOL    HW129060   0.349   4.502   6.490  0.1266  0.1207  0.1971
 5866SOL    HW229061   0.347   4.630   6.413  0.3286  0.6201 -0.0715
 5867SOL     OW29062   1.381   2.033   2.107 -0.1601 -0.0368 -0.0781
 5867SOL    HW129063   1.398   2.127   2.101 -0.9458  0.3336  3.2167
 5867SOL    HW229064   1.447   1.990   2.053  0.3494 -0.3499  0.8061
 5868SOL     OW29065   2.335   2.594   9.075 -0.2890 -0.5904  0.5991
 5868SOL    HW129066   2.250   2.619   9.109  0.7718 -0.4443  3.1275
 5868SOL    HW229067   2.379   2.570   9.156 -0.8176  0.2821  1.1413
 5869SOL     OW29068   1.527   3.708   1.668 -0.2627  0.0161  0.3105
 5869SOL    HW129069   1.554   3.791   1.630  1.7560  0.5336  2.8418
 5869SOL    HW229070   1.443   3.731   1.708 -0.7954  1.0451 -1.4307
 5870SOL     OW29071   4.572   3.935   7.072  0.2559 -0.4122  0.1626
 5870SOL    HW129072   4.583   4.029   7.086 -1.1434 -0.3966  1.1776
 5870SOL    HW229073   4.541   3.903   7.157 -0.1702  2.4915  1.0905
 5871SOL     OW29074   2.315   2.655   3.857  0.5592 -0.4120  0.2442
 5871SOL    HW129075   2.278   2.742   3.845 -2.6109 -1.4592  2.5139
 5871SOL    HW229076   2.396   2.666   3.808  0.0569 -1.2171 -0.7969
 5872SOL     OW29077   2.636   3.002  12.050 -0.5719 -0.2920 -0.1114
 5872SOL    HW129078   2.607   2.958  11.970 -1.3964 -0.1648  0.1189
 5872SOL    HW229079   2.573   3.074  12.054  0.0277  0.2323 -0.0697
 5873SOL     OW29080   0.941   4.434   8.493  0.3531  0.3205  0.3850
 5873SOL    HW129081   0.977   4.474   8.413  0.4758 -0.0358  0.2588
 5873SOL    HW229082   0.848   4.446   8.478  0.6880 -1.2896 -2.9086
 5874SOL     OW29083   2.164   1.834   0.622 -0.4192  0.1297  0.0734
 5874SOL    HW129084   2.188   1.830   0.529 -2.4513  1.9179 -0.5260
 5874SOL    HW229085   2.172   1.925   0.650  0.1796  0.4330 -1.0711
 5875SOL     OW29086   2.499   0.020   1.954  0.3500 -0.7505  0.5898
 5875SOL    HW129087   2.406   0.032   1.974  0.3230  1.7447 -0.9817
 5875SOL    HW229088   2.491   0.027   1.859 -0.3293  1.7139  0.8086
 5876SOL     OW29089   0.534   1.629   6.256  1.0352 -0.5183 -0.2419
 5876SOL    HW129090   0.590   1.566   6.210  0.8489 -1.3785  0.7075
 5876SOL    HW229091   0.466   1.573   6.294 -0.0500  2.9761  2.8930
 5877SOL     OW29092   2.868   4.247   8.296  0.0892  0.4018 -0.3691
 5877SOL    HW129093   2.809   4.284   8.230 -0.8346  0.4972  0.5103
 5877SOL    HW229094   2.947   4.242   8.243  0.8101 -1.7941  0.8983
 5878SOL     OW29095   0.121   3.031  11.751  0.2646 -0.1576 -0.4154
 5878SOL    HW129096   0.102   2.983  11.670 -2.6550  1.4956 -0.7151
 5878SOL    HW229097   0.189   3.089  11.717  0.7321  0.3269  1.3243
 5879SOL     OW29098   4.338   1.670  17.689 -0.3691 -0.0177  0.9397
 5879SOL    HW129099   4.424   1.680  17.649  0.2621  0.4137  2.3892
 5879SOL    HW229100   4.292   1.743  17.648 -0.0910  0.4145  1.3994
 5880SOL     OW29101   4.461   4.711   3.070  0.1145  0.2175  0.0809
 5880SOL    HW129102   4.473   0.077   3.096  0.7182  0.7543 -2.0880
 5880SOL    HW229103   4.377   4.696   3.113 -0.7893  2.0047 -1.0395
 5881SOL     OW29104   1.233   0.428  14.642 -0.0688 -0.0221  0.0249
 5881SOL    HW129105   1.185   0.400  14.564  2.5180 -2.4564 -0.7325
 5881SOL    HW229106   1.316   0.461  14.608  0.1943 -1.0949 -0.3931
 5882SOL     OW29107   4.012   4.673  10.741 -0.4222  0.3016  0.5774
 5882SOL    HW129108   4.082   4.628  10.694 -0.8930 -0.8039  0.9359
 5882SOL    HW229109   3.948   4.698  10.674 -0.3550 -1.5370 -0.1756
 5883SOL     OW29110   2.803   3.386  17.065 -0.1858 -0.0892  0.6430
 5883SOL    HW129111   2.847   3.347  16.990 -0.9977 -0.0935  0.1695
 5883SOL    HW229112   2.726   3.332  17.078 -0.8852  0.7605  0.0359
 5884SOL     OW29113   3.866   1.803   8.821  0.7038 -0.1658 -0.3899
 5884SOL    HW129114   3.895   1.727   8.871  1.2377  0.6480  0.5507
 5884SOL    HW229115   3.920   1.781   8.744 -0.7548  1.1304 -1.7975
 5885SOL     OW29116   1.643   2.195   8.949  0.2665 -0.0971 -0.1948
 5885SOL    HW129117   1.731   2.213   8.984 -0.2822 -0.4151  1.3248
 5885SOL    HW229118   1.659   2.101   8.939 -1.7969 -0.5851  1.1594
 5886SOL     OW29119   3.018   4.377  11.992  0.6222  0.4038 -0.0937
 5886SOL    HW129120   3.065   4.323  12.056 -0.7989 -1.1114 -0.3265
 5886SOL    HW229121   3.070   4.456  12.002 -1.6713  2.0988 -1.5207
 5887SOL     OW29122   2.752   3.106   9.232  0.5614 -0.4273  0.0133
 5887SOL    HW129123   2.730   3.103   9.325  0.3581  2.0910  0.0643
 5887SOL    HW229124   2.767   3.013   9.216  2.1965 -0.5778  2.4897
 5888SOL     OW29125   4.107   1.017   5.920 -0.1145  0.0601 -0.1297
 5888SOL    HW129126   4.093   1.048   5.831  0.6134 -0.3754 -0.3900
 5888SOL    HW229127   4.132   0.927   5.901 -0.6393 -0.4346  1.4519
 5889SOL     OW29128   0.745   0.789  15.525 -0.3572 -0.9260  0.5422
 5889SOL    HW129129   0.681   0.840  15.475 -1.6037 -1.2657  1.7891
 5889SOL    HW229130   0.709   0.701  15.533 -0.3487 -1.1187 -1.6089
 5890SOL     OW29131   2.608   1.523   5.865 -0.0288 -0.6662 -0.0183
 5890SOL    HW129132   2.527   1.552   5.825  1.0130  1.0240 -0.9100
 5890SOL    HW229133   2.680   1.569   5.823 -0.9911  2.6160  1.9602
 5891SOL     OW29134   4.560   1.224   1.738 -0.2626  0.3199 -0.1574
 5891SOL    HW129135   4.542   1.133   1.764 -0.6729  0.2966 -0.5267
 5891SOL    HW229136   4.655   1.234   1.740 -0.1751 -0.4707 -0.3565
 5892SOL     OW29137   0.450   0.385   2.455 -0.1116  0.1041 -0.3283
 5892SOL    HW129138   0.403   0.342   2.384 -0.4729  1.3055 -0.8189
 5892SOL    HW229139   0.462   0.470   2.411 -1.7469  1.0800  1.0775
 5893SOL     OW29140   4.507   1.295   8.812 -0.7580  0.6112 -0.3980
 5893SOL    HW129141   4.536   1.223   8.868  0.8209  2.1072  0.6967
 5893SOL    HW229142   4.415   1.304   8.836 -0.5220 -2.2639  1.5478
 5894SOL     OW29143   1.538   3.061   8.881 -0.2280  0.3801 -0.0840
 5894SOL    HW129144   1.624   3.029   8.911 -0.9047 -0.8569  0.5570
 5894SOL    HW229145   1.487   2.980   8.875 -2.0662  1.5263  0.2041
 5895SOL     OW29146   4.477   0.297   8.133 -0.1934 -0.4669  0.1075
 5895SOL    HW129147   4.491   0.214   8.088 -0.3529 -0.9188  0.8865
 5895SOL    HW229148   4.513   0.361   8.072 -0.0662 -0.0170  0.6474
 5896SOL     OW29149   4.175   0.425   7.193  0.4202  0.1043  0.4558
 5896SOL    HW129150   4.128   0.342   7.205 -0.2892  0.3741 -0.4971
 5896SOL    HW229151   4.106   0.486   7.168 -0.0754 -0.5579  0.2037
 5897SOL     OW29152   1.411   1.060   9.023  0.1360  0.1764 -0.1163
 5897SOL    HW129153   1.454   1.027   9.102 -0.0473 -0.5642 -0.3236
 5897SOL    HW229154   1.486   1.086   8.970 -0.6239 -0.1909 -1.3862
 5898SOL     OW29155   2.282   0.626   7.828 -0.1750  0.4142 -0.2065
 5898SOL    HW129156   2.362   0.593   7.785 -1.9900 -3.2577 -0.7631
 5898SOL    HW229157   2.267   0.710   7.786 -3.7284 -0.1758 -0.1319
 5899SOL     OW29158   0.335   0.878   2.235 -0.9293  0.0228  0.1077
 5899SOL    HW129159   0.352   0.819   2.161  1.4069  0.2697  0.4427
 5899SOL    HW229160   0.278   0.826   2.291  0.2387 -1.4061 -0.0314
 5900SOL     OW29161   0.327   1.344   3.412  0.9031 -0.0140  0.0852
 5900SOL    HW129162   0.265   1.416   3.409  2.5121  1.2530 -2.5673
 5900SOL    HW229163   0.408   1.383   3.379  0.3723  1.9543  1.1592
 5901SOL     OW29164   2.010   0.850  12.808 -0.1940 -0.4354  0.3868
 5901SOL    HW129165   2.017   0.831  12.901  1.8934  2.1363  0.7291
 5901SOL    HW229166   2.095   0.892  12.801 -1.1478  1.4416 -0.0337
 5902SOL     OW29167   4.275   3.264   9.965  0.1996  0.0429  0.2663
 5902SOL    HW129168   4.299   3.184  10.010  2.1608  0.6030  0.2084
 5902SOL    HW229169   4.333   3.319  10.018  1.9031 -2.1523  0.6597
 5903SOL     OW29170   0.177   3.725   8.071 -0.1902  0.0352 -0.2509
 5903SOL    HW129171   0.131   3.656   8.023 -0.3772 -0.3754  0.5274
 5903SOL    HW229172   0.235   3.763   8.005 -0.4693  1.0356  0.0822
 5904SOL     OW29173   1.022   1.502  10.687  0.6499  0.8933  0.1811
 5904SOL    HW129174   1.039   1.528  10.778 -0.2459 -1.5463  1.0461
 5904SOL    HW229175   1.019   1.589  10.647 -0.5290  1.0959  0.7272
 5905SOL     OW29176   1.997   4.006   4.823  0.1929 -0.4382  0.5104
 5905SOL    HW129177   2.071   4.067   4.826  1.7931 -2.4267  1.4617
 5905SOL    HW229178   1.961   4.008   4.735 -0.5902  0.6054  0.8533
 5906SOL     OW29179   1.552   1.629   0.159 -0.2955 -0.0158  0.3986
 5906SOL    HW129180   1.646   1.617   0.171 -0.1402 -1.5655 -2.3490
 5906SOL    HW229181   1.522   1.550   0.113  0.8375 -0.7516  0.9426
 5907SOL     OW29182   3.906   4.056   4.371 -0.2903  0.2924 -0.0756
 5907SOL    HW129183   3.994   4.040   4.337 -0.0405  1.5418  0.0035
 5907SOL    HW229184   3.884   4.142   4.337 -0.3472  0.3077 -0.0016
 5908SOL     OW29185   4.678   2.812   4.490  0.0420 -0.5190  0.6200
 5908SOL    HW129186   4.611   2.864   4.446  2.2042  3.1900  1.7657
 5908SOL    HW229187   4.627   2.786   4.568  1.5410 -2.9064  0.8116
 5909SOL     OW29188   0.569   4.560   0.159 -0.1205 -0.3138  0.0655
 5909SOL    HW129189   0.650   4.563   0.210 -2.2831  0.2002  3.4467
 5909SOL    HW229190   0.615   4.594   0.082 -1.6416  2.1587  0.2507
 5910SOL     OW29191   1.168   4.600   7.570 -0.1366 -0.4801 -0.4640
 5910SOL    HW129192   1.083   4.642   7.584  0.4597  0.9962 -1.2820
 5910SOL    HW229193   1.222   4.679   7.565 -2.7349  1.4680  2.0974
 5911SOL     OW29194   2.655   3.682   8.105  0.6792  0.7656 -0.2711
 5911SOL    HW129195   2.734   3.734   8.121  1.0794  0.3387 -0.8729
 5911SOL    HW229196   2.585   3.730   8.150 -0.7536 -3.0096  1.4906
 5912SOL     OW29197   1.267   0.365   3.155 -1.1084 -0.2369  0.3414
 5912SOL    HW129198   1.263   0.347   3.061  0.9215  1.8280 -0.1315
 5912SOL    HW229199   1.242   0.286   3.203 -0.2831  0.4359  1.8553
 5913SOL     OW29200   3.678   0.782   7.329 -0.1624  0.5663 -0.0242
 5913SOL    HW129201   3.773   0.789   7.319 -0.1868 -2.0162 -1.9029
 5913SOL    HW229202   3.658   0.749   7.241 -0.7411  0.7314  0.0480
 5914SOL     OW29203   0.440   3.402   5.895 -0.1810 -0.5711  0.0904
 5914SOL    HW129204   0.465   3.441   5.811  0.2150  2.2098  1.4884
 5914SOL    HW229205   0.366   3.347   5.870  0.3002 -1.3892  0.4521
 5915SOL     OW29206   4.410   1.854   3.079  0.2943 -0.2486 -0.1283
 5915SOL    HW129207   4.319   1.882   3.076  0.2618 -0.0893  2.2553
 5915SOL    HW229208   4.408   1.793   3.153 -1.4960  0.9917  0.8425
 5916SOL     OW29209   3.425   4.272  13.490  0.1792 -0.0888  0.1432
 5916SOL    HW129210   3.345   4.248  13.443  0.1326 -0.6227  0.4880
 5916SOL    HW229211   3.473   4.334  13.436 -0.9957 -0.4680 -1.3565
 5917SOL     OW29212   2.939   3.463   8.003  0.2569 -0.0873 -0.0831
 5917SOL    HW129213   2.909   3.472   8.094 -0.4933 -3.0286 -0.0511
 5917SOL    HW229214   2.899   3.383   7.970  1.3348 -0.2339 -1.0319
 5918SOL     OW29215   1.920   0.424   3.069  0.0650  0.0300 -0.2225
 5918SOL    HW129216   1.921   0.448   2.976  1.2319 -1.8141 -0.6960
 5918SOL    HW229217   1.880   0.337   3.073  2.3012 -1.0095 -0.2385
 5919SOL     OW29218   3.411   4.117   3.894 -0.9686  0.0520 -0.2376
 5919SOL    HW129219   3.486   4.149   3.845  0.3980  1.5519  2.8782
 5919SOL    HW229220   3.438   4.127   3.985 -0.4179  0.6423 -0.4743
 5920SOL     OW29221   0.407   2.917   9.382 -0.0383  0.0533  0.0826
 5920SOL    HW129222   0.451   2.992   9.423 -2.5902  0.5241  1.9831
 5920SOL    HW229223   0.338   2.900   9.446  0.1628  1.5446  0.6888
 5921SOL     OW29224   2.703   2.943  11.446  0.3074  0.2268  0.7421
 5921SOL    HW129225   2.767   2.994  11.396  0.2287 -0.4152 -0.0114
 5921SOL    HW229226   2.722   2.971  11.536 -1.1063  0.0202  1.1104
 5922SOL     OW29227   0.497   3.024   6.500 -0.1249  0.3697 -0.1872
 5922SOL    HW129228   0.535   3.102   6.540  0.7394 -0.7469  1.1888
 5922SOL    HW229229   0.561   3.002   6.432  1.8559  0.6846  1.5780
 5923SOL     OW29230   4.110   3.306   8.939 -0.6782 -1.0828  0.3632
 5923SOL    HW129231   4.150   3.366   8.876  1.9344 -1.4306  1.7145
 5923SOL    HW229232   4.022   3.343   8.933  0.6889  1.6856 -2.8227
 5924SOL     OW29233   2.388   0.308   4.413  0.0514  0.1037 -0.4233
 5924SOL    HW129234   2.341   0.378   4.458 -1.3536 -0.1298 -1.5423
 5924SOL    HW229235   2.343   0.292   4.330  0.7019 -0.3903 -0.6804
 5925SOL     OW29236   1.909   1.360   1.340  0.0116 -0.7138  0.0766
 5925SOL    HW129237   1.832   1.406   1.308  1.7873  0.3823 -2.6751
 5925SOL    HW229238   1.945   1.414   1.410  1.6558  0.0920 -1.3760
 5926SOL     OW29239   0.428   0.226   7.699 -0.5619 -0.5214  0.0410
 5926SOL    HW129240   0.454   0.314   7.727  2.6097 -0.6183 -2.6454
 5926SOL    HW229241   0.360   0.209   7.765  0.7037 -0.4733  1.3715
 5927SOL     OW29242   3.543   2.494   6.376  0.4252 -0.1299  0.0134
 5927SOL    HW129243   3.483   2.441   6.429  0.6170 -1.4735 -1.1026
 5927SOL    HW229244   3.624   2.444   6.388  0.2704 -0.4918 -0.4416
 5928SOL     OW29245   3.896   3.565   9.723  0.0298  0.0108  0.3453
 5928SOL    HW129246   3.896   3.470   9.713  1.1667 -0.0927  1.1974
 5928SOL    HW229247   3.988   3.574   9.748  0.1750  3.0642 -1.3140
 5929SOL     OW29248   0.086   0.756   3.612 -0.8449  0.0817 -0.3742
 5929SOL    HW129249   0.182   0.754   3.621 -0.8617  1.1033  0.0225
 5929SOL    HW229250   0.081   0.709   3.529  0.7769 -0.3230 -0.2471
 5930SOL     OW29251   4.668   3.966  14.562  1.3138  0.1329 -0.3759
 5930SOL    HW129252   4.606   3.991  14.494 -0.7756  0.1986  1.5511
 5930SOL    HW229253   4.702   4.049  14.595 -2.4836  1.7007 -0.3953
 5931SOL     OW29254   4.507   4.408   4.546 -0.3201 -0.3882  0.0755
 5931SOL    HW129255   4.465   4.346   4.486 -1.4326  0.8198 -0.3885
 5931SOL    HW229256   4.450   4.485   4.552 -0.1594 -0.1381 -1.5550
 5932SOL     OW29257   2.633   0.455   5.526 -0.0469  0.0086  0.0266
 5932SOL    HW129258   2.689   0.413   5.460  1.6907  0.8356  0.9720
 5932SOL    HW229259   2.548   0.420   5.500  1.8513 -2.5836 -2.7051
 5933SOL     OW29260   1.702   3.265  10.864 -0.3778  0.3390  0.8621
 5933SOL    HW129261   1.636   3.335  10.861  0.5728  1.2709  1.9743
 5933SOL    HW229262   1.732   3.271  10.954  1.4434  2.1237  0.1523
 5934SOL     OW29263   0.976   0.921  15.643 -0.3238 -0.2739 -0.2982
 5934SOL    HW129264   1.018   0.965  15.570  1.1832  0.1084  0.7854
 5934SOL    HW229265   0.913   0.860  15.605  0.4757  0.2841 -2.5008
 5935SOL     OW29266   4.486   3.291   1.887 -0.2330  0.0550  0.2458
 5935SOL    HW129267   4.440   3.306   1.970 -1.4096  0.3809 -0.4779
 5935SOL    HW229268   4.581   3.290   1.904 -0.3231 -0.1979  0.7222
 5936SOL     OW29269   1.875   1.058   1.411 -0.1544 -0.8455  0.4524
 5936SOL    HW129270   1.855   1.152   1.405 -2.7913 -1.4805 -0.5365
 5936SOL    HW229271   1.826   1.029   1.335 -0.7977  1.1929  0.0918
 5937SOL     OW29272   0.439   1.108   4.258 -0.1313 -0.8656 -0.1947
 5937SOL    HW129273   0.456   1.153   4.176  2.7103 -0.5942  0.5559
 5937SOL    HW229274   0.351   1.072   4.246 -0.1393 -1.3170  1.1899
 5938SOL     OW29275   0.805   2.926   3.976 -0.5902 -0.5728 -0.3054
 5938SOL    HW129276   0.892   2.964   3.986 -1.6954  1.9572 -0.3585
 5938SOL    HW229277   0.797   2.888   4.063 -0.9239 -2.7971 -1.2985
 5939SOL     OW29278   1.370   1.650   5.683  0.4001  0.6418  0.1410
 5939SOL    HW129279   1.287   1.650   5.635  1.1911 -2.2128 -1.2254
 5939SOL    HW229280   1.337   1.648   5.773  0.7464  0.1581  0.2546
 5940SOL     OW29281   4.520   0.669   4.123 -0.4202 -0.4150  0.0433
 5940SOL    HW129282   4.576   0.747   4.117  0.5182 -1.0036  1.0326
 5940SOL    HW229283   4.501   0.654   4.030  1.1057  0.5173 -0.4194
 5941SOL     OW29284   0.316   2.065  10.739 -0.5593  1.0606 -0.1562
 5941SOL    HW129285   0.335   2.023  10.655 -1.1637  2.0596 -0.8007
 5941SOL    HW229286   0.395   2.114  10.759  1.8136 -3.5857  1.8100
 5942SOL     OW29287   2.306   3.453   1.377 -0.1768 -0.0716  0.1125
 5942SOL    HW129288   2.233   3.502   1.339 -1.4753 -2.8713 -1.0495
 5942SOL    HW229289   2.386   3.486   1.336 -0.3730  1.8802  1.3196
 5943SOL     OW29290   2.251   4.691  11.398  0.1335 -0.8007  0.1189
 5943SOL    HW129291   2.240   4.622  11.464 -1.6736 -0.8628 -0.2642
 5943SOL    HW229292   2.186   4.659  11.336  0.4172 -3.9028  1.4066
 5944SOL     OW29293   0.099   2.080  11.229 -0.1366  0.1040 -0.0494
 5944SOL    HW129294   0.155   2.157  11.232  2.3145 -1.8580  3.4615
 5944SOL    HW229295   0.058   2.083  11.316  2.8220 -2.3870  1.3956
 5945SOL     OW29296   3.775   3.730  10.112 -0.9050  0.2860 -0.0773
 5945SOL    HW129297   3.862   3.770  10.103 -0.4502 -0.9920 -1.2930
 5945SOL    HW229298   3.764   3.729  10.207  2.8231 -0.2838  0.3659
 5946SOL     OW29299   4.283   4.087  10.255  0.1436 -0.0933  0.0563
 5946SOL    HW129300   4.222   4.048  10.318 -0.3044  0.7375  0.1303
 5946SOL    HW229301   4.370   4.048  10.257  1.1735  2.2924  0.6403
 5947SOL     OW29302   0.136   3.987   0.001  0.0907 -0.3863 -0.2082
 5947SOL    HW129303   0.194   3.911  17.693 -1.3961 -1.3835 -1.4736
 5947SOL    HW229304   0.094   3.981   0.087 -1.5641 -0.2847 -1.0128
 5948SOL     OW29305   3.898   1.810   5.938  0.3768 -0.0826  0.3147
 5948SOL    HW129306   3.917   1.718   5.957 -0.2553 -0.2777  0.0113
 5948SOL    HW229307   3.968   1.854   5.985 -0.4430 -0.2727  1.6991
 5949SOL     OW29308   2.546   1.833   5.801  0.5613  0.7012 -0.2869
 5949SOL    HW129309   2.509   1.836   5.713  0.0859  0.2704 -0.1013
 5949SOL    HW229310   2.638   1.806   5.794  1.2745  2.2866  2.7556
 5950SOL     OW29311   1.175   4.035   8.826  0.0922  0.1113  0.4331
 5950SOL    HW129312   1.083   4.043   8.805 -0.0048 -0.6158  0.5836
 5950SOL    HW229313   1.195   4.113   8.879 -0.6806  1.8577 -1.8830
 5951SOL     OW29314   3.091   4.060   3.296  0.2184  0.3045 -0.5245
 5951SOL    HW129315   3.005   4.068   3.337  0.1948  1.5116 -0.8296
 5951SOL    HW229316   3.123   4.149   3.308 -0.8242  0.7471 -1.1068
 5952SOL     OW29317   2.100   2.268   5.124  0.4217  0.1789  0.0889
 5952SOL    HW129318   2.093   2.357   5.157  2.2948  0.5107 -0.4121
 5952SOL    HW229319   2.026   2.264   5.064 -0.9824  1.7584  1.7004
 5953SOL     OW29320   3.683   0.173   4.769 -0.2046 -0.3840 -0.1544
 5953SOL    HW129321   3.721   0.260   4.761 -0.8838  0.0944  1.6899
 5953SOL    HW229322   3.665   0.144   4.680 -0.7113  0.5182 -0.3444
 5954SOL     OW29323   1.125   2.164   5.599  0.3008  0.5732 -0.2799
 5954SOL    HW129324   1.195   2.220   5.567  0.3802  0.5086 -0.2212
 5954SOL    HW229325   1.138   2.095   5.534  1.6010  0.7631 -0.2109
 5955SOL     OW29326   3.330   0.325  13.628  0.4570  0.0580  0.1461
 5955SOL    HW129327   3.415   0.286  13.647  0.3904 -0.0937  0.1306
 5955SOL    HW229328   3.360   0.416  13.623 -3.1076  1.3238  1.5547
 5956SOL     OW29329   0.688   0.169   3.031  0.1517 -0.0594  0.7479
 5956SOL    HW129330   0.753   0.150   2.963 -0.7087 -0.8138  0.1354
 5956SOL    HW229331   0.674   0.081   3.067  0.2782  0.1318  1.2707
 5957SOL     OW29332   3.583   0.185   4.254  0.0688  0.0082 -0.2780
 5957SOL    HW129333   3.658   0.153   4.204  0.1904 -1.7536  1.0238
 5957SOL    HW229334   3.509   0.146   4.207  0.3135 -0.0679 -0.6068
 5958SOL     OW29335   2.641   0.193  16.853  0.2256  0.0154  0.1440
 5958SOL    HW129336   2.554   0.209  16.815  0.6613  1.2877 -0.3367
 5958SOL    HW229337   2.686   0.271  16.820  0.7360 -1.4828 -2.7046
 5959SOL     OW29338   2.435   0.843  13.630  0.2592 -0.0617 -0.4633
 5959SOL    HW129339   2.367   0.786  13.595 -1.2465  1.2470  0.3271
 5959SOL    HW229340   2.467   0.796  13.707  2.0113 -0.1936 -1.2755
 5960SOL     OW29341   0.136   0.638  16.063  0.1496  0.2560  0.8798
 5960SOL    HW129342   0.099   0.606  16.145  0.6449  1.2998  1.5181
 5960SOL    HW229343   0.223   0.668  16.088  0.9975 -1.1960 -0.3726
 5961SOL     OW29344   1.610   0.745  10.605  0.0658 -0.2908  0.0389
 5961SOL    HW129345   1.640   0.704  10.686 -2.1894 -0.0212  0.9959
 5961SOL    HW229346   1.573   0.830  10.629 -1.7761 -0.8014 -1.0014
 5962SOL     OW29347   3.077   4.254  17.015  0.3851 -0.4597 -0.6524
 5962SOL    HW129348   3.086   4.161  16.993 -1.3820 -0.5612 -0.9612
 5962SOL    HW229349   3.008   4.253  17.081  1.5176 -0.2771  0.5461
 5963SOL     OW29350   3.313   1.991  16.057  0.3415  0.0389 -0.3484
 5963SOL    HW129351   3.274   1.983  16.144 -1.5451 -1.6199 -1.3422
 5963SOL    HW229352   3.265   2.064  16.016 -0.9977 -0.5218  0.2406
 5964SOL     OW29353   3.571   4.626   8.044  0.3063  0.0587 -0.1015
 5964SOL    HW129354   3.633   4.616   8.116  0.6272  1.5849 -0.1652
 5964SOL    HW229355   3.607   4.555   7.992  0.3869  0.7560 -0.9985
 5965SOL     OW29356   1.746   1.947   9.580  0.1147 -0.6367 -0.1144
 5965SOL    HW129357   1.692   1.925   9.657  0.9318 -2.5956 -0.1020
 5965SOL    HW229358   1.811   1.994   9.632 -0.8042  1.0673 -0.4757
 5966SOL     OW29359   0.740   2.628   8.518 -0.1834 -0.3631  0.3547
 5966SOL    HW129360   0.757   2.624   8.424  1.9352  1.3663  0.6617
 5966SOL    HW229361   0.691   2.710   8.518  4.2551  2.2819  0.1310
 5967SOL     OW29362   0.003   0.358   5.386  0.0037 -0.4907 -0.4299
 5967SOL    HW129363   4.692   0.323   5.304  1.1959  1.3337 -1.7192
 5967SOL    HW229364   0.098   0.348   5.375  0.0638 -0.5138  0.1406
 5968SOL     OW29365   0.904   0.640   6.582 -0.2690 -0.2443  0.1157
 5968SOL    HW129366   0.818   0.617   6.617 -0.0005 -2.0958 -0.3941
 5968SOL    HW229367   0.939   0.565   6.630  1.8591 -0.3270 -1.5334
 5969SOL     OW29368   2.375   0.400  16.788 -0.1252  0.4114 -0.5472
 5969SOL    HW129369   2.426   0.421  16.710  1.1273  0.2320  0.2248
 5969SOL    HW229370   2.284   0.419  16.763 -0.0658  0.2648 -0.8744
 5970SOL     OW29371   4.435   3.424  16.404  0.4233 -0.2373  0.5546
 5970SOL    HW129372   4.410   3.479  16.478  0.9488  0.9743 -0.1562
 5970SOL    HW229373   4.381   3.459  16.333  1.6744  1.4323  0.4204
 5971SOL     OW29374   1.846   3.981   7.705 -0.7618 -0.5047 -0.5028
 5971SOL    HW129375   1.752   3.998   7.713 -0.1159  3.4068 -1.1844
 5971SOL    HW229376   1.847   3.897   7.660 -1.7285 -0.8409  0.1082
 5972SOL     OW29377   3.369   0.947  10.408 -0.4827  0.4269  0.0581
 5972SOL    HW129378   3.404   0.868  10.450  2.3095  2.3300  1.3232
 5972SOL    HW229379   3.319   0.905  10.338  0.3251 -0.4990  0.0381
 5973SOL     OW29380   3.957   1.074   9.571  0.6118 -0.0355  0.0884
 5973SOL    HW129381   3.948   1.169   9.572  1.3914  0.0263  1.3704
 5973SOL    HW229382   3.866   1.043   9.567  0.9335 -1.0777  0.9478
 5974SOL     OW29383   2.736   4.231   1.915  0.1775  0.5377  0.2572
 5974SOL    HW129384   2.764   4.193   1.998 -0.8710 -1.0073 -0.0977
 5974SOL    HW229385   2.708   4.154   1.864  0.1908  0.7532 -0.0744
 5975SOL     OW29386   2.638   4.618   8.289 -0.0451  0.3495  0.0745
 5975SOL    HW129387   2.668   4.574   8.369  1.3793 -1.0614 -1.2217
 5975SOL    HW229388   2.549   4.635   8.319 -0.4488 -0.8476 -0.4045
 5976SOL     OW29389   1.024   0.416   4.067  0.2035 -0.7331 -0.1052
 5976SOL    HW129390   1.071   0.342   4.029  2.1442  1.0164 -1.0880
 5976SOL    HW229391   1.084   0.490   4.059 -0.8399  0.0450 -0.8920
 5977SOL     OW29392   0.872   2.160   5.183  0.0717  0.2440 -0.5254
 5977SOL    HW129393   0.872   2.110   5.102 -0.8721  0.2672 -0.5413
 5977SOL    HW229394   0.914   2.240   5.151  0.3630  0.6214  0.7976
 5978SOL     OW29395   1.192   2.414  10.375 -0.1507 -0.3669  0.0789
 5978SOL    HW129396   1.104   2.441  10.348  0.5622 -0.9120 -2.6914
 5978SOL    HW229397   1.175   2.404  10.469 -0.8208 -0.7348 -0.0869
 5979SOL     OW29398   0.835   2.758   4.189  0.0898  0.0186 -0.2427
 5979SOL    HW129399   0.927   2.737   4.200 -0.0752 -0.1069  0.8304
 5979SOL    HW229400   0.826   2.701   4.112 -1.6864  0.9293 -0.7067
 5980SOL     OW29401   1.259   1.533   7.544  0.3915 -0.2362  0.2087
 5980SOL    HW129402   1.217   1.506   7.626  1.7401  0.9925  1.2953
 5980SOL    HW229403   1.188   1.508   7.485  1.6426 -0.5402 -1.1688
 5981SOL     OW29404   4.075   4.509   8.574 -0.1708  0.3566  0.3233
 5981SOL    HW129405   4.094   4.447   8.503  2.0038  1.7488 -0.2994
 5981SOL    HW229406   4.159   4.525   8.617 -0.5302 -0.3227  1.2935
 5982SOL     OW29407   3.687   0.163   9.947  0.1189 -0.7960  0.2916
 5982SOL    HW129408   3.716   0.240   9.899 -1.8919 -1.2486 -1.6176
 5982SOL    HW229409   3.731   0.086   9.911 -0.7559 -1.4436  0.6044
 5983SOL     OW29410   2.135   4.340   1.027 -0.1034  0.0648 -0.1379
 5983SOL    HW129411   2.047   4.313   1.054 -1.1912  1.1152 -2.5846
 5983SOL    HW229412   2.141   4.308   0.937  1.4480 -0.5953  0.2024
 5984SOL     OW29413   0.818   3.923   3.967 -0.3990  0.1949 -0.5495
 5984SOL    HW129414   0.893   3.892   3.916  0.9130  0.1690  1.3581
 5984SOL    HW229415   0.787   3.835   3.988 -1.5093  0.6895 -0.1380
 5985SOL     OW29416   1.242   0.997   9.330  0.0522 -0.6213 -0.3835
 5985SOL    HW129417   1.154   1.033   9.326  0.6660  0.9433 -0.1293
 5985SOL    HW229418   1.228   0.949   9.412 -3.3182  2.7474  1.0031
 5986SOL     OW29419   3.282   4.717   3.580  0.3286 -0.0074 -0.0842
 5986SOL    HW129420   3.293   0.086   3.569  1.2417  0.0648  1.5001
 5986SOL    HW229421   3.186   4.708   3.574  0.3283 -0.5850  0.7625
 5987SOL     OW29422   2.773   1.258  14.225 -0.7109 -0.7070  0.5546
 5987SOL    HW129423   2.763   1.347  14.191  0.7390 -0.7124  0.0951
 5987SOL    HW229424   2.846   1.263  14.287 -1.3700 -0.3551  1.2946
 5988SOL     OW29425   1.137   3.009   7.431  0.3058 -0.4782 -0.3129
 5988SOL    HW129426   1.117   3.058   7.351 -0.5300 -0.4812 -0.1008
 5988SOL    HW229427   1.214   2.956   7.410  3.1292  2.8383  1.5327
 5989SOL     OW29428   1.537   0.007  12.581 -0.0022  0.4011 -0.1813
 5989SOL    HW129429   1.489   0.045  12.655 -0.6921 -1.7832  0.4986
 5989SOL    HW229430   1.540   0.078  12.517 -1.9016 -0.6147 -1.3622
 5990SOL     OW29431   1.389   1.595  17.619  0.3446  0.1725  0.5711
 5990SOL    HW129432   1.317   1.657  17.626  0.4581  0.0820  2.3997
 5990SOL    HW229433   1.435   1.622  17.539  1.0359  0.6669  1.1413
 5991SOL     OW29434   4.406   3.956   3.009 -0.3634 -0.3334 -0.1987
 5991SOL    HW129435   4.330   3.931   2.956  1.8011 -2.4121 -2.3286
 5991SOL    HW229436   4.462   3.991   2.939 -0.4137 -1.1320 -0.6435
 5992SOL     OW29437   3.611   1.321   2.703  0.5139  0.4780  0.2231
 5992SOL    HW129438   3.569   1.271   2.773  0.6097 -0.2480 -0.2410
 5992SOL    HW229439   3.689   1.273   2.675  0.6495 -0.9909  3.1374
 5993SOL     OW29440   0.868   1.042   0.722 -0.5453  0.1890 -0.2819
 5993SOL    HW129441   0.901   1.112   0.779  0.9359  0.1123 -1.0444
 5993SOL    HW229442   0.947   0.988   0.719 -0.7225 -0.0047 -1.4781
 5994SOL     OW29443   4.127   2.204   5.789  0.2010  0.1328 -0.0745
 5994SOL    HW129444   4.110   2.299   5.790  1.1075  0.3019 -0.2357
 5994SOL    HW229445   4.046   2.174   5.750  0.6107  1.1440 -1.7273
 5995SOL     OW29446   2.605   1.004   6.171  0.3008 -0.3663 -0.1592
 5995SOL    HW129447   2.551   0.960   6.106 -1.0018  1.4886 -0.3094
 5995SOL    HW229448   2.690   1.007   6.126  0.8929 -1.4388  0.8663
 5996SOL     OW29449   3.602   0.429   5.814  0.5639 -0.0790 -0.2975
 5996SOL    HW129450   3.676   0.478   5.779  0.9929  0.1968  1.0231
 5996SOL    HW229451   3.540   0.420   5.741  0.4384 -0.0743 -0.1905
 5997SOL     OW29452   1.794   2.848   5.399 -0.0091  0.1365 -0.6945
 5997SOL    HW129453   1.793   2.772   5.342 -0.4788 -0.4793  0.1409
 5997SOL    HW229454   1.772   2.802   5.480  0.9405 -0.1903 -0.6206
 5998SOL     OW29455   0.715   1.041   4.017 -0.2760 -0.4002  0.2119
 5998SOL    HW129456   0.773   1.088   4.077 -1.3249  1.3110 -0.1236
 5998SOL    HW229457   0.661   0.996   4.082 -1.3526 -0.1757 -0.5233
 5999SOL     OW29458   2.501   2.721   2.309  0.2849  0.0670  0.1231
 5999SOL    HW129459   2.474   2.656   2.244  0.2830 -0.8028  0.9904
 5999SOL    HW229460   2.513   2.654   2.377 -0.0394 -0.0512  0.0652
 6000SOL     OW29461   1.211   2.282   2.903  0.0926  0.7160 -0.3556
 6000SOL    HW129462   1.284   2.282   2.841  0.7564  0.4271  0.4351
 6000SOL    HW229463   1.137   2.304   2.845  0.3122  2.4762  0.0233
 6001SOL     OW29464   2.047   0.277   6.425 -0.1306 -0.0903  0.0566
 6001SOL    HW129465   1.964   0.264   6.380 -0.0546 -1.1072  0.2103
 6001SOL    HW229466   2.057   0.372   6.419 -1.0691  0.0833  1.4908
 6002SOL     OW29467   0.034   2.634  14.078 -0.4581  0.4169 -0.4196
 6002SOL    HW129468   0.007   2.580  14.004 -0.1760 -0.6536  0.2483
 6002SOL    HW229469   4.672   2.645  14.118 -0.8814 -0.1752 -1.1881
 6003SOL     OW29470   2.152   2.304   8.406  0.0260 -0.2570 -0.3925
 6003SOL    HW129471   2.090   2.339   8.342  0.5698 -1.8725 -1.8372
 6003SOL    HW229472   2.133   2.343   8.491 -2.7014 -0.7198 -0.7910
 6004SOL     OW29473   1.257   2.974   0.624  0.0654  0.3410 -0.1259
 6004SOL    HW129474   1.170   2.936   0.616  1.6300 -2.9620 -1.8182
 6004SOL    HW229475   1.298   2.913   0.687  0.0855  1.2517  0.7449
 6005SOL     OW29476   0.341   2.005   9.137  0.4430  0.6812  0.2672
 6005SOL    HW129477   0.335   2.073   9.070  3.3263  0.4605 -0.2490
 6005SOL    HW229478   0.414   2.026   9.195  1.4813  0.2174 -0.8563
 6006SOL     OW29479   0.973   1.642   5.746 -0.0693  0.4096 -0.2792
 6006SOL    HW129480   0.899   1.589   5.773 -0.8325  2.9730  2.6267
 6006SOL    HW229481   1.016   1.647   5.831 -0.5549  2.7769 -0.1753
 6007SOL     OW29482   3.328   0.914   4.624  0.2115  0.0682  0.2149
 6007SOL    HW129483   3.277   0.955   4.554 -2.1043 -2.4630  0.4263
 6007SOL    HW229484   3.407   0.966   4.637  0.9062 -0.6016 -1.2674
 6008SOL     OW29485   1.785   3.565   4.968  0.0917  0.0299  0.0714
 6008SOL    HW129486   1.818   3.648   4.934 -0.4327 -0.2661 -1.1581
 6008SOL    HW229487   1.861   3.507   4.960  0.4736  0.5007  0.3356
 6009SOL     OW29488   2.806   3.177  13.270  0.7744  0.1144  0.0273
 6009SOL    HW129489   2.753   3.098  13.258  0.9215  0.2639 -1.5347
 6009SOL    HW229490   2.882   3.148  13.220  2.5868 -1.0778  3.4057
 6010SOL     OW29491   3.423   0.688   4.377  0.1766  0.6665  0.3059
 6010SOL    HW129492   3.456   0.768   4.337 -1.6165  2.2840  1.9976
 6010SOL    HW229493   3.359   0.721   4.440  0.5414 -1.5375  1.8084
 6011SOL     OW29494   4.702   3.420   3.452 -0.3519 -0.0749 -0.5537
 6011SOL    HW129495   0.058   3.398   3.406 -0.2551 -1.5960  0.3518
 6011SOL    HW229496   4.723   3.380   3.537  1.7723  4.4676  1.0677
 6012SOL     OW29497   1.026   2.067  10.738 -0.5448  0.4590 -0.0667
 6012SOL    HW129498   0.969   2.012  10.684 -1.5184  1.1385  0.2572
 6012SOL    HW229499   0.960   2.095  10.802 -0.0785 -1.7538  1.3775
 6013SOL     OW29500   4.200   1.801   4.259 -0.1753 -0.4488  0.4972
 6013SOL    HW129501   4.152   1.881   4.239 -2.0111 -1.7350 -0.2144
 6013SOL    HW229502   4.140   1.753   4.316  0.5036 -1.2404  0.5419
 6014SOL     OW29503   2.782   0.785   7.409  0.6003 -0.4105 -0.0653
 6014SOL    HW129504   2.703   0.821   7.451  0.8349 -2.8161  2.4162
 6014SOL    HW229505   2.837   0.763   7.484 -1.1691 -0.2478  1.2809
 6015SOL     OW29506   2.242   0.743   2.644 -0.0081 -0.6805  0.0025
 6015SOL    HW129507   2.219   0.726   2.735 -1.7028 -0.7105 -0.4293
 6015SOL    HW229508   2.336   0.760   2.651 -0.1622  0.7153 -1.1572
 6016SOL     OW29509   0.873   1.229   5.225 -0.4077  0.1069 -0.2966
 6016SOL    HW129510   0.958   1.273   5.214 -0.8228  0.1527 -3.3206
 6016SOL    HW229511   0.828   1.289   5.285  0.8456  1.9604 -1.1775
 6017SOL     OW29512   0.707   1.548   0.678 -0.1400  0.0605 -0.2587
 6017SOL    HW129513   0.658   1.594   0.610 -1.3384 -1.4946 -0.4623
 6017SOL    HW229514   0.757   1.618   0.719 -0.3272  0.2086 -0.2793
 6018SOL     OW29515   4.239   0.017   5.152  0.7935  0.1572 -0.0029
 6018SOL    HW129516   4.180   4.706   5.219  1.1113 -1.4404 -0.5746
 6018SOL    HW229517   4.322   4.710   5.188  0.7360  0.3352  0.2867
 6019SOL     OW29518   2.921   0.984   9.193 -0.4065 -0.2468  0.0345
 6019SOL    HW129519   2.977   1.057   9.168 -0.5984 -0.0239  0.2678
 6019SOL    HW229520   2.972   0.952   9.268  0.5184  0.9225 -0.1070
 6020SOL     OW29521   0.206   3.543   5.604 -0.4007  0.2236  0.3918
 6020SOL    HW129522   0.152   3.480   5.651 -1.8955 -0.4191 -2.1701
 6020SOL    HW229523   0.173   3.622   5.646  1.0386 -0.2040  2.2862
 6021SOL     OW29524   2.821   2.592   4.305  0.3283  0.1760 -0.3907
 6021SOL    HW129525   2.738   2.629   4.275 -0.0828  0.0775  0.6239
 6021SOL    HW229526   2.791   2.568   4.392  1.3535  2.4682  0.5789
 6022SOL     OW29527   4.150   1.333   7.920  0.0486 -0.0670  0.4372
 6022SOL    HW129528   4.165   1.242   7.943 -3.9379 -0.7461  0.2835
 6022SOL    HW229529   4.109   1.336   7.833  2.0450 -0.2324 -0.5236
 6023SOL     OW29530   4.038   1.632  10.990 -0.1909  0.2071 -0.4100
 6023SOL    HW129531   4.119   1.646  10.940 -0.9450  1.7125 -1.1970
 6023SOL    HW229532   3.974   1.621  10.920 -1.5899  1.6190  0.6786
 6024SOL     OW29533   2.042   0.707  15.716  0.2182 -0.3613 -0.0038
 6024SOL    HW129534   2.017   0.651  15.643  0.0627 -0.3277  0.0249
 6024SOL    HW229535   2.029   0.793  15.677  0.1879 -1.9345 -3.4566
 6025SOL     OW29536   2.179   1.294   5.685 -0.2631 -0.1494  0.4854
 6025SOL    HW129537   2.183   1.210   5.731  0.0656  0.1049  0.9244
 6025SOL    HW229538   2.194   1.269   5.594 -2.6389 -1.6338  0.4947
 6026SOL     OW29539   3.384   1.225  15.139  0.0228  0.3209 -0.0908
 6026SOL    HW129540   3.425   1.143  15.110  0.2028  1.1642 -2.2614
 6026SOL    HW229541   3.324   1.217  15.065  1.2778 -3.7211 -0.6885
 6027SOL     OW29542   1.348   0.535   4.420 -0.3281 -0.7884  0.1362
 6027SOL    HW129543   1.377   0.607   4.477  0.3566  0.7660 -2.1992
 6027SOL    HW229544   1.378   0.564   4.335 -3.0113  1.1962 -0.1539
 6028SOL     OW29545   1.292   3.248  16.222  0.0168  0.0368  0.2788
 6028SOL    HW129546   1.326   3.173  16.269 -1.0192 -0.0187  0.9379
 6028SOL    HW229547   1.375   3.297  16.215 -0.3333  0.6196  0.1656
 6029SOL     OW29548   3.950   1.112  13.375  0.4894 -0.5740  0.1318
 6029SOL    HW129549   3.959   1.017  13.381 -2.7681 -0.8300  0.8082
 6029SOL    HW229550   3.908   1.133  13.459  1.9551  1.8697  0.2605
 6030SOL     OW29551   3.866   2.995   4.784 -0.0511  0.1075 -0.3114
 6030SOL    HW129552   3.954   3.029   4.774 -0.2776  0.7808 -0.0471
 6030SOL    HW229553   3.814   3.075   4.800 -0.0021  0.3389 -1.3373
 6031SOL     OW29554   4.118   3.204   3.037 -0.2960 -0.2102  0.2908
 6031SOL    HW129555   4.179   3.201   3.111  0.0704  2.6058  0.1165
 6031SOL    HW229556   4.115   3.116   3.000 -0.1673 -0.5892  1.1906
 6032SOL     OW29557   1.395   0.133  16.045  0.0928 -0.2609  0.1594
 6032SOL    HW129558   1.383   0.038  16.057  0.7643 -0.1236  1.9015
 6032SOL    HW229559   1.303   0.139  16.017  0.5087 -2.2339 -1.6368
 6033SOL     OW29560   4.139   1.167   4.361 -0.3232 -0.3180  0.2020
 6033SOL    HW129561   4.045   1.178   4.348  0.0149 -1.4729 -3.1217
 6033SOL    HW229562   4.156   1.219   4.440  2.1084  0.8203 -1.0949
 6034SOL     OW29563   4.685   2.731   7.999  0.2720 -0.5931 -0.5976
 6034SOL    HW129564   4.631   2.734   7.920 -1.0419  0.1003  0.3202
 6034SOL    HW229565   4.656   2.651   8.043  2.4058 -0.9452  0.1665
 6035SOL     OW29566   2.979   0.235   8.373  1.1744  0.1366 -0.4926
 6035SOL    HW129567   2.948   0.315   8.414 -0.0055 -0.5037 -0.1336
 6035SOL    HW229568   2.921   0.216   8.299  0.5853  1.3900 -0.3378
 6036SOL     OW29569   3.838   0.431   9.429 -0.2076 -0.3985  0.0939
 6036SOL    HW129570   3.909   0.491   9.406 -2.1237  1.8075 -0.0832
 6036SOL    HW229571   3.876   0.347   9.402  0.8556  0.6728 -1.7208
 6037SOL     OW29572   1.642   2.601   5.859 -0.0155  0.7653 -0.0895
 6037SOL    HW129573   1.594   2.641   5.931 -2.3403 -1.3318 -0.4844
 6037SOL    HW229574   1.719   2.570   5.907 -0.7857 -0.9446  0.0703
 6038SOL     OW29575   4.453   1.982   5.067 -0.8216 -0.4626  0.3624
 6038SOL    HW129576   4.475   1.987   5.160  2.4544  0.2095 -0.4518
 6038SOL    HW229577   4.432   2.074   5.052 -0.2946 -0.3832  0.1229
 6039SOL     OW29578   3.468   0.488  12.945 -0.1727  0.6371  0.1918
 6039SOL    HW129579   3.513   0.532  12.872  1.4092  0.3882  1.0049
 6039SOL    HW229580   3.485   0.396  12.925 -1.1499  0.9681 -2.1574
 6040SOL     OW29581   4.213   0.217   2.815  0.1468  0.4829 -0.3063
 6040SOL    HW129582   4.226   0.146   2.752  0.4966 -0.2833  0.6424
 6040SOL    HW229583   4.224   0.292   2.757  1.2662 -0.1621 -0.9352
 6041SOL     OW29584   1.544   2.087   2.755 -0.0135  0.7150  0.9046
 6041SOL    HW129585   1.498   2.169   2.740  0.5575  1.3288  2.5080
 6041SOL    HW229586   1.548   2.046   2.668  0.3245  2.0647  0.2914
 6042SOL     OW29587   4.543   1.582  11.182 -0.2324 -0.2703 -0.0912
 6042SOL    HW129588   4.561   1.669  11.217 -0.6383 -1.1781  2.3846
 6042SOL    HW229589   4.613   1.536  11.228  0.4422 -0.1257 -0.9871
 6043SOL     OW29590   3.394   0.962   0.920 -0.8903 -0.2807 -0.3058
 6043SOL    HW129591   3.440   0.896   0.868 -0.9746  0.0660 -0.8177
 6043SOL    HW229592   3.446   0.954   1.000 -1.0212  1.1762 -0.0723
 6044SOL     OW29593   4.201   2.664   7.924  0.3965 -0.0133  0.0466
 6044SOL    HW129594   4.222   2.609   7.999 -2.0855  0.9905  1.4749
 6044SOL    HW229595   4.276   2.724   7.927  1.7280 -1.7152  0.9237
 6045SOL     OW29596   2.051   2.045   3.666 -0.0806 -0.1759 -0.6204
 6045SOL    HW129597   2.143   2.051   3.642 -0.2111 -1.4427 -1.4028
 6045SOL    HW229598   2.013   2.122   3.624 -1.6777 -1.1392 -0.9225
 6046SOL     OW29599   1.996   4.440  13.919 -0.3156  0.0158  0.0609
 6046SOL    HW129600   2.074   4.466  13.967 -0.0722  2.0123 -1.4074
 6046SOL    HW229601   1.979   4.519  13.867 -0.8541 -0.1809 -0.0657
 6047SOL     OW29602   2.468   4.138   4.501 -0.2668  0.1115 -0.2200
 6047SOL    HW129603   2.511   4.084   4.435 -2.3243 -0.5741 -1.0069
 6047SOL    HW229604   2.535   4.126   4.569 -2.3462 -0.1163  1.8149
 6048SOL     OW29605   3.685   1.604   3.659  0.4845 -0.5145 -0.2936
 6048SOL    HW129606   3.769   1.645   3.639 -0.2704  1.8640  1.3123
 6048SOL    HW229607   3.710   1.516   3.685  0.9257 -0.5105 -0.6979
 6049SOL     OW29608   3.159   4.067   1.988 -0.0731 -0.2552 -0.8287
 6049SOL    HW129609   3.210   4.107   2.057 -0.0420 -0.0050 -0.9951
 6049SOL    HW229610   3.077   4.041   2.029 -0.6640 -0.6353 -2.2449
 6050SOL     OW29611   3.002   0.875   6.967 -0.0392  0.2236  0.0149
 6050SOL    HW129612   3.083   0.871   7.018 -1.0749  0.1609  1.6492
 6050SOL    HW229613   3.015   0.963   6.930 -1.8294  0.0923 -0.9314
 6051SOL     OW29614   3.875   1.993  10.962  0.0153  0.0252  0.1196
 6051SOL    HW129615   3.925   1.985  10.880  0.2582 -1.9943  0.4586
 6051SOL    HW229616   3.940   1.957  11.022  2.0319  0.2463 -1.9209
 6052SOL     OW29617   1.111   0.578   1.701  0.2312  0.1848 -0.1448
 6052SOL    HW129618   1.095   0.489   1.733  0.6826 -0.2149 -1.0552
 6052SOL    HW229619   1.152   0.553   1.619  0.0626  1.9325 -0.7592
 6053SOL     OW29620   1.854   1.352  10.179 -0.1785  0.4806 -0.0902
 6053SOL    HW129621   1.910   1.429  10.187  0.6824 -0.3364  1.5603
 6053SOL    HW229622   1.846   1.325  10.270 -0.5340 -0.3386 -0.3613
 6054SOL     OW29623   1.207   1.135  10.178 -1.0214 -0.0718  0.3616
 6054SOL    HW129624   1.199   1.120  10.272  0.2463 -0.1577  0.4553
 6054SOL    HW229625   1.213   1.229  10.163  1.0486 -0.4262 -1.0499
 6055SOL     OW29626   1.525   4.437   8.675  0.3974  0.0973  0.1736
 6055SOL    HW129627   1.451   4.453   8.733 -0.0046  0.8968 -0.5463
 6055SOL    HW229628   1.597   4.482   8.719  2.5812 -0.8474 -2.4321
 6056SOL     OW29629   0.654   2.153   6.459 -0.2533 -0.1942  0.3282
 6056SOL    HW129630   0.567   2.187   6.438 -0.4063 -0.7703  0.0279
 6056SOL    HW229631   0.653   2.069   6.413  2.6715  0.8293 -1.5938
 6057SOL     OW29632   1.168   2.856   4.649  0.2540  0.5033 -0.2860
 6057SOL    HW129633   1.213   2.772   4.653 -1.3394 -0.3645 -0.6246
 6057SOL    HW229634   1.105   2.857   4.722  1.4301  1.5701  0.7054
 6058SOL     OW29635   3.955   1.289   8.447 -0.3058  0.5170 -0.3289
 6058SOL    HW129636   4.016   1.339   8.502  0.5365 -0.1918 -0.6277
 6058SOL    HW229637   3.933   1.210   8.497  0.1037  0.1597 -0.7140
 6059SOL     OW29638   0.838   2.244  14.754 -0.3724  0.5599  0.0226
 6059SOL    HW129639   0.767   2.307  14.742 -0.7909  0.1639  0.4175
 6059SOL    HW229640   0.783   2.167  14.768  0.0763  0.5874  1.8472
 6060SOL     OW29641   4.051   0.978  11.558  0.3940  0.1402  0.0896
 6060SOL    HW129642   3.971   1.026  11.538  0.3220 -0.2592 -0.5790
 6060SOL    HW229643   4.114   1.047  11.579  0.8915 -0.0761 -0.7071
 6061SOL     OW29644   2.966   2.356   4.876  0.0970  0.2589  0.0968
 6061SOL    HW129645   3.035   2.294   4.900 -1.1887 -1.4966 -0.7419
 6061SOL    HW229646   2.999   2.437   4.915  1.7662 -0.4978  0.2521
 6062SOL     OW29647   2.963   2.796   7.046  0.1003  0.1938  0.7375
 6062SOL    HW129648   2.988   2.888   7.037  2.2715 -0.3845  0.7793
 6062SOL    HW229649   2.879   2.790   7.000  0.7532  5.3795 -1.1736
 6063SOL     OW29650   0.295   0.639   3.459 -0.4410  0.5490  0.2604
 6063SOL    HW129651   0.364   0.589   3.503  1.5465  2.0727 -1.0621
 6063SOL    HW229652   0.345   0.706   3.411 -0.5884  1.3273  1.1943
 6064SOL     OW29653   3.067   3.017   6.718  0.3536 -0.5385  0.2942
 6064SOL    HW129654   2.983   3.028   6.675  0.1951 -2.9770 -0.0451
 6064SOL    HW229655   3.129   3.043   6.650  1.2654 -0.2120  1.2468
 6065SOL     OW29656   0.033   2.762   5.833 -0.3320 -0.2744  0.1022
 6065SOL    HW129657   0.113   2.790   5.877 -0.3713 -2.3440  1.4653
 6065SOL    HW229658   0.041   2.670   5.857  1.1836  0.0906  0.9643
 6066SOL     OW29659   0.679   4.341   2.998 -0.0624 -0.3518  0.0057
 6066SOL    HW129660   0.746   4.351   2.930 -1.2819  1.5107 -0.8948
 6066SOL    HW229661   0.620   4.299   2.936  0.7998 -1.1383 -0.2856
 6067SOL     OW29662   0.569   0.168   3.759  0.0738  0.1723 -0.2627
 6067SOL    HW129663   0.656   0.132   3.748 -0.4534 -1.8851  2.5065
 6067SOL    HW229664   0.546   0.151   3.850  1.1471  0.7396  0.1110
 6068SOL     OW29665   3.133   1.526  16.922  0.1639 -0.9905  0.8519
 6068SOL    HW129666   3.062   1.469  16.891 -0.7073  1.6548 -1.9850
 6068SOL    HW229667   3.185   1.475  16.984 -1.1855 -0.5999  2.3011
 6069SOL     OW29668   4.297   2.963  15.112 -0.4017 -0.7801  0.2502
 6069SOL    HW129669   4.254   3.047  15.129 -1.8344 -1.3351 -0.6414
 6069SOL    HW229670   4.232   2.929  15.051 -1.4317  0.0824  0.8577
 6070SOL     OW29671   1.520   4.209  14.900 -0.8048 -0.4469  0.0436
 6070SOL    HW129672   1.463   4.285  14.884 -1.2059 -1.0744 -1.5588
 6070SOL    HW229673   1.459   4.139  14.877 -1.1258  0.0058 -0.4830
 6071SOL     OW29674   3.841   3.401   5.837  0.4850 -0.1388 -0.3724
 6071SOL    HW129675   3.750   3.378   5.818  0.0513  1.6219 -0.4291
 6071SOL    HW229676   3.839   3.497   5.845  0.2125 -0.5017  3.9813
 6072SOL     OW29677   1.481   4.555   8.436 -0.0404 -0.2455 -0.3893
 6072SOL    HW129678   1.439   4.621   8.491  0.3342 -1.4796  1.3863
 6072SOL    HW229679   1.505   4.492   8.504  1.1461 -0.4236 -0.9679
 6073SOL     OW29680   0.228   2.473   3.159 -0.2565 -0.2118  0.1292
 6073SOL    HW129681   0.252   2.394   3.207  0.8010 -1.5521 -2.6068
 6073SOL    HW229682   0.193   2.431   3.080 -1.1835  1.0559 -0.1380
 6074SOL     OW29683   2.626   3.436   1.464 -0.7440 -0.0685 -0.1119
 6074SOL    HW129684   2.720   3.450   1.466 -0.8521  0.6723 -0.2599
 6074SOL    HW229685   2.588   3.505   1.519  1.6986  0.2047  1.2332
 6075SOL     OW29686   0.304   3.865   4.202  0.6356  0.6852  0.2697
 6075SOL    HW129687   0.322   3.820   4.120  1.6517  0.3472  0.6805
 6075SOL    HW229688   0.358   3.944   4.193 -0.6206  1.4171 -0.8723
 6076SOL     OW29689   0.717   1.620   6.021  0.2098  0.5103  0.2595
 6076SOL    HW129690   0.662   1.559   5.972  1.1530  0.9462 -1.3541
 6076SOL    HW229691   0.687   1.706   5.990 -1.1237  0.4631  1.4502
 6077SOL     OW29692   3.568   3.994   0.663  0.5473 -0.4166 -0.2205
 6077SOL    HW129693   3.484   4.034   0.644  1.9828  3.7914  2.2288
 6077SOL    HW229694   3.601   3.974   0.575  0.2142  0.7776 -0.6105
 6078SOL     OW29695   0.189   2.721   5.245 -0.4202 -0.1659  0.1159
 6078SOL    HW129696   0.103   2.707   5.206 -0.0387  0.0964 -0.8092
 6078SOL    HW229697   0.239   2.655   5.197 -2.3027 -1.4079 -0.1557
 6079SOL     OW29698   3.100   4.264  14.423  0.3991  0.1873  0.0005
 6079SOL    HW129699   3.150   4.340  14.453  0.2230 -0.5651  2.2566
 6079SOL    HW229700   3.161   4.195  14.450 -0.7962 -1.0664 -0.5016
 6080SOL     OW29701   3.357   2.220  16.888  0.6599 -0.4574  0.2417
 6080SOL    HW129702   3.354   2.130  16.919  0.1226 -0.2664  0.7425
 6080SOL    HW229703   3.452   2.231  16.888  0.3179  2.5064  0.0963
 6081SOL     OW29704   2.996   1.724  12.309 -0.3694 -0.0765  0.2887
 6081SOL    HW129705   2.985   1.761  12.396 -0.5121  0.5423  0.0069
 6081SOL    HW229706   3.087   1.694  12.308 -0.3931 -0.1696  1.0636
 6082SOL     OW29707   0.008   3.615  10.742  0.3715 -0.0190 -0.2480
 6082SOL    HW129708   4.715   3.709  10.737 -0.7966 -0.2719 -0.9773
 6082SOL    HW229709   4.668   3.582  10.805  0.3999 -1.0911 -0.7736
 6083SOL     OW29710   2.399   3.166   2.557  0.0236 -0.3607 -0.5742
 6083SOL    HW129711   2.330   3.179   2.622  0.5892  1.7759 -0.3980
 6083SOL    HW229712   2.435   3.083   2.587 -1.7748 -1.5493 -1.6992
 6084SOL     OW29713   0.096   1.848   0.255 -0.7149  0.2148  0.1378
 6084SOL    HW129714   0.189   1.866   0.272 -0.3669 -1.1434 -0.3467
 6084SOL    HW229715   0.058   1.928   0.218 -1.3603 -1.0717 -1.9581
 6085SOL     OW29716   1.686   4.405   4.893 -0.1933 -0.4091  0.6589
 6085SOL    HW129717   1.755   4.465   4.922  0.4856 -1.2607  0.7914
 6085SOL    HW229718   1.717   4.326   4.937  2.6798  0.4217  0.1036
 6086SOL     OW29719   2.026   2.593   1.617  0.2520 -0.2736  0.5714
 6086SOL    HW129720   2.050   2.676   1.658 -0.7227 -0.8416  2.2958
 6086SOL    HW229721   2.036   2.615   1.524  0.1316 -0.6355  0.4737
 6087SOL     OW29722   2.979   0.418  11.525 -0.3278  0.5316  0.3481
 6087SOL    HW129723   3.018   0.381  11.446  0.4476  0.4289  0.7805
 6087SOL    HW229724   2.973   0.514  11.519  0.5374  0.6320  1.1375
 6088SOL     OW29725   1.031   1.336   8.606  0.1015  0.3738  0.0137
 6088SOL    HW129726   1.030   1.295   8.520  1.1588  0.4582 -0.0337
 6088SOL    HW229727   0.944   1.329   8.646 -0.3305  1.5470 -0.7138
 6089SOL     OW29728   1.373   2.096  10.192 -0.5519 -0.4422 -0.4764
 6089SOL    HW129729   1.322   2.021  10.163  1.0462 -1.4572 -0.7106
 6089SOL    HW229730   1.330   2.112  10.276 -0.4605 -0.6778 -0.3826
 6090SOL     OW29731   0.108   1.365  14.632  0.5968 -0.4662  0.4125
 6090SOL    HW129732   0.067   1.450  14.647  0.0921 -0.9514  1.7761
 6090SOL    HW229733   0.142   1.376  14.543 -0.6408  1.7306  0.2170
 6091SOL     OW29734   2.086   0.544   7.609 -0.4389  0.3546  0.0767
 6091SOL    HW129735   2.093   0.478   7.678 -2.7298  0.0922  0.0786
 6091SOL    HW229736   2.091   0.619   7.667  0.0820  2.4351 -2.6783
 6092SOL     OW29737   2.196   0.212   7.939 -0.0906 -0.2177  0.2694
 6092SOL    HW129738   2.183   0.307   7.951 -0.9455 -0.4787  1.3826
 6092SOL    HW229739   2.184   0.208   7.844  0.7477  0.6741  0.1248
 6093SOL     OW29740   4.420   3.172   3.970 -0.0282 -0.1228 -0.6390
 6093SOL    HW129741   4.356   3.110   4.005  0.2477 -0.8443 -1.3769
 6093SOL    HW229742   4.431   3.130   3.884 -4.3474  0.8258 -1.6059
 6094SOL     OW29743   0.062   1.469  11.543  0.1542  0.4957 -0.4396
 6094SOL    HW129744   0.059   1.512  11.458 -0.2882 -0.9131 -1.1343
 6094SOL    HW229745   0.155   1.484  11.560 -0.3200  3.2543 -0.3024
 6095SOL     OW29746   3.225   0.434  11.699  0.4319 -0.5260  0.3584
 6095SOL    HW129747   3.138   0.439  11.739  1.1893  0.4482  1.9199
 6095SOL    HW229748   3.216   0.505  11.636 -0.0273  0.3468  1.4016
 6096SOL     OW29749   2.628   3.150   2.803 -0.4470 -0.2616  0.0306
 6096SOL    HW129750   2.615   3.162   2.897  2.5385  0.5815  0.3175
 6096SOL    HW229751   2.600   3.239   2.780  0.1831 -0.0799 -0.0326
 6097SOL     OW29752   4.382   0.864   2.098  0.2533 -0.4301  0.1195
 6097SOL    HW129753   4.424   0.782   2.073  0.4900 -0.7163  1.4418
 6097SOL    HW229754   4.303   0.837   2.051  0.3002 -0.0013 -0.2018
 6098SOL     OW29755   1.831   2.496  16.563 -0.5904  0.2674 -0.4450
 6098SOL    HW129756   1.799   2.414  16.524  0.0542  1.1731 -2.8225
 6098SOL    HW229757   1.836   2.556  16.489 -1.3087  0.4927 -0.3064
 6099SOL     OW29758   3.714   2.138  14.274 -0.2364 -0.0143 -0.4910
 6099SOL    HW129759   3.661   2.218  14.271 -0.7753 -0.3998 -1.2334
 6099SOL    HW229760   3.734   2.131  14.368  0.0535 -0.6364 -0.5978
 6100SOL     OW29761   1.289   1.619   9.076  0.0531  0.0469 -0.1763
 6100SOL    HW129762   1.314   1.537   9.118  0.5789  0.2025 -0.1841
 6100SOL    HW229763   1.364   1.636   9.020  2.2129 -1.8367  2.1411
 6101SOL     OW29764   1.957   1.778  14.717 -0.0703 -0.1121 -0.0001
 6101SOL    HW129765   1.911   1.725  14.652 -0.0148 -1.0200  0.7074
 6101SOL    HW229766   1.922   1.744  14.799  0.4820 -0.7592 -0.0289
 6102SOL     OW29767   0.375   0.503   9.083  0.3378 -0.2127  0.1675
 6102SOL    HW129768   0.340   0.415   9.099 -2.4764  0.7448 -0.6218
 6102SOL    HW229769   0.468   0.494   9.101  0.4312  1.0921  0.3151
 6103SOL     OW29770   0.849   3.530   2.923 -0.0497  0.4751  0.9558
 6103SOL    HW129771   0.777   3.510   2.982 -0.9187  0.8479  0.0318
 6103SOL    HW229772   0.922   3.525   2.984  2.2309  1.6371 -1.7131
 6104SOL     OW29773   3.167   1.589  11.110  0.7984 -0.3953  1.1266
 6104SOL    HW129774   3.231   1.626  11.171  0.5753  0.4266  0.8610
 6104SOL    HW229775   3.140   1.675  11.078 -0.8501 -0.4620  2.3389
 6105SOL     OW29776   4.203   0.424   3.668 -0.3219 -0.6219  0.5485
 6105SOL    HW129777   4.201   0.514   3.636 -0.0803 -1.1259 -0.8874
 6105SOL    HW229778   4.188   0.439   3.762 -0.6223 -1.3184  0.6103
 6106SOL     OW29779   4.336   1.740   5.703  1.2492  0.2693 -0.5016
 6106SOL    HW129780   4.363   1.689   5.779 -0.2611 -0.9144 -0.7446
 6106SOL    HW229781   4.393   1.815   5.720 -0.8314  1.2349  2.2484
 6107SOL     OW29782   1.348   3.037   7.041  0.5147 -0.3668 -0.9546
 6107SOL    HW129783   1.258   3.014   7.066  0.5518 -0.3715 -0.8246
 6107SOL    HW229784   1.363   2.944   7.023 -1.3205 -0.6922 -0.7600
 6108SOL     OW29785   1.526   0.415  12.038 -0.0083  0.0409 -0.1285
 6108SOL    HW129786   1.559   0.388  12.124  1.8933  0.6494 -0.6694
 6108SOL    HW229787   1.441   0.372  12.029  0.2561  0.2253 -3.4175
 6109SOL     OW29788   0.333   3.422   8.040 -0.3316 -0.2487 -0.0674
 6109SOL    HW129789   0.365   3.451   8.125 -0.9901 -3.2284  1.1985
 6109SOL    HW229790   0.395   3.461   7.979 -1.1422  0.8186 -0.2142
 6110SOL     OW29791   4.131   1.000  16.950 -0.0094 -0.2777  0.0279
 6110SOL    HW129792   4.111   1.066  17.016  1.8767 -1.5833  1.9220
 6110SOL    HW229793   4.101   1.048  16.873  0.6659 -1.1856 -0.8106
 6111SOL     OW29794   0.954   0.182   6.569 -0.0980  0.2226 -0.0342
 6111SOL    HW129795   1.023   0.244   6.589  0.6712 -0.3069 -1.0392
 6111SOL    HW229796   0.900   0.232   6.507 -0.2576 -1.8058 -1.5194
 6112SOL     OW29797   4.271   1.642  11.221 -0.2713  0.2443 -0.5777
 6112SOL    HW129798   4.228   1.696  11.287  3.1182 -0.7657  2.4641
 6112SOL    HW229799   4.366   1.648  11.232 -0.4973  1.8435  0.4980
 6113SOL     OW29800   0.221   1.988   7.549  0.0371  0.8361 -0.1766
 6113SOL    HW129801   0.236   1.912   7.493  3.9894 -0.1673  2.2426
 6113SOL    HW229802   0.198   2.053   7.482 -0.8472 -0.7318 -1.3779
 6114SOL     OW29803   3.071   1.922   8.606 -0.0934 -0.4077 -0.5040
 6114SOL    HW129804   2.978   1.903   8.595 -0.1391 -0.4179 -0.1008
 6114SOL    HW229805   3.104   1.891   8.521 -2.2269  0.8353 -1.7837
 6115SOL     OW29806   2.831   3.881   5.201 -0.8365 -0.0032  0.0045
 6115SOL    HW129807   2.746   3.888   5.244  0.0966  1.3092  1.6197
 6115SOL    HW229808   2.812   3.905   5.110 -2.9291 -0.5343  0.3121
 6116SOL     OW29809   1.351   2.764   6.676  0.2292 -0.0717  0.4116
 6116SOL    HW129810   1.399   2.721   6.748  0.0449  0.6093  0.9445
 6116SOL    HW229811   1.265   2.724   6.689 -0.1340  1.0418  1.4648
 6117SOL     OW29812   2.191   1.561   8.224  0.1499 -0.7184 -0.5372
 6117SOL    HW129813   2.118   1.573   8.285  0.7455  0.5206 -0.0677
 6117SOL    HW229814   2.176   1.475   8.187 -1.5953 -0.1563 -1.0979
 6118SOL     OW29815   4.038   1.631  11.652 -0.3940  0.0256  0.3534
 6118SOL    HW129816   3.970   1.691  11.680  0.8041  0.8047  1.5831
 6118SOL    HW229817   4.095   1.620  11.729 -1.0017 -0.8875  0.6735
 6119SOL     OW29818   0.479   0.859  13.428  0.0633 -0.0795 -0.3714
 6119SOL    HW129819   0.472   0.809  13.509 -0.5431  1.0472  0.2603
 6119SOL    HW229820   0.573   0.855  13.409  0.2081 -0.2852  0.3980
 6120SOL     OW29821   3.248   1.926   4.998  0.7992  0.6738 -0.0379
 6120SOL    HW129822   3.319   1.956   5.054  2.0295 -1.6089 -0.3852
 6120SOL    HW229823   3.192   1.895   5.068 -0.5034  0.6047 -1.1060
 6121SOL     OW29824   2.377   0.689   4.966 -0.4803 -0.2655 -0.0903
 6121SOL    HW129825   2.406   0.599   4.951  1.6811  0.5955 -1.1598
 6121SOL    HW229826   2.440   0.714   5.034 -2.4030  0.2953  1.4528
 6122SOL     OW29827   4.377   3.315   6.036 -0.5372  0.3089 -0.3767
 6122SOL    HW129828   4.371   3.304   6.131 -0.2636 -2.0301 -0.6264
 6122SOL    HW229829   4.297   3.363   6.016 -1.6756 -2.5024 -2.5584
 6123SOL     OW29830   1.496   1.440  14.310 -0.1547  0.3480 -0.3430
 6123SOL    HW129831   1.446   1.435  14.229  0.0414 -0.2342 -0.4304
 6123SOL    HW229832   1.563   1.503  14.284 -0.4561  0.1032 -1.7056
 6124SOL     OW29833   0.434   3.433   9.181 -0.0974  0.0746 -0.3222
 6124SOL    HW129834   0.356   3.414   9.233 -0.0274 -2.4697 -1.1342
 6124SOL    HW229835   0.461   3.518   9.216  0.5271  0.5654 -1.9948
 6125SOL     OW29836   0.008   4.161   3.196 -0.2140  0.4493  0.3448
 6125SOL    HW129837   0.069   4.097   3.162  0.5285  1.5867 -0.4623
 6125SOL    HW229838   0.041   4.183   3.283  1.5065  1.2793 -0.5227
 6126SOL     OW29839   4.227   2.477   0.696  0.0098 -0.1875 -0.4341
 6126SOL    HW129840   4.299   2.477   0.759 -0.2895 -1.3968 -0.0808
 6126SOL    HW229841   4.198   2.386   0.696  0.3039 -0.2706  2.0924
 6127SOL     OW29842   4.178   4.045  11.649 -0.5929 -0.1593 -0.0731
 6127SOL    HW129843   4.215   4.069  11.564 -0.5092 -1.7830 -0.4825
 6127SOL    HW229844   4.095   4.006  11.623  0.5536 -0.7910 -2.7559
 6128SOL     OW29845   3.703   3.219   9.019 -0.3296  0.2366 -0.6604
 6128SOL    HW129846   3.727   3.147   8.961 -1.3456 -0.1799 -0.5714
 6128SOL    HW229847   3.719   3.176   9.103 -3.8562  0.2859  0.0299
 6129SOL     OW29848   4.584   0.912   7.796 -0.3577  0.5313  0.0326
 6129SOL    HW129849   4.517   0.960   7.747 -1.9966  0.9389  2.6409
 6129SOL    HW229850   4.578   0.829   7.749  1.9732  0.7076 -0.5634
 6130SOL     OW29851   2.653   1.008   5.731  0.0121  0.5281  0.0155
 6130SOL    HW129852   2.562   0.988   5.711  0.1787  0.4553 -0.6581
 6130SOL    HW229853   2.636   1.093   5.773  0.3157 -0.5865  2.3829
 6131SOL     OW29854   2.747   4.573   5.499 -0.2118 -0.2742  0.5243
 6131SOL    HW129855   2.783   4.661   5.513 -0.7820 -0.1688  1.3200
 6131SOL    HW229856   2.761   4.536   5.586 -1.1082  0.2530  0.8978
 6132SOL     OW29857   2.049   3.870  17.392 -0.1818 -0.2922 -0.0609
 6132SOL    HW129858   2.032   3.954  17.349 -0.3495  0.3895  1.3586
 6132SOL    HW229859   2.084   3.897  17.476 -0.0429 -0.3421 -0.1016
 6133SOL     OW29860   2.373   3.337   4.664  0.5187 -0.0564 -0.3127
 6133SOL    HW129861   2.305   3.400   4.688  1.1970  1.2160 -1.7528
 6133SOL    HW229862   2.323   3.259   4.640 -0.7831  0.7048 -0.0374
 6134SOL     OW29863   0.334   0.794   4.450 -0.1486 -0.1395 -0.0227
 6134SOL    HW129864   0.352   0.714   4.500 -2.5385  0.4360  1.7315
 6134SOL    HW229865   0.356   0.855   4.521 -0.9497  1.7411 -1.3817
 6135SOL     OW29866   3.557   3.666   5.097 -0.2091  0.0982 -0.1717
 6135SOL    HW129867   3.598   3.581   5.115 -1.2681 -0.8414 -2.2834
 6135SOL    HW229868   3.611   3.729   5.147  1.1266 -0.4492 -0.9138
 6136SOL     OW29869   3.822   2.472  11.167  0.0633  0.2498 -0.1857
 6136SOL    HW129870   3.819   2.451  11.261  0.0783 -1.3406 -0.5535
 6136SOL    HW229871   3.783   2.398  11.121  1.6344 -0.9021  0.3664
 6137SOL     OW29872   3.829   0.612   9.120 -0.5861 -0.5220  0.0926
 6137SOL    HW129873   3.870   0.580   9.040 -2.7075 -0.3479 -1.0521
 6137SOL    HW229874   3.892   0.574   9.183  0.6008 -0.2649 -0.9369
 6138SOL     OW29875   3.728   3.620   3.735  0.0574  0.0192  0.2642
 6138SOL    HW129876   3.639   3.589   3.716  0.4282 -0.8775 -0.0290
 6138SOL    HW229877   3.717   3.713   3.717 -0.0432 -0.4128 -1.8116
 6139SOL     OW29878   4.547   2.038  10.616 -0.1480  0.0231  0.1514
 6139SOL    HW129879   4.532   1.976  10.544 -1.6236  0.5566  0.0065
 6139SOL    HW229880   4.609   1.986  10.667  0.1196  0.0086 -0.1910
 6140SOL     OW29881   1.771   2.882   4.539  0.4112 -0.1247  0.5127
 6140SOL    HW129882   1.806   2.845   4.620 -0.1814  1.3831  1.4600
 6140SOL    HW229883   1.725   2.961   4.569  0.0133 -0.2176  0.1472
 6141SOL     OW29884   4.360   3.363   3.466  0.0282  1.8733  0.1553
 6141SOL    HW129885   4.332   3.311   3.541  0.0656 -0.0697 -1.1532
 6141SOL    HW229886   4.336   3.307   3.392  2.3570  0.4982  0.4354
 6142SOL     OW29887   4.166   1.307  11.733 -0.1414 -0.3281 -0.0231
 6142SOL    HW129888   4.077   1.317  11.764 -0.3136 -2.3406  0.1487
 6142SOL    HW229889   4.158   1.354  11.650  1.6642 -2.4728 -1.4207
 6143SOL     OW29890   3.584   0.264  13.664  0.4978  0.6554  0.1197
 6143SOL    HW129891   3.592   0.297  13.753 -1.4690  0.2084  0.4734
 6143SOL    HW229892   3.614   0.342  13.617 -1.2329  0.6445 -1.0079
 6144SOL     OW29893   3.819   2.874   2.937  0.0379 -0.0360 -0.1704
 6144SOL    HW129894   3.908   2.895   2.912  0.3841  0.4353  1.4768
 6144SOL    HW229895   3.766   2.952   2.921  0.6605 -0.0293 -2.2647
 6145SOL     OW29896   1.568   3.800   4.680 -0.4260 -0.3153  0.1512
 6145SOL    HW129897   1.610   3.720   4.711 -0.6858 -0.5629 -0.1290
 6145SOL    HW229898   1.595   3.863   4.747  0.2713  0.5704 -0.9872
 6146SOL     OW29899   3.144   1.251   2.484 -0.2697  0.5625  0.4413
 6146SOL    HW129900   3.111   1.192   2.552 -0.1517  0.9178  0.8066
 6146SOL    HW229901   3.200   1.317   2.524 -0.4580  0.0445  1.5587
 6147SOL     OW29902   2.586   3.274   2.382 -0.0452 -0.6147  0.1594
 6147SOL    HW129903   2.676   3.243   2.396  0.5724  0.8926 -0.4831
 6147SOL    HW229904   2.534   3.230   2.449 -0.7743  0.4681  0.3007
 6148SOL     OW29905   0.745   2.443   6.353  0.3209  0.6124 -0.1974
 6148SOL    HW129906   0.746   2.353   6.319  2.8573 -0.1908  2.0695
 6148SOL    HW229907   0.806   2.426   6.424  0.8365 -2.8514 -1.4487
 6149SOL     OW29908   1.450   0.943   9.997  0.3701 -0.6300 -0.4509
 6149SOL    HW129909   1.356   0.926  10.002  0.8402 -3.8298 -1.8674
 6149SOL    HW229910   1.472   0.860   9.953  0.3920 -0.5838 -0.5263
 6150SOL     OW29911   0.587   2.263   4.137  0.0403  0.1863 -0.4064
 6150SOL    HW129912   0.662   2.214   4.103  0.5306  0.7191 -0.0913
 6150SOL    HW229913   0.586   2.245   4.231 -2.6340  0.9703 -0.2764
 6151SOL     OW29914   0.144   4.410   6.509  0.5668  0.1490  0.4864
 6151SOL    HW129915   0.095   4.430   6.589 -2.3657 -0.3284 -1.1873
 6151SOL    HW229916   0.085   4.453   6.447 -1.0158 -0.7782  1.3356
 6152SOL     OW29917   1.464   0.234  12.386 -0.4904  0.1024 -0.2440
 6152SOL    HW129918   1.467   0.317  12.432 -0.7453  0.5846 -1.0862
 6152SOL    HW229919   1.540   0.249  12.330 -0.4910  0.2800 -0.1954
 6153SOL     OW29920   2.925   1.579   4.295  0.0365  0.0566 -0.7077
 6153SOL    HW129921   3.010   1.616   4.317  0.4102 -1.3190  0.1606
 6153SOL    HW229922   2.893   1.534   4.373  0.4251  1.0092 -0.0088
 6154SOL     OW29923   4.540   2.596   5.789  0.3912 -0.0369 -0.2299
 6154SOL    HW129924   4.593   2.676   5.783  0.7803 -0.3645 -1.1529
 6154SOL    HW229925   4.453   2.618   5.759 -0.2622 -1.8581  0.3047
 6155SOL     OW29926   4.196   3.849  16.942 -0.1014  0.0673  0.3829
 6155SOL    HW129927   4.268   3.866  16.881  0.4647 -0.8778  0.7772
 6155SOL    HW229928   4.149   3.931  16.930  0.8351  0.4173 -0.8498
 6156SOL     OW29929   4.435   2.948  12.593 -0.1678 -0.5077  0.7870
 6156SOL    HW129930   4.385   2.896  12.656 -1.6231 -1.2844 -1.0028
 6156SOL    HW229931   4.516   2.960  12.643 -0.3745  1.0437  0.7669
 6157SOL     OW29932   3.771   4.049  14.786 -0.1605  0.1278  0.3792
 6157SOL    HW129933   3.840   4.030  14.849 -0.5393 -1.2798  0.3830
 6157SOL    HW229934   3.689   4.035  14.834 -0.1001 -1.0094  0.1502
 6158SOL     OW29935   0.915   3.196   7.692 -0.2310 -0.1174 -0.0061
 6158SOL    HW129936   0.855   3.174   7.763 -1.8764  0.6664 -1.1368
 6158SOL    HW229937   0.888   3.135   7.624  1.4311 -0.1930 -0.5830
 6159SOL     OW29938   2.812   0.022   3.244  0.7967  0.2771 -0.2942
 6159SOL    HW129939   2.844   4.657   3.255 -1.1604 -0.1776  1.8629
 6159SOL    HW229940   2.752   0.013   3.170 -0.1080 -1.0798  0.5936
 6160SOL     OW29941   1.991   4.415   1.915  0.2867  0.2988  0.3766
 6160SOL    HW129942   1.996   4.327   1.951  0.0011  0.1793  0.1185
 6160SOL    HW229943   2.085   4.434   1.910  0.3749 -0.4758 -0.8094
 6161SOL     OW29944   0.589   0.077   6.989  0.3838  0.4450  0.2755
 6161SOL    HW129945   0.600   0.090   7.083  1.8864 -1.4870  0.3730
 6161SOL    HW229946   0.666   0.111   6.946 -0.1367  1.4204  0.1216
 6162SOL     OW29947   2.778   3.780  16.048 -0.5650 -0.1108 -0.6200
 6162SOL    HW129948   2.726   3.775  15.967 -0.9799  0.0216 -0.3605
 6162SOL    HW229949   2.829   3.699  16.049  0.6703  0.6364 -2.6057
 6163SOL     OW29950   1.965   4.276   4.474 -0.1368 -0.9732 -0.4883
 6163SOL    HW129951   1.998   4.332   4.404 -1.9015  0.8436  0.1261
 6163SOL    HW229952   1.872   4.274   4.452  0.1104 -0.8751 -1.5407
 6164SOL     OW29953   3.766   4.629   8.235  0.4673  0.1285  1.0562
 6164SOL    HW129954   3.760   4.645   8.329  1.8731  0.6270  1.0652
 6164SOL    HW229955   3.851   4.585   8.241  0.6361  0.4651  1.1864
 6165SOL     OW29956   3.084   1.186   9.159 -0.2930  0.0264 -0.0390
 6165SOL    HW129957   3.097   1.281   9.158  1.8403 -0.2855 -1.4703
 6165SOL    HW229958   3.167   1.155   9.194 -1.6171 -0.3933  2.7217
 6166SOL     OW29959   4.307   2.751   5.771 -0.0099  0.2535 -0.4419
 6166SOL    HW129960   4.348   2.828   5.732 -0.2616  0.2682 -0.6765
 6166SOL    HW229961   4.236   2.738   5.708 -0.4021  1.0529 -0.1658
 6167SOL     OW29962   1.291   2.106  12.953 -0.1209  0.5062 -0.1628
 6167SOL    HW129963   1.243   2.034  12.912  0.7092  0.2038 -0.6277
 6167SOL    HW229964   1.371   2.062  12.982 -0.2398  1.1103  1.0732
 6168SOL     OW29965   1.888   1.975  10.155  0.0681 -0.6323 -0.2515
 6168SOL    HW129966   1.920   1.887  10.134 -0.6784 -1.0668  0.4165
 6168SOL    HW229967   1.800   1.963  10.119  0.0731  0.4763 -0.6139
 6169SOL     OW29968   4.450   1.593   6.408  0.4049 -0.0489 -0.0201
 6169SOL    HW129969   4.495   1.510   6.396  0.1774  0.0683 -1.6582
 6169SOL    HW229970   4.374   1.553   6.451 -0.5102  0.9068 -0.7577
 6170SOL     OW29971   2.950   0.595   6.753 -0.1008  0.6584  0.0064
 6170SOL    HW129972   2.860   0.625   6.738 -0.9587 -2.0644 -0.3463
 6170SOL    HW229973   2.964   0.612   6.846 -3.0433  1.1562  0.3428
 6171SOL     OW29974   0.974   4.632   7.155 -0.2341 -0.0692  0.0020
 6171SOL    HW129975   1.014   4.578   7.223 -1.5908 -0.0103  0.8359
 6171SOL    HW229976   0.969   4.578   7.076 -0.4926 -0.0030 -0.0270
 6172SOL     OW29977   3.069   1.952  11.627  0.3095  0.2579 -0.6490
 6172SOL    HW129978   3.078   1.860  11.651  0.4161  0.5063  0.2447
 6172SOL    HW229979   3.057   1.939  11.533 -1.9428 -1.2579 -0.1498
 6173SOL     OW29980   0.326   3.121  14.017 -0.3690  0.0913  0.0508
 6173SOL    HW129981   0.281   3.203  13.999 -0.9704 -0.0461  0.9351
 6173SOL    HW229982   0.319   3.126  14.112 -1.4375  1.7664 -0.1135
 6174SOL     OW29983   3.058   3.895   4.631  0.1404 -0.4290  0.4379
 6174SOL    HW129984   3.100   3.816   4.664 -1.8787 -2.0724 -0.9519
 6174SOL    HW229985   3.114   3.924   4.558  0.7364  2.8031  2.1843
 6175SOL     OW29986   1.105   4.573   2.629  0.6941 -0.4316  0.5986
 6175SOL    HW129987   1.069   4.487   2.648  0.9792 -0.2724  1.8507
 6175SOL    HW229988   1.055   4.640   2.675 -1.3120 -1.7187  0.2945
 6176SOL     OW29989   4.163   1.429   3.836  0.6000  0.5097 -0.2240
 6176SOL    HW129990   4.157   1.353   3.778  0.4150  1.7556 -1.8416
 6176SOL    HW229991   4.178   1.505   3.779 -0.3426  0.6022 -0.3532
 6177SOL     OW29992   0.496   4.346   0.642 -0.3922 -0.4709  0.0926
 6177SOL    HW129993   0.424   4.372   0.699 -0.7065  2.0983 -1.4817
 6177SOL    HW229994   0.545   4.428   0.635  1.7016 -1.7328 -0.0113
 6178SOL     OW29995   3.835   3.724   2.728 -0.3732 -0.2627  0.2056
 6178SOL    HW129996   3.777   3.667   2.778 -1.5268  0.6030 -0.1447
 6178SOL    HW229997   3.763   3.755   2.672 -0.5753 -0.1125  0.5456
 6179SOL     OW29998   4.200   2.068   4.069 -0.4356  0.3925  0.1752
 6179SOL    HW129999   4.105   2.073   4.074 -0.3922  0.9157  0.4566
 6179SOL    HW230000   4.206   2.071   3.974  0.4531 -1.4915  0.1756
 6180SOL     OW30001   2.814   1.332   1.078 -0.2329 -0.1122 -0.2900
 6180SOL    HW130002   2.906   1.358   1.068  0.1764 -1.4162  0.1001
 6180SOL    HW230003   2.766   1.376   1.007  2.1012  2.8978  0.0121
 6181SOL     OW30004   0.345   1.448   0.847  0.5841  0.3014  0.2868
 6181SOL    HW130005   0.435   1.469   0.819  0.4525  0.0883 -0.3046
 6181SOL    HW230006   0.306   1.535   0.842 -0.1453  0.0225  1.2454
 6182SOL     OW30007   3.571   1.435   2.139  0.3451 -0.5790 -0.4229
 6182SOL    HW130008   3.497   1.376   2.125 -0.2817  0.2113 -0.4115
 6182SOL    HW230009   3.555   1.455   2.231  2.3488 -1.0198  0.0166
 6183SOL     OW30010   0.585   4.306   2.553  1.0756  1.1067  0.1317
 6183SOL    HW130011   0.591   4.218   2.516 -0.3256  1.1537 -0.2111
 6183SOL    HW230012   0.551   4.356   2.478 -1.2232  1.3693  1.3579
 6184SOL     OW30013   3.605   2.142   8.214  0.6422 -0.1226  0.5053
 6184SOL    HW130014   3.657   2.161   8.292  0.5570  0.5916  0.3924
 6184SOL    HW230015   3.581   2.050   8.218 -0.7257  0.1976 -0.4611
 6185SOL     OW30016   3.514   0.959   7.694  0.5780 -0.2975  0.3435
 6185SOL    HW130017   3.447   0.932   7.630  1.4624  0.7019 -1.0239
 6185SOL    HW230018   3.585   0.899   7.673  1.7996  0.8641  1.1208
 6186SOL     OW30019   2.894   0.839   4.119  0.3016  0.2717 -0.0545
 6186SOL    HW130020   2.982   0.811   4.094  1.0979  0.4955  2.4921
 6186SOL    HW230021   2.909   0.840   4.214 -0.2424  0.4851  0.0304
 6187SOL     OW30022   1.507   1.585   7.831  0.2954 -0.6448 -0.5401
 6187SOL    HW130023   1.463   1.511   7.872 -1.1230  1.1608  1.2241
 6187SOL    HW230024   1.584   1.600   7.887  0.3282 -0.4915 -0.6268
 6188SOL     OW30025   0.551   4.028   3.643  0.5087 -0.0623  0.2493
 6188SOL    HW130026   0.571   3.974   3.566  1.1079  2.0737 -1.0935
 6188SOL    HW230027   0.488   3.971   3.687  1.5487 -0.6017  1.0491
 6189SOL     OW30028   1.301   1.842   0.650  0.1664 -0.4556  0.0303
 6189SOL    HW130029   1.292   1.925   0.697  1.1364 -0.0635 -0.4778
 6189SOL    HW230030   1.370   1.852   0.585  0.8107  1.1642  0.9572
 6190SOL     OW30031   1.707   4.031  16.420 -0.5189 -0.1058 -0.4203
 6190SOL    HW130032   1.768   3.985  16.478 -0.6174  0.4795  0.1429
 6190SOL    HW230033   1.757   4.112  16.431  1.2225 -0.9788 -1.9581
 6191SOL     OW30034   0.801   2.368   8.217 -0.3474  0.1203  0.0188
 6191SOL    HW130035   0.831   2.406   8.299  0.7715  0.2600 -0.4559
 6191SOL    HW230036   0.862   2.403   8.152 -0.0499  2.6093  1.6646
 6192SOL     OW30037   1.469   4.005   4.827 -0.0038  0.9975 -0.0851
 6192SOL    HW130038   1.448   3.995   4.735  2.4808  1.5842 -0.7313
 6192SOL    HW230039   1.467   4.101   4.825 -1.7525  0.9835  0.8441
 6193SOL     OW30040   4.567   2.748   7.156  0.8117 -0.0422  0.3269
 6193SOL    HW130041   4.512   2.722   7.082  0.5052  2.1657 -0.2005
 6193SOL    HW230042   4.627   2.815   7.125 -0.1137 -0.0701 -1.5320
 6194SOL     OW30043   2.351   1.595   0.536  0.4390 -0.2895  0.3570
 6194SOL    HW130044   2.343   1.500   0.532 -2.3153 -0.0366  0.0507
 6194SOL    HW230045   2.272   1.623   0.582  1.0015 -0.8005  1.6549
 6195SOL     OW30046   0.788   2.388   3.031 -0.2931 -0.1363  0.1187
 6195SOL    HW130047   0.788   2.423   2.942  0.0163 -0.9557 -0.2031
 6195SOL    HW230048   0.718   2.324   3.020 -1.3689  0.9212  0.8478
 6196SOL     OW30049   1.711   4.384  16.104 -0.1577  0.0582  0.1805
 6196SOL    HW130050   1.668   4.458  16.062  1.1635  1.4536  1.2957
 6196SOL    HW230051   1.763   4.426  16.172  0.1827 -1.4951  0.8893
 6197SOL     OW30052   1.367   4.243  12.463  0.1513  0.6375 -0.3268
 6197SOL    HW130053   1.347   4.187  12.537  0.3827 -0.3334 -0.9976
 6197SOL    HW230054   1.400   4.317  12.513 -0.6638  0.1236  0.9505
 6198SOL     OW30055   3.576   3.196  12.709  0.4954 -0.0443  0.6312
 6198SOL    HW130056   3.664   3.159  12.710  0.3957 -0.1935  3.8833
 6198SOL    HW230057   3.523   3.117  12.695  1.2742 -0.8529  2.3070
 6199SOL     OW30058   1.611   2.949  16.574  0.8853  0.1161  0.7514
 6199SOL    HW130059   1.525   2.963  16.614  0.8242  0.7095  0.4170
 6199SOL    HW230060   1.621   3.034  16.532 -1.1986 -1.6732 -3.4161
 6200SOL     OW30061   0.416   4.558   9.304 -0.2416 -0.0197  0.2357
 6200SOL    HW130062   0.370   4.484   9.265  0.7847 -0.4862 -0.0900
 6200SOL    HW230063   0.353   4.589   9.368  0.3509  0.9837  0.3410
 6201SOL     OW30064   3.491   0.401   5.550  0.6206  0.2885  0.3825
 6201SOL    HW130065   3.560   0.336   5.533 -0.2692 -0.5976  0.1520
 6201SOL    HW230066   3.452   0.404   5.463 -0.3849 -1.6081  0.7747
 6202SOL     OW30067   3.383   0.027   9.270  0.1077  0.1430 -0.4548
 6202SOL    HW130068   3.455   4.694   9.245 -1.6101 -2.0807 -0.2847
 6202SOL    HW230069   3.381   0.094   9.202  1.3532  1.1199  0.4740
 6203SOL     OW30070   2.224   0.881   5.125  0.1521  0.4256  0.3996
 6203SOL    HW130071   2.263   0.808   5.077  1.7104  1.1874  0.5111
 6203SOL    HW230072   2.268   0.962   5.101 -0.3853  0.2602 -1.1092
 6204SOL     OW30073   2.104   4.028   8.322 -0.0184  0.2838 -0.3230
 6204SOL    HW130074   2.110   3.957   8.259 -1.7572  0.7258 -0.9947
 6204SOL    HW230075   2.119   4.107   8.270  0.7992  0.7038  0.5600
 6205SOL     OW30076   2.131   3.672   8.734  0.1702 -0.2018  0.5312
 6205SOL    HW130077   2.041   3.667   8.766  0.3322  3.2480  1.4627
 6205SOL    HW230078   2.159   3.582   8.753  0.2735 -0.2616  0.1087
 6206SOL     OW30079   1.470   0.111   5.408  0.5368 -0.7425  0.2780
 6206SOL    HW130080   1.399   0.047   5.406 -0.9739  0.9069  1.1065
 6206SOL    HW230081   1.425   0.194   5.392 -0.6566 -1.3387  0.5704
 6207SOL     OW30082   0.197   1.350   9.309  0.1220 -0.0206  0.4041
 6207SOL    HW130083   0.133   1.356   9.379 -1.5885 -1.1462 -1.0566
 6207SOL    HW230084   0.283   1.344   9.350 -0.8334 -0.6383  2.2956
 6208SOL     OW30085   3.278   0.684   3.761 -0.8973  0.3328  0.4410
 6208SOL    HW130086   3.253   0.649   3.847 -1.0045 -1.1136 -0.1733
 6208SOL    HW230087   3.282   0.774   3.792  0.9316 -0.0198  1.1765
 6209SOL     OW30088   4.076   0.622   2.226  0.0366  0.5792 -0.1084
 6209SOL    HW130089   4.109   0.533   2.213 -2.7109 -0.6492  1.3686
 6209SOL    HW230090   3.983   0.601   2.229  0.0452  0.7940  1.4966
 6210SOL     OW30091   1.098   3.022   7.847  0.4387  0.3176  0.1320
 6210SOL    HW130092   1.059   3.069   7.921 -0.2117 -1.1215  0.7060
 6210SOL    HW230093   1.132   3.094   7.794 -0.5468  1.3288  0.8711
 6211SOL     OW30094   0.776   2.716   6.826 -0.1491  0.2322 -0.0786
 6211SOL    HW130095   0.756   2.785   6.763 -3.9223  1.0510  2.0120
 6211SOL    HW230096   0.710   2.651   6.802  0.9703 -1.2404  0.8160
 6212SOL     OW30097   0.104   1.875   7.974 -0.1761  0.5167  0.0246
 6212SOL    HW130098   0.043   1.875   8.047 -1.1141 -2.1965 -0.7407
 6212SOL    HW230099   0.137   1.785   7.983  0.1814  0.8374  1.7865
 6213SOL     OW30100   1.504   1.774  15.342  0.5156 -0.1252  0.1421
 6213SOL    HW130101   1.504   1.840  15.411  2.0212  0.9113 -0.8579
 6213SOL    HW230102   1.425   1.802  15.296  0.5896 -0.6242 -0.2913
 6214SOL     OW30103   2.081   0.115   8.417 -0.4299 -0.0485  0.2896
 6214SOL    HW130104   2.156   0.173   8.426  0.7022 -1.5846  0.7394
 6214SOL    HW230105   2.117   0.031   8.444 -1.0162 -0.3688  0.0792
 6215SOL     OW30106   2.628   2.271   3.859 -0.2772 -0.0949 -0.4196
 6215SOL    HW130107   2.613   2.177   3.871 -0.3266 -0.0096  0.1934
 6215SOL    HW230108   2.541   2.309   3.866 -0.0825  0.2191  0.3236
 6216SOL     OW30109   2.532   4.334   7.050  0.0360 -0.1105  0.3598
 6216SOL    HW130110   2.523   4.421   7.089 -2.3827 -0.6275  0.9331
 6216SOL    HW230111   2.616   4.309   7.088  1.5672  2.0529 -1.5862
 6217SOL     OW30112   2.704   4.411   8.754 -0.7117 -0.2916 -0.3274
 6217SOL    HW130113   2.666   4.499   8.743  1.1514  0.5719  0.1741
 6217SOL    HW230114   2.739   4.408   8.665 -0.8987 -0.4077 -0.3973
 6218SOL     OW30115   0.853   1.848   4.760  0.0524  0.1267  0.1758
 6218SOL    HW130116   0.803   1.772   4.791 -0.2831  0.1446 -0.3267
 6218SOL    HW230117   0.939   1.812   4.738  1.1338  1.3885  2.3313
 6219SOL     OW30118   3.759   3.849   2.459  0.4732  0.1418  0.2411
 6219SOL    HW130119   3.738   3.805   2.376 -1.3833  2.3410 -0.4586
 6219SOL    HW230120   3.706   3.929   2.453  1.0749  0.6076  1.1105
 6220SOL     OW30121   2.047   2.490  13.311  0.5906  0.3196  0.9244
 6220SOL    HW130122   1.956   2.512  13.288  0.5970  0.9356  1.4732
 6220SOL    HW230123   2.028   2.434  13.386 -0.9126 -1.7495 -0.9892
 6221SOL     OW30124   0.115   0.229   2.814 -0.6798 -0.6989 -0.2327
 6221SOL    HW130125   0.180   0.282   2.768  0.4981 -1.5694  0.4299
 6221SOL    HW230126   0.155   0.197   2.894 -1.3203  0.7156  0.6392
 6222SOL     OW30127   4.390   0.993   3.265  0.1109  0.1955  0.0533
 6222SOL    HW130128   4.482   1.020   3.271 -0.0296  0.4394  1.0147
 6222SOL    HW230129   4.394   0.954   3.177 -0.2141 -0.9059  0.5246
 6223SOL     OW30130   4.203   1.426   6.966  1.1348  0.5209 -0.6190
 6223SOL    HW130131   4.276   1.364   6.970  0.3042 -0.5952 -2.4763
 6223SOL    HW230132   4.240   1.512   6.987  0.1634  0.4507  1.3857
 6224SOL     OW30133   3.595   4.182   6.791  0.4682 -0.0675 -0.1865
 6224SOL    HW130134   3.609   4.184   6.886 -0.9197  2.6392 -0.0360
 6224SOL    HW230135   3.662   4.242   6.758 -1.2376  0.4307 -2.8138
 6225SOL     OW30136   3.855   0.832   1.768  0.1474 -0.7620  0.0578
 6225SOL    HW130137   3.896   0.906   1.814  2.0478 -1.0062 -1.2381
 6225SOL    HW230138   3.887   0.752   1.809  1.7301 -0.3428 -0.3383
 6226SOL     OW30139   0.278   4.569  12.015  0.0382  0.0151  0.9459
 6226SOL    HW130140   0.201   4.513  12.021  0.8069 -1.0538  0.8470
 6226SOL    HW230141   0.297   4.580  12.108 -0.6655 -0.2264  1.1158
 6227SOL     OW30142   0.261   4.210   0.478 -0.1692  0.1174 -0.4115
 6227SOL    HW130143   0.318   4.276   0.518  0.1857 -0.6513  0.3421
 6227SOL    HW230144   0.304   4.200   0.393 -0.6861 -2.2065 -0.3912
 6228SOL     OW30145   0.765   0.434  11.733 -0.4777  0.2464 -0.1723
 6228SOL    HW130146   0.793   0.525  11.724  0.7756 -0.2662 -1.5076
 6228SOL    HW230147   0.852   0.394  11.741 -0.4216  0.3324 -0.3414
 6229SOL     OW30148   0.908   3.652   7.315  0.2626 -0.1696  0.3078
 6229SOL    HW130149   0.898   3.734   7.268  0.9570 -0.3706 -0.1721
 6229SOL    HW230150   0.904   3.584   7.248 -0.0416 -0.3128  0.4678
 6230SOL     OW30151   2.205   1.065   3.132 -0.1491  0.0558  0.1332
 6230SOL    HW130152   2.167   1.052   3.219 -0.9769  1.7466  0.0188
 6230SOL    HW230153   2.227   0.974   3.115 -1.7283 -0.7002  2.0201
 6231SOL     OW30154   4.509   1.928   7.669 -0.5987 -0.2696 -0.1259
 6231SOL    HW130155   4.587   1.952   7.720 -0.1773 -2.4994  0.2624
 6231SOL    HW230156   4.501   1.999   7.605 -2.2766 -0.4896 -0.1510
 6232SOL     OW30157   3.310   4.395   5.140  0.0716 -0.0100  0.0838
 6232SOL    HW130158   3.239   4.378   5.080  0.0098 -0.7765  0.3738
 6232SOL    HW230159   3.375   4.347   5.089  0.5671  0.3073  0.4024
 6233SOL     OW30160   4.654   4.331   2.521 -0.4733 -0.2872  0.3144
 6233SOL    HW130161   4.609   4.413   2.504 -2.1902 -1.4294 -0.6240
 6233SOL    HW230162   4.679   4.295   2.436 -2.2754  0.9950 -0.7528
 6234SOL     OW30163   4.355   3.081   9.249  0.5501  0.4003  0.1401
 6234SOL    HW130164   4.389   3.012   9.191  2.4079  0.6280  0.9604
 6234SOL    HW230165   4.261   3.069   9.264  0.6076 -0.1728  0.0624
 6235SOL     OW30166   3.487   1.710   6.985 -0.2039  0.1810  0.1397
 6235SOL    HW130167   3.559   1.711   7.047  0.0000  1.3290 -0.1154
 6235SOL    HW230168   3.506   1.622   6.952  2.2240 -0.0462  2.1517
 6236SOL     OW30169   0.793   3.632  16.556  0.0129 -0.9433 -0.0936
 6236SOL    HW130170   0.744   3.573  16.500 -1.1635  0.4268 -0.5215
 6236SOL    HW230171   0.768   3.717  16.520 -0.3194 -0.2989  1.6296
 6237SOL     OW30172   1.101   0.851   9.520  0.1144  0.0909 -0.0153
 6237SOL    HW130173   1.171   0.796   9.554 -1.2842 -0.2056  2.3473
 6237SOL    HW230174   1.105   0.911   9.595 -0.7554  1.6924 -1.2314
 6238SOL     OW30175   3.815   4.691   6.521  0.6000 -0.4270 -0.5450
 6238SOL    HW130176   3.751   4.699   6.591  1.6540  1.0092  0.2495
 6238SOL    HW230177   3.776   0.036   6.467  0.3059  0.6740  1.1099
 6239SOL     OW30178   3.431   4.199   8.450  0.2662 -0.3441  0.8035
 6239SOL    HW130179   3.375   4.159   8.517  2.1022 -2.5335  1.0466
 6239SOL    HW230180   3.518   4.165   8.471  0.9026 -0.4897 -2.0001
 6240SOL     OW30181   2.985   1.945  15.817 -0.6303  0.2556  0.1643
 6240SOL    HW130182   3.017   1.866  15.859  0.3601  0.3169 -0.4796
 6240SOL    HW230183   2.964   1.987  15.900  2.4622  1.4738  0.3208
 6241SOL     OW30184   0.616   0.843   4.199 -0.4863  0.3779  0.2409
 6241SOL    HW130185   0.641   0.751   4.206  0.9789  0.5735 -2.3161
 6241SOL    HW230186   0.521   0.839   4.197 -0.3936 -0.9790 -0.9728
 6242SOL     OW30187   3.410   1.561   3.506  0.6267 -0.5247 -0.6334
 6242SOL    HW130188   3.488   1.511   3.482 -0.0864 -2.2618  0.6385
 6242SOL    HW230189   3.399   1.528   3.596 -0.6806  0.4968 -0.4165
 6243SOL     OW30190   3.140   1.853  11.036 -0.1475 -0.5168  0.7070
 6243SOL    HW130191   3.084   1.890  10.969 -0.5495  1.7292  2.2705
 6243SOL    HW230192   3.214   1.912  11.020 -1.1976  0.8977  1.0116
 6244SOL     OW30193   0.627   4.069   2.423  0.5420 -0.5690  0.2030
 6244SOL    HW130194   0.638   3.988   2.472  1.6167 -0.6473 -0.1880
 6244SOL    HW230195   0.582   4.038   2.344  0.5231 -1.5866  0.6119
 6245SOL     OW30196   1.110   0.148   4.850 -0.5556 -0.6037 -0.2759
 6245SOL    HW130197   1.188   0.109   4.809 -0.1679  0.0739 -0.1996
 6245SOL    HW230198   1.129   0.120   4.940  2.2110  1.1524 -0.2961
 6246SOL     OW30199   1.543   2.181   3.681  0.6301 -0.3346  0.0927
 6246SOL    HW130200   1.452   2.164   3.657  0.9208 -1.5090 -0.1839
 6246SOL    HW230201   1.584   2.205   3.598  2.2921  1.2175  1.3525
 6247SOL     OW30202   3.520   2.892   4.385 -0.2362  0.0928 -0.0440
 6247SOL    HW130203   3.502   2.986   4.389  5.1209  1.1420 -1.0498
 6247SOL    HW230204   3.596   2.885   4.443 -0.6355  3.7758  0.9050
 6248SOL     OW30205   1.964   2.582   5.631  0.3927  0.0334 -0.3960
 6248SOL    HW130206   2.023   2.521   5.586 -0.3170 -0.1806 -1.0446
 6248SOL    HW230207   1.946   2.533   5.711 -0.5461 -0.8607 -1.1471
 6249SOL     OW30208   3.713   2.315  14.754  0.2604  0.2963 -0.6218
 6249SOL    HW130209   3.695   2.376  14.826  2.4985  2.3126 -1.7675
 6249SOL    HW230210   3.796   2.289  14.794 -1.0721 -1.5371  0.9326
 6250SOL     OW30211   0.969   2.563  15.927  0.1109 -0.7339  0.1355
 6250SOL    HW130212   0.985   2.542  15.835 -0.4641  0.1594 -0.1654
 6250SOL    HW230213   0.948   2.656  15.935 -0.1276 -0.7422 -0.4326
 6251SOL     OW30214   0.134   0.477   3.974 -0.4208 -0.4573  0.3407
 6251SOL    HW130215   0.123   0.455   4.066  2.1325  0.6137  0.8744
 6251SOL    HW230216   0.127   0.573   3.980  0.1498 -0.4684  1.1659
 6252SOL     OW30217   3.538   2.074   8.993  0.2846 -0.0926  0.1703
 6252SOL    HW130218   3.547   2.041   8.903 -2.0519 -0.2647 -0.0091
 6252SOL    HW230219   3.465   2.135   8.982  0.6261  0.1705 -0.6835
 6253SOL     OW30220   0.762   3.986  15.912 -0.2964  1.1598  0.6651
 6253SOL    HW130221   0.772   4.070  15.868  0.2770  2.0201  2.4497
 6253SOL    HW230222   0.813   3.932  15.851 -0.5050  0.2926  1.2670
 6254SOL     OW30223   3.886   1.445  10.351 -0.5476 -0.1695  0.5828
 6254SOL    HW130224   3.807   1.498  10.342  0.1906  0.8342 -0.0555
 6254SOL    HW230225   3.862   1.354  10.333  1.2750 -0.5890  0.2364
 6255SOL     OW30226   4.022   4.173  10.178 -0.1249  0.1581 -0.4803
 6255SOL    HW130227   4.023   4.256  10.129 -2.0619 -0.6904 -1.9612
 6255SOL    HW230228   4.115   4.154  10.181 -0.2659  0.0775  2.6936
 6256SOL     OW30229   2.045   0.887   8.536  0.2897  0.0975  0.1353
 6256SOL    HW130230   2.033   0.968   8.584  3.2017  0.5346  0.1500
 6256SOL    HW230231   2.010   0.820   8.595  2.5205 -1.5098 -0.3651
 6257SOL     OW30232   0.124   1.882  10.085 -0.2058  0.1779 -0.3305
 6257SOL    HW130233   0.152   1.907   9.997  1.0556  0.3565  0.1259
 6257SOL    HW230234   0.087   1.798  10.059  4.0658 -1.3096 -1.5954
 6258SOL     OW30235   1.409   2.050  10.589 -0.2650 -0.4510  0.6935
 6258SOL    HW130236   1.345   2.111  10.626  0.6924 -0.7939  2.9314
 6258SOL    HW230237   1.485   2.093  10.628 -1.2666  0.4643  1.6516
 6259SOL     OW30238   0.659   4.669  17.650 -0.1397  0.0511  0.0162
 6259SOL    HW130239   0.734   4.619  17.618  0.5843  0.8393  0.4853
 6259SOL    HW230240   0.661   0.025  17.599  3.1035 -0.1881 -0.2383
 6260SOL     OW30241   2.261   4.198  16.745 -0.2847 -0.0997 -0.3544
 6260SOL    HW130242   2.246   4.147  16.824 -2.6071  0.3870 -0.5029
 6260SOL    HW230243   2.280   4.287  16.774 -0.4812 -0.1875  0.0417
 6261SOL     OW30244   3.760   2.327   6.466 -0.2061  0.1202  0.2099
 6261SOL    HW130245   3.776   2.258   6.530  1.7161  1.2361  0.9226
 6261SOL    HW230246   3.841   2.319   6.416 -0.2025  0.3867  0.1698
 6262SOL     OW30247   2.798   2.644   3.802 -0.1272 -0.0962 -0.2742
 6262SOL    HW130248   2.800   2.604   3.889  0.3052  0.6005  0.0332
 6262SOL    HW230249   2.720   2.605   3.762  0.3136 -2.9107  1.6190
 6263SOL     OW30250   2.477   0.564  14.730 -0.3836 -0.2449 -0.3233
 6263SOL    HW130251   2.418   0.492  14.708 -1.5664  0.2474  1.2036
 6263SOL    HW230252   2.511   0.537  14.815  0.2819 -1.1902 -0.8983
 6264SOL     OW30253   1.466   0.166   6.181  0.0885  0.1376 -0.1532
 6264SOL    HW130254   1.462   0.258   6.206 -2.2260 -0.1465  0.4689
 6264SOL    HW230255   1.376   0.167   6.148  0.3165  2.8574 -0.7108
 6265SOL     OW30256   1.076   2.472   8.991 -0.3206 -0.1121 -0.4272
 6265SOL    HW130257   1.023   2.551   9.002  1.5332  0.8608  1.6439
 6265SOL    HW230258   1.023   2.434   8.921 -0.8775 -0.3717  0.1250
 6266SOL     OW30259   3.129   0.929   9.339 -1.1748 -0.1352  0.4496
 6266SOL    HW130260   3.215   0.897   9.363 -0.4245  1.7974  0.3079
 6266SOL    HW230261   3.102   0.955   9.427  0.6942 -3.0580  1.8687
 6267SOL     OW30262   1.442   1.439  12.627 -0.2441  0.4669  0.0456
 6267SOL    HW130263   1.525   1.480  12.605  0.3396 -0.6644  0.1699
 6267SOL    HW230264   1.422   1.431  12.533 -0.1191 -2.5574  0.2850
 6268SOL     OW30265   2.946   2.996   8.419 -0.1840  0.1226  0.2684
 6268SOL    HW130266   2.936   3.005   8.324 -0.4420 -1.0876  0.1779
 6268SOL    HW230267   2.853   2.997   8.441 -0.2090  2.9159 -0.0140
 6269SOL     OW30268   2.054   0.489   0.357  0.2575 -0.1470 -0.0789
 6269SOL    HW130269   2.115   0.481   0.284  0.6163  0.2349  0.1802
 6269SOL    HW230270   2.071   0.580   0.381  0.9126 -0.7371  1.6779
 6270SOL     OW30271   3.070   2.561  10.173  0.3324  0.2889  0.5765
 6270SOL    HW130272   3.057   2.627  10.105 -1.5390 -0.8524 -0.1446
 6270SOL    HW230273   3.068   2.618  10.250 -2.7917 -0.5816  1.1269
 6271SOL     OW30274   0.672   1.121   6.636  0.3541 -0.3635 -0.7475
 6271SOL    HW130275   0.606   1.189   6.648  0.2175 -0.4271 -1.1504
 6271SOL    HW230276   0.752   1.173   6.649 -0.5242  1.0963 -1.1273
 6272SOL     OW30277   0.592   1.610   3.700 -0.1320  0.4012  0.2485
 6272SOL    HW130278   0.662   1.674   3.686  1.3553 -0.8500  2.0114
 6272SOL    HW230279   0.558   1.627   3.787  0.6297 -1.7861  0.9803
 6273SOL     OW30280   1.117   3.189   7.207 -0.0914 -0.3314 -0.5583
 6273SOL    HW130281   1.119   3.229   7.120  3.2178  2.0437  0.6369
 6273SOL    HW230282   1.198   3.223   7.244 -0.5973 -0.8703  1.0207
 6274SOL     OW30283   0.110   1.273   6.472 -0.0779 -0.3170 -0.6085
 6274SOL    HW130284   0.109   1.218   6.550  1.4684  2.1642  1.1539
 6274SOL    HW230285   0.192   1.243   6.432 -1.2635 -1.7092 -2.0191
 6275SOL     OW30286   1.015   3.021   4.156 -0.5856 -0.0733 -0.0850
 6275SOL    HW130287   1.036   3.111   4.184 -1.7739 -0.0689  0.7708
 6275SOL    HW230288   1.022   2.983   4.244  0.0193 -0.3710 -0.2630
 6276SOL     OW30289   3.166   1.155   7.641 -0.0770  0.4731 -0.4856
 6276SOL    HW130290   3.133   1.149   7.551  2.1523  2.7578 -1.4595
 6276SOL    HW230291   3.104   1.219   7.675  1.2254  1.9470 -0.8678
 6277SOL     OW30292   1.362   3.316   9.368 -0.4398 -0.2060 -0.1278
 6277SOL    HW130293   1.289   3.369   9.402 -0.5253 -1.1230  1.1208
 6277SOL    HW230294   1.373   3.371   9.290  2.3156 -0.0285  0.3904
 6278SOL     OW30295   0.395   0.457   7.379 -0.5253 -0.1749 -0.0720
 6278SOL    HW130296   0.447   0.518   7.431  1.9635 -2.8998  0.6243
 6278SOL    HW230297   0.308   0.496   7.389 -0.2802  0.0614  1.1231
 6279SOL     OW30298   1.762   2.899  11.669 -0.0580  0.3515 -0.4752
 6279SOL    HW130299   1.706   2.976  11.665 -1.2294 -0.5673 -2.1854
 6279SOL    HW230300   1.828   2.922  11.603  1.4554 -0.6900  0.6693
 6280SOL     OW30301   3.735   1.822   6.164 -0.1044  0.1502  0.0200
 6280SOL    HW130302   3.826   1.852   6.162  0.2371 -0.9253 -1.0355
 6280SOL    HW230303   3.741   1.737   6.120 -1.4132  0.1995 -0.2387
 6281SOL     OW30304   1.070   3.633   5.970  0.5401 -0.7091  0.3574
 6281SOL    HW130305   1.120   3.558   6.004 -2.2977 -0.8180  4.2720
 6281SOL    HW230306   1.087   3.698   6.039  0.9187 -0.1822 -0.2351
 6282SOL     OW30307   1.726   1.502   2.835 -0.3727 -0.2131  0.2078
 6282SOL    HW130308   1.789   1.448   2.787  0.0438  1.3671 -1.0143
 6282SOL    HW230309   1.694   1.432   2.893  1.9674 -3.2241 -2.1143
 6283SOL     OW30310   1.723   2.145   5.752 -0.3225 -0.2153 -0.6458
 6283SOL    HW130311   1.814   2.116   5.746 -0.9099 -1.9375 -0.9955
 6283SOL    HW230312   1.669   2.099   5.688 -0.5020 -0.5962 -0.2262
 6284SOL     OW30313   2.682   2.882  13.271 -0.4125  0.1457 -0.1542
 6284SOL    HW130314   2.728   2.890  13.187 -0.8904 -1.8401 -0.6168
 6284SOL    HW230315   2.615   2.819  13.242  0.0887  0.4972 -2.0427
 6285SOL     OW30316   2.636   3.779  16.493  0.6109  0.0797  0.3728
 6285SOL    HW130317   2.626   3.693  16.535 -1.8116 -0.1944 -0.7966
 6285SOL    HW230318   2.599   3.833  16.563 -1.6771 -1.8930  0.6658
 6286SOL     OW30319   3.345   3.131   0.352  0.8986  0.3911 -0.3790
 6286SOL    HW130320   3.273   3.137   0.289  1.0511  1.1457 -0.4745
 6286SOL    HW230321   3.299   3.094   0.427 -0.0585  0.5568 -0.8754
 6287SOL     OW30322   2.235   2.054  15.059 -0.7035  0.1772 -0.0760
 6287SOL    HW130323   2.281   1.987  15.110 -0.4200  0.0926 -0.4450
 6287SOL    HW230324   2.209   2.012  14.977  0.2862 -0.4962 -0.0391
 6288SOL     OW30325   0.929   1.419  11.383 -0.3842  0.1358  0.4430
 6288SOL    HW130326   0.941   1.453  11.295 -1.2728  0.3008  0.3811
 6288SOL    HW230327   1.018   1.407  11.415  0.3433  1.8250 -0.9612
 6289SOL     OW30328   0.533   3.069   4.107  1.0341  0.0770  0.2195
 6289SOL    HW130329   0.496   2.981   4.097 -1.6215  1.1787  0.6228
 6289SOL    HW230330   0.612   3.064   4.052  1.3906  0.3778  0.7029
 6290SOL     OW30331   3.532   2.165   6.746 -0.0999 -0.1718  0.1687
 6290SOL    HW130332   3.511   2.154   6.653  2.0696  0.4649 -0.3925
 6290SOL    HW230333   3.486   2.087   6.778  0.7439 -0.0452  1.6467
 6291SOL     OW30334   0.844   0.581  10.473  0.3381 -0.3871 -0.0527
 6291SOL    HW130335   0.931   0.569  10.511  0.8398  1.9438 -0.4494
 6291SOL    HW230336   0.825   0.672  10.495  0.7029 -0.2705 -0.2156
 6292SOL     OW30337   0.379   1.198   3.683 -0.4030 -0.6381  0.7934
 6292SOL    HW130338   0.446   1.262   3.708 -0.9636  0.5634 -0.8232
 6292SOL    HW230339   0.361   1.216   3.591  2.0558 -0.6929  0.2965
 6293SOL     OW30340   4.465   1.042   2.646 -0.7327 -0.0354  0.8093
 6293SOL    HW130341   4.419   0.997   2.576  1.2951 -1.7639  0.5866
 6293SOL    HW230342   4.543   0.987   2.648  0.2664  1.2897 -1.5068
 6294SOL     OW30343   0.774   3.449   9.160 -0.2193 -0.4743 -0.4846
 6294SOL    HW130344   0.797   3.438   9.252 -2.0350 -1.4840 -0.1519
 6294SOL    HW230345   0.811   3.372   9.117 -0.6767 -0.8586 -0.1856
 6295SOL     OW30346   0.865   1.255  12.183 -0.0016  0.0859 -0.5116
 6295SOL    HW130347   0.930   1.209  12.129 -0.1081  0.6609 -1.1341
 6295SOL    HW230348   0.791   1.232  12.126 -1.2685  0.7846  0.8798
 6296SOL     OW30349   3.492   1.882   6.020 -0.1762  0.3415  0.0596
 6296SOL    HW130350   3.532   1.884   6.107  0.3823 -0.7876 -0.1727
 6296SOL    HW230351   3.563   1.854   5.963 -0.7305 -2.0006  0.5043
 6297SOL     OW30352   4.627   1.779   5.560  0.5582 -0.2034 -0.1117
 6297SOL    HW130353   4.628   1.688   5.589 -0.0236 -0.3321 -0.4958
 6297SOL    HW230354   4.572   1.822   5.626 -1.5330 -1.8612 -0.7948
 6298SOL     OW30355   4.030   3.627   9.218 -0.1589  0.7748 -0.6591
 6298SOL    HW130356   4.055   3.636   9.126  2.5842 -1.6985 -0.1385
 6298SOL    HW230357   3.962   3.693   9.226 -2.3829 -1.0749 -4.4982
 6299SOL     OW30358   2.963   1.187   4.944  0.1916 -0.1277 -0.1375
 6299SOL    HW130359   2.878   1.230   4.948 -0.3310 -1.1497 -0.3912
 6299SOL    HW230360   2.966   1.129   5.020  1.3933  1.4389  1.0093
 6300SOL     OW30361   2.196   0.593   2.229  0.2382  0.1547 -0.0665
 6300SOL    HW130362   2.140   0.582   2.152  0.1422  0.7221 -0.0787
 6300SOL    HW230363   2.282   0.598   2.188  0.4433 -0.1040  0.3360
 6301SOL     OW30364   2.237   1.090   4.306  0.2493 -0.1203  0.1731
 6301SOL    HW130365   2.233   1.018   4.369  0.6181 -1.6832 -1.5977
 6301SOL    HW230366   2.195   1.058   4.226  1.4778 -2.5345  0.4935
 6302SOL     OW30367   1.886   2.394   5.824  0.2027  0.0533 -0.1751
 6302SOL    HW130368   1.825   2.329   5.791  0.8043 -1.2645  1.3389
 6302SOL    HW230369   1.869   2.389   5.918  0.6130 -1.9804 -0.2059
 6303SOL     OW30370   1.872   3.512   1.291 -0.0789 -0.0078  0.2928
 6303SOL    HW130371   1.779   3.496   1.310  0.3604 -2.5841  0.3730
 6303SOL    HW230372   1.897   3.570   1.363 -0.1495 -0.0456  0.3483
 6304SOL     OW30373   1.430   3.784  17.498  0.2409 -0.1674 -0.3860
 6304SOL    HW130374   1.387   3.777  17.412  0.1585 -0.7549 -0.2961
 6304SOL    HW230375   1.363   3.748  17.555  1.3749 -3.6670 -1.2436
 6305SOL     OW30376   1.083   3.386   6.454 -0.4797 -0.2059  0.6534
 6305SOL    HW130377   1.167   3.400   6.411 -2.0685  0.2942 -2.2971
 6305SOL    HW230378   1.053   3.310   6.403  0.0924 -0.7288  1.0954
 6306SOL     OW30379   3.558   3.972   2.103 -0.1374  0.0705  0.1853
 6306SOL    HW130380   3.595   4.058   2.124  0.6482 -0.1175 -0.4449
 6306SOL    HW230381   3.475   3.976   2.150 -1.3951 -3.8492 -1.6832
 6307SOL     OW30382   2.817   4.411   8.520 -0.4506  0.0935 -0.0333
 6307SOL    HW130383   2.858   4.358   8.452 -2.1109 -0.3111 -0.7193
 6307SOL    HW230384   2.858   4.497   8.511  3.3992 -2.2052 -4.3191
 6308SOL     OW30385   0.648   3.921   1.455 -0.3367 -0.4020  0.5197
 6308SOL    HW130386   0.671   3.865   1.529 -0.7434  0.7444  1.5096
 6308SOL    HW230387   0.555   3.907   1.440 -1.1723  2.2325  3.2689
 6309SOL     OW30388   1.356   3.210   3.174  0.5647 -0.1200  0.0461
 6309SOL    HW130389   1.321   3.121   3.175 -0.1726  0.1260 -2.5770
 6309SOL    HW230390   1.447   3.190   3.155  0.4305 -1.0996  0.4246
 6310SOL     OW30391   4.138   1.794  11.388  0.8243  0.5888  0.2313
 6310SOL    HW130392   4.092   1.872  11.419 -0.8100 -0.6373  0.9643
 6310SOL    HW230393   4.093   1.730  11.444 -1.6554 -0.2361 -2.6889
 6311SOL     OW30394   0.068   4.532  12.760  0.3362  0.1587 -0.3397
 6311SOL    HW130395   0.107   4.588  12.828  1.4438 -0.5916 -0.3484
 6311SOL    HW230396   0.134   4.470  12.727 -0.1285  0.2275 -1.3676
 6312SOL     OW30397   4.393   1.226   6.974  0.0471  0.4111  0.2681
 6312SOL    HW130398   4.476   1.215   6.928 -1.0442  1.5042 -1.9832
 6312SOL    HW230399   4.415   1.179   7.054 -1.4692 -1.4639 -0.4108
 6313SOL     OW30400   2.836   4.405   3.755 -0.4887 -0.2346 -0.0331
 6313SOL    HW130401   2.811   4.469   3.687 -2.4549 -1.1068 -0.1568
 6313SOL    HW230402   2.747   4.379   3.781 -0.6484 -0.2997 -0.6344
 6314SOL     OW30403   3.777   2.680   7.644  0.0653 -0.1780  0.4312
 6314SOL    HW130404   3.795   2.597   7.600 -0.6458  1.0550 -2.1862
 6314SOL    HW230405   3.807   2.735   7.571  0.8423 -2.0016 -0.6321
 6315SOL     OW30406   4.029   3.780   0.146 -0.1906 -0.3605 -0.0601
 6315SOL    HW130407   4.091   3.717   0.111 -2.4775 -3.4190  1.4293
 6315SOL    HW230408   3.950   3.727   0.146 -1.0541  0.9257 -0.1746
 6316SOL     OW30409   1.838   0.404   2.107 -0.3810 -0.2368 -0.4742
 6316SOL    HW130410   1.841   0.310   2.127  1.6176 -0.1315 -0.2380
 6316SOL    HW230411   1.929   0.432   2.094 -0.3369 -0.1344  0.0677
 6317SOL     OW30412   1.449   0.355  16.834 -0.0223  0.2347  0.4435
 6317SOL    HW130413   1.409   0.343  16.920 -0.3259 -1.3462  0.0776
 6317SOL    HW230414   1.392   0.295  16.786  0.3638 -0.7181  1.1771
 6318SOL     OW30415   0.281   4.171  13.020 -0.1667 -0.5059  0.0033
 6318SOL    HW130416   0.200   4.220  13.035 -0.3677 -0.2801 -1.7405
 6318SOL    HW230417   0.302   4.109  13.089  2.4287 -0.7949 -1.0185
 6319SOL     OW30418   0.338   1.707  14.276  0.2659 -0.2046 -0.2898
 6319SOL    HW130419   0.387   1.665  14.206  0.4743 -0.3400 -0.0632
 6319SOL    HW230420   0.312   1.634  14.334 -0.2902  0.5750  0.4488
 6320SOL     OW30421   4.195   3.763   0.460 -0.1020 -0.5895  0.6232
 6320SOL    HW130422   4.127   3.830   0.455  1.5721  1.0978  0.7571
 6320SOL    HW230423   4.274   3.813   0.440 -3.0013  3.2314 -1.1338
 6321SOL     OW30424   1.709   0.491   3.560 -0.6440 -0.5031  0.2117
 6321SOL    HW130425   1.797   0.500   3.524 -0.6679  0.6889  0.4435
 6321SOL    HW230426   1.678   0.418   3.507 -0.9117  0.1298 -0.4898
 6322SOL     OW30427   3.400   4.626   8.282 -0.1601  0.2107  0.0798
 6322SOL    HW130428   3.366   4.708   8.318  3.7029  1.8251 -0.0340
 6322SOL    HW230429   3.455   4.658   8.210 -2.0485 -0.5835 -1.7300
 6323SOL     OW30430   2.313   2.215   8.193  0.1489  0.5954 -0.1497
 6323SOL    HW130431   2.366   2.137   8.213  0.7602  0.5783 -1.8365
 6323SOL    HW230432   2.245   2.209   8.260  0.6691 -0.0180  0.3170
 6324SOL     OW30433   3.232   3.025   7.277  0.1538 -0.0697  0.4637
 6324SOL    HW130434   3.204   3.012   7.367 -2.5010 -0.8553 -0.4510
 6324SOL    HW230435   3.159   2.999   7.220  0.5487  1.4215 -0.7108
 6325SOL     OW30436   0.120   2.679   3.295 -0.1273 -0.0690  0.3072
 6325SOL    HW130437   0.165   2.604   3.257 -1.2534 -0.7649  0.3459
 6325SOL    HW230438   0.182   2.698   3.366  0.9873  0.2945 -0.7707
 6326SOL     OW30439   2.337   1.913  17.156  0.2299  0.0965  0.2797
 6326SOL    HW130440   2.320   1.852  17.228  0.1875 -0.9417 -0.6111
 6326SOL    HW230441   2.397   1.860  17.104 -1.4751 -0.1018 -1.4877
 6327SOL     OW30442   0.035   0.965   5.075  0.3423  0.1260 -0.8247
 6327SOL    HW130443   0.035   1.061   5.081  0.4283  0.0745 -0.1109
 6327SOL    HW230444   0.121   0.958   5.034 -0.2873 -2.0631 -1.7562
 6328SOL     OW30445   0.349   1.772   6.917  0.2418 -0.1434 -0.7536
 6328SOL    HW130446   0.425   1.714   6.925 -0.1489 -0.1575  2.5094
 6328SOL    HW230447   0.337   1.800   7.007  1.0960 -1.1260 -0.3324
 6329SOL     OW30448   4.405   2.047   1.276 -0.0489 -0.0600  0.6882
 6329SOL    HW130449   4.342   2.118   1.290 -0.8763 -0.8238  0.9079
 6329SOL    HW230450   4.477   2.085   1.227  1.0933 -0.8191  1.8012
 6330SOL     OW30451   1.437   0.849   4.241  0.2051 -0.1229  0.0231
 6330SOL    HW130452   1.425   0.843   4.146 -0.4840  1.1848  0.0230
 6330SOL    HW230453   1.349   0.863   4.276 -0.7153 -1.3514 -1.8153
 6331SOL     OW30454   4.624   2.214   7.026  0.1804 -0.2575  0.3039
 6331SOL    HW130455   4.562   2.268   7.073  0.1958  0.3144 -0.3300
 6331SOL    HW230456   4.703   2.233   7.076  0.7342 -1.2521 -0.1817
 6332SOL     OW30457   1.561   3.809   8.097  0.4037  0.1848 -0.1108
 6332SOL    HW130458   1.558   3.890   8.046  0.1286 -1.0702 -2.1089
 6332SOL    HW230459   1.601   3.845   8.176  1.2860  0.3622 -0.6405
 6333SOL     OW30460   2.154   3.354   2.163  0.2763 -0.2838 -0.4159
 6333SOL    HW130461   2.177   3.327   2.252  0.3720  0.8601 -0.0968
 6333SOL    HW230462   2.100   3.276   2.149 -1.5454  1.7225 -4.7769
 6334SOL     OW30463   2.572   3.725   4.202  0.0668 -0.0217 -0.3198
 6334SOL    HW130464   2.571   3.687   4.290 -2.9318 -2.4718 -1.4353
 6334SOL    HW230465   2.624   3.659   4.156  1.5292  0.6085  0.4160
 6335SOL     OW30466   4.156   4.272   8.804  0.7689 -0.2015 -0.4444
 6335SOL    HW130467   4.121   4.352   8.764 -0.3319 -1.3358 -1.7397
 6335SOL    HW230468   4.170   4.213   8.730  1.0783 -1.1438  0.3655
 6336SOL     OW30469   1.302   0.166  16.397  0.1962  0.0917 -0.2352
 6336SOL    HW130470   1.368   0.235  16.393  2.5615 -2.0513  0.7739
 6336SOL    HW230471   1.219   0.205  16.370 -0.6999 -1.8747 -0.3153
 6337SOL     OW30472   4.572   2.270  11.380  0.2568  0.0613 -0.3014
 6337SOL    HW130473   4.558   2.287  11.473  0.8219 -1.7546  0.1060
 6337SOL    HW230474   4.603   2.180  11.382  0.6318  0.2395  1.3590
 6338SOL     OW30475   0.771   0.891   5.972  0.1367  0.3000  0.3605
 6338SOL    HW130476   0.850   0.852   6.010  0.7059  0.4643 -0.6630
 6338SOL    HW230477   0.719   0.888   6.053  0.1275 -1.6305  0.2922
 6339SOL     OW30478   1.013   2.877   2.295 -0.1105 -0.3166  0.4385
 6339SOL    HW130479   1.053   2.963   2.282 -0.1752 -0.1282  1.4734
 6339SOL    HW230480   1.037   2.828   2.216 -0.8291  2.0257 -1.2251
 6340SOL     OW30481   0.969   0.999   2.094 -0.1929  0.2837 -0.7281
 6340SOL    HW130482   0.881   1.026   2.121  1.2258  2.4877  1.7484
 6340SOL    HW230483   0.963   0.999   1.999  1.1703 -0.7743 -0.8196
 6341SOL     OW30484   3.293   2.538   8.591 -0.0503 -0.6027 -0.1099
 6341SOL    HW130485   3.220   2.561   8.649 -0.9358 -2.1679 -0.6186
 6341SOL    HW230486   3.348   2.616   8.605 -1.6539  0.7555 -1.4149
 6342SOL     OW30487   4.169   3.776   5.118  0.5566  0.5694 -0.0667
 6342SOL    HW130488   4.249   3.780   5.065  0.1126 -1.3753 -0.8863
 6342SOL    HW230489   4.196   3.814   5.201  2.2095  1.7241 -1.1377
 6343SOL     OW30490   4.506   0.636   6.873  0.5988  0.4070 -0.9747
 6343SOL    HW130491   4.563   0.604   6.942  0.7760  1.0371 -0.8247
 6343SOL    HW230492   4.499   0.730   6.889 -3.0288  0.5667 -3.5069
 6344SOL     OW30493   4.046   2.008   2.423 -0.1302  0.2822  0.1703
 6344SOL    HW130494   4.057   1.913   2.419 -1.4449  0.1243  0.4978
 6344SOL    HW230495   4.038   2.031   2.516 -0.2946 -0.2685  0.2918
 6345SOL     OW30496   4.658   0.873   7.225 -0.2389  0.1107 -0.4088
 6345SOL    HW130497   4.647   0.816   7.300 -1.5323 -0.1834 -0.8215
 6345SOL    HW230498   0.028   0.868   7.211 -0.2732 -1.7107  0.0897
 6346SOL     OW30499   3.767   2.796  16.481 -0.0763  0.4838  0.1813
 6346SOL    HW130500   3.819   2.871  16.508  1.3062  0.5823 -2.7805
 6346SOL    HW230501   3.692   2.845  16.447  0.5362  1.8034  0.7323
 6347SOL     OW30502   2.712   2.421   4.964 -0.0107  0.1858  0.6135
 6347SOL    HW130503   2.757   2.464   5.036 -0.1883  0.4147  0.5878
 6347SOL    HW230504   2.792   2.393   4.919 -0.1423  0.4881  0.1902
 6348SOL     OW30505   2.364   3.549   5.251  0.4613  0.2234 -0.1381
 6348SOL    HW130506   2.343   3.492   5.326  0.4239  2.3669  1.4855
 6348SOL    HW230507   2.433   3.595   5.299  0.8919  1.1829 -1.7097
 6349SOL     OW30508   2.529   1.863   7.136 -0.1448 -0.1661 -0.2312
 6349SOL    HW130509   2.528   1.893   7.227 -0.0294  0.3084 -0.3867
 6349SOL    HW230510   2.587   1.923   7.089  0.4247 -0.1327  0.5235
 6350SOL     OW30511   0.569   2.257  15.461  0.9792 -0.2681 -0.1321
 6350SOL    HW130512   0.599   2.222  15.377  0.0321  2.3877 -1.5902
 6350SOL    HW230513   0.657   2.273  15.493  1.4926 -0.6895 -1.3371
 6351SOL     OW30514   0.434   4.557   7.610 -0.4514  0.3336 -0.0829
 6351SOL    HW130515   0.461   4.597   7.527 -1.3406  0.4109 -0.3307
 6351SOL    HW230516   0.364   4.616   7.637 -0.5155 -0.6425  1.9163
 6352SOL     OW30517   3.040   1.073   5.972 -0.2881  0.0036  0.5184
 6352SOL    HW130518   3.106   1.004   5.977 -0.6325 -0.3377  0.3336
 6352SOL    HW230519   3.020   1.054   5.880 -1.0281 -0.8921  0.8625
 6353SOL     OW30520   3.673   0.219   5.495 -0.1988  0.4199  0.0004
 6353SOL    HW130521   3.675   0.135   5.450  1.1618 -0.2466  1.2962
 6353SOL    HW230522   3.766   0.237   5.510 -0.0470 -1.2244  1.0178
 6354SOL     OW30523   2.430   0.544   3.896  0.4843  0.0235 -0.1819
 6354SOL    HW130524   2.480   0.618   3.859  2.2110 -0.8150  0.4798
 6354SOL    HW230525   2.344   0.584   3.882 -0.5282 -2.4774 -0.9964
 6355SOL     OW30526   0.819   4.689  14.842 -0.5718 -0.6016  0.3906
 6355SOL    HW130527   0.788   4.722  14.926 -1.5545 -0.1443 -0.1614
 6355SOL    HW230528   0.739   4.651  14.807  0.7441 -1.0965 -2.1334
 6356SOL     OW30529   4.129   0.554  12.704 -0.7971  0.3612  0.2944
 6356SOL    HW130530   4.089   0.625  12.753  0.3352  0.0755  1.6361
 6356SOL    HW230531   4.168   0.500  12.773  0.2260  0.2365 -0.3713
 6357SOL     OW30532   4.236   2.217   9.100 -0.3020 -0.1761 -0.1025
 6357SOL    HW130533   4.207   2.294   9.149 -1.6007 -1.1377  0.6676
 6357SOL    HW230534   4.157   2.161   9.099  0.0798 -0.7862  3.0396
 6358SOL     OW30535   3.398   3.885   6.440 -0.2257  0.6500 -0.2012
 6358SOL    HW130536   3.341   3.956   6.468 -0.9329 -0.3360  0.8800
 6358SOL    HW230537   3.438   3.925   6.363  1.5811  0.6195  0.7178
 6359SOL     OW30538   0.088   2.716  10.030  0.0972  0.3853  0.3965
 6359SOL    HW130539   0.182   2.732  10.028  0.1992  0.0468  2.1951
 6359SOL    HW230540   0.075   2.657  10.105 -1.7847  2.8452  2.0252
 6360SOL     OW30541   3.502   4.141   7.363  0.2609 -0.5176  0.7027
 6360SOL    HW130542   3.493   4.106   7.452  1.6981 -0.1120  1.0135
 6360SOL    HW230543   3.419   4.104   7.335  0.7816  0.2482 -1.8114
 6361SOL     OW30544   4.094   1.119  13.130  0.1439  0.6286  0.0814
 6361SOL    HW130545   4.090   1.214  13.118  0.1599  1.0646  3.3088
 6361SOL    HW230546   4.061   1.109  13.220 -1.3435  3.3410 -0.1373
 6362SOL     OW30547   3.989   0.695   3.027 -0.5620  0.3770  0.5458
 6362SOL    HW130548   3.994   0.601   3.013  1.1475  0.8620 -2.0004
 6362SOL    HW230549   4.045   0.704   3.104 -2.0263 -1.2016  1.7878
 6363SOL     OW30550   0.421   3.491   2.760 -0.5437 -0.2577  0.3166
 6363SOL    HW130551   0.466   3.407   2.773 -1.0478 -0.6634 -0.5046
 6363SOL    HW230552   0.335   3.461   2.789 -1.0819 -1.5017 -2.4793
 6364SOL     OW30553   3.954   0.365  15.574  0.2365 -0.2032 -0.0863
 6364SOL    HW130554   3.906   0.344  15.654 -2.9191  0.0241 -1.9272
 6364SOL    HW230555   3.995   0.282  15.549 -0.7518 -1.2693  1.9027
 6365SOL     OW30556   4.385   4.661  12.738 -0.6894 -0.2474 -0.3167
 6365SOL    HW130557   4.459   4.715  12.710 -0.6080 -1.1928 -1.9388
 6365SOL    HW230558   4.413   4.569  12.742 -2.9226 -0.8853  0.3833
 6366SOL     OW30559   1.394   4.519  13.139  0.6025 -0.3603  0.6460
 6366SOL    HW130560   1.335   4.464  13.087  1.6025 -1.9609  1.2303
 6366SOL    HW230561   1.446   4.452  13.183  0.2212  1.1988  3.4853
 6367SOL     OW30562   4.285   3.493   7.222  0.1680  0.2462  0.2817
 6367SOL    HW130563   4.256   3.405   7.244 -0.0056  0.1036 -0.5238
 6367SOL    HW230564   4.209   3.548   7.240  0.3702 -0.1321  2.3790
 6368SOL     OW30565   4.357   0.129   6.728 -0.0846 -0.0537  0.3513
 6368SOL    HW130566   4.313   0.206   6.765  0.5832  0.6521 -0.3424
 6368SOL    HW230567   4.433   0.174   6.692 -0.6160  1.5725  1.2379
 6369SOL     OW30568   3.450   1.394  12.365  0.2782  0.7302  0.1584
 6369SOL    HW130569   3.511   1.467  12.367  0.1180  0.7868  3.6611
 6369SOL    HW230570   3.463   1.362  12.454 -0.4752 -1.1637 -0.4159
 6370SOL     OW30571   3.930   2.711   4.858  0.2202 -0.1930 -0.2558
 6370SOL    HW130572   3.924   2.749   4.945  0.4814  1.2983 -0.8695
 6370SOL    HW230573   3.894   2.782   4.805  1.2512 -0.1529 -0.9106
 6371SOL     OW30574   2.403   2.769  15.193  0.2666 -0.1290  0.3264
 6371SOL    HW130575   2.410   2.817  15.111 -0.6568 -3.2230 -1.5725
 6371SOL    HW230576   2.398   2.679  15.160 -1.7518 -0.6170  1.9254
 6372SOL     OW30577   1.620   4.360   6.317 -0.0782  0.0349 -0.4057
 6372SOL    HW130578   1.639   4.377   6.410  2.7604 -2.3528 -0.5665
 6372SOL    HW230579   1.597   4.268   6.333 -1.3043  0.8937  2.8684
 6373SOL     OW30580   0.627   1.489   1.636  0.0997 -0.4529  0.4922
 6373SOL    HW130581   0.680   1.533   1.702 -0.5423 -0.5775  1.0873
 6373SOL    HW230582   0.569   1.564   1.626  0.8429  0.1656  0.8498
 6374SOL     OW30583   3.300   1.525   8.523 -0.4623  0.0003 -0.1377
 6374SOL    HW130584   3.297   1.431   8.505 -1.3236  0.3065 -1.5553
 6374SOL    HW230585   3.228   1.535   8.585  1.2013  1.6073  1.5479
 6375SOL     OW30586   3.243   2.052   0.415 -0.1662 -0.0259 -0.0894
 6375SOL    HW130587   3.152   2.068   0.441  0.1952  1.2808  0.3680
 6375SOL    HW230588   3.289   2.068   0.497  2.3110  1.9291 -1.8627
 6376SOL     OW30589   1.766   3.549  11.112  0.1501  0.2862  0.0532
 6376SOL    HW130590   1.758   3.454  11.102  1.7565  0.3121 -1.3634
 6376SOL    HW230591   1.861   3.554  11.106  0.0688  1.4710 -0.4058
 6377SOL     OW30592   3.411   1.958   6.889 -0.1624  0.1326 -0.0936
 6377SOL    HW130593   3.464   1.969   6.968 -0.2740 -1.0569  0.1406
 6377SOL    HW230594   3.399   1.863   6.890  0.9464 -0.0186 -1.5678
 6378SOL     OW30595   1.773   1.156   1.843  0.0741  0.2341  0.0105
 6378SOL    HW130596   1.767   1.226   1.778 -1.9374 -0.8654 -0.9924
 6378SOL    HW230597   1.823   1.086   1.801  1.2097  0.1534  1.4795
 6379SOL     OW30598   4.261   0.940   3.488  0.0204  0.5645  0.4163
 6379SOL    HW130599   4.289   0.993   3.562  0.8358  1.4538 -0.5325
 6379SOL    HW230600   4.308   0.978   3.414 -2.4411  2.8222 -0.0065
 6380SOL     OW30601   1.789   1.209   9.722  0.2166 -0.1426  0.0950
 6380SOL    HW130602   1.877   1.178   9.696  1.3671  0.0128  3.8016
 6380SOL    HW230603   1.774   1.166   9.806 -1.3052  0.3918  0.0865
 6381SOL     OW30604   2.103   3.410   6.436  0.7314 -0.4327  0.3499
 6381SOL    HW130605   2.173   3.379   6.377  1.7628  0.2466  1.2180
 6381SOL    HW230606   2.029   3.363   6.398  1.1511 -1.2617  0.5540
 6382SOL     OW30607   1.366   0.026   9.711 -0.2330 -0.3044 -0.3534
 6382SOL    HW130608   1.371   4.661   9.746 -0.4204 -0.3334 -0.3987
 6382SOL    HW230609   1.320   0.069   9.783 -0.4800  0.2053 -0.8131
 6383SOL     OW30610   1.904   1.716   6.987  0.6326 -0.1709  0.1719
 6383SOL    HW130611   1.906   1.624   7.014 -0.2664 -0.4188 -0.6165
 6383SOL    HW230612   1.998   1.725   6.972  0.3383  1.9343 -0.4124
 6384SOL     OW30613   3.076   2.944   1.732  0.3646  0.0175  0.2139
 6384SOL    HW130614   3.064   3.037   1.749 -0.2409 -0.5508  2.7840
 6384SOL    HW230615   3.028   2.910   1.807  0.1410  2.1042  1.0183
 6385SOL     OW30616   2.616   3.871   7.019  0.1723  0.0588  0.4576
 6385SOL    HW130617   2.551   3.937   7.045  0.7752  1.1983 -0.9022
 6385SOL    HW230618   2.700   3.916   7.008  0.1643 -0.1676 -0.5036
 6386SOL     OW30619   2.942   1.909   5.395 -0.2974 -0.3948  0.7704
 6386SOL    HW130620   2.986   1.885   5.477  2.0238 -0.0674 -0.3841
 6386SOL    HW230621   2.849   1.900   5.413  0.0582 -1.2416  2.1222
 6387SOL     OW30622   0.828   2.613   7.087 -0.1243 -0.1456  0.8613
 6387SOL    HW130623   0.832   2.546   7.019 -1.2713  1.1335 -0.4671
 6387SOL    HW230624   0.772   2.683   7.053 -0.5107 -0.8930 -0.0261
 6388SOL     OW30625   1.649   0.597   7.479 -0.0554 -0.0591  0.3307
 6388SOL    HW130626   1.648   0.534   7.552 -0.2015  0.7689  1.0397
 6388SOL    HW230627   1.741   0.623   7.471 -0.2912  0.4938 -0.5699
 6389SOL     OW30628   3.372   1.681   9.310 -0.2585  0.0584 -0.0432
 6389SOL    HW130629   3.367   1.652   9.219 -0.8625  2.0229 -0.6414
 6389SOL    HW230630   3.293   1.735   9.308  0.3233  0.9561  0.9027
 6390SOL     OW30631   0.917   3.161  11.015 -0.8462  0.0407  0.1937
 6390SOL    HW130632   0.959   3.237  11.054 -3.8275  1.7826  0.0191
 6390SOL    HW230633   0.836   3.171  11.064  0.5767  1.1634  2.2980
 6391SOL     OW30634   0.730   1.808  17.385  0.1343  0.0073  0.6417
 6391SOL    HW130635   0.703   1.852  17.305 -1.0689  0.9069  1.5484
 6391SOL    HW230636   0.825   1.820  17.385  0.1353 -0.0050  1.7511
 6392SOL     OW30637   3.098   1.748  15.627 -0.5287  0.3711 -0.1329
 6392SOL    HW130638   3.138   1.785  15.705 -0.8910 -0.5939  0.5019
 6392SOL    HW230639   3.141   1.664  15.610 -0.9832  0.1447 -0.1639
 6393SOL     OW30640   2.845   1.515  14.207 -0.3892 -0.0601  0.6096
 6393SOL    HW130641   2.910   1.502  14.277 -0.3052  0.2189  0.5817
 6393SOL    HW230642   2.794   1.592  14.232 -1.4575 -1.0590  1.5142
 6394SOL     OW30643   4.286   4.060   9.190 -0.3434  0.2433  0.6148
 6394SOL    HW130644   4.314   4.134   9.136  2.8256 -2.5546 -1.5505
 6394SOL    HW230645   4.223   4.029   9.125  3.8700 -2.2624 -2.3023
 6395SOL     OW30646   2.867   0.390   5.360 -0.3052 -0.0827  0.7946
 6395SOL    HW130647   2.907   0.326   5.420 -0.6021 -1.4738 -0.4937
 6395SOL    HW230648   2.948   0.410   5.314  0.2169  0.6308  2.0422
 6396SOL     OW30649   0.296   0.213   8.698  0.8436  0.2504 -0.0151
 6396SOL    HW130650   0.381   0.172   8.717  0.1252 -1.6579 -0.8153
 6396SOL    HW230651   0.255   0.172   8.621 -1.0927  3.2467 -0.5612
 6397SOL     OW30652   4.663   3.028  12.755 -0.1725 -1.3036 -0.2566
 6397SOL    HW130653   4.716   3.084  12.699 -0.1192 -0.8864  0.2075
 6397SOL    HW230654   4.722   2.955  12.772  1.2745  0.4561  2.3103
 6398SOL     OW30655   3.721   4.619  14.254 -0.2162 -0.3719  0.1972
 6398SOL    HW130656   3.766   4.593  14.174 -0.6543 -0.5894  0.0226
 6398SOL    HW230657   3.729   4.546  14.316 -2.0976 -0.8533 -0.1488
 6399SOL     OW30658   0.111   3.127  16.700  0.4676  0.0275  0.0246
 6399SOL    HW130659   0.070   3.195  16.648 -1.7702 -0.9065  0.5543
 6399SOL    HW230660   0.066   3.057  16.653  0.4150  0.8155 -1.0894
 6400SOL     OW30661   0.732   1.074  12.569  0.0031  0.0071 -0.2160
 6400SOL    HW130662   0.658   1.013  12.568  0.5782 -0.6628 -1.0754
 6400SOL    HW230663   0.747   1.078  12.663 -2.4225 -1.4783  0.2224
 6401SOL     OW30664   1.244   0.164  11.429 -0.4811  0.0325 -0.4729
 6401SOL    HW130665   1.168   0.221  11.425 -1.4665 -1.2264  0.3450
 6401SOL    HW230666   1.277   0.169  11.339 -1.2354  1.1115 -0.6811
 6402SOL     OW30667   2.694   3.904  16.274  0.2562  0.1083 -0.6568
 6402SOL    HW130668   2.698   3.841  16.202 -1.6460  0.3932 -1.0120
 6402SOL    HW230669   2.675   3.838  16.340 -2.4982 -1.7449 -3.2897
 6403SOL     OW30670   1.050   4.146  15.983  0.5270  0.0064 -0.2750
 6403SOL    HW130671   1.049   4.156  15.888  0.4048  1.4111 -0.1295
 6403SOL    HW230672   1.141   4.123  16.003 -0.3440 -2.9834  0.2033
 6404SOL     OW30673   0.002   2.914   5.595 -0.1433  0.1873  0.3869
 6404SOL    HW130674   0.019   2.844   5.533  1.2655  1.2271 -0.4178
 6404SOL    HW230675   0.004   2.870   5.680 -2.0834 -0.2321  0.2124
 6405SOL     OW30676   2.361   0.201  13.560 -0.6074  0.2111  0.5813
 6405SOL    HW130677   2.301   0.154  13.618 -3.4402  2.0919 -0.7978
 6405SOL    HW230678   2.319   0.169  13.480 -0.6978 -0.1827  0.7896
 6406SOL     OW30679   1.506   1.282   2.225 -0.0471  0.0821 -0.4653
 6406SOL    HW130680   1.446   1.208   2.225  0.2067 -0.1379  2.1070
 6406SOL    HW230681   1.588   1.242   2.197 -0.1740 -1.0827  0.8173
 6407SOL     OW30682   0.048   2.117   6.836  0.1430  0.0489 -0.0847
 6407SOL    HW130683   4.715   2.146   6.907  1.1174  0.8709  0.3857
 6407SOL    HW230684   0.129   2.105   6.886  0.7181  3.4164 -0.1984
 6408SOL     OW30685   2.641   2.954   7.886 -0.0109 -0.0713 -0.0211
 6408SOL    HW130686   2.561   2.956   7.939 -1.8426  1.3799 -2.8123
 6408SOL    HW230687   2.663   2.862   7.899  0.1423 -0.0383 -0.0437
 6409SOL     OW30688   4.189   3.629   3.337 -0.8804  0.6829 -0.0759
 6409SOL    HW130689   4.214   3.679   3.259  1.7707 -0.2987  0.1351
 6409SOL    HW230690   4.262   3.643   3.398  1.6057  0.4157 -2.9796
 6410SOL     OW30691   0.557   4.567  14.862  0.5835 -0.9229  0.0136
 6410SOL    HW130692   0.596   4.520  14.936  1.4938  0.2787  0.3046
 6410SOL    HW230693   0.469   4.575  14.897  1.6289 -1.3357  2.7484
 6411SOL     OW30694   2.219   2.659   7.126 -0.3714  0.1098  0.1301
 6411SOL    HW130695   2.184   2.745   7.103 -0.1943 -0.3745 -1.9206
 6411SOL    HW230696   2.314   2.670   7.138 -0.6046  1.1482  0.9619
 6412SOL     OW30697   4.359   0.974   3.726 -0.5040 -0.5614  0.4938
 6412SOL    HW130698   4.375   1.011   3.812 -5.8936  0.8746  0.9022
 6412SOL    HW230699   4.435   0.918   3.717 -1.0163 -1.3479  1.1151
 6413SOL     OW30700   1.498   2.483  14.627 -0.3758  0.5546  0.2155
 6413SOL    HW130701   1.433   2.429  14.581 -1.2927 -0.0755  2.2411
 6413SOL    HW230702   1.462   2.571  14.614 -1.0723  0.2957  0.4191
 6414SOL     OW30703   3.211   3.844   3.408 -0.0604 -0.3503 -0.3115
 6414SOL    HW130704   3.257   3.913   3.360 -1.1379 -0.8333 -2.0439
 6414SOL    HW230705   3.134   3.837   3.351  0.2335  0.1144 -0.7645
 6415SOL     OW30706   0.530   3.663  14.710  0.0104 -0.6612  0.4522
 6415SOL    HW130707   0.578   3.716  14.774 -0.7290  3.4399 -2.3654
 6415SOL    HW230708   0.585   3.586  14.695  2.9928  1.5915 -0.3472
 6416SOL     OW30709   4.237   4.632   5.842 -0.0644 -0.1169 -0.2255
 6416SOL    HW130710   4.303   4.581   5.796 -0.5176 -1.0637  0.1638
 6416SOL    HW230711   4.161   4.626   5.785 -0.4100  0.0614  0.2202
 6417SOL     OW30712   4.156   0.477   3.155 -0.1688  0.0894  0.1350
 6417SOL    HW130713   4.219   0.459   3.085 -1.0366 -0.3073 -0.5408
 6417SOL    HW230714   4.190   0.428   3.229 -0.1789 -1.3064 -0.7671
 6418SOL     OW30715   2.344   3.912  16.767 -0.0463 -0.1439  0.1088
 6418SOL    HW130716   2.397   3.950  16.698  1.2661 -1.5853  0.3142
 6418SOL    HW230717   2.405   3.915  16.841  0.0316 -0.8781  0.0806
 6419SOL     OW30718   1.603   1.907   2.437  0.2820 -0.0900 -0.3153
 6419SOL    HW130719   1.556   1.825   2.424 -0.8607  0.5168  0.0607
 6419SOL    HW230720   1.535   1.973   2.446  0.1059 -0.7359  3.0097
 6420SOL     OW30721   0.014   0.501  11.479 -0.4263  0.5855 -0.0281
 6420SOL    HW130722   0.036   0.583  11.435 -1.9252  1.0234  0.0516
 6420SOL    HW230723   4.646   0.491  11.458 -0.8566  0.7930  1.7294
 6421SOL     OW30724   0.534   0.984   9.669 -0.2129 -0.0631 -0.1763
 6421SOL    HW130725   0.518   1.036   9.591 -0.1745  1.7954  1.0526
 6421SOL    HW230726   0.500   1.032   9.744 -0.6638  0.4864 -0.7316
 6422SOL     OW30727   3.998   3.264   8.041  0.1833  0.7560  0.5145
 6422SOL    HW130728   3.914   3.274   7.998  0.1160  3.4719  1.2684
 6422SOL    HW230729   4.004   3.170   8.057 -2.0372  0.6302  0.5028
 6423SOL     OW30730   3.675   1.054  11.521 -0.0712 -0.0531 -0.1990
 6423SOL    HW130731   3.651   1.020  11.435 -0.1214 -1.3317  0.3211
 6423SOL    HW230732   3.738   0.986  11.543  1.0829  1.1824  0.3110
 6424SOL     OW30733   0.291   1.642   5.473 -0.0244  0.3891 -0.0378
 6424SOL    HW130734   0.246   1.720   5.442 -1.4099 -0.2076  0.4709
 6424SOL    HW230735   0.289   1.670   5.564 -0.1004  1.1610 -0.2785
 6425SOL     OW30736   0.231   3.938   2.322 -0.7951  0.5052 -0.0590
 6425SOL    HW130737   0.258   3.919   2.233  1.3736 -2.0177  1.1706
 6425SOL    HW230738   0.248   4.032   2.330 -2.2321  0.7965 -0.2927
 6426SOL     OW30739   3.570   2.388   0.678  0.5437  0.8047 -0.0444
 6426SOL    HW130740   3.647   2.443   0.696  1.6586 -1.4276  2.0915
 6426SOL    HW230741   3.554   2.412   0.587  0.0832  0.7380  0.0225
 6427SOL     OW30742   0.707   1.145   9.270  0.0317  0.1814  0.2124
 6427SOL    HW130743   0.790   1.189   9.288 -0.5600  1.2473  0.3429
 6427SOL    HW230744   0.734   1.099   9.190 -0.1472 -0.9492  0.7948
 6428SOL     OW30745   4.270   2.932   6.938  0.2493 -0.3505  0.4747
 6428SOL    HW130746   4.325   2.854   6.932  0.8952  0.2468 -1.4775
 6428SOL    HW230747   4.184   2.911   6.901  1.6896 -0.7352 -2.6665
 6429SOL     OW30748   0.704   0.849   9.834  0.2175  0.5694 -0.1638
 6429SOL    HW130749   0.715   0.941   9.860 -1.3871  1.0985 -1.3369
 6429SOL    HW230750   0.637   0.869   9.769 -0.7777  0.1859  0.7351
 6430SOL     OW30751   1.704   1.337   5.128 -0.3073  0.0240 -0.4588
 6430SOL    HW130752   1.744   1.364   5.045 -0.7805  0.6869 -0.4610
 6430SOL    HW230753   1.611   1.351   5.113 -0.2302  0.3766 -0.6057
 6431SOL     OW30754   3.018   4.458   4.920 -0.2293 -0.3748  0.1968
 6431SOL    HW130755   3.049   4.368   4.915  2.0818  0.5416 -1.6831
 6431SOL    HW230756   3.090   4.496   4.871 -0.2441 -0.5034  0.0779
 6432SOL     OW30757   0.300   2.243   7.436 -0.1491  0.5448  0.5556
 6432SOL    HW130758   0.349   2.275   7.511  1.6364  0.6888 -0.6628
 6432SOL    HW230759   0.351   2.164   7.413 -0.5772  0.2257  0.7027
 6433SOL     OW30760   0.501   0.437   3.761  0.0595 -0.3576  0.1388
 6433SOL    HW130761   0.548   0.475   3.687 -0.4703  0.3353  0.1691
 6433SOL    HW230762   0.516   0.344   3.741 -2.5159 -0.6902 -0.1891
 6434SOL     OW30763   3.092   3.819   3.139 -0.0414  0.3626  0.1321
 6434SOL    HW130764   3.041   3.898   3.158 -1.5127 -0.2479 -1.3001
 6434SOL    HW230765   3.180   3.855   3.130  0.0439  0.4886  1.4778
 6435SOL     OW30766   3.232   3.623   4.487 -0.1305  0.0411  0.3687
 6435SOL    HW130767   3.296   3.633   4.416 -2.2005 -0.0720 -1.5286
 6435SOL    HW230768   3.182   3.542   4.472  0.4202 -0.1676 -0.3550
 6436SOL     OW30769   0.302   3.442   6.705 -0.0105  0.5976  0.0686
 6436SOL    HW130770   0.240   3.505   6.741  2.1665  2.2701  0.9117
 6436SOL    HW230771   0.270   3.433   6.615 -0.3619  0.5672  0.1963
 6437SOL     OW30772   0.121   2.148   6.315 -0.5701 -0.1897  0.0427
 6437SOL    HW130773   0.200   2.190   6.282 -1.9370  1.4808 -1.1039
 6437SOL    HW230774   0.148   2.134   6.405 -2.6011  0.5874  0.7847
 6438SOL     OW30775   1.506   4.560   5.037  0.2278  0.4667 -0.0580
 6438SOL    HW130776   1.593   4.531   5.008  0.2380  1.1136 -0.6761
 6438SOL    HW230777   1.466   4.478   5.065 -1.0471  0.3945 -2.0518
 6439SOL     OW30778   2.087   0.432  11.043 -0.3161 -0.1866 -0.1776
 6439SOL    HW130779   2.046   0.498  10.987  0.7401  0.1093 -0.6011
 6439SOL    HW230780   2.159   0.488  11.073 -0.3206  0.3251 -1.1304
 6440SOL     OW30781   4.679   4.471   3.674  0.3137  0.4947  0.3295
 6440SOL    HW130782   4.708   4.560   3.652  2.0689 -0.4535 -1.1555
 6440SOL    HW230783   0.037   4.424   3.671  0.5936  1.2091 -3.1279
 6441SOL     OW30784   3.072   2.123   0.977  0.7892 -0.2308 -0.3497
 6441SOL    HW130785   2.981   2.127   1.008  0.4901 -2.3147 -0.9473
 6441SOL    HW230786   3.125   2.132   1.056  0.4415 -0.3818 -0.0956
 6442SOL     OW30787   3.956   3.048   5.561  0.3648 -0.1698 -0.2865
 6442SOL    HW130788   4.039   3.008   5.536  0.0263 -0.3290 -1.1818
 6442SOL    HW230789   3.950   3.016   5.651 -0.9428 -0.7075 -0.5751
 6443SOL     OW30790   3.853   3.976   5.955 -0.2015  0.1984 -0.4804
 6443SOL    HW130791   3.782   3.939   6.007  1.0119 -0.5337  0.6609
 6443SOL    HW230792   3.844   3.924   5.875  0.8098 -1.7995  0.6775
 6444SOL     OW30793   2.780   0.638  10.353 -0.5668 -0.3489  0.3841
 6444SOL    HW130794   2.816   0.550  10.342 -1.6699 -0.8763  1.0022
 6444SOL    HW230795   2.744   0.623  10.440 -1.6959  0.5067  0.0692
 6445SOL     OW30796   0.744   3.606  15.128  0.0500 -0.2179  0.0532
 6445SOL    HW130797   0.732   3.600  15.222  0.0154 -0.0150  0.0613
 6445SOL    HW230798   0.710   3.518  15.113  3.3007 -1.1889 -1.6076
 6446SOL     OW30799   1.282   2.694  10.415  0.1477 -0.7054  0.1358
 6446SOL    HW130800   1.217   2.670  10.349  1.2732  0.2783 -1.3276
 6446SOL    HW230801   1.233   2.767  10.452 -1.9087 -1.3996 -1.1856
 6447SOL     OW30802   3.296   2.047   9.304  0.2228 -0.5597  0.2338
 6447SOL    HW130803   3.388   2.074   9.313  0.3330 -0.5424 -0.9205
 6447SOL    HW230804   3.301   2.003   9.219 -1.0210 -0.3826  0.0751
 6448SOL     OW30805   0.010   1.235   7.329  0.2102 -0.4171 -0.2131
 6448SOL    HW130806   0.049   1.173   7.392 -1.0299  0.0786  1.0219
 6448SOL    HW230807   0.025   1.313   7.382 -1.7454  1.0759 -1.8957
 6449SOL     OW30808   1.502   1.164   6.697 -0.4098 -0.0602 -0.0788
 6449SOL    HW130809   1.446   1.183   6.772 -1.2796 -0.2627 -0.6694
 6449SOL    HW230810   1.459   1.084   6.666  0.4043 -0.1387 -0.9841
 6450SOL     OW30811   0.637   1.891   4.589  0.6992  0.5639 -0.2115
 6450SOL    HW130812   0.725   1.877   4.623  0.0152 -2.2831  0.3488
 6450SOL    HW230813   0.635   1.982   4.619 -0.0083 -0.0503  1.5800
 6451SOL     OW30814   3.126   1.141   2.233 -0.3297 -0.0041  0.4461
 6451SOL    HW130815   3.138   1.186   2.316 -1.2042 -2.2961  1.8115
 6451SOL    HW230816   3.112   1.054   2.272 -0.4425 -1.0477 -1.9192
 6452SOL     OW30817   3.656   1.701   2.641 -0.5243  0.0980  0.0834
 6452SOL    HW130818   3.663   1.796   2.627 -0.9979 -0.3989 -3.5895
 6452SOL    HW230819   3.673   1.662   2.555  2.0550  1.5371 -0.0721
 6453SOL     OW30820   3.787   0.508  10.172  0.2037 -0.1414  0.1624
 6453SOL    HW130821   3.733   0.578  10.207  1.1753  1.1112 -0.8375
 6453SOL    HW230822   3.718   0.442  10.180  0.5392 -0.5217 -0.0660
 6454SOL     OW30823   1.502   2.729  13.937 -0.5869  0.2646  0.0011
 6454SOL    HW130824   1.464   2.716  14.024 -1.3580  1.4580 -0.1625
 6454SOL    HW230825   1.587   2.770  13.955  0.5868 -2.1295 -0.0468
 6455SOL     OW30826   1.958   3.330   8.310  0.4390  0.6032 -0.2136
 6455SOL    HW130827   1.957   3.335   8.406  0.7638 -0.6789 -0.1404
 6455SOL    HW230828   1.894   3.262   8.287 -0.3919  0.6763  1.8777
 6456SOL     OW30829   0.812   4.257  15.819 -0.1119  0.5032  0.0357
 6456SOL    HW130830   0.791   4.314  15.745  1.2998 -0.7212 -1.2931
 6456SOL    HW230831   0.903   4.237  15.795  0.5082  1.4325  1.5812
 6457SOL     OW30832   4.461   0.409   3.068  0.2565  0.9273  0.0036
 6457SOL    HW130833   4.405   0.332   3.081 -2.1996  2.4806 -1.4562
 6457SOL    HW230834   4.439   0.431   2.978  0.3747 -1.1332 -0.5417
 6458SOL     OW30835   0.009   2.246   2.576  0.7054  0.5148  0.3785
 6458SOL    HW130836   4.680   2.272   2.501 -0.9779  2.4187  2.2414
 6458SOL    HW230837   0.070   2.319   2.581 -0.6380  1.6330  0.6260
 6459SOL     OW30838   3.701   1.374   3.876 -0.0638 -0.3874 -0.8798
 6459SOL    HW130839   3.721   1.465   3.899  3.5550 -1.0040 -1.6818
 6459SOL    HW230840   3.772   1.324   3.917 -0.3021  0.5901  0.7432
 6460SOL     OW30841   3.379   3.332   6.996  0.5305 -0.1774 -0.5453
 6460SOL    HW130842   3.453   3.333   6.935  1.9512  0.9712  1.1860
 6460SOL    HW230843   3.325   3.270   6.947  1.0955  0.4578 -1.9911
 6461SOL     OW30844   1.885   4.255   7.042  0.5526 -0.4393 -0.1580
 6461SOL    HW130845   1.913   4.227   6.955  0.2053 -1.4853  0.0701
 6461SOL    HW230846   1.868   4.165   7.070 -0.4883 -0.2846 -0.2997
 6462SOL     OW30847   0.703   3.707  11.850  0.0528  0.9096  0.5827
 6462SOL    HW130848   0.733   3.633  11.904  1.9575 -1.3252 -3.5738
 6462SOL    HW230849   0.615   3.684  11.820  0.1076 -0.2730  1.3149
 6463SOL     OW30850   0.454   2.957  15.755 -0.0433  0.8332  0.1350
 6463SOL    HW130851   0.483   3.044  15.783 -0.5992  0.5377  1.6329
 6463SOL    HW230852   0.400   2.928  15.829  2.0910 -1.5852  0.7675
 6464SOL     OW30853   0.776   0.046   9.739 -0.0213 -0.2375  0.2310
 6464SOL    HW130854   0.761   0.127   9.787  1.0479  1.5544 -2.4840
 6464SOL    HW230855   0.871   0.054   9.728 -0.3944  3.0068 -0.8292
 6465SOL     OW30856   2.611   1.741   2.344 -0.2944 -1.0710 -0.1486
 6465SOL    HW130857   2.568   1.821   2.372  0.3431 -0.5935 -0.5507
 6465SOL    HW230858   2.690   1.730   2.396  1.1595 -0.3790 -2.2146
 6466SOL     OW30859   1.329   4.173   1.040  0.1277  0.2025  0.5287
 6466SOL    HW130860   1.273   4.109   0.996  0.3779  1.2103 -1.2406
 6466SOL    HW230861   1.275   4.231   1.094 -0.2497  0.9293 -0.6286
 6467SOL     OW30862   0.962   0.432   3.744 -0.4744 -0.7251  0.1645
 6467SOL    HW130863   0.889   0.407   3.687  1.6327 -1.3362 -2.2809
 6467SOL    HW230864   0.998   0.504   3.693 -1.3384 -0.1310  0.3941
 6468SOL     OW30865   2.287   2.570   8.491 -0.2825 -0.4238  0.0287
 6468SOL    HW130866   2.249   2.574   8.404 -1.3882 -0.4694  0.5127
 6468SOL    HW230867   2.207   2.549   8.540 -0.3932  0.5431  0.2641
 6469SOL     OW30868   0.242   4.215   9.548 -0.0020 -0.2102 -0.0699
 6469SOL    HW130869   0.169   4.261   9.506  1.6152  1.0074 -1.5389
 6469SOL    HW230870   0.254   4.140   9.489 -0.0501 -0.6276  0.4554
 6470SOL     OW30871   1.481   4.143  13.813 -0.1329  0.3130  0.2089
 6470SOL    HW130872   1.415   4.091  13.767  0.7683 -0.8025  0.1947
 6470SOL    HW230873   1.534   4.076  13.855  0.6628 -0.3559 -1.8722
 6471SOL     OW30874   0.033   1.577   5.712 -0.1113 -0.0759 -0.1220
 6471SOL    HW130875   0.050   1.487   5.686  1.6735  1.2686 -3.7706
 6471SOL    HW230876   0.122   1.605   5.734 -0.0950 -2.1128  2.2693
 6472SOL     OW30877   3.634   0.518   6.286 -0.0228 -0.2541 -0.1963
 6472SOL    HW130878   3.575   0.469   6.229 -0.7221 -1.8238  1.8499
 6472SOL    HW230879   3.681   0.579   6.229  1.4481 -0.0872  1.1922
 6473SOL     OW30880   1.104   2.646   4.209  0.3928 -0.0849  0.1925
 6473SOL    HW130881   1.159   2.722   4.191  0.6158 -0.2912  0.0114
 6473SOL    HW230882   1.154   2.572   4.175 -0.8695 -0.8765  0.0430
 6474SOL     OW30883   3.985   1.724   9.644  0.3640 -0.3271 -0.3003
 6474SOL    HW130884   4.022   1.807   9.672  1.1009 -0.9826  0.6789
 6474SOL    HW230885   3.968   1.697   9.735 -2.4248  0.6699 -0.5329
 6475SOL     OW30886   3.618   1.584   9.360  0.2730 -0.2124  0.4787
 6475SOL    HW130887   3.553   1.651   9.342  0.4754 -0.8945 -2.6814
 6475SOL    HW230888   3.570   1.534   9.427  0.1911  0.9231  1.2688
 6476SOL     OW30889   1.316   2.653   4.414  0.1314 -0.0682  0.6582
 6476SOL    HW130890   1.383   2.718   4.435 -0.4713  0.7895 -0.0570
 6476SOL    HW230891   1.365   2.603   4.349 -1.4251  0.4074 -0.8991
 6477SOL     OW30892   3.898   0.131   2.788  0.4511  0.0960  0.1043
 6477SOL    HW130893   3.983   0.113   2.746  1.0967 -0.5657  1.6769
 6477SOL    HW230894   3.900   0.078   2.868 -1.3126 -0.2968 -0.1156
 6478SOL     OW30895   1.059   2.888   4.389  0.0514 -0.3490  0.2612
 6478SOL    HW130896   1.066   2.794   4.368  0.0589  0.2639 -2.5649
 6478SOL    HW230897   1.096   2.876   4.476 -0.8869 -1.3188  0.5321
 6479SOL     OW30898   2.240   3.811   7.459  0.1931  0.8850  0.2459
 6479SOL    HW130899   2.323   3.808   7.412  0.0572 -2.0560  0.1754
 6479SOL    HW230900   2.190   3.857   7.391  0.0236 -0.0567 -0.2656
 6480SOL     OW30901   1.533   3.377  16.194 -0.0779 -0.2640  0.7291
 6480SOL    HW130902   1.609   3.414  16.240 -0.6709  0.9071  0.7734
 6480SOL    HW230903   1.580   3.307  16.148 -1.2617 -0.4646 -0.1646
 6481SOL     OW30904   3.042   3.134  13.982 -0.2211  0.3797  0.6218
 6481SOL    HW130905   3.019   3.044  14.004  1.2109 -0.5876 -1.8792
 6481SOL    HW230906   2.961   3.177  14.009 -0.1536  0.1601  1.1898
 6482SOL     OW30907   2.907   4.087   8.644 -0.0835  0.2362 -0.1528
 6482SOL    HW130908   2.959   4.168   8.651  0.0801  0.0175  1.1637
 6482SOL    HW230909   2.863   4.079   8.729  1.9257  1.1649  0.9835
 6483SOL     OW30910   4.716   0.405  16.232 -0.3728  0.0719  0.8393
 6483SOL    HW130911   0.071   0.352  16.224 -0.5608  0.1360 -1.4281
 6483SOL    HW230912   0.012   0.434  16.320  0.1126  2.2208  0.0167
 6484SOL     OW30913   4.226   3.605   9.581 -0.1504  0.3490 -0.6692
 6484SOL    HW130914   4.171   3.545   9.531 -0.4895 -1.6560  2.1021
 6484SOL    HW230915   4.232   3.562   9.666  0.7322 -0.5240 -1.1679
 6485SOL     OW30916   1.092   3.707   8.980  0.3041 -0.0570 -0.5011
 6485SOL    HW130917   1.102   3.672   8.892  2.5236  1.3723 -0.8273
 6485SOL    HW230918   1.155   3.780   8.979  0.9551 -0.6117 -0.3834
 6486SOL     OW30919   4.537   0.836  16.049  0.2283 -0.5242 -0.1765
 6486SOL    HW130920   4.483   0.829  15.970 -0.8188  1.5873  0.3520
 6486SOL    HW230921   4.530   0.752  16.094 -1.2348  0.3799  1.2623
 6487SOL     OW30922   1.416   0.653   7.309  0.1477  0.3378  0.0034
 6487SOL    HW130923   1.498   0.651   7.358  0.1254 -0.2232  0.0120
 6487SOL    HW230924   1.451   0.678   7.224  1.1276  1.7078  0.8116
 6488SOL     OW30925   4.126   2.986   2.395 -0.3762  0.2547 -0.3185
 6488SOL    HW130926   4.087   2.931   2.327 -0.2631  0.2872 -0.4094
 6488SOL    HW230927   4.068   3.062   2.402  1.7271  1.4821  3.3170
 6489SOL     OW30928   4.697   3.280   5.112  0.5243 -0.4838  0.4056
 6489SOL    HW130929   4.712   3.205   5.170 -1.9766  0.2651  1.9857
 6489SOL    HW230930   4.652   3.237   5.039  0.4407  0.4119 -0.0633
 6490SOL     OW30931   3.082   1.185  13.048  1.2324  0.2152  0.3166
 6490SOL    HW130932   3.076   1.281  13.044 -3.3750 -0.1158 -0.4521
 6490SOL    HW230933   3.145   1.159  12.981 -0.0321  0.5049 -0.9753
 6491SOL     OW30934   2.740   3.556  12.357  0.9651 -0.3432 -0.0931
 6491SOL    HW130935   2.818   3.602  12.388  1.2785 -1.3873  0.6431
 6491SOL    HW230936   2.771   3.484  12.302 -2.9938 -1.7147 -0.5231
 6492SOL     OW30937   2.873   0.223  10.118 -0.0311 -0.0116 -0.2854
 6492SOL    HW130938   2.930   0.156  10.156  1.4746  1.2248 -0.3576
 6492SOL    HW230939   2.836   0.184  10.039 -0.0034  0.8222 -0.7117
 6493SOL     OW30940   2.929   4.517   3.250  0.5939 -0.9483  0.4619
 6493SOL    HW130941   2.894   4.432   3.222 -0.6924 -0.1404 -0.3891
 6493SOL    HW230942   2.995   4.496   3.316  1.5426  2.4074  0.5644
 6494SOL     OW30943   0.752   2.040   1.024 -0.1392  0.2379 -0.4153
 6494SOL    HW130944   0.842   2.062   1.048  0.1691 -1.8947  0.3981
 6494SOL    HW230945   0.741   1.966   1.084 -0.2802  0.7793  0.2292
 6495SOL     OW30946   4.723   2.983  11.495  0.3485 -0.6273  0.0849
 6495SOL    HW130947   0.017   3.018  11.408 -1.9279  1.4070  0.4429
 6495SOL    HW230948   4.654   2.918  11.481  0.0977 -0.1591 -0.8778
 6496SOL     OW30949   0.631   2.281   5.577 -0.6701 -0.1076  0.2441
 6496SOL    HW130950   0.717   2.266   5.537 -0.8874  1.7766 -0.9377
 6496SOL    HW230951   0.590   2.333   5.508  2.5325  1.4366 -0.5257
 6497SOL     OW30952   1.833   1.694   5.969  0.3761  0.6659 -0.1498
 6497SOL    HW130953   1.882   1.753   6.027  2.0792  2.0643 -3.0181
 6497SOL    HW230954   1.898   1.649   5.915 -1.1180 -2.9658  1.0606
 6498SOL     OW30955   1.705   2.177   8.680  0.0346  0.0252  0.2163
 6498SOL    HW130956   1.685   2.203   8.769  0.0184 -0.0101  0.2229
 6498SOL    HW230957   1.636   2.110   8.680 -1.0160  1.1169 -0.1166
 6499SOL     OW30958   1.474   2.658   3.270  0.8935  0.9521  0.1998
 6499SOL    HW130959   1.525   2.688   3.344 -0.2746 -0.2495  1.5047
 6499SOL    HW230960   1.520   2.702   3.199 -2.0733  1.0631 -1.6641
 6500SOL     OW30961   0.020   2.346   7.431  0.0731  0.1132 -0.0307
 6500SOL    HW130962   4.698   2.428   7.412  0.3428  0.4939  0.9641
 6500SOL    HW230963   0.101   2.386   7.461  0.6705 -1.2390  0.1475
 6501SOL     OW30964   0.549   2.511   8.128 -0.0468  0.7223 -0.0270
 6501SOL    HW130965   0.614   2.491   8.195 -0.8797 -1.6155  0.0684
 6501SOL    HW230966   0.499   2.582   8.168  0.3282  1.8805 -1.5967
 6502SOL     OW30967   2.758   3.410   5.420 -0.9431  0.7937  0.4557
 6502SOL    HW130968   2.727   3.331   5.376 -1.3136  1.7846 -1.0763
 6502SOL    HW230969   2.687   3.468   5.390  0.0405  1.6962 -0.1334
 6503SOL     OW30970   1.365   2.180   7.385  0.5073 -0.3468 -0.3912
 6503SOL    HW130971   1.277   2.147   7.368  0.3112 -0.0931  0.1235
 6503SOL    HW230972   1.345   2.273   7.376  1.2505 -0.1560 -0.0827
 6504SOL     OW30973   0.024   0.839   8.304  0.1210 -0.1205  0.5127
 6504SOL    HW130974   0.008   0.915   8.358  1.0119 -0.1858  0.8644
 6504SOL    HW230975   0.023   0.881   8.218  1.9123  0.3548  0.7403
 6505SOL     OW30976   3.209   3.822   9.535  0.4855  0.4106 -0.5331
 6505SOL    HW130977   3.134   3.837   9.477  1.3189  4.0399 -0.6743
 6505SOL    HW230978   3.214   3.727   9.540 -0.3181  0.3689 -0.4147
 6506SOL     OW30979   3.173   3.116   4.507  0.8663  0.2497 -0.3098
 6506SOL    HW130980   3.232   3.144   4.577 -2.4928  2.9842  1.3692
 6506SOL    HW230981   3.165   3.023   4.529  0.2067  0.5338  0.6122
 6507SOL     OW30982   4.282   4.655   6.135  0.2724 -0.6407 -0.1504
 6507SOL    HW130983   4.271   4.648   6.040  0.8746  0.5874 -0.3077
 6507SOL    HW230984   4.376   4.676   6.139 -0.4438  2.5192 -0.5793
 6508SOL     OW30985   0.986   2.458   3.207 -0.2196  0.0642  0.6266
 6508SOL    HW130986   0.903   2.434   3.166 -0.7792 -0.1606  1.9024
 6508SOL    HW230987   1.037   2.376   3.206 -1.0338 -0.4311 -0.4680
 6509SOL     OW30988   4.661   3.703   3.493  0.5355 -0.2847  0.3375
 6509SOL    HW130989   0.030   3.707   3.473 -0.2471  2.4885 -2.8265
 6509SOL    HW230990   4.662   3.796   3.512 -0.7362 -0.4090  0.9773
 6510SOL     OW30991   2.637   1.719  14.310  0.5625  0.1424  0.1997
 6510SOL    HW130992   2.606   1.770  14.235  2.1164  2.0128  0.8331
 6510SOL    HW230993   2.550   1.690  14.339  0.6593 -2.5830 -2.1975
 6511SOL     OW30994   0.113   1.528   6.597 -0.0695  0.2251  0.1783
 6511SOL    HW130995   0.115   1.585   6.521 -1.3235 -1.0355 -0.7937
 6511SOL    HW230996   0.114   1.447   6.546  2.6487  1.0343 -1.0547
 6512SOL     OW30997   4.700   0.363   5.034  0.1524 -0.4486  1.1666
 6512SOL    HW130998   4.637   0.324   5.094 -0.1680 -3.4182 -1.1176
 6512SOL    HW230999   4.692   0.308   4.956 -1.4537  1.0139  0.3128
 6513SOL     OW31000   2.954   3.578   9.250 -0.1523  0.1122  1.0654
 6513SOL    HW131001   2.969   3.661   9.295  0.2431  0.8560 -0.4450
 6513SOL    HW231002   2.930   3.534   9.332  2.4169 -0.2519  1.6380
 6514SOL     OW31003   3.135   3.370   3.658 -0.3044  0.1387  0.4187
 6514SOL    HW131004   3.052   3.353   3.613  0.0565  0.0596 -0.2024
 6514SOL    HW231005   3.179   3.420   3.590  0.1797 -1.2915 -0.3260
 6515SOL     OW31006   4.675   2.300   5.999  0.0904 -0.8399 -0.0563
 6515SOL    HW131007   4.622   2.278   6.075  1.3976 -1.5508  0.6492
 6515SOL    HW231008   0.019   2.355   6.037 -0.2708  1.2964 -2.4525
 6516SOL     OW31009   1.211   1.565   1.628 -1.0873  0.6810  0.1623
 6516SOL    HW131010   1.131   1.565   1.575  0.6265 -1.1125 -2.4171
 6516SOL    HW231011   1.223   1.658   1.646 -0.6916  0.6385  0.1024
 6517SOL     OW31012   3.007   2.429   1.796 -0.2953 -0.1719  0.0468
 6517SOL    HW131013   2.914   2.452   1.791 -0.1724  0.6333  1.3768
 6517SOL    HW231014   3.002   2.335   1.809 -1.8545  0.0460  1.0698
 6518SOL     OW31015   1.381   4.438  14.820  0.0682  0.3954 -0.1591
 6518SOL    HW131016   1.287   4.419  14.818  0.0070  0.5076  2.0617
 6518SOL    HW231017   1.377   4.534  14.825 -1.1703  0.2061  2.2053
 6519SOL     OW31018   0.686   4.511   3.896  0.3293  0.1533  0.5005
 6519SOL    HW131019   0.626   4.585   3.903  0.1065 -0.1119  1.4013
 6519SOL    HW231020   0.674   4.481   3.806  0.9053 -0.1760  0.5303
 6520SOL     OW31021   1.792   4.508   3.863 -0.1176  0.1945  0.1231
 6520SOL    HW131022   1.873   4.547   3.894  1.0062 -1.7704 -0.3701
 6520SOL    HW231023   1.806   4.509   3.769  0.8753 -1.2282  0.2601
 6521SOL     OW31024   3.216   3.640  11.959 -0.6403 -0.0755  0.2015
 6521SOL    HW131025   3.268   3.572  12.003  0.4332  1.2743  1.0405
 6521SOL    HW231026   3.257   3.723  11.985 -0.4451 -0.1811  0.2357
 6522SOL     OW31027   1.185   2.078   4.922 -0.0486 -0.1320 -0.6887
 6522SOL    HW131028   1.193   2.037   4.836  2.1252 -0.0809 -0.5052
 6522SOL    HW231029   1.233   2.007   4.965 -0.7893 -0.5236 -0.5068
 6523SOL     OW31030   0.506   4.455  12.827  0.0745 -0.0308 -0.4347
 6523SOL    HW131031   0.581   4.458  12.767 -1.0999  0.2523 -1.8746
 6523SOL    HW231032   0.485   4.548  12.840 -2.8720 -0.6450 -0.9006
 6524SOL     OW31033   4.130   2.677  15.265 -0.6762 -1.4606  0.1021
 6524SOL    HW131034   4.057   2.739  15.263  1.5691  1.2027  1.8435
 6524SOL    HW231035   4.165   2.677  15.176 -0.7294 -2.8664  0.0700
 6525SOL     OW31036   1.499   1.455   4.144 -0.3544  0.1997 -0.2935
 6525SOL    HW131037   1.511   1.533   4.091  0.1958  0.2464 -0.1044
 6525SOL    HW231038   1.500   1.484   4.235  0.3530 -0.2189 -0.1629
 6526SOL     OW31039   0.931   3.203  13.971  0.9960  0.6043  0.6557
 6526SOL    HW131040   0.842   3.220  14.001 -0.2201 -0.3158 -2.5167
 6526SOL    HW231041   0.977   3.280  14.006  1.2374  0.3066  0.9976
 6527SOL     OW31042   1.637   1.149   8.883 -0.5034 -0.4144 -0.3078
 6527SOL    HW131043   1.706   1.147   8.817  0.3199 -0.3978  0.5434
 6527SOL    HW231044   1.680   1.184   8.961 -1.7299 -2.6889  1.3971
 6528SOL     OW31045   0.859   1.341   0.569  0.4728  0.3757  0.4708
 6528SOL    HW131046   0.821   1.275   0.626  1.5133  2.1197  3.1931
 6528SOL    HW231047   0.791   1.409   0.562  0.4217  0.3718  0.9647
 6529SOL     OW31048   1.470   3.135   5.264 -0.2938  0.2908  0.1317
 6529SOL    HW131049   1.489   3.048   5.228 -0.7642  0.0154  0.5439
 6529SOL    HW231050   1.540   3.192   5.233  0.9248 -1.0247  0.4585
 6530SOL     OW31051   4.548   3.182   8.890  0.1590 -0.0606  0.0406
 6530SOL    HW131052   4.615   3.232   8.843  0.1792  1.0051  1.1886
 6530SOL    HW231053   4.584   3.095   8.874  0.8951 -0.2826  2.7713
 6531SOL     OW31054   2.506   3.815   6.089  0.1706 -0.1666 -0.2026
 6531SOL    HW131055   2.497   3.899   6.043  4.4065  0.3804 -0.0356
 6531SOL    HW231056   2.414   3.786   6.089  0.0972  0.0699  0.3820
 6532SOL     OW31057   1.423   3.463   9.119 -0.1946 -0.2002 -0.1362
 6532SOL    HW131058   1.436   3.542   9.170 -1.2030  0.9396 -1.6388
 6532SOL    HW231059   1.328   3.473   9.107 -0.1583 -1.0314 -1.1850
 6533SOL     OW31060   2.886   0.313   7.670  0.4819 -0.1382 -0.3648
 6533SOL    HW131061   2.962   0.312   7.611  0.0015 -0.3746 -0.9774
 6533SOL    HW231062   2.930   0.266   7.741 -0.3834 -0.6976 -0.2052
 6534SOL     OW31063   1.087   3.147  11.580  0.2725 -0.3800 -0.0389
 6534SOL    HW131064   1.018   3.120  11.520 -1.0638  0.6455  1.0209
 6534SOL    HW231065   1.115   3.058  11.601  0.0415 -0.6036 -0.7008
 6535SOL     OW31066   2.788   3.434  15.177  0.1649 -0.6280 -0.2772
 6535SOL    HW131067   2.846   3.497  15.133  0.3367 -0.6428 -0.0696
 6535SOL    HW231068   2.826   3.416  15.263  2.2395 -0.7671 -1.2121
 6536SOL     OW31069   3.848   4.482   9.531 -0.3257 -0.0858  0.1840
 6536SOL    HW131070   3.754   4.485   9.547 -0.3427  0.1834  0.0216
 6536SOL    HW231071   3.860   4.395   9.493 -0.4012  0.9351 -2.1750
 6537SOL     OW31072   2.667   0.671   7.967  1.0756  0.0847 -0.1779
 6537SOL    HW131073   2.635   0.744   7.914  0.5045  0.6076  0.8702
 6537SOL    HW231074   2.746   0.655   7.916 -0.5542 -3.8400 -1.4625
 6538SOL     OW31075   2.932   2.275   8.988 -0.2456  0.1023  0.3034
 6538SOL    HW131076   2.938   2.370   9.001  1.6404  0.0823 -0.4352
 6538SOL    HW231077   2.964   2.245   9.073  0.9766  4.4491  1.3819
 6539SOL     OW31078   4.211   2.606   5.237 -0.2603 -0.3566  0.2398
 6539SOL    HW131079   4.148   2.536   5.222 -0.8982  0.0528  1.0674
 6539SOL    HW231080   4.295   2.563   5.217 -0.5777 -2.0210  2.4697
 6540SOL     OW31081   1.715   1.925   0.319 -0.2391 -0.0154 -0.0172
 6540SOL    HW131082   1.626   1.951   0.346 -0.5918 -1.0681 -0.1847
 6540SOL    HW231083   1.749   1.883   0.398  2.6466  1.6231 -0.3966
 6541SOL     OW31084   1.350   3.310   7.332 -0.4059 -0.1308 -0.5854
 6541SOL    HW131085   1.286   3.381   7.320 -0.6908 -0.4239 -0.8119
 6541SOL    HW231086   1.384   3.334   7.419  0.2247  0.7704 -1.0896
 6542SOL     OW31087   3.759   4.410   0.891  0.2730  0.9981 -0.5409
 6542SOL    HW131088   3.847   4.429   0.856  0.6298  1.4274  0.5981
 6542SOL    HW231089   3.710   4.414   0.808 -0.8898 -0.7209  0.0792
 6543SOL     OW31090   2.615   3.596   1.816 -0.3484  0.0053 -0.3451
 6543SOL    HW131091   2.577   3.622   1.731  0.9806 -0.7290 -1.1574
 6543SOL    HW231092   2.693   3.651   1.824  1.3699 -2.5400  0.2621
 6544SOL     OW31093   2.350   4.280   6.816  0.2904  0.3795  0.4145
 6544SOL    HW131094   2.444   4.289   6.829  0.4786 -1.8178  0.5893
 6544SOL    HW231095   2.354   4.197   6.768 -0.6193 -0.7551  2.2782
 6545SOL     OW31096   2.095   1.281   8.901 -0.6088  0.5061  0.0278
 6545SOL    HW131097   2.175   1.232   8.883  0.2311  1.6021  0.7066
 6545SOL    HW231098   2.137   1.367   8.911 -0.0538  0.0472  1.6904
 6546SOL     OW31099   0.048   3.739  14.470 -0.0993 -0.7920 -0.0812
 6546SOL    HW131100   0.143   3.752  14.461 -0.1191 -0.4040  0.2754
 6546SOL    HW231101   0.037   3.818  14.522 -1.1506  0.0049 -1.5174
 6547SOL     OW31102   0.254   3.095   2.983 -0.6170 -0.1977  0.6063
 6547SOL    HW131103   0.279   3.009   2.950  0.1663  0.2096  0.1569
 6547SOL    HW231104   0.306   3.116   3.061  1.6336 -0.0386 -0.9464
 6548SOL     OW31105   2.915   1.527   3.731 -0.3143  0.2016 -0.8669
 6548SOL    HW131106   2.835   1.538   3.680  0.2807  2.8615 -1.2278
 6548SOL    HW231107   2.892   1.444   3.773 -0.9305 -0.1792 -1.9396
 6549SOL     OW31108   0.745   0.461   8.484 -0.0408  0.4194  0.1208
 6549SOL    HW131109   0.653   0.436   8.492 -0.1364  1.4048  2.1989
 6549SOL    HW231110   0.734   0.556   8.490  1.6387  0.6574 -0.5103
 6550SOL     OW31111   1.913   2.863  17.623 -0.0259  0.4115 -0.8602
 6550SOL    HW131112   1.842   2.804  17.599 -0.1582 -0.2540  1.1513
 6550SOL    HW231113   1.961   2.805  17.682 -0.1538  1.3547  0.1898
 6551SOL     OW31114   4.528   1.166   8.300 -0.2549  0.2979 -0.2224
 6551SOL    HW131115   4.606   1.127   8.262  0.3046  0.5529  0.6744
 6551SOL    HW231116   4.513   1.239   8.240  0.2120  1.7489  1.4275
 6552SOL     OW31117   3.819   4.107   8.026 -0.2882  0.1550 -0.0113
 6552SOL    HW131118   3.760   4.034   8.045  0.4465 -0.6299 -0.7073
 6552SOL    HW231119   3.860   4.079   7.945 -2.9078 -2.8480 -0.2989
 6553SOL     OW31120   1.341   2.033   6.668  0.3727  0.6119 -0.7084
 6553SOL    HW131121   1.293   1.954   6.644 -0.9255  1.4886 -1.0332
 6553SOL    HW231122   1.289   2.105   6.632 -0.0481  1.6272  1.9397
 6554SOL     OW31123   4.584   0.090   3.859  0.0465 -0.4595  0.0108
 6554SOL    HW131124   4.645   0.063   3.790 -0.4943  0.2429 -0.7394
 6554SOL    HW231125   4.508   0.129   3.815  0.2748  0.4938  0.4700
 6555SOL     OW31126   3.653   3.041   4.062  0.0634 -0.5214  0.1623
 6555SOL    HW131127   3.576   3.071   4.014  2.2017 -0.0247 -2.9486
 6555SOL    HW231128   3.686   3.124   4.097  0.6506 -0.5182 -0.4086
 6556SOL     OW31129   2.579   2.074   6.412 -0.1903  0.8386 -0.6560
 6556SOL    HW131130   2.534   2.126   6.346  0.7826  1.6795 -0.6550
 6556SOL    HW231131   2.636   2.024   6.354 -0.0631 -0.1101  0.2729
 6557SOL     OW31132   1.906   1.425  15.318  0.6384 -0.1032 -0.9681
 6557SOL    HW131133   1.878   1.377  15.396 -0.8711  1.7522 -0.3774
 6557SOL    HW231134   1.876   1.510  15.349  2.2532  0.7809 -1.8327
 6558SOL     OW31135   2.813   2.807  13.047  0.5784 -0.0238  0.2395
 6558SOL    HW131136   2.827   2.791  12.954  0.4520 -0.4756  0.3010
 6558SOL    HW231137   2.904   2.808  13.075  0.6543 -0.1469 -0.0134
 6559SOL     OW31138   0.555   4.322   6.019 -0.1728 -0.0814 -0.2480
 6559SOL    HW131139   0.620   4.253   6.033  1.6176  1.4246 -1.1078
 6559SOL    HW231140   0.617   4.395   6.012  0.8406 -0.9520 -0.2106
 6560SOL     OW31141   0.893   3.903  14.820  0.3974 -0.5018  0.0510
 6560SOL    HW131142   0.823   3.838  14.823 -0.8748  0.7333 -3.2286
 6560SOL    HW231143   0.842   3.980  14.795  0.0660 -0.5356  0.6364
 6561SOL     OW31144   0.184   2.072   4.056  0.1069  0.1014  0.0667
 6561SOL    HW131145   0.143   2.034   3.979  0.4036  3.4907 -1.7368
 6561SOL    HW231146   0.245   2.134   4.016  0.3730  0.3310  0.8182
 6562SOL     OW31147   2.166   2.429   7.672 -0.2190 -0.3294 -0.3615
 6562SOL    HW131148   2.239   2.450   7.730 -0.2895 -0.4151 -0.2412
 6562SOL    HW231149   2.201   2.348   7.635  1.4206  1.2378 -2.2358
 6563SOL     OW31150   0.846   3.620   2.424  0.2272 -0.2302 -0.4656
 6563SOL    HW131151   0.895   3.540   2.404 -0.7353 -0.5061 -1.6689
 6563SOL    HW231152   0.754   3.596   2.414 -0.2406  3.0780 -3.7911
 6564SOL     OW31153   2.715   0.463   5.814  0.1662 -0.0119 -0.4205
 6564SOL    HW131154   2.679   0.486   5.728 -0.3696 -2.3079 -0.8140
 6564SOL    HW231155   2.718   0.552   5.850 -2.1648 -0.7387  1.4799
 6565SOL     OW31156   0.911   1.898   6.231  0.2804  0.3326  0.1704
 6565SOL    HW131157   0.927   1.808   6.256 -0.1500 -0.0031 -0.7546
 6565SOL    HW231158   1.001   1.930   6.227  0.4365 -0.1605 -0.2244
 6566SOL     OW31159   1.028   4.057   5.591 -0.5641 -0.3511  0.5409
 6566SOL    HW131160   0.990   4.127   5.539 -2.5171 -1.6869  0.1452
 6566SOL    HW231161   0.992   3.978   5.550  0.3663  0.2827 -1.4648
 6567SOL     OW31162   3.274   1.612  12.337 -0.1870  0.7791  0.7393
 6567SOL    HW131163   3.318   1.535  12.372 -0.7307  0.4357  0.6726
 6567SOL    HW231164   3.301   1.608  12.246  0.1399 -1.3123  0.9462
 6568SOL     OW31165   1.842   1.727   5.183 -0.3488 -0.0574 -0.7617
 6568SOL    HW131166   1.786   1.679   5.244 -0.7078 -0.0883 -1.1133
 6568SOL    HW231167   1.787   1.725   5.105  0.9332 -1.5678 -1.6198
 6569SOL     OW31168   3.074   4.169   6.250 -0.0361  0.0985 -0.0474
 6569SOL    HW131169   3.095   4.251   6.206 -0.3029  0.0202 -0.3225
 6569SOL    HW231170   3.007   4.132   6.191  0.8083  0.2017 -1.0734
 6570SOL     OW31171   1.701   0.904   7.093  0.3143 -0.0410 -0.5886
 6570SOL    HW131172   1.650   0.985   7.092  1.4177  0.6486  0.2939
 6570SOL    HW231173   1.775   0.919   7.034 -0.8684 -0.7797 -2.2909
 6571SOL     OW31174   2.571   4.569   7.184 -0.2130  0.4680  0.4749
 6571SOL    HW131175   2.532   4.562   7.271 -1.0875  0.4031  0.0862
 6571SOL    HW231176   2.663   4.593   7.193 -0.1262  0.3345 -0.0805
 6572SOL     OW31177   0.396   2.815  14.823 -0.8148 -0.7298 -0.1561
 6572SOL    HW131178   0.447   2.891  14.795 -1.8180 -0.3878 -1.0786
 6572SOL    HW231179   0.458   2.772  14.881 -0.8488 -1.9438 -1.0374
 6573SOL     OW31180   1.708   4.367   2.975  0.1875 -0.9560  0.2367
 6573SOL    HW131181   1.623   4.412   2.973  0.6858  0.0301  1.1307
 6573SOL    HW231182   1.766   4.431   2.934 -1.9620  0.7871 -0.1234
 6574SOL     OW31183   4.151   2.679  17.549 -0.1259 -0.0663  0.6682
 6574SOL    HW131184   4.210   2.741  17.591  0.2672  0.4922 -0.6858
 6574SOL    HW231185   4.111   2.634  17.623  1.0016  1.7437  2.3587
 6575SOL     OW31186   0.534   0.988  11.764  0.0763 -0.2349  0.5076
 6575SOL    HW131187   0.512   0.997  11.671  3.1764  2.2686  0.0154
 6575SOL    HW231188   0.607   0.926  11.762 -0.5959 -0.9424 -2.2923
 6576SOL     OW31189   0.551   1.776   5.891 -0.1523 -0.8545 -0.4842
 6576SOL    HW131190   0.494   1.849   5.913  0.2241  0.4325 -3.8697
 6576SOL    HW231191   0.609   1.809   5.824  2.2121 -1.4883  1.2472
 6577SOL     OW31192   2.644   3.791  12.487 -0.4407 -0.0833 -0.1689
 6577SOL    HW131193   2.686   3.718  12.442 -0.8432  0.7141 -1.8320
 6577SOL    HW231194   2.674   3.865  12.433 -4.7976  1.2750 -0.7182
 6578SOL     OW31195   1.193   1.590   0.708  0.2912  0.1163 -0.5365
 6578SOL    HW131196   1.120   1.613   0.650  0.6582  0.0402 -1.0316
 6578SOL    HW231197   1.242   1.671   0.696 -2.8659  1.8285 -1.9266
 6579SOL     OW31198   2.119   4.236  16.514 -0.4734  0.2619 -0.2140
 6579SOL    HW131199   2.163   4.225  16.598  0.5751  0.1891 -0.7730
 6579SOL    HW231200   2.188   4.220  16.449 -0.7151  0.0055 -0.4069
 6580SOL     OW31201   0.237   3.034  14.247 -0.0974  0.3263  0.1988
 6580SOL    HW131202   0.241   2.938  14.249 -0.9368  0.3203  1.7229
 6580SOL    HW231203   0.254   3.047  14.340  0.6630 -1.6176  0.3253
 6581SOL     OW31204   2.433   3.845   3.975 -0.1038 -0.3360  0.2306
 6581SOL    HW131205   2.474   3.784   4.037  0.3508 -0.8805 -0.6142
 6581SOL    HW231206   2.342   3.849   4.006 -0.1656 -1.4485  0.1937
 6582SOL     OW31207   3.755   2.564   0.824 -0.6232 -0.1729  0.5136
 6582SOL    HW131208   3.789   2.475   0.826  0.7596  0.3403 -0.3642
 6582SOL    HW231209   3.839   2.610   0.811 -0.6605  0.2785  1.8331
 6583SOL     OW31210   2.853   1.279   2.651 -0.7649  0.1773 -0.0638
 6583SOL    HW131211   2.772   1.237   2.682 -0.5076 -0.4326 -0.2219
 6583SOL    HW231212   2.824   1.370   2.657 -2.1316 -0.0848 -2.5037
 6584SOL     OW31213   2.153   3.670   7.779 -0.1407  0.1517  0.3353
 6584SOL    HW131214   2.077   3.624   7.816 -0.4604  1.4837  1.3398
 6584SOL    HW231215   2.148   3.648   7.686 -1.0820 -0.4568  0.5274
 6585SOL     OW31216   3.266   1.938  16.978 -0.6139  0.3436  0.2605
 6585SOL    HW131217   3.348   1.940  17.027  0.6760 -0.1512 -1.8754
 6585SOL    HW231218   3.214   1.881  17.035  0.3036  0.0423  0.8022
 6586SOL     OW31219   4.531   1.942   8.459  0.1525 -0.0651 -0.1947
 6586SOL    HW131220   4.603   2.005   8.451 -1.9192  2.1616 -1.3839
 6586SOL    HW231221   4.452   1.997   8.454  0.0956 -0.2596 -1.5922
 6587SOL     OW31222   2.388   1.323   5.132 -0.1342  0.8754 -0.1896
 6587SOL    HW131223   2.396   1.236   5.093  1.0141  1.0084 -0.2353
 6587SOL    HW231224   2.394   1.375   5.052 -0.5430 -0.6703 -1.2334
 6588SOL     OW31225   0.280   1.322   6.865 -0.7490 -0.0832  0.3069
 6588SOL    HW131226   0.238   1.404   6.840 -0.1088 -0.0716 -0.7335
 6588SOL    HW231227   0.311   1.360   6.948 -0.6398 -3.4854  1.8141
 6589SOL     OW31228   2.475   0.579   8.685  0.2472  0.4150 -0.1936
 6589SOL    HW131229   2.509   0.631   8.758 -1.6372 -1.1672  1.8007
 6589SOL    HW231230   2.508   0.491   8.703 -0.0607  0.1826 -0.8059
 6590SOL     OW31231   1.176   0.054   0.098  0.7925 -0.5022  0.1294
 6590SOL    HW131232   1.116   0.079   0.028  1.5670 -0.9626 -0.7049
 6590SOL    HW231233   1.213   0.137   0.130  1.4071 -1.1821  1.1849
 6591SOL     OW31234   0.764   3.654   6.989  0.2917 -0.0028  0.8470
 6591SOL    HW131235   0.788   3.587   7.053  1.8596  0.7484  1.0459
 6591SOL    HW231236   0.680   3.676   7.030 -0.2265  0.0049 -0.2081
 6592SOL     OW31237   4.153   4.672  13.987  0.0071  0.8461 -0.1662
 6592SOL    HW131238   4.105   4.644  14.065  1.7673 -1.7739 -0.0049
 6592SOL    HW231239   4.082   4.722  13.947 -1.5012 -1.9831 -1.0406
 6593SOL     OW31240   0.013   1.737   5.179  0.3731 -0.1545  0.3896
 6593SOL    HW131241   0.033   1.794   5.254 -0.0632  0.9027 -0.2972
 6593SOL    HW231242   4.642   1.731   5.179  0.5109 -2.5125  0.1365
 6594SOL     OW31243   4.003   2.342  17.057 -0.4417 -0.6666  0.1985
 6594SOL    HW131244   3.976   2.265  17.007  1.9297 -1.3626 -0.0234
 6594SOL    HW231245   4.095   2.318  17.066 -0.0984  1.1769  1.7132
 6595SOL     OW31246   4.255   3.188   8.175 -0.2045 -0.5600  0.0815
 6595SOL    HW131247   4.244   3.093   8.171  0.9943 -0.6751 -0.4225
 6595SOL    HW231248   4.184   3.211   8.115 -2.6927 -0.0569  3.2119
 6596SOL     OW31249   1.457   0.935   6.476  0.6574  0.0760  0.1427
 6596SOL    HW131250   1.366   0.966   6.478  0.8949  0.7866 -0.0080
 6596SOL    HW231251   1.483   0.963   6.388 -0.7883 -0.1163 -0.3541
 6597SOL     OW31252   0.778   2.951   7.149 -0.2690 -0.3106  0.5238
 6597SOL    HW131253   0.795   2.974   7.057 -0.5500  0.3496  0.6406
 6597SOL    HW231254   0.806   3.025   7.203 -1.8995  1.0799 -0.5505
 6598SOL     OW31255   4.411   1.576  14.851  0.0198  0.1364  0.5827
 6598SOL    HW131256   4.407   1.663  14.892 -0.2346 -0.4324  1.7620
 6598SOL    HW231257   4.388   1.523  14.927 -0.0648 -1.9295 -0.8878
 6599SOL     OW31258   4.173   2.493   7.204  0.3216 -0.3189  0.2778
 6599SOL    HW131259   4.215   2.566   7.249 -1.0806  0.1218  0.8712
 6599SOL    HW231260   4.134   2.540   7.130 -0.1580 -1.5183 -0.2401
 6600SOL     OW31261   3.214   0.223   9.464 -1.1821  0.0261 -0.2830
 6600SOL    HW131262   3.156   0.186   9.397 -0.2829 -0.3633 -0.8443
 6600SOL    HW231263   3.295   0.175   9.449 -1.0577 -0.0859  0.8054
 6601SOL     OW31264   1.685   2.644   6.618  0.0835  0.0846  0.0411
 6601SOL    HW131265   1.621   2.604   6.559 -1.3461  0.9149  1.0295
 6601SOL    HW231266   1.633   2.640   6.698 -1.2187  1.0957 -0.7537
 6602SOL     OW31267   1.442   2.686  14.201  0.1167 -0.4407  0.1802
 6602SOL    HW131268   1.356   2.644  14.200 -1.2844  2.4056  1.4494
 6602SOL    HW231269   1.490   2.628  14.259  1.1667  0.2566  0.0009
 6603SOL     OW31270   1.366   4.519   8.195  0.4089  0.1720  0.0244
 6603SOL    HW131271   1.390   4.608   8.167 -1.5536  0.3835 -1.0416
 6603SOL    HW231272   1.397   4.521   8.285  2.2063 -2.5441 -0.5564
 6604SOL     OW31273   1.708   2.452   1.954 -0.1448 -0.0807 -0.0993
 6604SOL    HW131274   1.715   2.512   1.879 -1.6411  0.5104  0.2382
 6604SOL    HW231275   1.701   2.369   1.907  0.6837  1.4116 -2.8903
 6605SOL     OW31276   1.644   4.194   1.787 -0.4933 -0.0091  0.0750
 6605SOL    HW131277   1.684   4.279   1.770 -0.0229  0.1877  2.1704
 6605SOL    HW231278   1.551   4.200   1.765 -0.9120  2.2133  2.5790
 6606SOL     OW31279   2.139   1.396   8.460 -0.3998  0.1101 -0.5493
 6606SOL    HW131280   2.219   1.358   8.497 -1.0219 -0.1493  0.5000
 6606SOL    HW231281   2.076   1.337   8.500  1.6115 -0.2923  2.0206
 6607SOL     OW31282   1.182   0.899   2.783 -0.5966  0.2464 -0.2792
 6607SOL    HW131283   1.122   0.926   2.853  1.5486  0.7779  1.3470
 6607SOL    HW231284   1.169   0.959   2.709  1.7102  1.9522  0.7149
 6608SOL     OW31285   1.297   2.391   5.897  0.2704  0.2711  0.1192
 6608SOL    HW131286   1.313   2.338   5.819 -1.4990  0.4564 -0.3877
 6608SOL    HW231287   1.243   2.330   5.947 -1.2609  2.0851  0.6805
 6609SOL     OW31288   0.027   3.864   8.268  0.6965  0.5743  0.2370
 6609SOL    HW131289   4.697   3.921   8.215  1.8264 -0.7389 -2.2999
 6609SOL    HW231290   0.087   3.821   8.208 -0.4783  0.4060 -0.8138
 6610SOL     OW31291   2.986   2.978   5.912  0.2516 -0.3420  0.3388
 6610SOL    HW131292   2.930   2.991   5.988  0.2650 -1.2902  0.5087
 6610SOL    HW231293   3.064   2.932   5.945 -0.0237 -3.0173 -2.6569
 6611SOL     OW31294   0.374   4.117   4.445 -0.1078  0.2408  0.0968
 6611SOL    HW131295   0.404   4.092   4.357 -1.5827  0.2486 -0.4059
 6611SOL    HW231296   0.377   4.034   4.493  0.2773 -0.9403 -1.9095
 6612SOL     OW31297   3.070   3.738  16.462 -0.8302 -0.7985  0.4324
 6612SOL    HW131298   3.103   3.798  16.395 -1.9713 -0.8026 -0.1375
 6612SOL    HW231299   3.077   3.795  16.539  2.8667 -1.8603  0.8795
 6613SOL     OW31300   1.160   0.086   7.057  0.5583  0.2991  0.7815
 6613SOL    HW131301   1.248   0.054   7.077  0.6113 -0.1901 -0.2338
 6613SOL    HW231302   1.100   0.021   7.093  1.9125 -0.2532  2.0091
 6614SOL     OW31303   1.365   1.811   7.779 -0.6787 -0.0354 -0.6089
 6614SOL    HW131304   1.417   1.735   7.806  0.8587  0.3390 -2.5670
 6614SOL    HW231305   1.427   1.881   7.796 -2.1372  1.0700  0.1728
 6615SOL     OW31306   2.044   2.276  16.453  0.2903 -0.0883 -0.1827
 6615SOL    HW131307   1.948   2.279  16.450  0.3640  1.4379 -1.3342
 6615SOL    HW231308   2.067   2.295  16.362  1.9628 -0.6947  0.1243
 6616SOL     OW31309   4.202   4.724   1.517  0.2162 -0.0249 -0.3817
 6616SOL    HW131310   4.116   0.041   1.523 -0.0355 -0.9175  2.1466
 6616SOL    HW231311   4.187   4.659   1.585  0.3123 -0.1578 -0.4881
 6617SOL     OW31312   2.946   4.471   8.900 -0.1302 -0.5089 -0.9260
 6617SOL    HW131313   2.962   4.563   8.882  1.7650 -0.7388 -0.3743
 6617SOL    HW231314   2.876   4.455   8.837 -0.4989 -1.8204 -0.1970
 6618SOL     OW31315   3.634   3.873   6.762  0.3337  0.4242 -0.2177
 6618SOL    HW131316   3.600   3.962   6.754 -2.4902 -0.4897  1.7659
 6618SOL    HW231317   3.718   3.889   6.717 -0.3026 -0.7884 -1.8283
 6619SOL     OW31318   4.100   0.955   4.626 -0.0712  0.2262  0.4920
 6619SOL    HW131319   4.181   1.004   4.644  1.4438 -2.1934  0.2605
 6619SOL    HW231320   4.088   0.897   4.701  0.7104 -1.5252 -0.7547
 6620SOL     OW31321   0.859   3.459   7.134 -0.2743 -0.5829 -0.6947
 6620SOL    HW131322   0.859   3.398   7.208  1.7026  1.3897  0.9639
 6620SOL    HW231323   0.884   3.406   7.059  0.3732 -1.1695 -0.0690
 6621SOL     OW31324   4.021   0.131   4.721  0.3822 -0.5284  0.5959
 6621SOL    HW131325   4.080   0.198   4.757  2.7844 -1.7149 -1.1565
 6621SOL    HW231326   4.028   0.140   4.626 -0.8126  0.3804  0.5978
 6622SOL     OW31327   3.966   3.609   3.889 -0.0336  0.2144  0.0640
 6622SOL    HW131328   3.882   3.587   3.849 -0.0085  0.8666 -0.3521
 6622SOL    HW231329   3.986   3.527   3.933  0.7276  1.1307  1.4141
 6623SOL     OW31330   4.291   2.178   7.257 -0.2358  0.0691  0.1431
 6623SOL    HW131331   4.265   2.269   7.241 -2.3055 -0.7374 -1.2044
 6623SOL    HW231332   4.321   2.150   7.170  3.3012 -0.6946  1.6307
 6624SOL     OW31333   4.611   3.768   3.066 -0.1850  0.1165 -0.6817
 6624SOL    HW131334   4.597   3.718   2.986  0.6614 -0.6394 -0.3577
 6624SOL    HW231335   4.568   3.851   3.044 -0.4404  0.2818  0.4459
 6625SOL     OW31336   3.045   1.315   7.013  0.2421  0.0436  0.1343
 6625SOL    HW131337   3.065   1.338   7.104  0.8595  1.7122 -0.4229
 6625SOL    HW231338   3.081   1.376   6.949 -0.1139 -0.4585 -0.5437
 6626SOL     OW31339   3.931   0.050   1.585  0.1916  0.1703  0.3052
 6626SOL    HW131340   3.923   4.679   1.582  0.3630  0.1508  0.4768
 6626SOL    HW231341   3.837   0.067   1.593  0.5175  2.0900  0.0514
 6627SOL     OW31342   0.283   0.073   2.206 -0.7910 -0.2199 -0.0232
 6627SOL    HW131343   0.227   0.147   2.184  1.6334  1.4978 -0.4212
 6627SOL    HW231344   0.296   0.033   2.120 -2.0825  0.6646 -0.6281
 6628SOL     OW31345   0.440   4.382   7.294  0.1203  0.1319  0.0677
 6628SOL    HW131346   0.476   4.471   7.303  0.4217  0.1964 -1.7027
 6628SOL    HW231347   0.353   4.389   7.255  0.6145  1.6889 -0.7423
 6629SOL     OW31348   0.167   4.576  14.069 -0.6120  0.7527 -0.2075
 6629SOL    HW131349   0.101   4.632  14.027 -0.7631  1.7415  1.3676
 6629SOL    HW231350   0.130   4.566  14.156  1.8049 -0.2185  0.7132
 6630SOL     OW31351   3.253   4.039   0.141  0.1808  0.0427 -0.3625
 6630SOL    HW131352   3.282   4.037   0.232  2.2544 -2.3782 -1.0775
 6630SOL    HW231353   3.319   3.980   0.103 -0.3053  0.1411 -1.3591
 6631SOL     OW31354   0.640   2.944   8.214 -0.1675  0.0769 -0.0053
 6631SOL    HW131355   0.569   2.991   8.170 -0.7729 -0.2307  0.6524
 6631SOL    HW231356   0.681   3.013   8.265 -0.4089 -0.6556  1.1858
 6632SOL     OW31357   3.941   1.783   5.339  0.0456  0.7650 -0.3176
 6632SOL    HW131358   3.907   1.798   5.251  0.4449 -1.3637 -0.8182
 6632SOL    HW231359   3.868   1.819   5.390 -2.5653  0.3502 -3.7496
 6633SOL     OW31360   3.832   2.032  13.810 -0.0496 -0.5581 -0.0701
 6633SOL    HW131361   3.780   1.996  13.881  1.8921 -2.4260  0.4052
 6633SOL    HW231362   3.763   2.083  13.767 -0.2113 -0.9610 -0.2890
 6634SOL     OW31363   1.342   0.362  13.445  0.3706 -0.2809 -0.2106
 6634SOL    HW131364   1.274   0.373  13.511 -0.0623 -1.0594 -0.5320
 6634SOL    HW231365   1.307   0.374  13.357 -0.8452 -2.0742  0.0390
 6635SOL     OW31366   0.836   2.358  15.540 -0.2835 -0.3477  0.3526
 6635SOL    HW131367   0.887   2.342  15.619  0.5550  0.5052 -0.0194
 6635SOL    HW231368   0.882   2.423  15.487  0.3229 -1.1807 -0.1397
 6636SOL     OW31369   1.554   0.554   0.773  0.1581  0.0434 -0.1661
 6636SOL    HW131370   1.484   0.567   0.710 -0.2788 -1.3038  0.0413
 6636SOL    HW231371   1.542   0.638   0.817 -1.0743  0.2328 -0.8824
 6637SOL     OW31372   1.788   3.952  10.868  0.1623  0.2548  0.1524
 6637SOL    HW131373   1.738   3.991  10.797  2.3325 -0.1756 -1.6146
 6637SOL    HW231374   1.817   4.034  10.908 -0.5744  0.7781 -0.3691
 6638SOL     OW31375   1.420   1.118  12.334 -0.2490 -0.3140  0.0439
 6638SOL    HW131376   1.403   1.157  12.248  3.0769 -0.3937 -0.6224
 6638SOL    HW231377   1.478   1.187  12.366 -1.2643  0.3512  0.4475
 6639SOL     OW31378   4.030   3.925   6.929  0.1022  0.0478  0.0433
 6639SOL    HW131379   4.023   3.832   6.906 -3.0474 -0.1164  1.5797
 6639SOL    HW231380   4.115   3.942   6.888  0.1216  0.0426  0.0819
 6640SOL     OW31381   2.834   4.708   9.995 -0.3762 -0.2113  0.2141
 6640SOL    HW131382   2.744   0.009   9.974  0.6151  1.5026 -2.0089
 6640SOL    HW231383   2.812   4.622  10.029  0.7921 -0.5563  0.0869
 6641SOL     OW31384   3.926   2.091  16.393 -1.0449  0.2294  0.0642
 6641SOL    HW131385   3.958   2.176  16.425 -2.5482  0.2416  1.5194
 6641SOL    HW231386   3.998   2.030  16.410 -0.7023  0.5362 -0.2662
 6642SOL     OW31387   3.064   3.746   7.919  0.6950 -0.1840 -0.2786
 6642SOL    HW131388   3.003   3.677   7.947  2.0646 -2.8576 -3.8833
 6642SOL    HW231389   3.086   3.710   7.833 -1.1828 -1.6233 -0.1768
 6643SOL     OW31390   0.331   3.444   8.540  0.1249  0.5398  0.0157
 6643SOL    HW131391   0.286   3.522   8.570  0.2351  1.0217 -1.0588
 6643SOL    HW231392   0.300   3.372   8.595 -1.7626 -1.4713 -3.6751
 6644SOL     OW31393   1.353   2.109   1.785  0.9546 -0.2094 -0.4185
 6644SOL    HW131394   1.338   2.190   1.737  0.6268 -0.1103 -0.1463
 6644SOL    HW231395   1.419   2.134   1.849  0.8370 -0.2544 -0.2799
 6645SOL     OW31396   3.898   4.291   6.983 -0.3330  0.2401 -0.5839
 6645SOL    HW131397   3.933   4.260   6.899  0.3415  0.4251 -0.3686
 6645SOL    HW231398   3.953   4.247   7.048 -0.4118 -0.4354 -0.9697
 6646SOL     OW31399   3.930   1.022   2.218 -0.1381  0.6261  0.1183
 6646SOL    HW131400   3.856   1.082   2.230 -0.2702  0.7379 -1.2842
 6646SOL    HW231401   3.881   0.948   2.182  0.0658  0.2635  0.5835
 6647SOL     OW31402   1.045   0.960   7.798  0.1611  0.2790  0.2755
 6647SOL    HW131403   1.097   1.023   7.849  1.4966  0.0820 -0.8282
 6647SOL    HW231404   1.068   0.884   7.851 -0.0576  0.3243  0.4336
 6648SOL     OW31405   0.166   3.129   4.117  0.0708 -0.0776 -0.1855
 6648SOL    HW131406   0.096   3.115   4.054  0.4454 -0.1295 -0.5907
 6648SOL    HW231407   0.152   3.055   4.176 -0.0244 -0.0883 -0.2218
 6649SOL     OW31408   1.879   2.423   0.502  0.1590 -0.0579 -0.0375
 6649SOL    HW131409   1.851   2.409   0.592 -1.3065  0.6598 -0.3834
 6649SOL    HW231410   1.913   2.513   0.509  1.4763 -0.6017  0.5652
 6650SOL     OW31411   4.089   1.982  15.423 -0.1537  0.0051 -0.7543
 6650SOL    HW131412   4.102   2.067  15.381 -1.5310  0.4147 -0.3573
 6650SOL    HW231413   4.034   1.935  15.361 -1.2014  1.2720 -0.7906
 6651SOL     OW31414   1.669   1.499  16.259 -0.2269 -0.3657 -0.2388
 6651SOL    HW131415   1.750   1.449  16.258  0.7969  1.2293  1.7116
 6651SOL    HW231416   1.629   1.470  16.177 -1.2605  0.9269 -0.2041
 6652SOL     OW31417   1.184   4.528   3.780  0.3292 -0.4243 -0.0009
 6652SOL    HW131418   1.271   4.545   3.746  0.7827 -2.4404  0.1179
 6652SOL    HW231419   1.204   4.551   3.871  0.9369  0.2244 -0.2984
 6653SOL     OW31420   1.382   2.630   0.942 -0.0078 -0.3458 -0.1615
 6653SOL    HW131421   1.429   2.556   0.981  0.9886  0.3388 -0.0864
 6653SOL    HW231422   1.314   2.649   1.006  0.2737 -0.9024  0.3044
 6654SOL     OW31423   4.084   4.469   6.817  0.1140 -0.2182 -0.3293
 6654SOL    HW131424   4.141   4.491   6.743 -0.7450  1.3634 -0.5194
 6654SOL    HW231425   4.036   4.397   6.776 -2.4035  0.5579  1.3273
 6655SOL     OW31426   2.225   3.686   2.195  0.2589  0.2767 -0.3241
 6655SOL    HW131427   2.300   3.699   2.137  2.0294  1.2948  2.2111
 6655SOL    HW231428   2.245   3.727   2.279 -1.9158 -1.2796  0.9482
 6656SOL     OW31429   3.281   2.476   2.153  0.1024  0.6438 -0.3951
 6656SOL    HW131430   3.313   2.393   2.119  1.4076  1.4290 -1.0832
 6656SOL    HW231431   3.296   2.536   2.080  2.0149 -2.8709 -2.9021
 6657SOL     OW31432   1.171   1.960   5.914  0.1959  0.3012  0.3127
 6657SOL    HW131433   1.220   1.878   5.914 -0.3573 -0.0276 -2.2911
 6657SOL    HW231434   1.232   2.024   5.878  2.5934 -0.5652  2.8213
 6658SOL     OW31435   0.827   4.451   6.390  0.4847 -0.5072 -0.2363
 6658SOL    HW131436   0.891   4.463   6.319 -0.3619 -1.5922 -1.1634
 6658SOL    HW231437   0.745   4.457   6.342 -0.5404  0.6647  1.6593
 6659SOL     OW31438   2.374   0.370  11.940 -0.4076  0.1917  0.1517
 6659SOL    HW131439   2.362   0.438  12.006  1.7229  0.1619  0.5596
 6659SOL    HW231440   2.423   0.422  11.876  0.0551 -2.3071 -1.5167
 6660SOL     OW31441   1.861   0.483   2.813  0.1826  0.7769  0.5873
 6660SOL    HW131442   1.889   0.550   2.751  0.9072 -1.4982 -1.5860
 6660SOL    HW231443   1.863   0.400   2.764 -1.1165  0.8338  0.4475
 6661SOL     OW31444   1.426   0.777   6.066  0.2699 -0.0795  0.4473
 6661SOL    HW131445   1.369   0.737   6.132  1.1439  1.0704  1.9098
 6661SOL    HW231446   1.517   0.756   6.086 -0.6867 -0.9189  4.0298
 6662SOL     OW31447   2.410   1.747   3.678 -0.5057  0.0623  0.2571
 6662SOL    HW131448   2.342   1.706   3.732 -1.4199 -1.7097 -2.2302
 6662SOL    HW231449   2.368   1.765   3.594 -2.4830 -1.6413  0.8698
 6663SOL     OW31450   0.148   3.168   8.209 -0.0164  0.2877  0.1427
 6663SOL    HW131451   0.191   3.103   8.153  1.3765 -0.3312  1.9284
 6663SOL    HW231452   0.220   3.207   8.259 -0.6080  0.1980  1.0616
 6664SOL     OW31453   1.137   3.049  12.535  0.6166  0.1029 -0.0808
 6664SOL    HW131454   1.186   3.036  12.453 -0.6986 -0.9199 -0.7049
 6664SOL    HW231455   1.048   3.034  12.504  1.3648 -1.4041 -1.5611
 6665SOL     OW31456   2.926   3.644   4.166  0.0988 -0.3973  0.6270
 6665SOL    HW131457   3.018   3.660   4.147  0.3533 -1.5433  0.9062
 6665SOL    HW231458   2.923   3.677   4.256 -1.2904  1.9174 -0.2660
 6666SOL     OW31459   3.123   4.409   8.233 -0.3479  0.5710  0.0030
 6666SOL    HW131460   3.194   4.389   8.171 -1.4977  0.3877 -1.2617
 6666SOL    HW231461   3.110   4.499   8.205 -1.5248  0.2303 -0.5335
 6667SOL     OW31462   4.375   2.144   5.884  0.1160 -0.0970  0.3600
 6667SOL    HW131463   4.435   2.216   5.865 -0.5044  1.0260  2.5263
 6667SOL    HW231464   4.288   2.178   5.862  0.6902 -0.9162 -3.1284
 6668SOL     OW31465   3.639   1.499   3.113 -0.1484 -0.0670  0.3581
 6668SOL    HW131466   3.653   1.541   3.029 -1.5291 -1.8947 -0.7855
 6668SOL    HW231467   3.599   1.413   3.099 -0.5673  0.1709  0.1127
 6669SOL     OW31468   4.510   0.840  12.094 -0.0496 -0.0787 -0.4556
 6669SOL    HW131469   4.595   0.797  12.086  0.0054  0.5651 -3.3064
 6669SOL    HW231470   4.448   0.773  12.122 -0.3952 -0.0141 -1.0649
 6670SOL     OW31471   3.749   2.846   3.838 -0.0827 -0.0988 -0.4714
 6670SOL    HW131472   3.718   2.815   3.923 -0.8179 -3.3671 -1.9221
 6670SOL    HW231473   3.843   2.830   3.838  0.1625  1.3130  0.2270
 6671SOL     OW31474   0.672   3.525   2.046  0.7453 -0.1033 -0.1965
 6671SOL    HW131475   0.695   3.590   1.981  1.4534  1.1931  1.3528
 6671SOL    HW231476   0.636   3.582   2.114  0.7718 -1.8679  1.3195
 6672SOL     OW31477   1.275   3.481   0.518  0.3907 -0.2830  0.2153
 6672SOL    HW131478   1.327   3.431   0.581  1.0610  0.2600  0.0873
 6672SOL    HW231479   1.199   3.511   0.567  1.2742 -0.7354  1.8435
 6673SOL     OW31480   4.034   3.390   6.358  0.1425  0.8508  0.2370
 6673SOL    HW131481   4.029   3.483   6.381  1.5872  1.2421 -1.0047
 6673SOL    HW231482   3.996   3.400   6.271  2.7183 -1.8862 -1.2110
 6674SOL     OW31483   4.197   3.798   9.886  0.0161 -0.3362 -0.0585
 6674SOL    HW131484   4.236   3.799   9.799  0.2622 -1.2334  0.0409
 6674SOL    HW231485   4.252   3.866   9.924 -0.0511 -1.4487  2.0069
 6675SOL     OW31486   2.582   2.830   7.601  0.2099  0.2837 -0.4789
 6675SOL    HW131487   2.567   2.917   7.563  0.6526  0.1787 -0.8856
 6675SOL    HW231488   2.572   2.851   7.694  0.5447  0.2771 -0.4427
 6676SOL     OW31489   3.542   0.792   0.095 -0.8283 -0.0801  0.5518
 6676SOL    HW131490   3.458   0.829   0.068 -0.3291 -1.1322 -2.5123
 6676SOL    HW231491   3.508   0.704   0.113 -0.6221 -0.3054 -0.1493
 6677SOL     OW31492   1.550   2.729   7.811  0.3442 -0.0428 -0.6089
 6677SOL    HW131493   1.509   2.786   7.876 -0.2285 -0.8877 -0.2236
 6677SOL    HW231494   1.469   2.686   7.782  0.0919  0.9964 -1.4307
 6678SOL     OW31495   3.295   1.237   2.853  0.5854 -0.3309  0.2569
 6678SOL    HW131496   3.316   1.144   2.861 -1.3348 -0.7029  0.9826
 6678SOL    HW231497   3.217   1.237   2.797  0.4514 -1.7285  0.4560
 6679SOL     OW31498   4.659   0.034   4.932  0.1746  0.5439 -0.1402
 6679SOL    HW131499   4.618   0.103   4.880 -0.2146  1.4139  1.3204
 6679SOL    HW231500   4.607   4.686   4.898 -1.3553  1.1977  0.8048
 6680SOL     OW31501   3.085   1.019   8.383 -0.2497  0.0060  0.0334
 6680SOL    HW131502   3.095   1.108   8.351 -0.1982 -0.0465 -0.1004
 6680SOL    HW231503   3.124   0.978   8.305  4.4629 -0.9874  2.8748
 6681SOL     OW31504   1.306   3.888   9.046  0.0610  0.4492  0.3241
 6681SOL    HW131505   1.372   3.955   9.028  0.0255  0.9723  2.1378
 6681SOL    HW231506   1.266   3.939   9.116  1.2249  1.8484 -0.0199
 6682SOL     OW31507   3.152   2.269  17.657  0.1721  0.2098 -0.4845
 6682SOL    HW131508   3.068   2.315  17.668 -0.1934 -0.3920 -0.7146
 6682SOL    HW231509   3.122   2.183  17.688  0.9399  0.3293  0.5680
 6683SOL     OW31510   1.236   3.791  14.328 -0.5841  0.2720  0.3064
 6683SOL    HW131511   1.201   3.845  14.399  1.5619  0.8134  0.9464
 6683SOL    HW231512   1.237   3.850  14.253 -0.5393  0.0892  0.1617
 6684SOL     OW31513   1.264   4.568  12.386  0.3057  0.5810 -0.0819
 6684SOL    HW131514   1.347   4.562  12.434 -1.5935 -0.0548  3.1495
 6684SOL    HW231515   1.273   4.651  12.338  0.2698  0.7425  0.1904
 6685SOL     OW31516   1.347   3.174   5.569  0.2956 -0.6362  0.0892
 6685SOL    HW131517   1.387   3.150   5.485  2.3572  3.1908 -0.0409
 6685SOL    HW231518   1.296   3.094   5.583  1.0300 -0.8497  1.4844
 6686SOL     OW31519   3.575   4.096   7.091 -0.2489  0.0865  0.4710
 6686SOL    HW131520   3.508   4.031   7.111  1.1533 -0.9429  1.8694
 6686SOL    HW231521   3.592   4.137   7.176  0.5000  0.4272  0.1554
 6687SOL     OW31522   4.159   1.554   6.509  0.2384 -0.2018 -0.2558
 6687SOL    HW131523   4.161   1.481   6.447  0.8449  1.3352 -2.0112
 6687SOL    HW231524   4.159   1.501   6.590  4.0306 -0.6184 -0.5074
 6688SOL     OW31525   3.580   4.480   9.945 -0.0712 -0.3073  0.5306
 6688SOL    HW131526   3.494   4.507   9.979  0.2379  0.7472  0.4758
 6688SOL    HW231527   3.598   4.409  10.007 -2.3387 -1.4707 -0.1497
 6689SOL     OW31528   0.802   4.244   8.207 -0.1330 -0.4456  0.3817
 6689SOL    HW131529   0.834   4.248   8.117 -3.5004  0.5035 -0.7457
 6689SOL    HW231530   0.883   4.209   8.246  0.4191 -0.4674 -0.7728
 6690SOL     OW31531   3.000   0.124   4.947 -0.4409  0.4689  0.3017
 6690SOL    HW131532   2.967   0.171   4.871  0.7674 -0.4748 -0.8168
 6690SOL    HW231533   3.076   0.090   4.900 -1.6558 -0.0847 -1.2930
 6691SOL     OW31534   4.129   0.386  16.893  0.3024 -0.0189  0.3932
 6691SOL    HW131535   4.164   0.361  16.979  1.6310  0.6048  0.0288
 6691SOL    HW231536   4.097   0.473  16.921  1.0905  0.1861  0.6591
 6692SOL     OW31537   3.709   3.525   1.074  0.3877  0.2127 -0.2368
 6692SOL    HW131538   3.754   3.458   1.022  0.1703 -1.0185  1.1445
 6692SOL    HW231539   3.743   3.511   1.163  0.5934 -0.0387 -0.3539
 6693SOL     OW31540   4.182   0.416   6.692 -0.1599  0.8192 -0.0079
 6693SOL    HW131541   4.217   0.413   6.603  0.8070  2.6142  0.3028
 6693SOL    HW231542   4.219   0.491   6.739 -1.9555  0.1633  2.4623
 6694SOL     OW31543   2.739   3.319   3.848 -0.3834 -0.0447  0.2750
 6694SOL    HW131544   2.695   3.250   3.798  4.1058 -0.2847 -3.3480
 6694SOL    HW231545   2.753   3.274   3.932 -2.7854 -0.9979  0.1794
 6695SOL     OW31546   0.444   0.865   6.590  0.3314  0.2640 -0.1886
 6695SOL    HW131547   0.459   0.953   6.623 -1.4828  0.7687 -0.6928
 6695SOL    HW231548   0.452   0.880   6.496  0.6617 -0.5003 -0.2877
 6696SOL     OW31549   3.816   4.663   5.943  0.1840 -0.0962  0.3776
 6696SOL    HW131550   3.769   0.018   5.967  0.2469 -0.6693  2.4264
 6696SOL    HW231551   3.736   4.611   5.933 -0.3983  0.7811  0.4612
 6697SOL     OW31552   1.224   3.735   9.964 -0.1451 -0.3633  0.1040
 6697SOL    HW131553   1.210   3.736  10.059  0.4545  1.6907  0.1696
 6697SOL    HW231554   1.306   3.689   9.947  0.3502  0.4600  0.2632
 6698SOL     OW31555   2.389   3.885   3.019  0.6456  0.4133  0.3916
 6698SOL    HW131556   2.397   3.828   3.096 -1.2914 -0.5700 -0.1249
 6698SOL    HW231557   2.468   3.937   3.029 -0.0789  1.5673  0.0320
 6699SOL     OW31558   2.317   1.943  11.800 -0.1448  0.3898  0.0138
 6699SOL    HW131559   2.277   2.019  11.843  1.0439  0.4432  1.0270
 6699SOL    HW231560   2.263   1.947  11.721  0.0090 -1.1201 -0.1620
 6700SOL     OW31561   1.349   0.698  13.089  0.1338 -0.6581 -0.0443
 6700SOL    HW131562   1.426   0.650  13.118  0.9379  0.6253 -0.0208
 6700SOL    HW231563   1.360   0.682  12.995 -1.3359  0.7485 -0.4698
 6701SOL     OW31564   0.586   2.903   6.752  1.0384  0.0472  0.1139
 6701SOL    HW131565   0.522   2.884   6.820  1.8455 -0.8152  0.6238
 6701SOL    HW231566   0.526   2.934   6.683 -0.1588 -0.9061  0.7304
 6702SOL     OW31567   2.859   2.141   1.537 -0.1076 -0.6751  0.1756
 6702SOL    HW131568   2.786   2.195   1.507  1.4752  1.5749  0.3681
 6702SOL    HW231569   2.932   2.190   1.499  0.0679 -0.7036  0.4782
 6703SOL     OW31570   0.153   4.004  11.439 -0.6049  0.2831  0.1504
 6703SOL    HW131571   0.174   3.928  11.384  0.7896  1.1582 -0.5366
 6703SOL    HW231572   0.159   4.073  11.373  0.8492 -1.7385 -1.8569
 6704SOL     OW31573   0.336   4.400   4.079  0.0556  0.2016  0.0915
 6704SOL    HW131574   0.345   4.445   3.995 -1.5221 -0.2524 -0.3184
 6704SOL    HW231575   0.420   4.427   4.116 -0.6563  0.5132  1.5006
 6705SOL     OW31576   1.751   1.226   2.098 -0.1008 -0.0553  0.5984
 6705SOL    HW131577   1.761   1.197   2.008 -1.7015  2.5712 -0.4222
 6705SOL    HW231578   1.793   1.312   2.098 -1.0595  0.4097 -0.0031
 6706SOL     OW31579   1.921   2.346   2.132  0.4074  0.7609 -0.3461
 6706SOL    HW131580   1.826   2.335   2.125  0.6248 -2.4441  1.5458
 6706SOL    HW231581   1.941   2.369   2.041  0.2830  1.5537 -0.1664
 6707SOL     OW31582   1.847   3.661  11.436 -0.2496 -0.0372  0.3641
 6707SOL    HW131583   1.888   3.642  11.520 -1.2554 -1.4292  0.5410
 6707SOL    HW231584   1.918   3.644  11.375 -0.2700  1.1786 -0.0075
 6708SOL     OW31585   4.438   1.398   3.412 -0.4492 -0.7676  0.6268
 6708SOL    HW131586   4.511   1.411   3.351  0.2304  1.3139  1.8709
 6708SOL    HW231587   4.441   1.306   3.439 -0.9864 -0.6195  1.1870
 6709SOL     OW31588   3.074   3.780   8.804  0.5137 -0.6859 -0.1828
 6709SOL    HW131589   3.139   3.818   8.862 -0.9757 -1.2030  1.8677
 6709SOL    HW231590   3.020   3.857   8.790  1.3378 -0.1478 -0.3689
 6710SOL     OW31591   1.575   2.289  16.738  0.0683 -0.4363  0.0614
 6710SOL    HW131592   1.663   2.253  16.749  1.1968  2.2586 -0.4299
 6710SOL    HW231593   1.586   2.341  16.659 -0.7611  0.7824  0.7513
 6711SOL     OW31594   1.072   4.401  12.281 -0.3487  0.0112  0.7353
 6711SOL    HW131595   1.143   4.415  12.344  1.7705  2.7093 -2.2398
 6711SOL    HW231596   1.076   4.485  12.235 -1.9478  0.0723  0.7244
 6712SOL     OW31597   1.350   4.344   3.050 -0.5363  0.1658  0.0895
 6712SOL    HW131598   1.376   4.365   2.960  1.5743  2.8139  1.3188
 6712SOL    HW231599   1.281   4.409   3.065 -0.1164  0.8848 -1.1013
 6713SOL     OW31600   3.641   3.024   0.388 -0.1701  0.1519 -0.1261
 6713SOL    HW131601   3.546   3.027   0.380 -0.1050  0.3026 -0.8964
 6713SOL    HW231602   3.652   3.032   0.483  0.5762 -2.4650  0.0041
 6714SOL     OW31603   2.607   1.724   9.212 -0.7582 -0.3904 -0.0737
 6714SOL    HW131604   2.614   1.787   9.140  0.8536 -0.2594  0.2081
 6714SOL    HW231605   2.532   1.759   9.260 -0.4888 -3.0610  2.2595
 6715SOL     OW31606   0.726   0.167   0.870  0.4315  0.2717 -0.1751
 6715SOL    HW131607   0.809   0.122   0.856  0.0384  0.2035 -2.2295
 6715SOL    HW231608   0.731   0.164   0.966  1.6454 -1.6818 -0.2833
 6716SOL     OW31609   4.084   3.556   7.405  0.0022 -0.2991  0.2088
 6716SOL    HW131610   4.136   3.516   7.474  1.1959  1.7258  0.4797
 6716SOL    HW231611   4.050   3.480   7.359  0.8037  0.3679 -1.4793
 6717SOL     OW31612   4.627   2.081   9.089  0.0007  0.2375  0.6676
 6717SOL    HW131613   4.538   2.048   9.082  0.3883 -0.5676 -0.4630
 6717SOL    HW231614   4.675   2.020   9.033  0.8037 -0.5675  2.2474
 6718SOL     OW31615   3.944   0.914   4.376 -0.5667 -0.5790 -0.1462
 6718SOL    HW131616   4.008   0.929   4.445 -0.7245 -0.9612  0.0828
 6718SOL    HW231617   3.867   0.870   4.412  0.2877 -1.3684  0.7024
 6719SOL     OW31618   0.129   3.940   3.081  0.1578  0.1551  0.1258
 6719SOL    HW131619   0.181   3.961   3.003  1.0871 -3.1756 -0.1646
 6719SOL    HW231620   0.066   3.875   3.048  0.8995  0.3064 -1.5764
 6720SOL     OW31621   4.432   0.916  16.617 -0.1943  0.0509 -0.1301
 6720SOL    HW131622   4.417   0.857  16.543  0.4113 -0.1714 -0.0727
 6720SOL    HW231623   4.378   0.876  16.685  0.9816  0.2826  0.9286
 6721SOL     OW31624   1.386   4.217   3.840  0.3434 -0.4933  0.1402
 6721SOL    HW131625   1.396   4.212   3.745 -0.6756 -3.1043  0.1876
 6721SOL    HW231626   1.471   4.255   3.865  0.5252 -0.9943  0.2872
 6722SOL     OW31627   3.154   3.197   2.484 -0.7223 -0.0406  0.0869
 6722SOL    HW131628   3.149   3.104   2.459  1.4254  0.0755 -0.8459
 6722SOL    HW231629   3.230   3.219   2.429 -1.3015  2.3157  0.2532
 6723SOL     OW31630   3.906   1.976   4.185  0.0573  0.4107 -0.3553
 6723SOL    HW131631   3.906   2.037   4.259 -1.4181 -2.2988  1.8767
 6723SOL    HW231632   3.860   1.906   4.230  0.2561 -0.4534 -1.5135
 6724SOL     OW31633   4.008   0.306   3.510  0.1223  0.4212 -0.6072
 6724SOL    HW131634   4.087   0.294   3.458  0.7250  0.4403  0.2964
 6724SOL    HW231635   4.052   0.344   3.586 -2.0088  0.9372  0.3796
 6725SOL     OW31636   0.320   1.848  13.057 -0.0516  0.7635 -0.3710
 6725SOL    HW131637   0.233   1.814  13.075 -1.2073  2.9395 -1.8608
 6725SOL    HW231638   0.382   1.790  13.101  0.2984  0.2000 -1.6056
 6726SOL     OW31639   1.088   1.806  10.640 -0.4019  0.6533  0.2619
 6726SOL    HW131640   1.092   1.835  10.731  1.8460  0.9725  0.0691
 6726SOL    HW231641   1.165   1.844  10.597  0.0194 -1.2331 -0.6303
 6727SOL     OW31642   3.313   1.886  11.972  0.3754  0.1216  0.1815
 6727SOL    HW131643   3.391   1.832  11.964  1.1921  1.1513  1.2124
 6727SOL    HW231644   3.314   1.934  11.889  0.3089  0.8738  0.6132
 6728SOL     OW31645   4.287   0.669   5.578  0.6299 -0.1980  0.4238
 6728SOL    HW131646   4.296   0.590   5.632 -1.4704 -0.7300 -0.0137
 6728SOL    HW231647   4.338   0.643   5.502  0.1744 -1.2684  0.4798
 6729SOL     OW31648   3.873   0.386  13.665  0.3904  0.1773  0.2041
 6729SOL    HW131649   3.854   0.410  13.756  0.2726  2.1558 -0.3416
 6729SOL    HW231650   3.800   0.422  13.615  1.2365  0.9405 -0.4772
 6730SOL     OW31651   1.828   3.504   1.725 -0.5490 -0.1238  0.9145
 6730SOL    HW131652   1.872   3.520   1.808 -1.3252 -0.9620  1.4903
 6730SOL    HW231653   1.745   3.549   1.743  0.0338  1.2453  0.2213
 6731SOL     OW31654   0.541   0.457   1.984 -0.0505  0.4510 -0.6110
 6731SOL    HW131655   0.608   0.450   1.917  1.1495 -2.9412  0.9636
 6731SOL    HW231656   0.526   0.363   1.995 -1.6846  0.8883  1.0485
 6732SOL     OW31657   0.166   0.728   4.256 -0.2221  0.7833 -0.1969
 6732SOL    HW131658   0.219   0.738   4.335  0.0923 -1.1475 -0.1607
 6732SOL    HW231659   0.229   0.750   4.187  0.1824  0.8879  0.2015
 6733SOL     OW31660   1.913   4.605   3.173  0.2984 -0.2087 -0.2692
 6733SOL    HW131661   1.937   4.638   3.086  1.4093 -1.8065 -0.5555
 6733SOL    HW231662   1.819   4.586   3.164  0.1900  0.7871 -1.2564
 6734SOL     OW31663   0.496   0.060   4.540 -0.6004  0.1160  0.3744
 6734SOL    HW131664   0.504   0.066   4.445  0.8214 -1.9126  0.3730
 6734SOL    HW231665   0.583   0.091   4.567 -0.3074 -0.0177 -0.4287
 6735SOL     OW31666   2.778   0.202   5.838  0.1677 -0.7222  0.2520
 6735SOL    HW131667   2.694   0.177   5.876 -1.2953  2.8615 -0.6374
 6735SOL    HW231668   2.762   0.295   5.825 -2.5173 -1.2686 -0.2928
 6736SOL     OW31669   2.625   0.949  14.791 -0.6758  0.2405 -0.1033
 6736SOL    HW131670   2.568   0.999  14.733 -1.1687 -0.2456 -0.0424
 6736SOL    HW231671   2.709   0.993  14.791 -0.4920 -0.1104 -0.2038
 6737SOL     OW31672   3.173   0.120  16.524  0.3287 -0.2199 -0.5178
 6737SOL    HW131673   3.194   0.106  16.617 -1.3045  0.9262  0.0275
 6737SOL    HW231674   3.262   0.123  16.491 -0.2172 -2.2354 -2.0981
 6738SOL     OW31675   2.588   1.833   2.644  0.1056 -0.1499 -0.5477
 6738SOL    HW131676   2.557   1.892   2.576 -1.9046  1.1770  1.4971
 6738SOL    HW231677   2.658   1.885   2.683 -0.3994  0.9507 -1.1385
 6739SOL     OW31678   0.183   0.715   1.885 -0.0568  0.7927  0.7946
 6739SOL    HW131679   0.215   0.628   1.864 -2.5305  0.1241 -0.1584
 6739SOL    HW231680   0.236   0.732   1.963 -0.1421 -1.3927  1.3260
 6740SOL     OW31681   1.819   2.018  13.733 -0.1885 -0.1757 -0.0383
 6740SOL    HW131682   1.912   1.997  13.727 -0.0057  0.0232  1.9835
 6740SOL    HW231683   1.807   2.078  13.660 -1.4071 -1.1340 -0.6255
 6741SOL     OW31684   4.525   4.431  12.793 -0.5442  0.3049  0.1344
 6741SOL    HW131685   4.522   4.365  12.863 -0.6509 -1.1814 -1.2776
 6741SOL    HW231686   4.613   4.469  12.801 -0.6830  0.6751 -0.0900
 6742SOL     OW31687   2.915   2.680   5.839  0.4909  0.3467 -0.3153
 6742SOL    HW131688   2.872   2.714   5.917 -0.2988 -2.1106  0.3252
 6742SOL    HW231689   2.854   2.606   5.829  1.6156 -1.0583  3.2651
 6743SOL     OW31690   4.232   0.320   7.955  0.1432  0.1422  0.4010
 6743SOL    HW131691   4.191   0.238   7.984  1.6534 -1.0565 -0.8361
 6743SOL    HW231692   4.236   0.368   8.037 -1.1513  1.1730 -0.1486
 6744SOL     OW31693   2.852   4.564  15.902 -0.2583 -0.0917 -0.5638
 6744SOL    HW131694   2.774   4.565  15.847 -0.5440 -0.5966 -0.1682
 6744SOL    HW231695   2.876   4.473  15.920  0.4498  0.1286 -0.3893
 6745SOL     OW31696   0.268   0.212   4.529  0.0316 -0.5069 -0.1567
 6745SOL    HW131697   0.288   0.256   4.612  0.5803  1.0399 -1.1115
 6745SOL    HW231698   0.337   0.145   4.535  2.1543  1.7178  0.3253
 6746SOL     OW31699   1.340   1.366   3.827  0.2549  0.1006  0.5658
 6746SOL    HW131700   1.314   1.452   3.792  0.6918  0.5845  1.4260
 6746SOL    HW231701   1.358   1.325   3.743 -0.2194 -0.5785  0.8019
 6747SOL     OW31702   3.838   1.770  11.798 -0.5514  0.4782 -0.2116
 6747SOL    HW131703   3.879   1.708  11.858 -1.5058 -0.2317 -0.2903
 6747SOL    HW231704   3.858   1.835  11.866 -4.2095  1.4894 -0.0674
 6748SOL     OW31705   1.444   1.451   0.748  0.6994  0.0175 -0.1654
 6748SOL    HW131706   1.356   1.460   0.784  0.7796 -0.1933  0.0843
 6748SOL    HW231707   1.484   1.413   0.827 -2.7460 -0.2031  1.4493
 6749SOL     OW31708   1.676   3.795   9.565 -0.1729 -0.1513  0.5311
 6749SOL    HW131709   1.715   3.729   9.508  0.8784  0.8356  0.0984
 6749SOL    HW231710   1.633   3.739   9.629 -0.8050  0.3368  0.5339
 6750SOL     OW31711   0.603   3.573  11.224 -0.1598  0.6284 -0.3569
 6750SOL    HW131712   0.568   3.613  11.303 -2.1978  1.2044 -1.5580
 6750SOL    HW231713   0.527   3.521  11.197  0.8516 -1.3943  0.6479
 6751SOL     OW31714   3.994   0.264   1.033 -0.5178 -0.2177  0.2936
 6751SOL    HW131715   3.934   0.199   1.071  0.7636 -0.3216  2.1316
 6751SOL    HW231716   4.057   0.273   1.104 -1.1583 -0.2306  0.8712
 6752SOL     OW31717   4.426   2.459   5.210 -0.1098  0.1422  0.4217
 6752SOL    HW131718   4.452   2.414   5.130  0.2856 -1.1836  1.3020
 6752SOL    HW231719   4.392   2.383   5.257 -0.8738  0.7923  0.9161
 6753SOL     OW31720   1.555   0.661   4.971 -0.1809  0.7414 -0.1112
 6753SOL    HW131721   1.497   0.628   4.902 -1.1178  1.6587  0.2417
 6753SOL    HW231722   1.500   0.724   5.018 -0.5453  2.9916 -3.5855
 6754SOL     OW31723   2.822   3.975   8.417  0.2918  0.4523 -0.4936
 6754SOL    HW131724   2.853   3.992   8.506  1.1925  0.5536 -0.8293
 6754SOL    HW231725   2.838   4.054   8.365  2.0351  0.0499 -0.5772
 6755SOL     OW31726   2.960   3.718   6.352 -0.1910  0.0856  0.5342
 6755SOL    HW131727   2.890   3.734   6.289 -0.2992 -1.2992  0.2967
 6755SOL    HW231728   3.033   3.755   6.303  1.5745 -0.9945  2.3487
 6756SOL     OW31729   1.101   1.585   0.966 -0.1080  0.2930  0.3329
 6756SOL    HW131730   1.116   1.589   0.871  1.4385 -0.2848  0.5616
 6756SOL    HW231731   1.115   1.492   0.984  1.2411 -0.1092 -2.7613
 6757SOL     OW31732   3.294   2.611  12.180  0.2989  0.2674 -0.0470
 6757SOL    HW131733   3.294   2.602  12.085  0.0400 -1.0798  0.0782
 6757SOL    HW231734   3.292   2.523  12.217 -0.4862  0.7354  1.0345
 6758SOL     OW31735   3.868   3.974   0.699 -0.8327  0.1085  0.2574
 6758SOL    HW131736   3.784   3.961   0.654 -0.2793 -1.0354 -0.4383
 6758SOL    HW231737   3.914   3.896   0.669  1.2903  1.4811 -0.0542
 6759SOL     OW31738   1.194   1.975   0.021  0.3576  0.1423  0.1363
 6759SOL    HW131739   1.275   1.942  17.682 -1.2075 -1.6523 -1.5799
 6759SOL    HW231740   1.176   1.914   0.092 -0.0371 -1.4422 -1.3413
 6760SOL     OW31741   4.256   0.905   6.707  0.4504  0.6242  0.0303
 6760SOL    HW131742   4.200   0.970   6.663  1.2615  0.2561 -1.5472
 6760SOL    HW231743   4.232   0.933   6.795 -0.2565 -0.3005  0.1347
 6761SOL     OW31744   1.221   1.054   5.604  0.2685 -0.3863 -0.3873
 6761SOL    HW131745   1.190   0.970   5.637 -1.2244 -0.3188 -1.6601
 6761SOL    HW231746   1.155   1.080   5.540  0.0678  1.4198  0.5447
 6762SOL     OW31747   3.595   1.654   8.509 -0.2219  0.3226  1.2038
 6762SOL    HW131748   3.591   1.637   8.415 -0.0563 -2.7869  1.7757
 6762SOL    HW231749   3.661   1.592   8.539 -0.9957 -1.1647 -0.1396
 6763SOL     OW31750   3.746   0.611   5.568  0.1020  0.3255 -0.5154
 6763SOL    HW131751   3.800   0.679   5.528  2.4343  0.1090  2.2691
 6763SOL    HW231752   3.700   0.653   5.640 -0.3104  0.4980 -0.8774
 6764SOL     OW31753   1.320   4.429  15.578 -0.4470 -0.0769 -0.1804
 6764SOL    HW131754   1.230   4.457  15.562  0.2766  1.8371 -0.8515
 6764SOL    HW231755   1.312   4.340  15.614 -0.0564 -0.1806 -0.3465
 6765SOL     OW31756   4.407   3.106  11.341  0.3157  0.0624 -0.3458
 6765SOL    HW131757   4.411   3.038  11.408 -0.1120  0.7578  0.3811
 6765SOL    HW231758   4.322   3.147  11.359  1.1329  1.1975  0.9643
 6766SOL     OW31759   0.036   1.587   0.181  1.0029 -0.2553  0.0559
 6766SOL    HW131760   4.687   1.577   0.241  1.8813 -1.0043  1.0057
 6766SOL    HW231761   0.051   1.680   0.198  0.6422  0.0599 -1.3175
 6767SOL     OW31762   0.326   2.406   4.162  0.2045  0.4355 -0.2138
 6767SOL    HW131763   0.384   2.331   4.169 -0.1517  0.0601 -1.1717
 6767SOL    HW231764   0.355   2.449   4.242  2.7866  0.7918 -1.3458
 6768SOL     OW31765   2.015   0.271  16.378 -0.0951  0.4503  0.5205
 6768SOL    HW131766   1.996   0.310  16.293 -1.1600  0.5810  0.8202
 6768SOL    HW231767   2.101   0.304  16.405  1.0830  0.3279 -3.1010
 6769SOL     OW31768   3.679   0.489  13.514  0.1777 -0.0412 -0.2738
 6769SOL    HW131769   3.680   0.515  13.422  1.1944  1.4512  0.1598
 6769SOL    HW231770   3.614   0.547  13.553  0.2223 -0.4674  0.4317
 6770SOL     OW31771   1.001   0.180   2.463 -0.8061  0.0482  0.0461
 6770SOL    HW131772   0.953   0.176   2.546 -0.4333 -0.8074  0.2242
 6770SOL    HW231773   0.979   0.272   2.450  1.1064  0.6875  1.2838
 6771SOL     OW31774   3.265   3.970  15.353 -0.0608 -0.1121  0.1060
 6771SOL    HW131775   3.315   4.049  15.374 -0.8052 -0.1003  1.8535
 6771SOL    HW231776   3.174   3.999  15.366  0.4973  0.2839  2.9704
 6772SOL     OW31777   4.651   3.638  16.159  0.0964  0.0958  0.3906
 6772SOL    HW131778   0.009   3.634  16.208  0.6930 -2.3541 -0.8303
 6772SOL    HW231779   4.641   3.732  16.150 -5.1875 -0.3070  2.1387
 6773SOL     OW31780   2.422   4.176   9.935  0.5026  0.3816 -0.0113
 6773SOL    HW131781   2.413   4.084   9.909  0.0577  0.7088 -0.9940
 6773SOL    HW231782   2.375   4.215   9.862 -0.8837  3.4001  2.4939
 6774SOL     OW31783   2.300   0.125   5.922  0.1985 -0.5539 -0.3574
 6774SOL    HW131784   2.394   0.107   5.925  0.5948  2.0390  2.6699
 6774SOL    HW231785   2.301   0.221   5.916  2.2999 -0.5356  0.4715
 6775SOL     OW31786   1.892   4.198   1.056 -0.0222  0.1252 -0.2120
 6775SOL    HW131787   1.849   4.143   0.990  1.3946  1.3606 -2.1446
 6775SOL    HW231788   1.813   4.238   1.093  0.7580 -0.2521  1.8905
 6776SOL     OW31789   2.642   0.076   6.292 -0.2409  0.0043  0.3248
 6776SOL    HW131790   2.620   0.126   6.370  1.3402 -0.3502  0.9986
 6776SOL    HW231791   2.613   4.712   6.313 -0.9616 -0.0071 -0.7231
 6777SOL     OW31792   1.405   2.651   3.802  0.8539  0.4264  0.4009
 6777SOL    HW131793   1.407   2.572   3.747 -0.2383  0.0672  0.8695
 6777SOL    HW231794   1.385   2.615   3.888  0.1330 -2.2723 -0.8952
 6778SOL     OW31795   2.182   1.708   6.943 -0.2262 -0.7783  0.0427
 6778SOL    HW131796   2.196   1.785   6.998 -0.4853 -0.1866 -0.7175
 6778SOL    HW231797   2.240   1.637   6.970 -1.6977 -1.6261  0.9498
 6779SOL     OW31798   3.368   4.689  14.853  0.3677  0.4253  0.3403
 6779SOL    HW131799   3.375   0.035  14.789 -0.4474  0.4255  0.2440
 6779SOL    HW231800   3.455   4.694  14.891  1.0403  1.5258 -1.3299
 6780SOL     OW31801   1.644   0.965  10.175  0.0956 -0.2815  0.3434
 6780SOL    HW131802   1.606   0.941  10.260  0.1946 -0.6324  0.2899
 6780SOL    HW231803   1.563   0.953  10.126  1.1889 -2.0796 -1.0035
 6781SOL     OW31804   3.139   0.902   4.393 -0.2946  0.3469 -0.0338
 6781SOL    HW131805   3.182   0.839   4.335  1.5869  1.5641  0.0144
 6781SOL    HW231806   3.106   0.960   4.325  1.1407  0.4156 -0.6832
 6782SOL     OW31807   2.176   1.077  12.020 -0.3647 -0.2425  0.1892
 6782SOL    HW131808   2.160   1.161  12.061 -1.4670  0.2068 -1.1422
 6782SOL    HW231809   2.221   1.034  12.092 -1.0641  0.1112  0.8321
 6783SOL     OW31810   0.932   0.705   4.817  0.5068 -1.2743  0.3773
 6783SOL    HW131811   0.917   0.773   4.882 -1.1290  0.5149 -1.8884
 6783SOL    HW231812   0.986   0.652   4.876 -0.0804 -0.9277  1.2320
 6784SOL     OW31813   2.957   4.016  17.698 -0.1034  0.4303  0.5036
 6784SOL    HW131814   2.978   3.928   0.029 -0.0554  0.3256  0.1698
 6784SOL    HW231815   2.868   4.028   0.031 -0.9006  0.3662 -1.6353
 6785SOL     OW31816   0.681   3.998   9.663  0.3392 -0.2691  0.2650
 6785SOL    HW131817   0.653   4.080   9.625 -2.2381 -0.5730  1.5304
 6785SOL    HW231818   0.700   4.036   9.749  0.1820  3.3641 -1.2993
 6786SOL     OW31819   1.455   0.059  15.681 -0.0483 -0.0177 -0.1633
 6786SOL    HW131820   1.395   0.030  15.749 -1.5006 -1.2120 -1.9589
 6786SOL    HW231821   1.501   4.702  15.660  0.7436 -0.0247  1.5601
 6787SOL     OW31822   1.877   1.286   2.346  0.4656 -0.1533  0.2074
 6787SOL    HW131823   1.907   1.220   2.408 -0.5192 -0.3578  0.4551
 6787SOL    HW231824   1.848   1.243   2.265 -1.8243 -0.4092  1.1630
 6788SOL     OW31825   2.160   2.425   6.982 -0.6926  0.2183  0.1722
 6788SOL    HW131826   2.176   2.430   6.888  2.3917 -1.1311  0.6229
 6788SOL    HW231827   2.171   2.514   7.017  0.5629 -0.0341  0.4111
 6789SOL     OW31828   0.644   0.909   2.045  0.3255 -0.1658 -0.3094
 6789SOL    HW131829   0.599   0.990   2.070  0.1099 -0.8234  1.4050
 6789SOL    HW231830   0.655   0.850   2.119  1.7831 -0.4093 -0.7121
 6790SOL     OW31831   3.725   1.836   3.067  0.4898 -0.5355 -0.5886
 6790SOL    HW131832   3.761   1.756   3.028  1.1314  0.3327 -1.7699
 6790SOL    HW231833   3.758   1.898   3.002  0.1883 -1.9316 -2.0908
 6791SOL     OW31834   3.956   4.614   7.886 -0.0990 -0.8795  0.4418
 6791SOL    HW131835   4.030   4.558   7.863  0.5984  0.0222  0.4709
 6791SOL    HW231836   3.883   4.553   7.893 -2.8509  2.2985 -0.6865
 6792SOL     OW31837   1.790   2.005  15.565 -0.1898  0.4343  0.0805
 6792SOL    HW131838   1.720   2.061  15.597  0.1516  1.3401 -0.7900
 6792SOL    HW231839   1.796   2.022  15.471  4.2573  0.3000  0.3120
 6793SOL     OW31840   1.426   2.103   2.494 -0.1677  0.0757  0.2279
 6793SOL    HW131841   1.474   2.184   2.476 -0.2895 -0.2767 -1.7151
 6793SOL    HW231842   1.335   2.135   2.492 -0.1228  0.2748  1.3965
 6794SOL     OW31843   3.591   0.313  10.166  0.4136  0.0294 -0.2196
 6794SOL    HW131844   3.622   0.244  10.107 -2.7228  0.2291 -2.0943
 6794SOL    HW231845   3.504   0.289  10.197 -0.0836  1.6816 -0.3195
 6795SOL     OW31846   3.757   3.207   8.289 -0.1100  0.5153  0.0591
 6795SOL    HW131847   3.703   3.240   8.360 -0.2572 -1.3168  0.8061
 6795SOL    HW231848   3.696   3.196   8.217  1.6168 -1.4039 -1.1347
 6796SOL     OW31849   1.921   4.149   6.796  0.2649  0.1072 -0.1679
 6796SOL    HW131850   1.853   4.106   6.745 -0.3162  0.4232  0.3456
 6796SOL    HW231851   1.995   4.089   6.792  0.2363  0.1955 -1.7223
 6797SOL     OW31852   0.457   3.665  14.259 -0.3601 -0.7016 -0.3310
 6797SOL    HW131853   0.535   3.641  14.308  1.4136 -1.1033 -3.3325
 6797SOL    HW231854   0.483   3.635  14.172  3.1781 -2.5561  1.3847
 6798SOL     OW31855   2.810   2.457   7.528 -0.4213  0.1731 -0.1177
 6798SOL    HW131856   2.748   2.497   7.468  0.0449 -0.7354 -1.1921
 6798SOL    HW231857   2.835   2.535   7.578 -2.4950  0.7114  0.1153
 6799SOL     OW31858   2.134   2.876   8.585  0.3955  0.1151 -0.5051
 6799SOL    HW131859   2.144   2.783   8.606  2.3394 -0.2078 -2.9090
 6799SOL    HW231860   2.218   2.922   8.590  1.0320 -1.2016  0.8896
 6800SOL     OW31861   1.426   2.367  12.067 -0.3812  0.0982  0.7884
 6800SOL    HW131862   1.341   2.324  12.066 -0.6927  0.7053  1.1905
 6800SOL    HW231863   1.422   2.430  12.139  0.4279 -1.9970  2.6885
 6801SOL     OW31864   4.274   0.329   3.357  0.4345  0.2760  0.0165
 6801SOL    HW131865   4.344   0.337   3.422  0.2333 -1.5623  0.4682
 6801SOL    HW231866   4.315   0.266   3.297 -1.9739 -1.2233 -0.0733
 6802SOL     OW31867   3.075   3.691   1.020  0.2936 -0.2915 -0.2451
 6802SOL    HW131868   3.089   3.688   1.114  0.9925  2.2345 -0.2743
 6802SOL    HW231869   3.098   3.781   1.000 -1.0067  0.3840  1.3338
 6803SOL     OW31870   4.304   0.621  15.149  0.4234 -0.0896 -0.8458
 6803SOL    HW131871   4.348   0.637  15.232 -0.4143 -0.6447 -0.2813
 6803SOL    HW231872   4.268   0.705  15.120  1.2029  0.0662 -1.3648
 6804SOL     OW31873   3.380   2.905   2.880  0.0910  0.4624 -0.0991
 6804SOL    HW131874   3.290   2.921   2.910  0.4956 -0.5949  1.7256
 6804SOL    HW231875   3.414   2.839   2.940 -1.3080 -2.4432 -2.5187
 6805SOL     OW31876   1.556   0.105   2.931  0.5162 -0.0207 -0.1454
 6805SOL    HW131877   1.467   0.128   2.903 -0.1203 -1.7819  0.3840
 6805SOL    HW231878   1.601   0.076   2.852  0.5284 -1.1126  0.2685
 6806SOL     OW31879   2.276   4.428   1.933  0.2806  0.5485  0.1347
 6806SOL    HW131880   2.367   4.422   1.902  0.0875  1.5349 -0.6059
 6806SOL    HW231881   2.287   4.469   2.018 -0.5839  1.0410  0.0048
 6807SOL     OW31882   2.172   1.694  14.068  0.6070  0.0207  0.4268
 6807SOL    HW131883   2.261   1.658  14.066  0.6856  0.3318 -2.0863
 6807SOL    HW231884   2.175   1.768  14.007  1.0833  0.0392  0.4767
 6808SOL     OW31885   2.324   1.627  16.960  0.5949  0.5652  0.1323
 6808SOL    HW131886   2.331   1.711  16.915 -0.4564  0.2526 -0.6113
 6808SOL    HW231887   2.251   1.649  17.018 -0.1801 -0.3889 -0.4789
 6809SOL     OW31888   3.319   0.633   0.808 -0.1104 -0.1385 -0.1670
 6809SOL    HW131889   3.396   0.689   0.798 -0.5897  0.3691 -0.9700
 6809SOL    HW231890   3.362   0.547   0.807  2.3656  1.1133  0.3021
 6810SOL     OW31891   0.809   0.072   3.762 -0.1042  0.6443  0.1356
 6810SOL    HW131892   0.812   0.033   3.849 -2.8472  0.9544  0.3523
 6810SOL    HW231893   0.889   0.030   3.729 -1.0822 -0.2698 -1.0909
 6811SOL     OW31894   3.837   1.857   0.597  0.2848 -0.1400  0.7080
 6811SOL    HW131895   3.805   1.790   0.658  1.7213 -0.6442  0.9069
 6811SOL    HW231896   3.929   1.838   0.615  0.5210  0.8713  0.5615
 6812SOL     OW31897   3.723   4.141   2.246  0.1954  0.3842  0.3123
 6812SOL    HW131898   3.791   4.095   2.198  2.0997  0.9664  2.4229
 6812SOL    HW231899   3.771   4.182   2.318 -0.3202 -1.1459  1.5244
 6813SOL     OW31900   0.768   3.392   6.315 -0.1391  0.6010  0.6852
 6813SOL    HW131901   0.825   3.328   6.272 -0.8287 -0.2170  1.0006
 6813SOL    HW231902   0.694   3.396   6.255  0.2623  1.0945  0.2201
 6814SOL     OW31903   2.551   1.357   5.370 -0.4207 -0.4476  0.0855
 6814SOL    HW131904   2.505   1.334   5.289  2.1179  0.9627 -1.7534
 6814SOL    HW231905   2.482   1.396   5.423 -0.9701 -0.2439 -0.7919
 6815SOL     OW31906   4.040   3.023  17.647 -0.0053 -0.2274 -0.2711
 6815SOL    HW131907   4.080   3.003   0.032 -0.0366 -0.1160 -0.2300
 6815SOL    HW231908   4.107   2.987  17.590  1.0008  1.0926  0.0797
 6816SOL     OW31909   2.634   1.593   3.656 -0.0497 -0.1912  0.1016
 6816SOL    HW131910   2.622   1.563   3.746 -2.2473 -0.3290 -0.2323
 6816SOL    HW231911   2.571   1.665   3.659 -1.1181 -1.1520  0.6161
 6817SOL     OW31912   0.068   4.087   5.802  0.5361 -0.2225  0.1610
 6817SOL    HW131913   0.148   4.050   5.840  0.0415 -0.6670  0.7881
 6817SOL    HW231914   0.003   4.068   5.870 -0.5966  0.9001 -0.6041
 6818SOL     OW31915   0.992   0.246  11.717 -0.7906  0.2918 -0.3390
 6818SOL    HW131916   0.923   0.200  11.669 -0.0935 -1.6038  0.4750
 6818SOL    HW231917   1.045   0.265  11.640  0.9169 -1.0531  0.5067
 6819SOL     OW31918   2.789   1.840   4.381  0.0216 -0.2042 -0.3128
 6819SOL    HW131919   2.856   1.908   4.381 -1.2006  1.0078  0.6449
 6819SOL    HW231920   2.838   1.763   4.352 -1.9903 -2.0910  1.1645
 6820SOL     OW31921   0.397   4.201   5.860  0.1612 -0.4770 -0.3666
 6820SOL    HW131922   0.389   4.112   5.895  0.4797 -1.3182 -2.4112
 6820SOL    HW231923   0.435   4.244   5.936 -0.8849 -2.3267  1.2054
 6821SOL     OW31924   4.469   1.061   9.475 -0.2090 -0.3336  0.4459
 6821SOL    HW131925   4.526   1.022   9.409 -1.1940 -1.6927  0.3957
 6821SOL    HW231926   4.453   1.144   9.429 -3.7454 -0.2061  1.8827
 6822SOL     OW31927   0.767   0.909  13.572 -0.5616 -0.8371  0.0191
 6822SOL    HW131928   0.770   0.842  13.640 -1.4934 -1.0440 -0.1378
 6822SOL    HW231929   0.690   0.961  13.596 -0.3842  0.7616 -2.8191
 6823SOL     OW31930   4.712   2.317   7.742  0.5426  0.6600  0.5457
 6823SOL    HW131931   0.021   2.234   7.774  2.3495  1.1165 -0.1272
 6823SOL    HW231932   4.718   2.288   7.651  2.2013  0.3064  0.7716
 6824SOL     OW31933   3.288   3.070   6.878 -0.2221  0.2419 -0.1437
 6824SOL    HW131934   3.231   3.004   6.836  0.4918 -0.8713  0.6409
 6824SOL    HW231935   3.363   3.087   6.821 -0.3418 -1.9456 -0.9524
 6825SOL     OW31936   1.176   4.271   4.498 -0.0353 -0.1976  0.3918
 6825SOL    HW131937   1.231   4.344   4.528 -1.6797  0.9363  0.6739
 6825SOL    HW231938   1.097   4.297   4.547 -0.7225 -1.7949  0.1245
 6826SOL     OW31939   3.839   0.125   3.399  0.2014  0.1034 -0.3730
 6826SOL    HW131940   3.903   0.168   3.455 -0.4377  0.4685  0.0784
 6826SOL    HW231941   3.763   0.134   3.456 -0.8746  2.8916 -2.2699
 6827SOL     OW31942   3.579   0.881   1.346  0.8208  0.1007 -0.0677
 6827SOL    HW131943   3.672   0.906   1.349  1.1976 -1.4001  0.6031
 6827SOL    HW231944   3.554   0.895   1.437 -0.9693 -3.7212  0.0222
 6828SOL     OW31945   4.071   4.624   6.558  0.2100 -0.2413 -0.5745
 6828SOL    HW131946   3.986   4.658   6.587 -0.1260 -0.4722 -1.2824
 6828SOL    HW231947   4.034   4.560   6.498  0.1972  0.0219 -0.8483
 6829SOL     OW31948   4.456   4.279   9.883  0.2222 -0.0071 -0.2840
 6829SOL    HW131949   4.432   4.306   9.794  1.4009 -0.0051 -0.5994
 6829SOL    HW231950   4.551   4.277   9.869  0.7834  0.4616  3.5364
 6830SOL     OW31951   1.222   2.244   6.531  0.2846 -0.6433 -0.0640
 6830SOL    HW131952   1.129   2.265   6.538  0.2696 -0.7487  0.0448
 6830SOL    HW231953   1.214   2.231   6.436 -0.8179  1.4198 -0.2628
 6831SOL     OW31954   1.921   3.677   1.515  1.0492 -0.3770  0.9467
 6831SOL    HW131955   1.922   3.758   1.564  3.4555 -0.9171  1.7903
 6831SOL    HW231956   1.884   3.609   1.572  0.2288 -0.1965  0.6391
 6832SOL     OW31957   4.251   0.855   7.850  0.0175  0.2567  0.0448
 6832SOL    HW131958   4.200   0.923   7.893 -1.0046 -1.3764  1.4507
 6832SOL    HW231959   4.191   0.780   7.851  0.7502 -0.3305 -0.1048
 6833SOL     OW31960   3.800   3.534   1.513  0.0838  0.0455  0.4258
 6833SOL    HW131961   3.821   3.456   1.564  2.2515 -0.1411 -0.7544
 6833SOL    HW231962   3.828   3.510   1.425  2.9725 -0.7851  1.5448
 6834SOL     OW31963   4.376   0.118   1.686  0.6966 -0.2371  0.0807
 6834SOL    HW131964   4.300   0.177   1.686 -0.2245 -1.4168  0.2891
 6834SOL    HW231965   4.339   0.063   1.617  0.0870 -1.1640  1.1253
 6835SOL     OW31966   1.848   2.491   6.880 -0.1243 -0.3778 -0.1460
 6835SOL    HW131967   1.937   2.518   6.857 -0.0045 -3.2746 -3.0777
 6835SOL    HW231968   1.824   2.428   6.812 -1.3226  0.1915 -0.2518
 6836SOL     OW31969   3.872   2.345   0.758  0.1463  0.4378  0.1277
 6836SOL    HW131970   3.963   2.368   0.737  0.6922 -0.3875  1.5680
 6836SOL    HW231971   3.849   2.303   0.676  2.7653  1.5690 -1.1681
 6837SOL     OW31972   2.931   1.763   6.520  0.3058 -0.5565  0.0693
 6837SOL    HW131973   2.837   1.754   6.529  0.0837  0.1969 -1.4731
 6837SOL    HW231974   2.939   1.854   6.549 -1.2407 -1.6839  4.0000
 6838SOL     OW31975   0.827   1.378   9.862  0.0732 -0.3688  0.3353
 6838SOL    HW131976   0.819   1.474   9.866 -0.9736 -0.2349 -4.6779
 6838SOL    HW231977   0.794   1.367   9.772  1.8545 -1.9912 -0.1160
 6839SOL     OW31978   2.113   2.870  12.596  0.0899  0.6115 -0.1393
 6839SOL    HW131979   2.097   2.886  12.689 -0.3909 -0.3398 -0.0623
 6839SOL    HW231980   2.110   2.777  12.576 -0.6043  0.3888  0.9826
 6840SOL     OW31981   3.306   4.457   3.614  0.0145  0.3038  0.2694
 6840SOL    HW131982   3.332   4.547   3.631 -0.9693  0.3645  1.4460
 6840SOL    HW231983   3.213   4.460   3.591  0.3135  0.1515 -0.9447
 6841SOL     OW31984   1.720   3.750   3.583  0.0949  0.6711  0.2096
 6841SOL    HW131985   1.677   3.794   3.511  0.9729  2.3277  0.6919
 6841SOL    HW231986   1.648   3.701   3.623  0.5328 -1.5558 -1.6945
 6842SOL     OW31987   2.718   1.288   8.322  0.1413 -0.2835  0.0390
 6842SOL    HW131988   2.692   1.367   8.274  0.3472 -0.0731  0.2708
 6842SOL    HW231989   2.632   1.246   8.327  1.1367 -2.2038  1.1849
 6843SOL     OW31990   2.645   1.245  13.702  0.4085 -0.3770 -0.5310
 6843SOL    HW131991   2.608   1.327  13.733  0.7162 -0.1761 -0.6920
 6843SOL    HW231992   2.684   1.268  13.618  1.0290 -2.8112 -0.9232
 6844SOL     OW31993   1.485   3.533   9.533  0.0330  0.2235 -0.6670
 6844SOL    HW131994   1.396   3.503   9.551 -0.1535  0.0384 -1.8959
 6844SOL    HW231995   1.519   3.567   9.615 -3.1590  1.0211  0.2784
 6845SOL     OW31996   1.882   1.993   2.340  0.6107 -0.3635 -0.0578
 6845SOL    HW131997   1.792   1.996   2.375  0.2894 -2.4843 -0.6497
 6845SOL    HW231998   1.861   2.013   2.248  1.3421  2.1004  0.3251
 6846SOL     OW31999   2.855   1.345   8.605 -0.3363  0.0820 -0.1868
 6846SOL    HW132000   2.823   1.312   8.521  0.1681  1.5350 -0.9419
 6846SOL    HW232001   2.911   1.272   8.633 -1.7069 -0.8118  0.2220
 6847SOL     OW32002   3.573   1.811  17.698 -0.5479 -0.5680  0.2701
 6847SOL    HW132003   3.522   1.847   0.070 -1.1682 -0.0932 -0.4005
 6847SOL    HW232004   3.508   1.763  17.648  0.0747 -0.7953 -0.3236
 6848SOL     OW32005   1.920   3.891   5.453 -0.3285 -0.0814  0.5685
 6848SOL    HW132006   1.859   3.877   5.525 -0.9784 -0.5569 -0.0794
 6848SOL    HW232007   1.999   3.917   5.501  0.9193  0.7583 -1.9176
 6849SOL     OW32008   0.243   0.009  12.883  0.1601  0.2690  0.3447
 6849SOL    HW132009   0.218   0.022  12.974 -2.1434 -2.7444  0.1254
 6849SOL    HW232010   0.338   0.001  12.889  0.0747 -1.6396 -0.7512
 6850SOL     OW32011   1.820   2.510   3.420  0.2809  0.2776 -0.6402
 6850SOL    HW132012   1.788   2.426   3.385 -1.2180  0.5102  0.1440
 6850SOL    HW232013   1.859   2.549   3.342 -0.2222  1.9825 -0.0448
 6851SOL     OW32014   1.747   1.523  12.363 -0.0923 -0.1979  0.5035
 6851SOL    HW132015   1.823   1.578  12.343 -0.8268 -0.5032 -3.1162
 6851SOL    HW232016   1.754   1.519  12.459 -0.9719  1.0919  0.6179
 6852SOL     OW32017   3.705   3.809   6.115 -0.3325  0.4307  0.5241
 6852SOL    HW132018   3.742   3.790   6.202 -1.5449  1.5539  1.2782
 6852SOL    HW232019   3.617   3.832   6.145 -0.6699 -2.0263  1.4025
 6853SOL     OW32020   1.733   0.319  16.815 -0.0397  0.4994 -0.6111
 6853SOL    HW132021   1.641   0.312  16.840  0.3401 -0.9227  0.3644
 6853SOL    HW232022   1.753   0.390  16.876 -0.4970  0.1854 -0.1035
 6854SOL     OW32023   2.211   1.727   4.709 -0.1855 -0.1721 -0.4206
 6854SOL    HW132024   2.256   1.674   4.775 -0.9146 -0.4213 -0.1301
 6854SOL    HW232025   2.216   1.673   4.630  0.2690 -0.7652  0.0136
 6855SOL     OW32026   3.627   0.638   2.816  0.4202 -0.2849 -0.4493
 6855SOL    HW132027   3.665   0.654   2.903 -1.3462  1.0252  0.0783
 6855SOL    HW232028   3.694   0.582   2.776 -0.7051 -2.2691  0.4366
 6856SOL     OW32029   0.365   2.305   8.738  0.2385 -0.1425  0.6270
 6856SOL    HW132030   0.431   2.291   8.670 -0.5946  0.5991 -0.3300
 6856SOL    HW232031   0.337   2.396   8.728 -1.8252 -0.9569 -0.8635
 6857SOL     OW32032   0.780   0.146   5.039  0.0057  0.6943  0.0030
 6857SOL    HW132033   0.727   0.118   4.964  0.5471  3.9897 -1.6362
 6857SOL    HW232034   0.812   0.229   5.003  1.3331  0.9843  1.8906
 6858SOL     OW32035   4.249   1.756   2.804  0.4368 -0.1892 -0.3121
 6858SOL    HW132036   4.176   1.765   2.743  0.3869  4.1937  0.3715
 6858SOL    HW232037   4.209   1.806   2.876 -0.3151 -1.3744  0.0871
 6859SOL     OW32038   1.368   4.606   0.577  0.1965  0.3096 -1.0848
 6859SOL    HW132039   1.411   4.591   0.492 -1.3390 -0.7834 -1.6690
 6859SOL    HW232040   1.405   4.691   0.602 -0.3419  0.4373 -0.7277
 6860SOL     OW32041   2.053   3.399   3.274  0.3686  0.1178 -1.0125
 6860SOL    HW132042   2.021   3.460   3.341  0.1755 -1.9502  0.7796
 6860SOL    HW232043   2.000   3.430   3.200 -2.1510 -0.0343  0.7252
 6861SOL     OW32044   0.366   1.434   4.895 -0.7839 -0.5444 -0.6567
 6861SOL    HW132045   0.311   1.479   4.959 -0.4150  0.9849 -1.4206
 6861SOL    HW232046   0.394   1.514   4.850  0.4385  0.9570  2.7940
 6862SOL     OW32047   1.720   1.968   9.305 -0.4908  0.1829  0.3580
 6862SOL    HW132048   1.738   1.971   9.399  0.7564 -0.3952  0.1360
 6862SOL    HW232049   1.687   2.058   9.295  1.5793  1.1776  2.5976
 6863SOL     OW32050   2.735   2.400   4.511  0.6034  0.2154 -0.5505
 6863SOL    HW132051   2.765   2.316   4.546  2.5769  1.2171  0.1111
 6863SOL    HW232052   2.798   2.462   4.547 -0.7666 -0.6884  3.4261
 6864SOL     OW32053   4.375   2.657  14.004  0.2569 -0.3794  0.2623
 6864SOL    HW132054   4.332   2.600  14.067  2.5650 -1.2080  1.0761
 6864SOL    HW232055   4.434   2.707  14.060  0.0530  0.4632 -0.2822
 6865SOL     OW32056   2.425   4.358   5.672  0.8152 -0.1236 -0.2882
 6865SOL    HW132057   2.399   4.308   5.749 -0.0297 -0.5362 -0.8392
 6865SOL    HW232058   2.353   4.421   5.664  1.1961  0.2882 -0.4540
 6866SOL     OW32059   3.752   4.254  17.402  0.0386  0.3720  0.3995
 6866SOL    HW132060   3.844   4.260  17.378  0.0723  1.6562  0.8197
 6866SOL    HW232061   3.747   4.269  17.497  0.3372  1.4460  0.2497
 6867SOL     OW32062   0.434   3.425  15.438 -0.4565  0.4791 -0.9447
 6867SOL    HW132063   0.473   3.504  15.400 -0.6055  2.0397  2.1160
 6867SOL    HW232064   0.467   3.426  15.528 -1.3712  0.4945 -0.6033
 6868SOL     OW32065   1.493   4.665   9.059  0.0069 -0.5850  0.1687
 6868SOL    HW132066   1.436   4.710   9.122 -1.0180 -0.8915 -0.5478
 6868SOL    HW232067   1.575   4.661   9.107  0.6154  0.4311 -0.7785
 6869SOL     OW32068   2.066   1.681   5.602  0.5785 -0.2321  0.6829
 6869SOL    HW132069   2.065   1.732   5.521 -2.6238  0.7249  1.3468
 6869SOL    HW232070   1.992   1.622   5.588 -0.0067 -0.3186  4.1672
 6870SOL     OW32071   2.339   2.200  17.107 -0.0736  0.6165 -0.3452
 6870SOL    HW132072   2.371   2.113  17.131  1.6236  1.1324 -0.7882
 6870SOL    HW232073   2.255   2.174  17.068  0.2994 -1.7869  0.4571
 6871SOL     OW32074   4.310   0.079  13.802  0.1972  0.5856 -0.7365
 6871SOL    HW132075   4.264   0.018  13.860 -2.7883  0.5060 -3.1891
 6871SOL    HW232076   4.254   0.155  13.789 -1.7650 -0.5682  0.8335
 6872SOL     OW32077   0.556   4.502   6.238  0.3928  0.0940  0.1071
 6872SOL    HW132078   0.508   4.539   6.313 -0.2503  1.5379 -1.0167
 6872SOL    HW232079   0.487   4.440   6.212  1.8228 -0.8093 -1.5198
 6873SOL     OW32080   1.145   3.140   6.714 -0.3346  0.0518 -0.0851
 6873SOL    HW132081   1.128   3.216   6.659 -3.8722 -0.4298  0.3369
 6873SOL    HW232082   1.085   3.076   6.674 -2.5467  0.6863  2.1812
 6874SOL     OW32083   3.022   2.266  16.281  0.1257  0.8564  0.3921
 6874SOL    HW132084   3.037   2.209  16.357  0.3917 -0.6757 -0.7904
 6874SOL    HW232085   3.103   2.317  16.278  0.4927  0.2484 -0.0103
 6875SOL     OW32086   1.186   3.069   5.225 -0.0447 -0.0456  0.2396
 6875SOL    HW132087   1.166   3.127   5.152  0.5847  0.1690  0.2342
 6875SOL    HW232088   1.264   3.120   5.248 -0.5692  1.6033 -1.7038
 6876SOL     OW32089   3.827   2.361   3.539 -0.3445  0.1600 -0.4392
 6876SOL    HW132090   3.885   2.346   3.464 -1.5420 -1.1809 -1.1045
 6876SOL    HW232091   3.795   2.277   3.570 -1.5919 -0.0580 -2.3132
 6877SOL     OW32092   4.172   1.971   2.996 -0.2257  0.2701 -0.0596
 6877SOL    HW132093   4.198   1.990   2.906  0.3920 -1.7826 -0.3019
 6877SOL    HW232094   4.094   2.027   3.001 -1.3356 -1.2568 -0.2139
 6878SOL     OW32095   3.196   4.162   7.207  0.2885  0.0159 -0.3460
 6878SOL    HW132096   3.165   4.071   7.211  2.8399 -0.8764 -0.9828
 6878SOL    HW232097   3.131   4.200   7.267  2.1429  0.5820  1.2884
 6879SOL     OW32098   0.958   3.418   1.663 -0.4978  0.1340 -0.7510
 6879SOL    HW132099   1.035   3.464   1.628 -0.7677  1.4214  0.3816
 6879SOL    HW232100   0.969   3.332   1.621  0.4452  0.4883 -1.2565
 6880SOL     OW32101   4.431   2.116   2.996  0.6839 -0.1091  0.0281
 6880SOL    HW132102   4.459   2.030   3.028  0.5757  0.7946  2.5422
 6880SOL    HW232103   4.335   2.112   2.994  0.6836 -0.1527  0.1765
 6881SOL     OW32104   4.083   4.319   5.645 -0.0071 -0.2224 -0.3457
 6881SOL    HW132105   4.012   4.258   5.668  0.5055  0.5259  3.2289
 6881SOL    HW232106   4.053   4.397   5.691 -0.2398 -0.5085 -0.0142
 6882SOL     OW32107   4.020   3.393   6.922 -0.3798  0.5931 -0.0378
 6882SOL    HW132108   4.012   3.405   7.016  1.3380  0.1742  0.1529
 6882SOL    HW232109   4.109   3.358   6.927 -1.4291 -2.2513 -1.3268
 6883SOL     OW32110   1.382   1.950   1.026  0.5256 -0.0708 -0.1836
 6883SOL    HW132111   1.407   1.864   1.058  0.9616 -0.3835 -1.3626
 6883SOL    HW232112   1.335   1.926   0.947  0.7742  0.3797 -0.4721
 6884SOL     OW32113   4.183   4.544  10.556 -0.1311 -0.0430 -0.2960
 6884SOL    HW132114   4.244   4.615  10.536 -0.8950  1.0958  1.4382
 6884SOL    HW232115   4.118   4.538  10.487 -0.5608 -0.1830  0.1199
 6885SOL     OW32116   2.070   1.802   6.512  0.0804  0.3501  0.4841
 6885SOL    HW132117   2.010   1.792   6.585 -0.8263  1.3572 -0.1113
 6885SOL    HW232118   2.121   1.877   6.543 -1.1017  0.8316  1.2691
 6886SOL     OW32119   0.972   1.574   4.630 -0.1156 -0.0905  0.2775
 6886SOL    HW132120   1.064   1.600   4.631  0.0987 -0.8256  0.0750
 6886SOL    HW232121   0.931   1.593   4.545  0.6358  0.3317  0.0091
 6887SOL     OW32122   4.021   3.344   4.649  0.3567  0.2127 -0.1886
 6887SOL    HW132123   4.100   3.391   4.624 -0.4392  1.4273 -0.4050
 6887SOL    HW232124   3.969   3.414   4.687  2.8628  2.5448 -1.0476
 6888SOL     OW32125   1.891   0.814  14.352  0.2419 -0.4296  0.2192
 6888SOL    HW132126   1.961   0.778  14.406 -1.2248 -2.7259  0.5719
 6888SOL    HW232127   1.872   0.748  14.286 -1.5423 -0.8042  1.1245
 6889SOL     OW32128   3.228   4.561   3.283  0.2586  0.6316  0.1601
 6889SOL    HW132129   3.177   4.630   3.326 -1.1567 -0.4646  0.2850
 6889SOL    HW232130   3.213   4.579   3.191  1.3459  0.7107  0.0018
 6890SOL     OW32131   3.224   3.370   2.697  0.1792 -0.3823  0.0129
 6890SOL    HW132132   3.195   3.298   2.642  2.9725 -1.0888 -0.5307
 6890SOL    HW232133   3.221   3.438   2.629 -0.4503  0.1219  0.5442
 6891SOL     OW32134   4.221   3.201   4.471 -0.1153  0.6933 -0.1835
 6891SOL    HW132135   4.162   3.129   4.491  1.8361 -0.3964  1.7119
 6891SOL    HW232136   4.270   3.198   4.554  1.3875 -2.8379 -1.1974
 6892SOL     OW32137   1.592   4.091   9.278 -0.2719 -0.4083  0.1223
 6892SOL    HW132138   1.560   4.007   9.311 -2.3343  0.2085 -0.3090
 6892SOL    HW232139   1.546   4.102   9.195  0.1605  2.6008  0.2664
 6893SOL     OW32140   3.147   3.653   0.283  0.0530  0.0657 -0.2996
 6893SOL    HW132141   3.131   3.616   0.370  0.2549  1.2461  0.2376
 6893SOL    HW232142   3.208   3.718   0.318 -0.5051 -0.4358  1.5969
 6894SOL     OW32143   1.008   3.549  10.841 -0.8030  0.2325 -0.2998
 6894SOL    HW132144   1.033   3.637  10.815  1.0403  0.3075  1.7719
 6894SOL    HW232145   0.944   3.559  10.912  0.0502  2.3457  0.1725
 6895SOL     OW32146   1.522   4.125   6.641  0.5392  0.1935  0.0677
 6895SOL    HW132147   1.503   4.128   6.547 -0.4422  2.0796  0.3331
 6895SOL    HW232148   1.438   4.137   6.684  1.4057  0.3737  1.7040
 6896SOL     OW32149   1.521   2.247   4.892 -0.1158 -0.4492  0.0879
 6896SOL    HW132150   1.486   2.270   4.978  0.6659 -2.7673  1.0628
 6896SOL    HW232151   1.595   2.307   4.893  1.2336 -2.1273  1.6266
 6897SOL     OW32152   3.275   0.384   2.753 -0.2658  0.0560  0.1235
 6897SOL    HW132153   3.233   0.467   2.730  3.7390  2.2119  0.6805
 6897SOL    HW232154   3.202   0.323   2.737  3.2334 -4.2260  0.5800
 6898SOL     OW32155   0.514   1.357  10.763  0.1136 -0.2754 -0.3260
 6898SOL    HW132156   0.555   1.324  10.683 -1.1768 -0.9983 -0.7012
 6898SOL    HW232157   0.571   1.427  10.795 -1.2840  0.4289  0.6275
 6899SOL     OW32158   2.493   3.542  13.291 -0.3925  0.1581  0.1895
 6899SOL    HW132159   2.542   3.475  13.337 -0.0517  0.0425 -0.3469
 6899SOL    HW232160   2.554   3.590  13.235 -1.0991 -0.3853 -1.0435
 6900SOL     OW32161   2.254   3.514   4.151  0.0247  0.0363  0.3043
 6900SOL    HW132162   2.184   3.554   4.099 -1.1340 -1.5344  0.6472
 6900SOL    HW232163   2.254   3.571   4.227  0.4373  0.8863 -0.3376
 6901SOL     OW32164   4.408   3.562   6.423  0.0313  0.3216 -0.0522
 6901SOL    HW132165   4.358   3.573   6.504  1.1302 -1.5598  0.8847
 6901SOL    HW232166   4.392   3.648   6.385 -0.3309  0.7792  1.1499
 6902SOL     OW32167   0.324   2.177  15.871  0.6766  0.5619  0.3143
 6902SOL    HW132168   0.415   2.192  15.896  0.8300 -1.7470  1.1519
 6902SOL    HW232169   0.329   2.236  15.796 -2.2215  0.2334 -0.1365
 6903SOL     OW32170   0.111   1.491   8.565  0.3325 -0.9128  0.3942
 6903SOL    HW132171   0.063   1.501   8.647  0.4762 -2.4313  0.6600
 6903SOL    HW232172   0.092   1.405   8.528 -2.6062  1.2861 -3.2159
 6904SOL     OW32173   1.259   0.686   5.443 -1.1637  1.0320  0.1075
 6904SOL    HW132174   1.303   0.754   5.495  1.0396  0.1519 -0.5809
 6904SOL    HW232175   1.244   0.630   5.520  3.3970  1.0320  1.0563
 6905SOL     OW32176   1.025   3.678   4.118  0.0590 -0.8195 -0.1384
 6905SOL    HW132177   0.974   3.759   4.111  1.3913  0.1927  1.8165
 6905SOL    HW232178   1.031   3.668   4.213 -1.1555  1.9811  0.2460
 6906SOL     OW32179   4.614   2.939   6.915 -0.0562  0.0447  0.3068
 6906SOL    HW132180   4.572   3.023   6.931  2.2523  1.3388 -0.4384
 6906SOL    HW232181   4.547   2.908   6.855  1.3884 -0.3856 -1.0971
 6907SOL     OW32182   0.562   3.363   3.525  0.1130 -0.3006 -0.6896
 6907SOL    HW132183   0.517   3.446   3.507 -2.9968 -1.9013 -0.3930
 6907SOL    HW232184   0.619   3.402   3.590  0.6776 -0.5880 -1.0106
 6908SOL     OW32185   0.016   1.553  12.942 -0.1516  0.7611  0.1894
 6908SOL    HW132186   4.718   1.506  13.022 -1.2656 -0.2578 -0.7316
 6908SOL    HW232187   4.673   1.547  12.875  0.7192  1.3249 -0.7467
 6909SOL     OW32188   1.402   3.031   2.438 -0.4628  0.2340  0.8054
 6909SOL    HW132189   1.359   2.962   2.388  1.3277 -1.2371  1.2914
 6909SOL    HW232190   1.348   3.106   2.415  0.6233  0.4530 -1.0278
 6910SOL     OW32191   1.052   0.261   7.770 -0.6130 -0.0594 -0.2905
 6910SOL    HW132192   1.001   0.334   7.804 -3.2448 -2.3734  0.6913
 6910SOL    HW232193   1.007   0.232   7.690 -0.0690  1.5280 -1.1709
 6911SOL     OW32194   2.071   3.908  12.357 -0.1064  0.2176  0.6465
 6911SOL    HW132195   2.005   3.838  12.354 -0.0997  0.2949 -1.3749
 6911SOL    HW232196   2.008   3.968  12.397  0.4194  0.5475  0.9746
 6912SOL     OW32197   0.990   0.247   6.938  0.3671 -0.1552  0.5079
 6912SOL    HW132198   1.046   0.176   6.969 -0.4823 -2.0388 -2.1952
 6912SOL    HW232199   0.917   0.206   6.891  1.8420 -0.0046 -1.9055
 6913SOL     OW32200   1.818   0.673   2.257  0.3160  0.2113  0.0542
 6913SOL    HW132201   1.873   0.724   2.198 -1.2651 -0.4728 -1.9820
 6913SOL    HW232202   1.811   0.586   2.217 -1.0301  0.0906  0.5509
 6914SOL     OW32203   0.009   1.308   4.727  0.2412  0.4254 -0.0130
 6914SOL    HW132204   0.001   1.400   4.752  0.8328  0.0950  1.4338
 6914SOL    HW232205   0.100   1.317   4.700  0.7035  1.5384  1.8744
 6915SOL     OW32206   1.818   0.969  11.628  0.0933  0.0493 -0.8320
 6915SOL    HW132207   1.782   1.018  11.703 -0.6097  0.5264 -1.4790
 6915SOL    HW232208   1.771   0.888  11.647 -0.1529  0.1178 -1.1615
 6916SOL     OW32209   1.812   1.394   1.684  0.4321  0.0109 -0.0618
 6916SOL    HW132210   1.888   1.390   1.627 -0.4670  2.2917 -1.4305
 6916SOL    HW232211   1.839   1.455   1.753  0.1384 -1.0960  1.0498
 6917SOL     OW32212   4.653   3.112   8.570 -0.3123 -0.4364  0.1677
 6917SOL    HW132213   0.014   3.076   8.592  0.0344  0.6997  0.6953
 6917SOL    HW232214   4.673   3.203   8.592 -0.9200 -0.5938  1.3385
 6918SOL     OW32215   2.836   4.008   2.991  0.2879 -0.6338  0.6876
 6918SOL    HW132216   2.758   4.007   3.046 -0.3850  2.2051 -0.2305
 6918SOL    HW232217   2.836   3.917   2.961  0.1718 -1.1838  2.3581
 6919SOL     OW32218   2.199   3.565   0.693 -0.3521 -0.2295  1.1013
 6919SOL    HW132219   2.165   3.484   0.731 -4.0070  2.6473  3.9357
 6919SOL    HW232220   2.184   3.629   0.763  0.0089  2.1664 -1.0325
 6920SOL     OW32221   3.345   4.703   5.415  0.0114 -0.1360  0.6684
 6920SOL    HW132222   3.275   4.646   5.384 -1.5331  2.2744 -0.2556
 6920SOL    HW232223   3.360   0.035   5.340  1.7985 -1.7624 -0.1936
 6921SOL     OW32224   2.107   1.974   3.948  0.1487  0.2174 -0.3639
 6921SOL    HW132225   2.083   2.005   3.861 -0.3484  0.9269  0.0274
 6921SOL    HW232226   2.024   1.998   3.988  1.5646  1.2937  1.9938
 6922SOL     OW32227   3.046   4.497   3.530 -0.9525  0.0031  0.0029
 6922SOL    HW132228   3.020   4.406   3.544 -1.8830  0.1956 -0.4513
 6922SOL    HW232229   2.961   4.541   3.527 -0.3874  1.1049  0.0736
 6923SOL     OW32230   4.351   1.656   3.693  0.1209 -0.0819 -0.2509
 6923SOL    HW132231   4.382   1.568   3.715  1.3739 -0.3937 -3.2985
 6923SOL    HW232232   4.336   1.644   3.599 -1.6941 -0.0599  0.0252
 6924SOL     OW32233   1.651   0.043   9.728 -0.1841  0.0767  0.2322
 6924SOL    HW132234   1.561   0.032   9.698 -0.5003 -0.0253  1.2309
 6924SOL    HW232235   1.697   0.041   9.644 -0.5829  0.8502 -0.0016
 6925SOL     OW32236   0.299   3.514   5.355 -0.5024  0.0842 -0.2142
 6925SOL    HW132237   0.271   3.531   5.445 -1.5737 -2.6005 -0.0231
 6925SOL    HW232238   0.256   3.428   5.348 -0.4795 -0.0102  0.8803
 6926SOL     OW32239   0.406   0.423   6.013 -0.4325 -0.1073  0.8000
 6926SOL    HW132240   0.436   0.440   5.923 -0.7865 -1.3943  0.4425
 6926SOL    HW232241   0.447   0.501   6.050 -1.4133 -0.5897  2.8673
 6927SOL     OW32242   1.221   3.514   1.580  0.4182  0.0095  0.6529
 6927SOL    HW132243   1.289   3.494   1.516 -0.8387 -0.7171 -0.4598
 6927SOL    HW232244   1.235   3.605   1.607 -0.1451  0.2907 -0.0011
 6928SOL     OW32245   2.729   4.623   4.657  0.8760 -0.4132 -0.2909
 6928SOL    HW132246   2.636   4.620   4.634  0.7482  1.1242 -0.0044
 6928SOL    HW232247   2.731   4.577   4.740  1.7444 -1.2901 -0.7946
 6929SOL     OW32248   3.728   1.291   8.275 -0.4905  0.1961 -0.5690
 6929SOL    HW132249   3.808   1.300   8.327 -1.5438  2.2047  0.6779
 6929SOL    HW232250   3.693   1.215   8.321 -1.5812 -0.0247 -1.7905
 6930SOL     OW32251   2.171   1.956   1.796  0.1461  0.0830  0.1225
 6930SOL    HW132252   2.084   1.943   1.835 -1.2413  3.1770 -1.9103
 6930SOL    HW232253   2.231   1.901   1.846 -1.7766 -0.6298  1.6734
 6931SOL     OW32254   3.459   3.994   6.214  0.5132  0.1350 -0.1711
 6931SOL    HW132255   3.513   4.069   6.190  1.9524 -0.2211  1.9391
 6931SOL    HW232256   3.377   4.014   6.170 -0.3897  0.0984  1.5103
 6932SOL     OW32257   2.989   1.313   6.296  1.1977 -0.0674 -0.3795
 6932SOL    HW132258   2.922   1.352   6.352  1.6425 -1.8353  1.3832
 6932SOL    HW232259   3.061   1.295   6.356 -1.2131 -0.4943  2.3518
 6933SOL     OW32260   0.544   3.260   7.290  0.3466 -0.6330 -0.2562
 6933SOL    HW132261   0.607   3.318   7.333 -0.5581 -1.8768  2.7929
 6933SOL    HW232262   0.569   3.272   7.199 -0.7669 -1.3549 -0.6616
 6934SOL     OW32263   4.197   0.580   5.102 -0.5562 -0.3471  0.1695
 6934SOL    HW132264   4.204   0.555   5.010 -1.1813 -1.9750  0.5688
 6934SOL    HW232265   4.201   0.491   5.137  0.0047  1.2120  4.1232
 6935SOL     OW32266   3.012   2.636   2.079  0.3204 -0.0192 -0.2805
 6935SOL    HW132267   2.936   2.626   2.135  1.0483  1.4808  0.9641
 6935SOL    HW232268   3.037   2.552   2.040 -1.4155 -0.5053 -0.3140
 6936SOL     OW32269   1.055   3.539   3.089  0.3495 -0.1079 -0.4020
 6936SOL    HW132270   1.030   3.584   3.170  1.2668  1.3462 -0.9201
 6936SOL    HW232271   1.095   3.456   3.116 -0.8295 -0.3682  0.5548
 6937SOL     OW32272   2.739   2.128  15.126 -0.4962  0.0956 -0.2701
 6937SOL    HW132273   2.788   2.187  15.183 -1.6713 -0.5617  1.4621
 6937SOL    HW232274   2.804   2.099  15.063 -0.5355 -4.4625  1.7643
 6938SOL     OW32275   3.917   1.409   4.909 -0.5088  0.6111  0.2366
 6938SOL    HW132276   3.939   1.316   4.905  2.3452  1.3340 -0.7726
 6938SOL    HW232277   3.993   1.446   4.866 -1.4461  1.9574 -0.2592
 6939SOL     OW32278   3.028   4.061   4.121 -0.1159 -0.0497 -1.3155
 6939SOL    HW132279   2.940   4.094   4.140  0.2832  0.2618 -0.0202
 6939SOL    HW232280   3.040   4.072   4.027  0.0254  0.4255 -1.2421
 6940SOL     OW32281   2.365   0.003   3.373 -0.0565  0.3684 -0.2186
 6940SOL    HW132282   2.400   4.704   3.288  1.4737 -1.9867  1.0631
 6940SOL    HW232283   2.355   0.098   3.362  1.7198  0.7296  1.3470
 6941SOL     OW32284   0.535   1.229   6.899 -0.3432 -0.6731 -0.6782
 6941SOL    HW132285   0.509   1.185   6.980 -0.2579 -0.5112 -0.5608
 6941SOL    HW232286   0.447   1.246   6.867 -0.4797 -1.6893 -0.8401
 6942SOL     OW32287   4.069   4.434   4.384  0.0420  0.1316  0.1372
 6942SOL    HW132288   3.991   4.389   4.349  0.8459 -1.9694  1.0482
 6942SOL    HW232289   4.033   4.474   4.464 -1.8862  0.4134 -0.8737
 6943SOL     OW32290   2.717   2.568   1.099 -0.4901  0.1488  0.3221
 6943SOL    HW132291   2.747   2.627   1.168 -1.4763  1.0081  0.0186
 6943SOL    HW232292   2.661   2.624   1.046  0.4466  0.8297  0.0477
 6944SOL     OW32293   4.213   3.568   3.799  0.6384  0.4504 -0.0755
 6944SOL    HW132294   4.189   3.476   3.802 -2.5462  1.2360 -1.9987
 6944SOL    HW232295   4.142   3.606   3.851  0.6483 -2.4584  2.0578
 6945SOL     OW32296   0.144   1.247   2.612 -0.0677 -0.2326  0.1080
 6945SOL    HW132297   0.088   1.323   2.599 -1.5227 -1.5008 -1.0643
 6945SOL    HW232298   0.155   1.255   2.707 -2.4425  1.5462  0.2344
 6946SOL     OW32299   4.224   3.197   7.504  0.1065  0.2094 -0.1722
 6946SOL    HW132300   4.234   3.287   7.535  0.6235 -0.2545  1.0039
 6946SOL    HW232301   4.171   3.208   7.425 -0.5750  1.4382  0.4610
 6947SOL     OW32302   0.367   1.967   5.856  0.4851  0.2146 -0.5157
 6947SOL    HW132303   0.285   1.987   5.899  2.2026  0.9617  2.3832
 6947SOL    HW232304   0.375   2.044   5.800  0.8802  1.3975  1.1685
 6948SOL     OW32305   2.876   2.528  11.290 -0.5275 -0.0791 -0.1047
 6948SOL    HW132306   2.855   2.545  11.199 -0.1393 -0.1201 -0.2037
 6948SOL    HW232307   2.952   2.473  11.273  0.5874  1.6188 -0.5958
 6949SOL     OW32308   1.865   4.270  16.431 -0.6265  0.0275  0.1430
 6949SOL    HW132309   1.843   4.358  16.403 -1.1892 -0.4148 -0.7983
 6949SOL    HW232310   1.957   4.287  16.449 -0.2399 -0.6079 -1.3068
 6950SOL     OW32311   0.497   4.292   4.919  0.0182 -0.0991 -0.0544
 6950SOL    HW132312   0.447   4.371   4.941 -2.8796 -2.1153  0.4584
 6950SOL    HW232313   0.497   4.295   4.824 -3.9784  1.1573  0.0096
 6951SOL     OW32314   4.033   0.112   0.782  0.0313  0.0512  0.0908
 6951SOL    HW132315   4.041   0.169   0.857 -0.2185  1.3032 -0.8334
 6951SOL    HW232316   3.991   0.035   0.820  1.3378 -0.9858 -0.5637
 6952SOL     OW32317   4.152   1.570  13.855  0.2338 -0.1358  0.9097
 6952SOL    HW132318   4.132   1.524  13.774  2.0808  0.8902 -0.1234
 6952SOL    HW232319   4.193   1.489  13.885  0.1627 -0.5504 -0.1346
 6953SOL     OW32320   3.483   0.151   1.829 -0.1532 -0.3881  0.1752
 6953SOL    HW132321   3.578   0.153   1.817 -0.1043  2.0124  0.9275
 6953SOL    HW232322   3.456   0.196   1.749 -0.2382 -1.5550 -0.4527
 6954SOL     OW32323   2.038   1.596   2.730 -0.5464 -0.3017  0.1800
 6954SOL    HW132324   2.036   1.628   2.820  0.4359  0.2237  0.0167
 6954SOL    HW232325   1.974   1.659   2.695  0.6754  0.6773 -0.3034
 6955SOL     OW32326   2.356   3.093   5.005  0.3766  0.2164  0.0953
 6955SOL    HW132327   2.332   3.134   4.922 -0.7146  0.3620  0.4887
 6955SOL    HW232328   2.354   2.999   4.985 -1.0894  0.3956 -0.5767
 6956SOL     OW32329   2.846   1.719  10.164 -0.0805 -0.5996  0.2799
 6956SOL    HW132330   2.817   1.759  10.246 -1.1595  0.8190 -0.7995
 6956SOL    HW232331   2.772   1.663  10.143  0.1288 -0.7273 -0.1228
 6957SOL     OW32332   1.063   4.077   0.283 -0.5558  0.1063  0.2956
 6957SOL    HW132333   1.103   4.106   0.365  1.7012 -2.4146  0.1044
 6957SOL    HW232334   0.972   4.057   0.307 -0.0983 -0.6151  1.4633
 6958SOL     OW32335   1.984   1.106  11.834 -0.4869 -0.0188 -0.3599
 6958SOL    HW132336   2.038   1.123  11.757  2.0087  2.8514  2.0137
 6958SOL    HW232337   2.050   1.062  11.888 -1.1495 -1.5048 -0.7616
 6959SOL     OW32338   1.908   3.085   3.038 -0.2221  0.7085  0.0809
 6959SOL    HW132339   1.974   3.056   2.975  1.1755 -0.5458  2.0949
 6959SOL    HW232340   1.939   3.038   3.115  0.2600  2.2310  0.8361
 6960SOL     OW32341   4.364   4.131   8.167  0.0457 -0.3302  0.3541
 6960SOL    HW132342   4.364   4.059   8.104  2.0965  0.1248 -0.1518
 6960SOL    HW232343   4.268   4.138   8.174  0.1899  2.7181 -0.7669
 6961SOL     OW32344   1.478   2.807  17.241  0.4188 -0.0445 -0.6384
 6961SOL    HW132345   1.478   2.864  17.165  2.8009  1.4251  0.4750
 6961SOL    HW232346   1.497   2.731  17.186  2.3852 -1.5183  2.0437
 6962SOL     OW32347   0.584   0.440  17.177 -0.9505  0.3790 -0.2067
 6962SOL    HW132348   0.671   0.402  17.190 -0.7609  1.7351  2.3931
 6962SOL    HW232349   0.589   0.448  17.081  0.4804  1.2334 -0.0517
 6963SOL     OW32350   3.384   4.641   2.788 -0.6319  0.1864 -0.1012
 6963SOL    HW132351   3.376   4.718   2.732 -1.5267 -0.5704 -1.0168
 6963SOL    HW232352   3.477   4.645   2.808 -0.6901  1.0778 -0.0176
 6964SOL     OW32353   4.366   3.070   2.449  0.2236  0.0789  0.6031
 6964SOL    HW132354   4.381   3.133   2.379  1.1142  1.9213  2.4878
 6964SOL    HW232355   4.277   3.042   2.427  0.2804  1.0212 -0.7568
 6965SOL     OW32356   4.618   3.166  11.678  0.1123 -0.8661  0.6459
 6965SOL    HW132357   4.702   3.138  11.715  0.0253 -0.6126  1.0407
 6965SOL    HW232358   4.593   3.083  11.636 -3.9159 -0.3081  1.9420
 6966SOL     OW32359   0.606   3.976   5.807 -0.3958  0.3549 -0.4601
 6966SOL    HW132360   0.630   3.883   5.811  1.2549  0.8096  0.2127
 6966SOL    HW232361   0.604   3.992   5.901 -0.5644  1.1313 -0.6005
 6967SOL     OW32362   1.718   1.426   2.518 -0.0820 -0.4217 -0.2029
 6967SOL    HW132363   1.709   1.340   2.558  2.1863 -1.8333 -2.6938
 6967SOL    HW232364   1.777   1.398   2.448  0.5522 -2.9908  1.3512
 6968SOL     OW32365   2.834   3.732   2.967  0.5934  0.6109  0.2041
 6968SOL    HW132366   2.922   3.731   3.005  0.5916  0.6566  0.2099
 6968SOL    HW232367   2.800   3.650   3.002 -2.5631  0.5667 -3.0475
 6969SOL     OW32368   3.571   3.276  15.938 -0.2317 -0.2986  0.4478
 6969SOL    HW132369   3.571   3.369  15.913  0.9477  0.1574  2.2032
 6969SOL    HW232370   3.646   3.238  15.892  0.4221 -0.1728  1.4037
 6970SOL     OW32371   2.276   4.492   2.209  0.0788  0.4427  0.3153
 6970SOL    HW132372   2.254   4.518   2.298 -0.1946 -3.0948  1.2608
 6970SOL    HW232373   2.370   4.500   2.226  0.4297  1.3966 -1.9285
 6971SOL     OW32374   0.218   0.274   9.161  0.3499  0.1478  0.3121
 6971SOL    HW132375   0.167   0.263   9.081  2.3939 -1.7807 -0.7279
 6971SOL    HW232376   0.170   0.213   9.216  1.5734 -1.6091 -0.5849
 6972SOL     OW32377   4.616   3.946  13.052 -0.6985  0.5165 -0.2818
 6972SOL    HW132378   4.554   3.987  13.111  0.1657 -0.0387  1.0155
 6972SOL    HW232379   4.616   3.855  13.082  2.2952  0.2839 -0.9214
 6973SOL     OW32380   1.300   1.942   8.962 -0.7503  0.2538  1.2050
 6973SOL    HW132381   1.311   1.847   8.969  3.2841  0.5283 -1.5818
 6973SOL    HW232382   1.280   1.975   9.049  0.3415  1.1867  1.0936
 6974SOL     OW32383   1.798   2.485  16.846  0.1019  0.0564  0.1480
 6974SOL    HW132384   1.818   2.496  16.753 -0.2372 -1.9935 -0.1771
 6974SOL    HW232385   1.873   2.434  16.876  1.4570  1.8050 -0.2845
 6975SOL     OW32386   3.046   1.192   7.996 -0.6063  0.3413 -0.2318
 6975SOL    HW132387   3.044   1.209   8.091  2.1848 -0.6351 -0.0138
 6975SOL    HW232388   2.988   1.116   7.986  0.1699 -0.3254  0.3123
 6976SOL     OW32389   2.376   0.566  12.127  0.2452  0.4773 -0.1431
 6976SOL    HW132390   2.317   0.624  12.176  1.3474  1.1749  0.3519
 6976SOL    HW232391   2.421   0.528  12.203 -0.7042  1.1871  0.7639
 6977SOL     OW32392   3.741   3.735  11.609  0.0995 -0.1192  0.0083
 6977SOL    HW132393   3.752   3.670  11.540  1.7506  0.0196  0.1526
 6977SOL    HW232394   3.646   3.745  11.616  0.0068  1.7915 -3.8627
 6978SOL     OW32395   1.341   3.079   3.797  0.4701 -0.6260 -0.2595
 6978SOL    HW132396   1.265   3.045   3.843 -0.0399 -2.1859 -2.2621
 6978SOL    HW232397   1.364   3.011   3.734  0.8461 -1.8380  1.1679
 6979SOL     OW32398   3.075   1.387   4.728  0.2966 -0.2859 -0.6312
 6979SOL    HW132399   3.117   1.303   4.744  1.6370  0.5800  0.3137
 6979SOL    HW232400   3.060   1.418   4.817 -0.0542 -0.3464 -0.6690
 6980SOL     OW32401   0.809   1.822   1.173 -0.1456  0.4699 -0.0715
 6980SOL    HW132402   0.788   1.730   1.152 -1.5628  0.4241  1.4946
 6980SOL    HW232403   0.890   1.818   1.122  0.1572 -2.8185  0.6670
 6981SOL     OW32404   0.591   2.634   5.798  0.2297 -0.4920 -0.9064
 6981SOL    HW132405   0.639   2.611   5.719  1.0437 -1.3490 -0.1652
 6981SOL    HW232406   0.501   2.614   5.772 -1.0284  0.9585  2.2251
 6982SOL     OW32407   1.499   2.410   1.043  0.0160 -0.0459 -0.2030
 6982SOL    HW132408   1.578   2.395   1.093  1.2067 -0.3775 -2.1877
 6982SOL    HW232409   1.451   2.343   1.092  0.0568 -0.3597 -0.5919
 6983SOL     OW32410   2.685   3.771  17.352  0.5849  0.5462  0.2685
 6983SOL    HW132411   2.632   3.842  17.314  0.5997  0.5326  0.2226
 6983SOL    HW232412   2.772   3.812  17.348  0.6339  0.3325 -0.9655
 6984SOL     OW32413   3.494   1.148   2.398  0.8088  0.3591  0.0381
 6984SOL    HW132414   3.463   1.058   2.395  2.0740 -0.0587 -0.9591
 6984SOL    HW232415   3.441   1.200   2.458  0.4089  0.4462 -0.3839
 6985SOL     OW32416   3.111   3.637   7.694  0.0476  0.0409  0.3504
 6985SOL    HW132417   3.118   3.685   7.611 -3.6792 -0.1066 -0.0594
 6985SOL    HW232418   3.178   3.570   7.681 -1.6648 -1.6262  0.1784
 6986SOL     OW32419   4.384   4.712   8.787 -0.4710 -0.5730  0.0474
 6986SOL    HW132420   4.444   0.061   8.770  0.0476 -1.0487 -0.1983
 6986SOL    HW232421   4.297   0.025   8.797 -0.4662 -0.0967 -1.5684
 6987SOL     OW32422   1.326   3.447   3.989  0.1194  0.0014  0.1795
 6987SOL    HW132423   1.416   3.424   3.967  0.1798  1.3732 -1.0199
 6987SOL    HW232424   1.344   3.531   4.032 -3.4314  0.4113  0.8933
 6988SOL     OW32425   1.827   3.915   5.877  0.3216  0.3299 -0.5326
 6988SOL    HW132426   1.909   3.962   5.890  2.0045 -3.0286  0.9661
 6988SOL    HW232427   1.845   3.822   5.892 -1.8728  0.0037  0.1193
 6989SOL     OW32428   0.421   4.283   5.254 -0.2012 -0.2255 -0.2988
 6989SOL    HW132429   0.453   4.234   5.329  2.8753  2.7817  0.3574
 6989SOL    HW232430   0.375   4.215   5.205 -0.6524  0.0486 -0.2587
 6990SOL     OW32431   1.671   3.917   6.366  0.0036 -0.3462  0.4184
 6990SOL    HW132432   1.720   3.955   6.293 -0.9343 -0.3856 -0.2205
 6990SOL    HW232433   1.693   3.826   6.347 -1.7949 -0.4418 -1.1025
 6991SOL     OW32434   0.192   2.917   3.705  0.7669 -0.2770  0.0683
 6991SOL    HW132435   0.196   2.870   3.788  2.0568 -0.0180  0.1602
 6991SOL    HW232436   0.187   2.845   3.642  0.2096 -2.1497  2.2860
 6992SOL     OW32437   2.374   2.764   6.591 -0.0064 -0.0810 -0.1603
 6992SOL    HW132438   2.287   2.789   6.560  0.0425  0.5033  0.1774
 6992SOL    HW232439   2.390   2.841   6.646  1.1700  0.8331 -1.8092
 6993SOL     OW32440   0.553   3.318   6.541  0.2506  0.0205 -0.0843
 6993SOL    HW132441   0.499   3.331   6.463  0.9598  0.1209 -0.5573
 6993SOL    HW232442   0.489   3.351   6.605  0.8358 -0.5205  0.7838
 6994SOL     OW32443   1.165   0.144  15.917 -0.5318 -0.8669  0.2257
 6994SOL    HW132444   1.169   0.060  15.871  1.2532 -0.9637  0.5709
 6994SOL    HW232445   1.079   0.135  15.960 -1.2579  1.2880 -0.8091
 6995SOL     OW32446   0.091   0.443   7.420  0.1355  0.7687  0.3232
 6995SOL    HW132447   0.090   0.424   7.513  0.3703 -0.6382  0.0358
 6995SOL    HW232448   0.144   0.370   7.388  0.4355  1.4425 -0.7161
 6996SOL     OW32449   1.658   4.198   9.565 -0.6533 -0.3879 -0.6461
 6996SOL    HW132450   1.616   4.283   9.573 -0.8953 -0.7961  2.3622
 6996SOL    HW232451   1.649   4.181   9.471  0.3552 -0.6075 -0.7051
 6997SOL     OW32452   0.273   3.259   7.393 -0.4479  0.0717 -0.4400
 6997SOL    HW132453   0.363   3.264   7.360 -0.1832 -0.8857  0.1458
 6997SOL    HW232454   0.275   3.311   7.474 -1.2163 -0.9433  0.2298
 6998SOL     OW32455   3.219   2.561   6.909  0.0996  0.3864  0.7478
 6998SOL    HW132456   3.300   2.613   6.910  0.0945  0.4359 -0.9053
 6998SOL    HW232457   3.257   2.473   6.916 -1.6266 -0.4514 -0.3390
 6999SOL     OW32458   1.988   1.922  15.768 -0.6974 -0.7331  0.0871
 6999SOL    HW132459   2.035   2.003  15.788  0.7500 -0.9755 -2.2843
 6999SOL    HW232460   1.921   1.939  15.702 -0.6041 -2.1929 -0.3916
 7000SOL     OW32461   0.004   3.215   0.055 -0.1657  0.2276  0.4088
 7000SOL    HW132462   0.021   3.121   0.045  1.5258  0.4780  1.0023
 7000SOL    HW232463   4.704   3.243  17.667  2.5150  0.7528 -0.1713
 7001SOL     OW32464   1.883   1.468   9.847  0.0604 -0.4550  0.1025
 7001SOL    HW132465   1.974   1.448   9.869 -0.0875 -0.0240  1.1097
 7001SOL    HW232466   1.858   1.380   9.820  1.9674 -1.3245  1.2394
 7002SOL     OW32467   2.340   0.575   6.361  0.4603  0.5951  0.3574
 7002SOL    HW132468   2.334   0.548   6.453  0.0394  0.4357  0.2856
 7002SOL    HW232469   2.411   0.639   6.359  1.6266 -0.7696 -2.1631
 7003SOL     OW32470   4.721   0.167   9.046 -0.0167  0.0304  0.6757
 7003SOL    HW132471   4.716   0.107   8.971  0.7321 -0.9326  1.3940
 7003SOL    HW232472   4.634   0.205   9.033  1.3796  3.2992  0.7631
 7004SOL     OW32473   2.350   1.999   7.710 -0.2086 -0.2621  0.1272
 7004SOL    HW132474   2.399   2.030   7.786 -0.3887 -3.1036  1.4315
 7004SOL    HW232475   2.297   1.931   7.752  0.1129 -0.6285 -0.0577
 7005SOL     OW32476   2.616   1.414   4.425  0.1848  0.2775  0.0371
 7005SOL    HW132477   2.694   1.412   4.481 -0.8263  1.9877  1.4999
 7005SOL    HW232478   2.615   1.329   4.379  2.0916  0.1099  0.2822
 7006SOL     OW32479   2.252   0.236   2.010 -0.3108  0.2527 -0.0528
 7006SOL    HW132480   2.212   0.173   1.950  0.2325  1.5207 -1.7348
 7006SOL    HW232481   2.242   0.304   1.944 -2.4023  1.7392  1.8121
 7007SOL     OW32482   0.895   2.496  13.996  0.1551 -0.0354 -0.3005
 7007SOL    HW132483   0.915   2.473  13.905 -0.1850  0.9955 -0.6316
 7007SOL    HW232484   0.860   2.412  14.025  1.9748 -1.1818 -1.4641
 7008SOL     OW32485   1.572   2.256   7.560  0.6583 -0.1962  0.0938
 7008SOL    HW132486   1.506   2.235   7.494 -0.7797  3.5276  0.3662
 7008SOL    HW232487   1.540   2.342   7.585  0.7961 -0.6833  1.9826
 7009SOL     OW32488   1.956   2.218   0.341 -0.2543  0.0328 -0.1684
 7009SOL    HW132489   1.947   2.294   0.398  0.9108 -0.8828  1.2567
 7009SOL    HW232490   1.869   2.201   0.305 -0.5332 -1.9424  1.3893
 7010SOL     OW32491   2.604   0.995  12.598  0.9189  0.2358 -0.3443
 7010SOL    HW132492   2.690   1.014  12.636  1.5083 -3.8582  0.2850
 7010SOL    HW232493   2.544   1.016  12.670  1.8435  0.7898  0.2656
 7011SOL     OW32494   0.973   3.141   4.492  0.2399 -0.0674 -0.2089
 7011SOL    HW132495   1.018   3.190   4.422 -0.3439  0.1615 -0.4214
 7011SOL    HW232496   0.976   3.055   4.450  2.1910  0.2200 -0.6842
 7012SOL     OW32497   3.194   1.035   5.656 -0.5446 -0.2424 -0.1686
 7012SOL    HW132498   3.219   0.955   5.610  1.0312  1.2450 -1.8817
 7012SOL    HW232499   3.110   1.011   5.695 -1.0850 -0.0465 -1.2371
 7013SOL     OW32500   0.123   4.425   1.583 -0.2434  0.1985  0.3790
 7013SOL    HW132501   0.210   4.460   1.563 -0.4048 -0.2050 -0.9994
 7013SOL    HW232502   0.073   4.507   1.584  1.5996  1.3256  1.6034
 7014SOL     OW32503   3.237   0.708  17.001  0.1712  0.0997  0.1023
 7014SOL    HW132504   3.296   0.777  16.971  0.2850  0.2162  0.6005
 7014SOL    HW232505   3.160   0.732  16.949  0.3065  0.2502 -0.0283
 7015SOL     OW32506   0.754   1.067   5.742  0.0322  0.5208 -0.2249
 7015SOL    HW132507   0.749   1.000   5.809 -2.0014  0.7717 -0.1280
 7015SOL    HW232508   0.731   1.134   5.807 -0.5718  0.1989 -0.1074
 7016SOL     OW32509   3.364   4.449  12.287  0.0321 -0.0889 -0.0806
 7016SOL    HW132510   3.405   4.505  12.221 -1.1087  0.2627 -0.4805
 7016SOL    HW232511   3.306   4.504  12.339  1.5982 -0.6467  2.2479
 7017SOL     OW32512   1.850   0.803  15.376 -0.6001 -0.2394 -0.2995
 7017SOL    HW132513   1.887   0.867  15.438 -0.2469 -0.8848  0.1592
 7017SOL    HW232514   1.814   0.866  15.314 -1.7982 -2.1214 -1.5163
 7018SOL     OW32515   1.229   2.137   6.896  0.4491 -0.4850 -0.8308
 7018SOL    HW132516   1.285   2.214   6.884  1.6525 -0.9333  1.8091
 7018SOL    HW232517   1.246   2.074   6.826  3.5228 -0.3204 -0.2375
 7019SOL     OW32518   4.532   1.318  16.001  0.4298 -0.4340 -0.0033
 7019SOL    HW132519   4.441   1.308  15.974  0.5647 -1.2007 -0.1791
 7019SOL    HW232520   4.547   1.245  16.061  1.1141 -0.9201 -0.7681
 7020SOL     OW32521   0.681   0.426   6.996  0.2772  0.0724  0.2260
 7020SOL    HW132522   0.704   0.508   7.038 -0.0850  0.2502  0.0768
 7020SOL    HW232523   0.742   0.364   7.038  0.2125  0.5894  1.0774
 7021SOL     OW32524   1.862   4.490   6.815  0.5194  0.6674 -0.0538
 7021SOL    HW132525   1.817   4.454   6.892  1.2373  0.4943  0.2808
 7021SOL    HW232526   1.951   4.456   6.820  0.3578  0.4455  1.2581
 7022SOL     OW32527   1.142   4.206   0.512  0.1600 -0.0199  0.3291
 7022SOL    HW132528   1.117   4.293   0.481  1.0647  0.2584  0.3589
 7022SOL    HW232529   1.133   4.210   0.607  0.9680  2.4565  0.3235
 7023SOL     OW32530   3.233   2.115   8.689 -0.2782  0.1619 -0.2199
 7023SOL    HW132531   3.289   2.041   8.713 -0.0464  0.8928  1.5161
 7023SOL    HW232532   3.151   2.070   8.671 -0.1589 -0.4282  0.7426
 7024SOL     OW32533   2.347   2.654   1.621  0.5342  0.4048  0.0484
 7024SOL    HW132534   2.361   2.636   1.528  3.4960 -0.6401  0.6871
 7024SOL    HW232535   2.425   2.705   1.640  0.8356 -0.2049  0.4386
 7025SOL     OW32536   2.814   1.546  13.378 -0.0601 -0.6143 -0.1612
 7025SOL    HW132537   2.754   1.621  13.380 -0.2512 -0.7434 -0.9774
 7025SOL    HW232538   2.884   1.576  13.436  0.0034 -1.5080  0.2169
 7026SOL     OW32539   1.911   3.530  14.024 -0.6320  0.2560 -0.1518
 7026SOL    HW132540   1.941   3.553  14.112 -0.2850  0.3571 -0.2932
 7026SOL    HW232541   1.962   3.591  13.971 -1.4943  1.4174  0.3485
 7027SOL     OW32542   1.817   2.312  11.445  0.1050 -0.8756  0.4273
 7027SOL    HW132543   1.781   2.250  11.509 -0.8527  0.1723  0.9055
 7027SOL    HW232544   1.848   2.380  11.505 -0.6787  0.6496 -0.8754
 7028SOL     OW32545   1.550   0.336   2.123 -0.3131 -0.6095 -0.4915
 7028SOL    HW132546   1.551   0.336   2.027  1.0672 -1.7592 -0.4821
 7028SOL    HW232547   1.642   0.353   2.145  0.0732 -2.5033 -0.6816
 7029SOL     OW32548   1.574   0.445   4.565  0.2652 -0.3212 -0.4013
 7029SOL    HW132549   1.626   0.524   4.579  0.4180 -0.2534 -1.3887
 7029SOL    HW232550   1.591   0.435   4.472 -2.3734 -0.4171 -0.8868
 7030SOL     OW32551   4.097   3.175   9.194 -0.2300 -0.0302  0.2844
 7030SOL    HW132552   4.140   3.232   9.131 -1.4598 -0.4278 -0.9236
 7030SOL    HW232553   4.032   3.238   9.226 -1.0121 -0.0275 -1.2876
 7031SOL     OW32554   1.298   3.740   6.466 -0.3675  0.0269  0.4485
 7031SOL    HW132555   1.245   3.732   6.386  0.3195 -0.6564  0.0555
 7031SOL    HW232556   1.249   3.797   6.525 -2.5766 -0.7636 -0.5963
 7032SOL     OW32557   4.569   2.760  12.903  0.5215  0.1965  0.5530
 7032SOL    HW132558   4.631   2.743  12.832  2.1932  2.4553  1.4777
 7032SOL    HW232559   4.621   2.739  12.980  0.0120 -4.3051 -0.3356
 7033SOL     OW32560   3.066   4.486   5.484  0.1533 -0.2827  0.4792
 7033SOL    HW132561   3.035   4.397   5.467  1.1371  0.0055 -2.8347
 7033SOL    HW232562   3.097   4.508   5.396  1.4361  0.8171  1.2075
 7034SOL     OW32563   4.227   3.406   2.834 -0.3936 -0.6020  0.3281
 7034SOL    HW132564   4.198   3.363   2.914  1.6024  1.8967  2.3837
 7034SOL    HW232565   4.318   3.394   2.861  0.1520  0.3007 -1.1278
 7035SOL     OW32566   0.210   1.172  16.935  0.4491 -0.8926 -0.0700
 7035SOL    HW132567   0.179   1.170  17.026  2.6340 -0.5355  0.6697
 7035SOL    HW232568   0.305   1.166  16.938  0.4117 -1.7643 -0.7423
 7036SOL     OW32569   4.506   3.991   7.495  0.4693  0.0619  0.3377
 7036SOL    HW132570   4.538   3.943   7.571 -1.3744  0.0900  1.1416
 7036SOL    HW232571   4.482   3.922   7.433 -1.5161  1.1985 -0.1799
 7037SOL     OW32572   2.649   4.612   7.996 -0.4431  1.1073  0.1353
 7037SOL    HW132573   2.736   4.575   7.986  0.5525  2.9316  2.0558
 7037SOL    HW232574   2.637   4.595   8.089 -1.3697  2.3697  0.2465
 7038SOL     OW32575   4.682   2.677   0.646  0.1162 -0.4329 -0.5333
 7038SOL    HW132576   0.013   2.607   0.681 -0.6953 -2.3982 -3.1050
 7038SOL    HW232577   4.630   2.626   0.583  0.1430 -2.6738  1.2575
 7039SOL     OW32578   3.733   0.833  10.190 -0.1440  0.0122 -0.2559
 7039SOL    HW132579   3.738   0.863  10.281  3.0589  4.4451 -1.8864
 7039SOL    HW232580   3.827   0.819  10.181 -0.1460  0.4121 -0.8906
 7040SOL     OW32581   2.107   0.216   4.446  0.2173  0.1233 -0.0678
 7040SOL    HW132582   2.024   0.226   4.398 -0.3347  0.8992  1.0400
 7040SOL    HW232583   2.071   0.212   4.535 -0.1044  1.2439 -0.1549
 7041SOL     OW32584   4.286   0.544   5.977 -0.1149 -0.4941 -0.3650
 7041SOL    HW132585   4.351   0.614   5.972 -1.5491  0.7393 -1.7989
 7041SOL    HW232586   4.214   0.599   5.947  0.1453 -0.7285 -1.4127
 7042SOL     OW32587   3.934   1.557   8.977  0.2980  0.0005  0.0065
 7042SOL    HW132588   3.892   1.521   9.056  1.6249  0.9157  1.1253
 7042SOL    HW232589   4.025   1.556   9.004  0.1428  0.8802  0.5961
 7043SOL     OW32590   2.667   3.209   3.413 -0.1326  0.2180  0.3719
 7043SOL    HW132591   2.573   3.214   3.429  0.4445  2.1958  3.1245
 7043SOL    HW232592   2.698   3.267   3.482 -1.7109  0.2739  1.0360
 7044SOL     OW32593   3.584   2.725   5.339 -0.6383 -0.8410 -0.0291
 7044SOL    HW132594   3.654   2.730   5.273 -2.3854 -2.2459 -1.9676
 7044SOL    HW232595   3.558   2.633   5.333  1.9990 -1.7276  1.6875
 7045SOL     OW32596   3.941   1.169  10.112 -0.3897 -0.4625 -0.1690
 7045SOL    HW132597   3.916   1.117  10.036 -0.7213 -1.4761  0.6429
 7045SOL    HW232598   3.873   1.158  10.178  0.0476 -0.6956  0.2419
 7046SOL     OW32599   0.065   1.967  10.748 -0.7281 -0.1245 -0.2350
 7046SOL    HW132600   0.097   1.894  10.801 -2.4082  0.0892  1.0595
 7046SOL    HW232601   0.150   2.009  10.737 -0.9754  0.7960  1.3651
 7047SOL     OW32602   0.425   0.098   2.636  0.7036  0.0230 -0.7623
 7047SOL    HW132603   0.333   0.078   2.651  0.6474  2.4542  2.1704
 7047SOL    HW232604   0.453   0.142   2.716 -1.4032 -1.8821  1.0196
 7048SOL     OW32605   0.909   0.166   8.476  0.2306  0.1270  0.8136
 7048SOL    HW132606   0.969   0.218   8.531 -0.5621  2.2233 -0.3111
 7048SOL    HW232607   0.967   0.106   8.429 -0.4354 -0.5274  0.8397
 7049SOL     OW32608   4.472   1.420   2.534 -0.1716 -0.7026  0.5336
 7049SOL    HW132609   4.567   1.428   2.544  0.0650 -1.7151 -0.9040
 7049SOL    HW232610   4.447   1.502   2.493  1.6393  0.1952  1.2264
 7050SOL     OW32611   2.704   1.456   3.116  0.6780 -0.4189  0.3331
 7050SOL    HW132612   2.771   1.440   3.183  0.9794  1.7385  0.5383
 7050SOL    HW232613   2.747   1.431   3.033  0.1756  0.0071 -0.0552
 7051SOL     OW32614   2.254   1.632   1.734 -0.6634 -0.0049  0.2146
 7051SOL    HW132615   2.274   1.687   1.810  3.1273  2.4922 -2.6076
 7051SOL    HW232616   2.291   1.688   1.666 -2.0032 -0.1448 -0.6348
 7052SOL     OW32617   0.335   1.986  12.705  0.2175 -0.5764 -0.1653
 7052SOL    HW132618   0.332   2.035  12.787  1.7288 -0.3299 -0.2566
 7052SOL    HW232619   0.373   2.055  12.649 -1.9279  0.9891  0.2994
 7053SOL     OW32620   0.505   0.511   1.671  0.0596 -0.3596  0.0481
 7053SOL    HW132621   0.465   0.435   1.714  0.1959 -2.0936 -2.8976
 7053SOL    HW232622   0.597   0.505   1.698  0.6232 -0.9967 -2.0413
 7054SOL     OW32623   4.657   2.878   4.950  0.3244 -0.1952  0.5086
 7054SOL    HW132624   4.575   2.830   4.940  0.3497 -0.1290 -0.0251
 7054SOL    HW232625   4.691   2.825   5.022  0.6449  0.9688  1.2145
 7055SOL     OW32626   1.457   3.778   0.698 -0.0800 -0.1759  0.0168
 7055SOL    HW132627   1.494   3.736   0.775 -1.4553 -0.5028  0.5036
 7055SOL    HW232628   1.365   3.756   0.710  0.4319 -1.0936  2.1479
 7056SOL     OW32629   4.643   2.926   8.848 -0.2244 -1.0830 -0.4978
 7056SOL    HW132630   4.622   2.852   8.905 -0.3800 -0.1933  0.5931
 7056SOL    HW232631   0.013   2.911   8.849  0.2273  1.8714  0.1803
 7057SOL     OW32632   0.023   1.807   1.694 -0.1010 -0.1276  0.0753
 7057SOL    HW132633   0.010   1.718   1.660  1.3444  0.6979 -2.6197
 7057SOL    HW232634   0.065   1.855   1.622 -0.3629 -0.4981 -0.3230
 7058SOL     OW32635   4.362   2.887   8.736  0.1091  0.5100 -0.4859
 7058SOL    HW132636   4.299   2.925   8.797  2.1582  0.0339  1.9152
 7058SOL    HW232637   4.447   2.908   8.774  0.0438 -1.0832  0.5378
 7059SOL     OW32638   3.461   0.586   6.870 -0.2801  0.5257 -0.2730
 7059SOL    HW132639   3.540   0.534   6.856 -0.4572 -0.3674  2.0733
 7059SOL    HW232640   3.393   0.533   6.827  0.0938  1.4194 -1.9478
 7060SOL     OW32641   2.944   0.221   9.050 -0.5750  0.0434 -0.1980
 7060SOL    HW132642   2.952   0.314   9.029 -1.4273  0.3523  0.8305
 7060SOL    HW232643   2.882   0.183   8.988 -0.3219 -1.5058  0.4811
 7061SOL     OW32644   0.034   0.533  14.023  0.1363 -0.0816 -0.0951
 7061SOL    HW132645   0.081   0.495  14.098  0.1340 -0.3738 -0.2413
 7061SOL    HW232646   0.011   0.452  13.977  0.5018 -0.7971  0.9799
 7062SOL     OW32647   0.527   3.482   8.259 -0.6526  0.3895 -0.0174
 7062SOL    HW132648   0.571   3.429   8.325  3.4853  1.6343 -1.8313
 7062SOL    HW232649   0.492   3.549   8.317 -0.6824  0.5363 -0.2052
 7063SOL     OW32650   4.718   3.120  17.053  0.4305 -0.0738 -0.2030
 7063SOL    HW132651   0.073   3.158  17.091 -0.9559  1.2185  1.4027
 7063SOL    HW232652   0.027   3.103  16.965 -0.5016  1.4161 -0.8375
 7064SOL     OW32653   1.167   4.311   2.014 -0.5405 -0.1492 -0.1933
 7064SOL    HW132654   1.152   4.373   2.085  2.8852  2.7072 -1.9432
 7064SOL    HW232655   1.120   4.232   2.038 -1.4587  0.7690  1.0193
 7065SOL     OW32656   3.069   0.306   8.680  1.0137  0.4191  0.1381
 7065SOL    HW132657   3.065   0.402   8.670 -0.4637  0.5773  2.0918
 7065SOL    HW232658   3.137   0.306   8.748  0.3810  1.6302  0.7792
 7066SOL     OW32659   4.287   2.489   8.132  0.2305  0.4499  0.2511
 7066SOL    HW132660   4.276   2.399   8.102  1.5472 -0.3623  2.2147
 7066SOL    HW232661   4.293   2.479   8.227 -1.7128  0.7385  0.3991
 7067SOL     OW32662   3.959   1.460   5.459  0.4559  0.2422 -0.3687
 7067SOL    HW132663   3.915   1.544   5.475 -0.5697 -0.5713  1.1223
 7067SOL    HW232664   3.971   1.457   5.364  1.7332  0.5154 -0.2196
 7068SOL     OW32665   2.677   2.764   2.612 -0.0265  0.1211 -0.4132
 7068SOL    HW132666   2.744   2.829   2.634 -1.9706  1.8408  0.4330
 7068SOL    HW232667   2.678   2.784   2.518  0.4382 -0.3445 -0.5059
 7069SOL     OW32668   0.016   3.429  16.019  0.1843  0.0221  0.0514
 7069SOL    HW132669   4.679   3.495  16.051  1.8286  1.5224  0.1009
 7069SOL    HW232670   0.016   3.447  15.925 -1.3114  0.6122  0.1636
 7070SOL     OW32671   1.501   1.035   6.216  0.1282  0.2167 -0.6659
 7070SOL    HW132672   1.566   1.095   6.180  2.4021 -0.9110  1.5984
 7070SOL    HW232673   1.498   0.972   6.144  1.0117 -1.4160  0.7272
 7071SOL     OW32674   3.414   0.586   2.274 -0.2366  0.3873 -0.2759
 7071SOL    HW132675   3.470   0.519   2.235  0.8862  0.5794  0.9836
 7071SOL    HW232676   3.471   0.626   2.340 -1.1813  1.6568 -0.2340
 7072SOL     OW32677   1.020   3.039   3.477  0.2588  0.0764 -0.5659
 7072SOL    HW132678   0.982   3.048   3.565  0.8841  2.5396 -0.5484
 7072SOL    HW232679   1.045   3.130   3.468 -0.0217  0.0518 -1.5711
 7073SOL     OW32680   2.155   3.907   6.448 -0.2576  0.3211  0.0189
 7073SOL    HW132681   2.080   3.954   6.411  0.6227  0.5319 -1.4720
 7073SOL    HW232682   2.113   3.854   6.516  1.5851 -1.8256 -0.5218
 7074SOL     OW32683   4.507   3.062   7.296  0.7436  0.3473 -0.2351
 7074SOL    HW132684   4.423   3.045   7.253  0.2426 -0.0542  0.8815
 7074SOL    HW232685   4.535   3.151   7.273  0.1004  0.9767  1.3609
 7075SOL     OW32686   3.537   2.558   7.349  0.0956  0.2393  0.1905
 7075SOL    HW132687   3.467   2.620   7.365  0.5656  0.8398 -0.0923
 7075SOL    HW232688   3.487   2.479   7.371  0.0807  0.7212  1.8866
 7076SOL     OW32689   4.502   0.413   6.239  0.7991 -0.1702  0.4842
 7076SOL    HW132690   4.479   0.477   6.172 -1.6969 -0.8051  0.7292
 7076SOL    HW232691   4.562   0.351   6.197 -0.4265 -2.0784  1.5428
 7077SOL     OW32692   1.454   2.924   7.982  0.0221 -0.4451 -0.2913
 7077SOL    HW132693   1.461   2.966   7.896 -0.2340  0.6183  0.2031
 7077SOL    HW232694   1.384   2.979   8.018 -0.0451  0.5851 -1.9860
 7078SOL     OW32695   2.955   1.708   3.343 -0.2312  0.5780 -0.1127
 7078SOL    HW132696   2.989   1.731   3.429  2.0930 -3.6986  0.1133
 7078SOL    HW232697   3.022   1.645   3.318 -0.7554  0.1233 -0.3850
 7079SOL     OW32698   1.171   1.081   2.586  0.0235 -0.3102  0.2107
 7079SOL    HW132699   1.081   1.054   2.567  0.8568 -2.4135 -0.7018
 7079SOL    HW232700   1.157   1.176   2.577  0.6029 -0.4355 -2.2749
 7080SOL     OW32701   1.413   2.110   4.326  0.4863 -0.9515  0.4535
 7080SOL    HW132702   1.461   2.165   4.388 -3.2781  3.3376 -0.4613
 7080SOL    HW232703   1.423   2.022   4.361  1.3378 -0.3142  1.8131
 7081SOL     OW32704   2.397   4.188   9.198  0.2014 -0.0453 -0.5600
 7081SOL    HW132705   2.437   4.275   9.190 -0.0865  0.1515  0.0776
 7081SOL    HW232706   2.344   4.177   9.119  1.1604  0.6541 -1.3023
 7082SOL     OW32707   2.905   4.042   2.656  0.0552 -0.0836  0.6303
 7082SOL    HW132708   2.938   4.102   2.722 -1.1503  0.2676  0.9061
 7082SOL    HW232709   2.893   4.103   2.583 -0.2229  1.6294  2.1272
 7083SOL     OW32710   1.552   3.537   1.990 -0.0435  0.4805  0.7316
 7083SOL    HW132711   1.537   3.608   1.927 -2.1862 -2.0465 -1.5678
 7083SOL    HW232712   1.586   3.589   2.063  2.4805 -0.4169  0.2050
 7084SOL     OW32713   1.630   1.954   5.360  0.9233 -0.7917  0.9367
 7084SOL    HW132714   1.683   2.022   5.319  0.4185 -1.3778 -0.6785
 7084SOL    HW232715   1.625   1.899   5.282  0.2391 -2.1137  1.9081
 7085SOL     OW32716   2.988   1.622   2.277  0.0494  0.2804  0.4977
 7085SOL    HW132717   2.988   1.569   2.197 -0.6867 -0.1899  0.8026
 7085SOL    HW232718   2.969   1.557   2.345  0.1391 -1.3780 -1.0567
 7086SOL     OW32719   1.301   2.234  11.068 -0.2828  0.1129  0.3480
 7086SOL    HW132720   1.235   2.271  11.010  1.1891 -0.9749 -2.0002
 7086SOL    HW232721   1.257   2.226  11.153 -0.2170  5.2465  0.8783
 7087SOL     OW32722   4.175   1.219  14.793 -0.1683 -0.0074 -0.6116
 7087SOL    HW132723   4.170   1.315  14.799  1.5453  0.0232  0.3225
 7087SOL    HW232724   4.224   1.213  14.711  2.3966  1.1265  0.8542
 7088SOL     OW32725   1.611   4.594   3.138  0.1783  0.6466 -0.8330
 7088SOL    HW132726   1.637   4.671   3.087  0.8195 -0.4583 -2.1720
 7088SOL    HW232727   1.517   4.600   3.123  0.0930  0.9326 -0.1750
 7089SOL     OW32728   3.555   3.366   3.109 -0.0920 -0.1628 -0.7419
 7089SOL    HW132729   3.544   3.365   3.014 -1.4989 -1.9177 -0.5575
 7089SOL    HW232730   3.471   3.325   3.128 -0.2037  0.8589  0.9425
 7090SOL     OW32731   2.981   3.270   2.947 -0.0526 -0.5729  0.3657
 7090SOL    HW132732   2.972   3.364   2.933  1.5478 -0.5874 -0.6618
 7090SOL    HW232733   2.971   3.267   3.042 -2.5777 -0.4418  0.0951
 7091SOL     OW32734   3.612   3.719   7.951 -0.5719  0.1972 -0.6740
 7091SOL    HW132735   3.554   3.729   8.027  0.7153 -0.9406  0.4515
 7091SOL    HW232736   3.621   3.624   7.938 -0.0091 -0.1370  2.1408
 7092SOL     OW32737   1.933   3.197   4.040  0.4462 -0.3090 -0.5272
 7092SOL    HW132738   1.998   3.140   4.080 -0.7046  0.0138  1.8308
 7092SOL    HW232739   1.873   3.199   4.114  1.1392 -0.6662  0.0412
 7093SOL     OW32740   2.794   1.430   6.429  0.1514 -0.4721  0.8607
 7093SOL    HW132741   2.742   1.355   6.400 -2.0239  0.6956  1.6955
 7093SOL    HW232742   2.746   1.502   6.389  0.4244 -0.5812  0.3347
 7094SOL     OW32743   0.071   2.819   1.810  0.0810 -0.2613 -0.0213
 7094SOL    HW132744   0.088   2.856   1.897 -0.0381  0.1826 -0.1862
 7094SOL    HW232745   0.086   2.895   1.754  1.4376 -0.5994 -0.1005
 7095SOL     OW32746   4.437   0.856   3.024  0.5438 -0.5719  0.4282
 7095SOL    HW132747   4.408   0.817   2.941  1.9652 -1.2026  0.2369
 7095SOL    HW232748   4.501   0.921   2.995  0.4785 -1.5145 -1.8226
 7096SOL     OW32749   0.041   0.736   1.641 -0.1702  0.5077  0.4532
 7096SOL    HW132750   0.063   0.713   1.731  0.7978 -2.8140 -0.6472
 7096SOL    HW232751   0.114   0.793   1.619  1.0947 -0.3459  2.4636
 7097SOL     OW32752   0.032   4.551   2.302 -0.5412  0.2126 -0.0449
 7097SOL    HW132753   4.663   4.554   2.321 -0.3167  1.1753  0.9210
 7097SOL    HW232754   0.053   4.642   2.280  1.1282  0.0475  0.8468
 7098SOL     OW32755   1.700   2.705  17.654  0.5974  0.2682  0.4458
 7098SOL    HW132756   1.653   2.772  17.605  1.2817 -0.9153 -1.8723
 7098SOL    HW232757   1.662   2.711   0.041 -0.7914  0.1406 -0.1420
 7099SOL     OW32758   2.082   2.859   4.951 -0.3789  0.7753 -0.0122
 7099SOL    HW132759   2.177   2.856   4.949 -0.4321 -0.4432 -0.6514
 7099SOL    HW232760   2.069   2.765   4.937  2.7587  0.4369 -0.4859
 7100SOL     OW32761   3.043   1.896   9.056  0.1946  0.0049 -0.2949
 7100SOL    HW132762   3.108   1.867   8.992  0.0789  0.7984 -0.7678
 7100SOL    HW232763   3.026   1.813   9.101 -1.8809  1.7903  2.2300
 7101SOL     OW32764   1.726   2.005   7.981 -0.2859  0.0752  0.4166
 7101SOL    HW132765   1.714   2.069   8.051 -0.8054  1.4765 -0.9394
 7101SOL    HW232766   1.646   2.014   7.929 -0.1417 -1.5722 -0.0947
 7102SOL     OW32767   2.389   0.279   7.663  0.8966  0.1895 -0.1170
 7102SOL    HW132768   2.301   0.241   7.661  0.7274  0.5616  0.4267
 7102SOL    HW232769   2.429   0.195   7.686 -2.2163 -1.5485 -1.0372
 7103SOL     OW32770   3.615   3.556  15.561  0.2606 -0.2389 -0.1460
 7103SOL    HW132771   3.626   3.469  15.522 -0.3348 -0.0724 -0.7072
 7103SOL    HW232772   3.664   3.552  15.642 -0.5865  2.2887  0.4806
 7104SOL     OW32773   3.673   1.278   9.161  0.4852 -0.3899 -0.3639
 7104SOL    HW132774   3.765   1.261   9.141 -0.1409 -1.5114 -2.2920
 7104SOL    HW232775   3.652   1.334   9.086 -1.7871 -0.7232  0.0024
 7105SOL     OW32776   1.030   1.081   5.396  0.4534  0.6006 -0.2170
 7105SOL    HW132777   1.090   1.043   5.331  1.1245  1.2762  0.0020
 7105SOL    HW232778   0.973   1.128   5.334 -0.5315 -2.4969 -1.6460
 7106SOL     OW32779   1.455   4.268   4.785  0.0707 -0.3038  0.1454
 7106SOL    HW132780   1.409   4.334   4.734  0.3750  0.5377  0.9570
 7106SOL    HW232781   1.516   4.315   4.843 -0.7294  2.5271 -1.3320
 7107SOL     OW32782   2.261   3.320  12.337 -0.9128  0.2674 -0.0071
 7107SOL    HW132783   2.270   3.316  12.242 -0.1942  0.4436  0.0539
 7107SOL    HW232784   2.193   3.252  12.341  1.7461 -2.3978 -0.5174
 7108SOL     OW32785   2.188   2.416   2.704 -0.4029 -0.1868  0.0396
 7108SOL    HW132786   2.134   2.495   2.706  2.6584  1.9066  0.4268
 7108SOL    HW232787   2.264   2.449   2.752  0.6871  1.6891 -2.9694
 7109SOL     OW32788   4.313   0.748   2.762 -0.0909 -0.2664 -0.2137
 7109SOL    HW132789   4.340   0.657   2.772 -0.7362 -0.3176  1.1601
 7109SOL    HW232790   4.335   0.764   2.670 -0.6227  0.4308 -0.2290
 7110SOL     OW32791   4.723   3.322   7.235  0.7306  0.1240  0.7484
 7110SOL    HW132792   4.654   3.369   7.188  0.5383 -1.1444 -0.2427
 7110SOL    HW232793   4.699   3.351   7.323  1.3936  0.1547  0.9246
 7111SOL     OW32794   3.975   3.944   3.527 -0.7990 -0.1987 -0.2138
 7111SOL    HW132795   3.957   3.868   3.472  0.0039 -0.2334 -0.4210
 7111SOL    HW232796   3.894   3.995   3.536 -0.0305  1.1107 -0.6622
 7112SOL     OW32797   2.285   2.170   4.800 -0.3300  0.0126 -0.5372
 7112SOL    HW132798   2.198   2.207   4.786  0.4950  0.9540 -3.1770
 7112SOL    HW232799   2.325   2.234   4.860  0.4648 -1.9074  1.0185
 7113SOL     OW32800   3.769   4.395   9.192  0.7527  0.1109  0.3939
 7113SOL    HW132801   3.847   4.395   9.136 -0.7446  0.1736 -1.6890
 7113SOL    HW232802   3.808   4.357   9.270 -3.1245 -3.9855  0.2848
 7114SOL     OW32803   4.148   0.629   9.905 -0.1288  0.0888  0.2315
 7114SOL    HW132804   4.053   0.635   9.899 -0.0502 -0.2666 -1.3921
 7114SOL    HW232805   4.180   0.580   9.829  1.0952  0.7321  0.3434
 7115SOL     OW32806   2.226   3.931   0.865 -0.2848 -0.5115 -0.1873
 7115SOL    HW132807   2.207   3.847   0.907 -1.7924 -0.3136 -0.4986
 7115SOL    HW232808   2.313   3.919   0.827 -0.2151 -0.5156 -0.0280
 7116SOL     OW32809   1.223   2.525   2.498 -0.1442  0.4075  0.0234
 7116SOL    HW132810   1.146   2.521   2.440  1.6290 -1.1941 -2.2220
 7116SOL    HW232811   1.286   2.568   2.440  0.6571 -0.7710  0.0373
 7117SOL     OW32812   3.255   3.449   6.730  0.0668 -0.1024  0.2469
 7117SOL    HW132813   3.232   3.436   6.638 -0.9578  0.4491  0.4320
 7117SOL    HW232814   3.350   3.457   6.718  0.1683 -1.6322  0.0936
 7118SOL     OW32815   2.753   3.469   3.030  0.2812  0.4387  0.0500
 7118SOL    HW132816   2.685   3.443   2.967  1.4615 -0.2156 -0.9430
 7118SOL    HW232817   2.724   3.429   3.112 -0.7511  2.5202  0.7114
 7119SOL     OW32818   0.816   0.626   7.132  0.0665 -0.1973  0.0064
 7119SOL    HW132819   0.902   0.607   7.095  0.5728 -2.3180  2.2684
 7119SOL    HW232820   0.833   0.678   7.211 -1.4409  2.0902 -1.1685
 7120SOL     OW32821   1.407   3.638   8.579  0.3165  0.3492  0.3534
 7120SOL    HW132822   1.399   3.734   8.583  2.6730  0.5430  0.1018
 7120SOL    HW232823   1.392   3.635   8.673 -0.0363 -1.3858  0.2335
 7121SOL     OW32824   0.224   2.408   6.920 -0.0832 -0.4000 -0.1141
 7121SOL    HW132825   0.200   2.394   7.011  0.5699  1.0897  0.2895
 7121SOL    HW232826   0.263   2.326   6.890 -1.0032 -0.8350 -0.1260
 7122SOL     OW32827   4.205   0.762   8.822  0.1416  0.2082 -0.0747
 7122SOL    HW132828   4.273   0.747   8.756 -0.2223 -2.8001  0.2410
 7122SOL    HW232829   4.225   0.699   8.890  0.3625 -1.1274 -1.3917
 7123SOL     OW32830   0.504   1.715   7.521  0.4301  0.3127 -0.1593
 7123SOL    HW132831   0.508   1.769   7.600  0.1926 -1.4945  1.0976
 7123SOL    HW232832   0.415   1.681   7.530 -0.2669  2.0804 -0.4272
 7124SOL     OW32833   3.422   4.369   9.284  0.3807 -0.0894  0.1495
 7124SOL    HW132834   3.329   4.387   9.301  0.4310 -1.2251  1.6605
 7124SOL    HW232835   3.452   4.368   9.375 -1.1165 -1.1335  0.6176
 7125SOL     OW32836   2.173   2.042  16.610  0.3308 -0.8941  0.4725
 7125SOL    HW132837   2.092   1.991  16.612 -0.4730  0.3363 -0.5638
 7125SOL    HW232838   2.139   2.123  16.572  1.3623 -1.8606 -2.4879
 7126SOL     OW32839   2.803   3.632  14.240 -0.2057 -0.1298 -0.1340
 7126SOL    HW132840   2.783   3.544  14.269  0.2944 -0.0924  0.3316
 7126SOL    HW232841   2.781   3.635  14.147 -1.1060  1.1204  0.1182
 7127SOL     OW32842   3.083   2.539   3.811 -0.1076  0.0733  0.2580
 7127SOL    HW132843   3.093   2.537   3.906 -1.1750 -2.9954  0.3121
 7127SOL    HW232844   2.996   2.499   3.806 -0.4720  1.0027 -0.8819
 7128SOL     OW32845   1.683   0.116  10.561  0.5568 -0.6059 -0.7131
 7128SOL    HW132846   1.717   0.173  10.631 -1.2187 -0.4002 -0.0137
 7128SOL    HW232847   1.633   0.176  10.505 -1.4852 -2.0235 -0.4061
 7129SOL     OW32848   3.035   3.769   5.390  0.2918 -0.4163 -0.0529
 7129SOL    HW132849   3.072   3.848   5.350  2.0534 -1.1314  0.1387
 7129SOL    HW232850   3.086   3.704   5.342 -1.4642 -1.1176 -0.9492
 7130SOL     OW32851   0.026   4.271   9.099  0.0235  0.2193 -0.2123
 7130SOL    HW132852   0.007   4.312   9.015 -3.2603  0.7577  0.7968
 7130SOL    HW232853   0.007   4.179   9.077  0.0864  0.0083  0.6326
 7131SOL     OW32854   3.129   1.293  13.569  0.5609 -0.2228 -0.6926
 7131SOL    HW132855   3.143   1.333  13.484 -1.1453 -1.5608 -1.6027
 7131SOL    HW232856   3.047   1.335  13.597  0.7791 -1.0268  1.1794
 7132SOL     OW32857   3.216   0.795  15.955  0.2702  0.3243 -0.2361
 7132SOL    HW132858   3.172   0.878  15.936 -0.3367 -0.5945 -2.8384
 7132SOL    HW232859   3.297   0.818  15.999 -0.3563  1.2073  0.4675
 7133SOL     OW32860   4.358   3.737   2.418 -0.1054  0.4581 -0.2271
 7133SOL    HW132861   4.399   3.715   2.334  0.6955 -1.4603  0.6573
 7133SOL    HW232862   4.340   3.652   2.457  1.8544  0.1259 -0.0479
 7134SOL     OW32863   2.560   1.594  17.101 -0.1951  0.1195 -0.4704
 7134SOL    HW132864   2.491   1.608  17.036  0.3093 -0.4728 -1.1368
 7134SOL    HW232865   2.511   1.539  17.161  0.9343 -0.4100 -0.0376
 7135SOL     OW32866   0.918   0.093  15.690 -0.2801  0.0931  0.4309
 7135SOL    HW132867   1.006   0.059  15.675  0.5185  1.4705  2.0220
 7135SOL    HW232868   0.908   0.093  15.786 -0.3502 -1.5949  0.4306
 7136SOL     OW32869   2.823   1.978   6.859  0.7756 -0.5518 -0.7407
 7136SOL    HW132870   2.840   1.925   6.938 -0.6257 -0.9200 -0.6729
 7136SOL    HW232871   2.745   1.942   6.817  0.5248 -2.4038  1.2475
 7137SOL     OW32872   4.002   2.341  17.342 -0.0755 -0.0491  1.1014
 7137SOL    HW132873   3.982   2.282  17.414  1.2018 -2.0276 -0.1757
 7137SOL    HW232874   3.988   2.295  17.259 -2.9521 -1.5518  2.4420
 7138SOL     OW32875   0.576   0.987   7.312 -0.2590 -0.1788 -0.1307
 7138SOL    HW132876   0.557   1.002   7.219  3.6223  1.2236 -0.6996
 7138SOL    HW232877   0.485   0.976   7.340 -0.7985  2.2204 -0.9015
 7139SOL     OW32878   2.036   1.053   5.802  0.1261  0.1117  0.2071
 7139SOL    HW132879   2.106   1.004   5.845 -1.2304 -1.8500  0.1809
 7139SOL    HW232880   2.013   0.991   5.733 -1.8957  0.2484  0.7536
 7140SOL     OW32881   0.241   3.189  11.552  0.0673 -0.0914  0.2720
 7140SOL    HW132882   0.223   3.172  11.460  1.2387  0.2281 -0.0102
 7140SOL    HW232883   0.168   3.249  11.568  1.6969  2.4190 -1.8818
 7141SOL     OW32884   3.813   3.777  10.380 -0.2221 -0.6818 -0.0889
 7141SOL    HW132885   3.847   3.864  10.402 -2.4281  0.6894 -2.0921
 7141SOL    HW232886   3.857   3.724  10.446  1.5014  2.1332  1.0319
 7142SOL     OW32887   2.289   2.179   1.722 -0.2012 -0.9150 -0.0362
 7142SOL    HW132888   2.248   2.094   1.738  2.3277 -1.9122  1.2571
 7142SOL    HW232889   2.223   2.214   1.662 -2.0996 -0.1093  2.5300
 7143SOL     OW32890   4.180   1.064  12.839 -0.0853  0.0204  0.6290
 7143SOL    HW132891   4.192   1.013  12.759 -0.3027  0.1824  0.4939
 7143SOL    HW232892   4.105   1.118  12.814 -1.5625 -0.9291  3.0559
 7144SOL     OW32893   3.380   2.506  13.308 -0.3857 -0.1632 -0.2649
 7144SOL    HW132894   3.395   2.460  13.225 -0.9950 -2.6522  1.0258
 7144SOL    HW232895   3.293   2.541  13.291  0.0150 -0.1770 -2.3646
 7145SOL     OW32896   4.539   1.529   2.198 -0.1314 -0.7873 -0.0204
 7145SOL    HW132897   4.545   1.443   2.155 -0.9165 -0.4687 -0.7625
 7145SOL    HW232898   4.621   1.533   2.248 -0.4509 -0.5750  0.4898
 7146SOL     OW32899   4.035   4.546   3.158 -0.2966 -0.1256  0.2660
 7146SOL    HW132900   4.041   4.479   3.090 -1.1356 -0.7170  0.7723
 7146SOL    HW232901   4.055   4.500   3.239  0.3416 -1.9915 -0.9471
 7147SOL     OW32902   3.577   1.548   8.250  0.2552 -0.3444 -0.3560
 7147SOL    HW132903   3.666   1.568   8.222  0.2168  1.3443  0.7597
 7147SOL    HW232904   3.584   1.455   8.276 -0.6666 -0.0455  1.0260
 7148SOL     OW32905   4.365   3.361  14.339  0.2629  0.3111  0.3924
 7148SOL    HW132906   4.366   3.292  14.405 -1.4621  1.0108  1.1489
 7148SOL    HW232907   4.291   3.415  14.366 -0.9231 -0.5313 -1.2042
 7149SOL     OW32908   4.243   2.978   6.023 -0.7117 -0.1356 -0.0384
 7149SOL    HW132909   4.324   3.022   5.998 -1.1437  0.4392 -0.4116
 7149SOL    HW232910   4.269   2.892   6.057 -0.2065 -0.6150 -1.6211
 7150SOL     OW32911   2.036   1.949   4.656  0.0012  0.2947 -0.0237
 7150SOL    HW132912   2.110   1.897   4.687 -0.8638  0.0259  1.5661
 7150SOL    HW232913   2.042   1.928   4.563 -1.5467  0.1061 -0.0714
 7151SOL     OW32914   2.308   1.325  16.214  0.9732  0.0392  0.0174
 7151SOL    HW132915   2.311   1.361  16.303 -3.9745 -0.1909  0.3135
 7151SOL    HW232916   2.387   1.367  16.181  2.5067 -2.7706  0.1256
 7152SOL     OW32917   3.922   0.004   8.813 -0.0335 -0.2438  0.6338
 7152SOL    HW132918   3.833   4.704   8.838 -0.2837  0.3639  0.3367
 7152SOL    HW232919   3.908   0.001   8.718  0.5875  2.3164  0.4537
 7153SOL     OW32920   4.091   1.156   8.188 -0.6973 -0.3534 -0.0228
 7153SOL    HW132921   4.022   1.114   8.239  0.1494  0.1613  1.5338
 7153SOL    HW232922   4.157   1.165   8.256  2.0826 -0.3050 -2.7117
 7154SOL     OW32923   1.513   4.589   7.551  0.3632 -0.3774  0.0548
 7154SOL    HW132924   1.557   4.535   7.616 -2.2424 -1.1226  1.2050
 7154SOL    HW232925   1.455   4.640   7.608 -0.1973  0.7010 -1.4864
 7155SOL     OW32926   0.734   1.897   3.865  0.2274 -0.0486  0.1497
 7155SOL    HW132927   0.742   1.842   3.943 -0.3214  1.1636  1.0620
 7155SOL    HW232928   0.782   1.847   3.798  0.0504  0.8549 -0.6571
 7156SOL     OW32929   2.956   2.240   7.395  0.0272 -0.2811 -0.3758
 7156SOL    HW132930   3.028   2.289   7.354  1.1446 -1.3213  0.3558
 7156SOL    HW232931   2.913   2.315   7.437  0.8896  1.0271 -1.7834
 7157SOL     OW32932   1.304   1.881   4.738  0.2484 -0.2327 -0.1831
 7157SOL    HW132933   1.316   1.787   4.724  0.8487 -0.5093  2.1079
 7157SOL    HW232934   1.240   1.893   4.669 -2.1592  0.4938  2.1917
 7158SOL     OW32935   2.903   2.039   3.052  0.5029  0.2158 -0.4827
 7158SOL    HW132936   2.977   2.029   2.992  2.1284  0.6584  1.4517
 7158SOL    HW232937   2.951   2.003   3.127 -0.0899 -0.9128 -0.6506
 7159SOL     OW32938   1.126   1.784   8.464  0.2006  0.0357 -0.0254
 7159SOL    HW132939   1.170   1.705   8.494 -0.5299 -0.7222 -0.9871
 7159SOL    HW232940   1.208   1.825   8.433  1.4095 -1.2315  1.5410
 7160SOL     OW32941   2.248   4.134  17.076 -0.2586  0.2827 -0.0091
 7160SOL    HW132942   2.198   4.216  17.078 -0.0333  0.3926  1.8642
 7160SOL    HW232943   2.331   4.150  17.033  1.3601 -2.2809  2.1643
 7161SOL     OW32944   3.294   4.272   4.335 -0.1826  0.0942 -0.0957
 7161SOL    HW132945   3.234   4.342   4.312  1.8135  1.4858 -1.1347
 7161SOL    HW232946   3.345   4.308   4.407  0.3011 -0.6674 -0.0562
 7162SOL     OW32947   3.819   0.767   5.208  0.0388 -0.0616 -0.2323
 7162SOL    HW132948   3.849   0.712   5.135 -0.6443 -1.2367  0.3772
 7162SOL    HW232949   3.898   0.815   5.234 -1.0912  1.0774  1.0864
 7163SOL     OW32950   3.022   4.178   2.855  0.0169 -0.5027  0.1735
 7163SOL    HW132951   3.110   4.164   2.890  0.2898 -0.3739 -0.4675
 7163SOL    HW232952   2.966   4.120   2.908 -1.6511  0.3887 -0.6217
 7164SOL     OW32953   3.327   1.372   8.142 -0.3506  0.1997  0.1092
 7164SOL    HW132954   3.402   1.324   8.107 -0.1813  1.7294 -1.6601
 7164SOL    HW232955   3.337   1.457   8.100 -1.2071  0.0499 -0.3882
 7165SOL     OW32956   1.123   1.305  16.828 -0.6558  0.6659 -0.4417
 7165SOL    HW132957   1.116   1.211  16.847 -0.2379  0.6000 -0.6160
 7165SOL    HW232958   1.033   1.334  16.817 -0.3568  2.7382  2.6595
 7166SOL     OW32959   2.678   1.007  13.490 -0.7363  0.0387  0.2002
 7166SOL    HW132960   2.749   0.956  13.528  0.4236 -0.3792 -2.5844
 7166SOL    HW232961   2.709   1.097  13.491  3.8689 -1.5656  0.2664
 7167SOL     OW32962   0.724   1.695   3.284  0.3484 -0.1039 -0.7555
 7167SOL    HW132963   0.758   1.783   3.300 -3.1431  1.5842 -2.7180
 7167SOL    HW232964   0.787   1.640   3.331 -0.7015 -1.2005 -0.6186
 7168SOL     OW32965   2.523   2.271   8.590  0.8555  0.0879 -0.7803
 7168SOL    HW132966   2.552   2.352   8.548 -1.6196  1.8759  0.9304
 7168SOL    HW232967   2.599   2.215   8.575  0.3914 -0.3035 -1.6227
 7169SOL     OW32968   2.836   1.404   3.403  0.1771 -0.8988  0.5607
 7169SOL    HW132969   2.891   1.481   3.385  1.5885 -2.2564 -0.9247
 7169SOL    HW232970   2.897   1.331   3.411  0.0308 -0.8298  2.3375
 7170SOL     OW32971   0.908   3.375  11.615  0.1368  0.0977  0.6027
 7170SOL    HW132972   0.958   3.294  11.622 -0.4417 -0.2567  0.5815
 7170SOL    HW232973   0.983   3.432  11.600  1.5569 -1.5069  1.5589
 7171SOL     OW32974   1.455   3.031   2.016 -0.3957  0.2409  0.2043
 7171SOL    HW132975   1.425   3.122   2.016  2.0739  1.0531  2.4764
 7171SOL    HW232976   1.407   2.981   1.950  0.5481 -1.4762  0.8286
 7172SOL     OW32977   0.619   0.007   7.717  0.0065 -0.5107 -0.1349
 7172SOL    HW132978   0.574   0.068   7.775  1.1005  1.6250 -1.5148
 7172SOL    HW232979   0.558   4.661   7.699  1.4094 -1.6798 -0.3715
 7173SOL     OW32980   3.470   4.618   3.362  0.6261  0.1262  0.0415
 7173SOL    HW132981   3.444   4.625   3.454 -0.1236  0.7450 -0.2191
 7173SOL    HW232982   3.387   4.589   3.326 -0.7818  2.1288  1.6731
 7174SOL     OW32983   2.152   3.350   8.117 -0.4277 -0.8742 -0.6921
 7174SOL    HW132984   2.089   3.344   8.189  2.0658 -0.8258  1.4729
 7174SOL    HW232985   2.089   3.373   8.049  0.4822 -0.5293 -1.4182
 7175SOL     OW32986   0.017   4.636  10.003  0.5989 -0.2382  0.4069
 7175SOL    HW132987   4.720   4.554   9.957  1.1611 -2.4350  4.0513
 7175SOL    HW232988   4.655   4.676  10.002  1.2060  1.0072 -1.1943
 7176SOL     OW32989   1.925   3.623   8.264 -0.2660  0.4125  0.0199
 7176SOL    HW132990   1.838   3.594   8.292 -0.1199 -1.5347 -1.5927
 7176SOL    HW232991   1.964   3.538   8.283  1.6775  1.2235 -0.3930
 7177SOL     OW32992   3.417   0.147   5.218 -0.4451 -0.2031  0.2203
 7177SOL    HW132993   3.380   0.226   5.256 -0.7417  0.4860 -1.4967
 7177SOL    HW232994   3.415   0.178   5.127 -0.9318  1.9571  0.9834
 7178SOL     OW32995   0.787   4.337  12.190  0.6613 -0.7626 -0.3462
 7178SOL    HW132996   0.867   4.314  12.144  0.6591 -3.6061  1.0665
 7178SOL    HW232997   0.723   4.312  12.124  2.3114 -2.5267 -1.2515
 7179SOL     OW32998   2.674   0.637  11.156  0.8061 -0.1635 -0.1260
 7179SOL    HW132999   2.767   0.619  11.169  1.1244  0.5611 -1.4335
 7179SOL    HW233000   2.680   0.732  11.155 -0.9409 -0.0248  1.2851
 7180SOL     OW33001   2.256   0.386  16.405  0.1465 -0.2724 -0.3390
 7180SOL    HW133002   2.349   0.361  16.408 -0.2932 -1.4616  3.5461
 7180SOL    HW233003   2.255   0.456  16.340 -0.7172  0.8163  0.8461
 7181SOL     OW33004   1.256   2.766   9.306  0.8268  0.0474 -0.2146
 7181SOL    HW133005   1.169   2.726   9.310  1.6787 -1.5529  2.4698
 7181SOL    HW233006   1.241   2.859   9.321  3.4250  0.2974  0.9220
 7182SOL     OW33007   0.464   3.760   6.109  0.1761  0.2474  0.3130
 7182SOL    HW133008   0.536   3.810   6.145  1.3120 -0.6672 -0.6821
 7182SOL    HW233009   0.509   3.722   6.034 -0.5192  0.0289 -0.0004
 7183SOL     OW33010   3.428   0.773   4.905  0.0770 -0.3985  0.0631
 7183SOL    HW133011   3.370   0.838   4.945 -0.0918 -0.1930 -0.5247
 7183SOL    HW233012   3.500   0.794   4.965 -1.2616  0.4663  1.3948
 7184SOL     OW33013   1.023   0.351  16.933  1.0920 -0.1057  0.2578
 7184SOL    HW133014   1.038   0.425  16.992  0.5608  0.5695 -0.4584
 7184SOL    HW233015   1.020   0.286  17.003 -2.6262 -2.1774 -1.8114
 7185SOL     OW33016   1.792   4.478   7.163 -0.7437 -0.2130 -0.3685
 7185SOL    HW133017   1.834   4.410   7.110 -0.4666  0.1711 -0.6390
 7185SOL    HW233018   1.719   4.420   7.185 -0.7377 -0.3849 -0.7929
 7186SOL     OW33019   0.129   0.354   8.129 -0.6031  0.7620 -0.6070
 7186SOL    HW133020   0.130   0.449   8.116  1.5615  0.4746 -2.5653
 7186SOL    HW233021   0.159   0.344   8.219 -2.2595  0.9438 -0.0201
 7187SOL     OW33022   2.288   2.297  15.161 -0.0482 -0.4806  0.2970
 7187SOL    HW133023   2.379   2.278  15.137 -0.0230  3.7200 -2.9068
 7187SOL    HW233024   2.251   2.217  15.124  0.7382 -0.6753 -0.0744
 7188SOL     OW33025   4.451   4.153   2.586 -0.1063  0.3498 -0.0238
 7188SOL    HW133026   4.490   4.098   2.517 -1.4627 -0.2432 -0.3108
 7188SOL    HW233027   4.513   4.225   2.573  0.4446 -0.0305  0.4596
 7189SOL     OW33028   3.119   3.748   5.656 -0.3771  0.2755  0.0209
 7189SOL    HW133029   3.087   3.746   5.566 -1.7103  0.5881  0.4807
 7189SOL    HW233030   3.074   3.827   5.688 -0.0194  0.3185  0.4172
 7190SOL     OW33031   0.081   2.603   6.717 -0.1758  0.2010 -0.5346
 7190SOL    HW133032   0.059   2.664   6.787  2.0975  1.0702 -0.5960
 7190SOL    HW233033   0.147   2.549   6.760  1.3875  0.1974 -2.9682
 7191SOL     OW33034   0.641   1.895   2.693  0.2370  0.9408 -0.3606
 7191SOL    HW133035   0.705   1.887   2.622 -0.6316 -0.1376 -1.0312
 7191SOL    HW233036   0.618   1.988   2.690  1.3676  1.3138  2.6546
 7192SOL     OW33037   2.384   1.229   4.657  0.4255  0.8057 -0.7497
 7192SOL    HW133038   2.465   1.187   4.628 -0.6451  0.1870 -2.8746
 7192SOL    HW233039   2.417   1.299   4.714 -3.1061  0.7744  1.3687
 7193SOL     OW33040   4.038   2.515   3.354  0.4934 -0.0614  0.3009
 7193SOL    HW133041   4.100   2.443   3.342 -1.5403 -1.9442  1.0407
 7193SOL    HW233042   4.049   2.551   3.266 -1.6424  1.8829  0.8492
 7194SOL     OW33043   4.711   3.902  10.069  0.2749 -0.4625  0.2831
 7194SOL    HW133044   0.066   3.900  10.015  1.1473 -0.4371  1.5638
 7194SOL    HW233045   4.652   3.872  10.000 -0.6607 -0.0012  0.8793
 7195SOL     OW33046   3.121   0.100   4.236 -0.7073 -0.2271  0.2496
 7195SOL    HW133047   3.215   0.119   4.246 -0.2238 -0.6856 -3.2825
 7195SOL    HW233048   3.105   0.133   4.147 -0.7135  1.6679  0.9443
 7196SOL     OW33049   1.895   4.314   2.300 -0.5839  0.1120 -0.3447
 7196SOL    HW133050   1.891   4.295   2.207  0.3218 -2.0769  0.0728
 7196SOL    HW233051   1.812   4.356   2.324  0.8065  2.3912  0.5369
 7197SOL     OW33052   0.690   4.255   8.439 -0.3357 -0.5124 -0.2741
 7197SOL    HW133053   0.722   4.256   8.348 -0.3744  1.7982 -0.2811
 7197SOL    HW233054   0.625   4.185   8.438 -0.4267 -0.4088 -1.8851
 7198SOL     OW33055   0.653   4.574  17.032 -0.2041  0.0060 -0.4951
 7198SOL    HW133056   0.634   4.579  17.126  1.4290 -1.7294 -0.0681
 7198SOL    HW233057   0.695   4.488  17.026  0.5164  0.1773  2.1417
 7199SOL     OW33058   0.609   2.860  16.792 -0.0831 -0.0170  0.6028
 7199SOL    HW133059   0.642   2.783  16.838 -0.6657  0.6348  2.0886
 7199SOL    HW233060   0.522   2.865  16.832 -1.6834  1.8813 -3.0435
 7200SOL     OW33061   1.609   4.637   2.147 -0.1076  0.1324 -0.4327
 7200SOL    HW133062   1.599   4.596   2.061  0.3451  0.1364 -0.4857
 7200SOL    HW233063   1.525   4.615   2.187 -0.3642 -0.3505 -1.2314
 7201SOL     OW33064   2.155   2.474   7.347  0.5644 -0.1576  0.3887
 7201SOL    HW133065   2.230   2.423   7.315  0.2082  1.2692 -2.7594
 7201SOL    HW233066   2.139   2.530   7.271 -0.0389 -1.9890 -0.8438
 7202SOL     OW33067   2.847   3.323   5.912  0.0899 -0.5652 -0.3968
 7202SOL    HW133068   2.904   3.329   5.835  1.1251  1.5673  0.5232
 7202SOL    HW233069   2.889   3.378   5.979 -0.3220 -0.1327 -0.4890
 7203SOL     OW33070   3.756   0.929  15.761 -0.7177 -0.4893 -0.3042
 7203SOL    HW133071   3.806   0.932  15.679 -0.2527 -0.6104 -0.0303
 7203SOL    HW233072   3.668   0.911  15.728  0.5076 -2.8967 -2.3700
 7204SOL     OW33073   3.085   2.207  17.048 -0.0434 -0.2804  0.3357
 7204SOL    HW133074   3.022   2.137  17.033  0.7295 -0.5263 -1.8619
 7204SOL    HW233075   3.157   2.187  16.987 -0.8361  0.5572 -0.8776
 7205SOL     OW33076   4.336   3.687   3.592 -0.2837 -0.0925  0.1655
 7205SOL    HW133077   4.314   3.773   3.627  1.1342  1.0530 -1.7860
 7205SOL    HW233078   4.297   3.635   3.663  0.2798 -0.2068  0.3915
 7206SOL     OW33079   1.627   4.359   8.110 -0.4681  0.0236  0.3845
 7206SOL    HW133080   1.536   4.384   8.124 -0.4251 -0.2542  1.1424
 7206SOL    HW233081   1.661   4.426   8.170  1.4614 -1.5908  1.0846
 7207SOL     OW33082   2.712   2.778   6.048 -0.1086 -0.0834 -0.2073
 7207SOL    HW133083   2.745   2.747   6.133  2.1955  1.3903 -0.5728
 7207SOL    HW233084   2.618   2.784   6.066 -0.3251  0.2097 -1.4580
 7208SOL     OW33085   4.482   3.745   1.113  0.1666  0.0554  0.1930
 7208SOL    HW133086   4.479   3.833   1.150 -0.5354  0.1976 -0.2109
 7208SOL    HW233087   4.476   3.693   1.194 -2.8896 -0.6028 -0.4684
 7209SOL     OW33088   3.447   3.562   7.123 -0.0525 -0.4811 -0.0418
 7209SOL    HW133089   3.422   3.486   7.070  2.1112 -2.2792  1.5270
 7209SOL    HW233090   3.437   3.634   7.060 -0.5009 -1.3167 -0.9313
 7210SOL     OW33091   4.218   2.291   1.245 -1.2290  0.1195  0.2006
 7210SOL    HW133092   4.151   2.347   1.206 -0.6944 -0.5419 -1.6619
 7210SOL    HW233093   4.168   2.259   1.320 -1.0642 -1.2351 -0.2735
 7211SOL     OW33094   0.408   4.479   2.818  0.0051 -0.4280 -0.0826
 7211SOL    HW133095   0.430   4.387   2.809  1.9575 -0.1071  1.4082
 7211SOL    HW233096   0.323   4.477   2.775 -0.1936  0.2545  0.2707
 7212SOL     OW33097   3.324   3.239   3.134  0.3152 -0.8409 -0.0048
 7212SOL    HW133098   3.277   3.237   3.050 -1.4619 -0.8650  0.9759
 7212SOL    HW233099   3.283   3.165   3.179  1.2516 -0.8035  0.8882
 7213SOL     OW33100   4.086   2.784   6.242  0.4113 -0.0805  0.5614
 7213SOL    HW133101   4.141   2.858   6.270 -0.7910  0.6505  0.9813
 7213SOL    HW233102   4.140   2.742   6.175  1.9113  1.8445  0.5515
 7214SOL     OW33103   4.213   3.383   4.951  0.1772  0.0327  0.5278
 7214SOL    HW133104   4.233   3.446   4.882  1.5433 -2.3944 -1.3237
 7214SOL    HW233105   4.171   3.428   5.024 -2.0961 -1.4493  0.1354
 7215SOL     OW33106   3.528   4.479   7.152  0.0321 -0.3025 -0.5664
 7215SOL    HW133107   3.569   4.414   7.209 -0.7573  0.7058  1.1260
 7215SOL    HW233108   3.437   4.469   7.179 -0.5180  1.5733 -1.7513
 7216SOL     OW33109   2.469   1.818  11.344 -0.7697  0.3118 -0.2473
 7216SOL    HW133110   2.552   1.779  11.372  0.3254  1.4113 -1.9566
 7216SOL    HW233111   2.457   1.886  11.411  1.2803  0.2650  0.1943
 7217SOL     OW33112   2.224   4.218   3.866  0.1948  0.5559 -0.4520
 7217SOL    HW133113   2.279   4.143   3.841 -0.0870 -0.0923  0.8662
 7217SOL    HW233114   2.193   4.250   3.781  0.9124 -0.3572 -1.0575
 7218SOL     OW33115   4.722   0.311  15.030  0.0275  0.3352  0.1238
 7218SOL    HW133116   4.640   0.297  15.079  1.5112  0.1654  2.5578
 7218SOL    HW233117   0.033   0.387  15.075 -0.8981  1.2355 -0.6747
 7219SOL     OW33118   1.237   4.250   8.562 -0.1133  0.5071  0.0745
 7219SOL    HW133119   1.243   4.200   8.481 -1.1787 -0.1968  0.4408
 7219SOL    HW233120   1.326   4.242   8.598 -0.0961 -0.8361 -0.2972
 7220SOL     OW33121   3.093   1.667   6.090  0.5475  0.2921  0.0831
 7220SOL    HW133122   3.124   1.690   6.178  0.0068 -0.8885  0.5749
 7220SOL    HW233123   3.146   1.728   6.037 -0.6419  1.4610  0.2551
 7221SOL     OW33124   0.403   2.597   7.388  0.0687 -0.5303  0.1562
 7221SOL    HW133125   0.335   2.592   7.456 -0.5836 -0.4268 -0.4834
 7221SOL    HW233126   0.358   2.659   7.331  0.6665 -1.0678 -0.9049
 7222SOL     OW33127   2.269   2.508   1.893 -0.2893 -0.2633  0.6846
 7222SOL    HW133128   2.190   2.454   1.891  0.1461 -0.8973  0.5852
 7222SOL    HW233129   2.280   2.516   1.799  2.0018 -0.7590  0.9128
 7223SOL     OW33130   0.223   2.449   7.853 -0.1896  0.2895 -0.5796
 7223SOL    HW133131   0.198   2.446   7.946  0.9085 -1.0884 -0.3264
 7223SOL    HW233132   0.139   2.436   7.810 -0.4919  1.7300 -0.4185
 7224SOL     OW33133   1.768   2.653   7.990  0.6484 -0.2298 -0.1133
 7224SOL    HW133134   1.840   2.606   7.948  0.3702 -1.1079  0.4073
 7224SOL    HW233135   1.713   2.676   7.915 -1.0225  1.3033  1.6054
 7225SOL     OW33136   2.314   2.676   0.432  0.1412  0.0312  0.2670
 7225SOL    HW133137   2.309   2.594   0.382 -0.5735 -0.3475  0.9682
 7225SOL    HW233138   2.277   2.654   0.517 -0.4046  2.6274  0.7191
 7226SOL     OW33139   1.166   3.731   1.976 -0.3410 -0.0728 -0.2698
 7226SOL    HW133140   1.158   3.725   2.071  0.1412 -2.3703 -0.3721
 7226SOL    HW233141   1.116   3.651   1.958  0.4591 -0.3100 -1.4422
 7227SOL     OW33142   2.585   1.206   2.772 -0.0324 -0.3952 -0.4791
 7227SOL    HW133143   2.523   1.143   2.809  1.7816 -2.2714 -0.6478
 7227SOL    HW233144   2.542   1.285   2.804  0.7258  0.4105 -1.4586
 7228SOL     OW33145   1.071   1.154  12.017 -0.3147 -0.1109 -0.1786
 7228SOL    HW133146   1.146   1.179  12.071  0.0560 -1.2949 -0.1276
 7228SOL    HW233147   1.111   1.176  11.933 -0.6395  0.9664 -0.0492
 7229SOL     OW33148   3.080   2.912  15.780  0.1770 -0.1217  0.4471
 7229SOL    HW133149   3.017   2.984  15.771 -0.1614 -0.4901 -0.0433
 7229SOL    HW233150   3.022   2.836  15.779 -0.5315  0.4204  0.3260
 7230SOL     OW33151   2.280   0.367   3.663 -0.0572  0.3868  0.4833
 7230SOL    HW133152   2.347   0.320   3.712 -0.0034 -2.1841 -2.0908
 7230SOL    HW233153   2.204   0.321   3.698 -1.0338  2.2848  0.8893
 7231SOL     OW33154   0.127   3.888   3.917  0.1445  0.2561 -0.2070
 7231SOL    HW133155   0.057   3.937   3.960  0.3091  0.6856 -0.4225
 7231SOL    HW233156   0.090   3.801   3.931 -0.1992  0.5640  0.8268
 7232SOL     OW33157   1.801   1.686   3.773 -0.2326  0.2449  0.2776
 7232SOL    HW133158   1.869   1.753   3.771 -0.6209  0.6027 -1.4532
 7232SOL    HW233159   1.805   1.667   3.679  1.7213  0.4129  0.3343
 7233SOL     OW33160   0.274   1.106   5.226 -0.3836 -0.1836 -0.2156
 7233SOL    HW133161   0.353   1.066   5.188 -0.2009 -2.0227  2.1038
 7233SOL    HW233162   0.272   1.176   5.160 -0.9350  1.8024  1.9231
 7234SOL     OW33163   1.751   2.277   6.735  0.1633  0.0874  0.6007
 7234SOL    HW133164   1.690   2.227   6.682 -0.5531  2.6403 -0.9704
 7234SOL    HW233165   1.830   2.265   6.682  0.9717 -1.5411  2.1610
 7235SOL     OW33166   2.982   2.819  14.076 -0.4724 -0.5342 -0.1473
 7235SOL    HW133167   3.056   2.782  14.028 -0.1092  0.8657 -0.6507
 7235SOL    HW233168   2.913   2.814  14.010 -1.0179 -0.7061  0.4346
 7236SOL     OW33169   0.409   2.057   6.172 -0.0747 -0.0068 -0.3965
 7236SOL    HW133170   0.397   2.096   6.259 -1.2917 -0.7480 -0.2377
 7236SOL    HW233171   0.501   2.076   6.152  0.1238 -1.0517 -0.4874
 7237SOL     OW33172   3.604   2.514   1.849  0.0155  0.6229  0.4243
 7237SOL    HW133173   3.514   2.546   1.849 -0.2583 -0.1659 -0.4369
 7237SOL    HW233174   3.616   2.495   1.756  0.8416  0.2207  0.6104
 7238SOL     OW33175   1.768   1.862   6.325 -0.0825 -0.3181  0.1778
 7238SOL    HW133176   1.721   1.779   6.315 -1.4128  0.1291  2.9122
 7238SOL    HW233177   1.738   1.881   6.413 -2.4513  1.2526 -0.9734
 7239SOL     OW33178   1.558   0.609   5.413  0.3835  0.0413 -0.5242
 7239SOL    HW133179   1.544   0.611   5.508  1.4868 -2.2938 -0.2995
 7239SOL    HW233180   1.653   0.624   5.412  0.4456 -0.3023 -0.1047
 7240SOL     OW33181   0.569   3.690   2.236  0.3914  0.0118  0.3694
 7240SOL    HW133182   0.602   3.680   2.325 -2.3279  2.2014  1.6420
 7240SOL    HW233183   0.520   3.772   2.238  0.6814  0.2295 -1.8187
 7241SOL     OW33184   4.600   2.921  16.781  0.2064  0.1980 -0.1286
 7241SOL    HW133185   4.618   2.828  16.786 -1.1931 -0.1407 -1.4606
 7241SOL    HW233186   4.569   2.933  16.871 -2.4143 -0.7293 -0.9254
 7242SOL     OW33187   2.577   0.571  10.881 -0.1199 -0.5526  0.0731
 7242SOL    HW133188   2.521   0.641  10.915  0.3597  0.0646 -0.4060
 7242SOL    HW233189   2.659   0.620  10.880 -0.2210 -0.3859  0.0384
 7243SOL     OW33190   0.770   2.865  11.244  0.4271 -0.2316  0.1411
 7243SOL    HW133191   0.727   2.886  11.161  2.1804  1.0819 -0.4360
 7243SOL    HW233192   0.706   2.812  11.291 -1.5921  2.5988  0.5873
 7244SOL     OW33193   0.620   2.105  14.700  0.1429  0.2296 -0.5230
 7244SOL    HW133194   0.553   2.127  14.765  0.3064  1.8899 -0.9060
 7244SOL    HW233195   0.588   2.017  14.682 -0.9448  0.3485  0.8883
 7245SOL     OW33196   1.132   0.046   3.261 -0.0743  0.7941  0.6609
 7245SOL    HW133197   1.066   0.115   3.262 -0.7475  0.1558  0.3160
 7245SOL    HW233198   1.079   4.692   3.246 -2.6375  2.4628  0.9870
 7246SOL     OW33199   1.420   3.549   0.288 -0.2117 -0.2162  0.4347
 7246SOL    HW133200   1.405   3.640   0.315 -1.7060 -0.4712  0.4789
 7246SOL    HW233201   1.390   3.503   0.366 -2.1381  0.6224  0.1893
 7247SOL     OW33202   4.431   3.190   2.695  0.4716 -0.0731 -0.0185
 7247SOL    HW133203   4.353   3.239   2.668  0.8544  0.4355 -0.1900
 7247SOL    HW233204   4.435   3.129   2.621 -0.8515 -1.7346  1.2669
 7248SOL     OW33205   0.488   0.629   7.145  0.2740 -0.3492 -0.5511
 7248SOL    HW133206   0.423   0.610   7.213  0.2024 -1.2599 -0.8675
 7248SOL    HW233207   0.571   0.599   7.183  0.2128  0.6620  0.3829
 7249SOL     OW33208   2.199   0.059   9.490  0.4093 -0.0255  0.3824
 7249SOL    HW133209   2.142   0.134   9.474 -1.5332 -1.4188  0.7525
 7249SOL    HW233210   2.139   4.719   9.527  0.3889 -1.0414 -1.3982
 7250SOL     OW33211   0.132   2.456   8.098 -0.3286 -0.2518 -0.0784
 7250SOL    HW133212   0.045   2.481   8.127 -0.2172  0.1632 -0.1045
 7250SOL    HW233213   0.179   2.457   8.182 -0.6303 -0.8550  0.0954
 7251SOL     OW33214   1.968   0.034   2.715  0.5863  0.0244  0.3611
 7251SOL    HW133215   1.966   0.124   2.681 -0.1042  0.7979  2.4481
 7251SOL    HW233216   1.971   4.704   2.636  0.5108  0.8064 -0.1813
 7252SOL     OW33217   1.639   4.217   2.128  0.1459 -0.1634  0.2579
 7252SOL    HW133218   1.656   4.278   2.056  1.3389 -1.7596 -0.8256
 7252SOL    HW233219   1.550   4.188   2.108  0.7140 -2.2297  0.7482
 7253SOL     OW33220   2.663   0.631   7.194  0.3594  0.1373 -0.1611
 7253SOL    HW133221   2.718   0.664   7.264  2.9170  0.0624 -2.1136
 7253SOL    HW233222   2.580   0.625   7.241  0.6031 -1.7885  0.0202
 7254SOL     OW33223   0.396   1.069   6.016 -0.2950 -0.8333 -0.1712
 7254SOL    HW133224   0.381   1.081   6.110  0.9495  3.4147 -0.4826
 7254SOL    HW233225   0.370   0.977   6.014 -4.0163  0.1835 -0.3845
 7255SOL     OW33226   4.086   3.798   9.440 -0.1209 -0.5607 -0.7259
 7255SOL    HW133227   4.133   3.737   9.497 -1.6397  0.1634  1.2952
 7255SOL    HW233228   4.056   3.743   9.368  0.6892 -0.8385 -0.8529
 7256SOL     OW33229   0.065   0.185   1.997  0.7601  0.1374 -0.0865
 7256SOL    HW133230   0.015   0.194   1.916  0.1815  0.6403  0.3261
 7256SOL    HW233231   0.147   0.159   1.956  0.5550 -0.9359  0.1971
 7257SOL     OW33232   2.235   4.455  11.540 -0.0287  0.2035 -0.4516
 7257SOL    HW133233   2.140   4.454  11.541 -0.0444 -0.2214 -2.8305
 7257SOL    HW233234   2.262   4.374  11.584  0.1368 -1.2075 -3.1540
 7258SOL     OW33235   0.320   1.333   7.321  0.4490 -0.4060  0.2224
 7258SOL    HW133236   0.292   1.248   7.356  0.8084  0.3794  2.4075
 7258SOL    HW233237   0.376   1.366   7.392 -0.0698 -1.7592  1.2623
 7259SOL     OW33238   2.254   1.436   5.427  0.5500 -0.5626 -0.3940
 7259SOL    HW133239   2.245   1.456   5.520 -2.9054  0.6138 -0.9741
 7259SOL    HW233240   2.214   1.349   5.429 -2.3497  0.7417 -1.2599
 7260SOL     OW33241   4.525   0.663  10.563  0.5496  0.1627 -0.6224
 7260SOL    HW133242   4.536   0.753  10.593  1.5657 -0.1337 -0.1232
 7260SOL    HW233243   4.458   0.681  10.497  0.3371  0.6838 -0.2666
 7261SOL     OW33244   2.827   2.748   8.170 -0.4097  0.1199  0.1283
 7261SOL    HW133245   2.776   2.775   8.247 -1.4889 -0.0601 -0.5169
 7261SOL    HW233246   2.868   2.669   8.204 -1.9432 -0.4900  0.5613
 7262SOL     OW33247   0.721   3.286  16.482  0.1035  1.0746  0.0958
 7262SOL    HW133248   0.771   3.247  16.410 -0.6953 -0.6511  0.4785
 7262SOL    HW233249   0.715   3.211  16.541 -0.0151 -0.0759 -1.3628
 7263SOL     OW33250   1.880   0.929   4.528  0.4144 -0.3729 -0.2624
 7263SOL    HW133251   1.937   0.856   4.503  2.0664  1.4065 -1.5856
 7263SOL    HW233252   1.807   0.912   4.468 -1.5281  0.6207  1.8040
 7264SOL     OW33253   2.908   0.471   4.204  0.3249 -0.0096  0.6229
 7264SOL    HW133254   2.940   0.475   4.294  1.9018 -0.4185  0.0827
 7264SOL    HW233255   2.872   0.383   4.194  0.2591 -0.0917  1.6799
 7265SOL     OW33256   3.033   2.613   3.330 -0.0833 -0.0460  0.0732
 7265SOL    HW133257   2.972   2.580   3.395  1.4694 -1.0352  1.0277
 7265SOL    HW233258   3.017   2.568   3.247 -1.2764  1.0517 -0.2797
 7266SOL     OW33259   3.097   2.827   5.639  0.0940 -0.2072  0.0022
 7266SOL    HW133260   3.086   2.759   5.705  1.6508 -1.2524 -0.8132
 7266SOL    HW233261   3.015   2.872   5.659 -0.0519 -0.1050 -0.8158
 7267SOL     OW33262   0.219   3.361   8.878  0.2201 -0.2889 -1.1679
 7267SOL    HW133263   0.264   3.282   8.907 -1.3694 -0.8113 -0.1348
 7267SOL    HW233264   0.268   3.422   8.933  0.2969  1.4347 -3.1107
 7268SOL     OW33265   1.627   3.389   3.917 -0.5018 -0.1210 -0.1640
 7268SOL    HW133266   1.685   3.460   3.946  0.9669 -1.2175 -0.3826
 7268SOL    HW233267   1.662   3.382   3.828  0.8551  1.0073  0.2721
 7269SOL     OW33268   0.004   4.691  12.331 -0.6008 -0.7450 -0.1101
 7269SOL    HW133269   0.069   0.026  12.294  0.2786 -1.7571 -0.2137
 7269SOL    HW233270   4.718   4.631  12.256 -0.4349  0.0067 -0.7335
 7270SOL     OW33271   2.580   1.152  11.210 -0.0342 -0.5217 -0.2589
 7270SOL    HW133272   2.621   1.084  11.157 -2.2290 -1.6074 -0.5184
 7270SOL    HW233273   2.499   1.173  11.164  0.7834 -1.1651 -2.0215
 7271SOL     OW33274   2.652   3.364   1.946 -0.0909 -0.1674  0.0082
 7271SOL    HW133275   2.571   3.385   1.992  0.3378  0.1304  0.6265
 7271SOL    HW233276   2.657   3.433   1.880 -1.0891  0.7930  0.9299
 7272SOL     OW33277   3.954   4.473   7.362  0.2116 -0.2288 -0.1673
 7272SOL    HW133278   3.865   4.437   7.366  0.6061 -1.0542  1.2069
 7272SOL    HW233279   3.978   4.431   7.279 -0.4665  0.5275 -0.7482
 7273SOL     OW33280   0.485   3.157   8.111  0.6573 -0.1320  0.0364
 7273SOL    HW133281   0.396   3.140   8.081  0.6021  1.4124 -0.7383
 7273SOL    HW233282   0.471   3.206   8.192  1.9066 -0.7579  0.6269
 7274SOL     OW33283   0.764   0.195   6.017  0.3716  0.3420 -0.1638
 7274SOL    HW133284   0.718   0.217   5.936  0.5693 -0.1877 -0.4249
 7274SOL    HW233285   0.693   0.143   6.055 -0.1210  1.8262  0.9392
 7275SOL     OW33286   4.615   2.573   7.348  0.4624 -0.6240 -0.6448
 7275SOL    HW133287   4.627   2.636   7.277  0.8781 -0.9566 -0.8718
 7275SOL    HW233288   4.636   2.621   7.428  2.6113 -2.5965 -0.0201
 7276SOL     OW33289   0.828   2.932   3.002  0.5527  0.2943 -0.5990
 7276SOL    HW133290   0.916   2.898   2.986  0.3937  0.3474 -1.6280
 7276SOL    HW233291   0.782   2.848   3.010  0.4929 -0.1359 -5.1864
 7277SOL     OW33292   2.796   3.415   7.682 -0.1849 -0.5940 -0.6214
 7277SOL    HW133293   2.866   3.473   7.712  0.5262 -1.4670 -0.6085
 7277SOL    HW233294   2.724   3.452   7.734 -0.3033 -2.3276  0.4527
 7278SOL     OW33295   3.677   3.421   5.144 -0.1456 -0.4707  0.0513
 7278SOL    HW133296   3.660   3.333   5.109  2.0260 -0.7792 -0.2409
 7278SOL    HW233297   3.760   3.439   5.100 -1.0859  2.4529 -0.4866
 7279SOL     OW33298   3.196   0.712   4.761  0.5008  0.1677 -0.3713
 7279SOL    HW133299   3.229   0.771   4.694 -0.5485  0.4890 -0.5993
 7279SOL    HW233300   3.276   0.712   4.814 -0.6241 -0.9509  1.3654
 7280SOL     OW33301   0.678   0.201   2.495  0.1791  0.6737  0.2656
 7280SOL    HW133302   0.592   0.232   2.524 -0.9224 -3.7697  1.7245
 7280SOL    HW233303   0.732   0.246   2.560  1.2235  1.1704 -0.9552
 7281SOL     OW33304   0.691   1.354   4.598  1.0928  0.2575 -0.6519
 7281SOL    HW133305   0.728   1.299   4.667 -0.9962  1.0426  1.1262
 7281SOL    HW233306   0.662   1.287   4.536 -0.3803  0.5704 -0.2909
 7282SOL     OW33307   0.977   4.134  10.268  0.1956 -0.2462 -0.5461
 7282SOL    HW133308   1.029   4.176  10.337  0.3561  3.5672 -2.9740
 7282SOL    HW233309   1.031   4.061  10.237 -0.0114 -1.0331  0.9790
 7283SOL     OW33310   2.733   1.293   1.944  0.1622  0.2285  0.7955
 7283SOL    HW133311   2.797   1.236   1.988  1.9404 -0.8586 -3.2590
 7283SOL    HW233312   2.743   1.373   1.995  0.3867  1.0105 -0.4815
 7284SOL     OW33313   1.681   3.272   7.574  0.4538 -0.2664 -0.5618
 7284SOL    HW133314   1.708   3.332   7.643 -1.2453  0.3675 -0.4519
 7284SOL    HW233315   1.627   3.204   7.615 -0.1515  0.6993  0.2551
 7285SOL     OW33316   3.879   2.680   2.226  0.2480 -0.7237 -0.0685
 7285SOL    HW133317   3.785   2.678   2.242  0.7439 -3.0649  2.5623
 7285SOL    HW233318   3.885   2.608   2.163 -1.5263 -0.3664 -0.6277
 7286SOL     OW33319   0.102   1.569   7.278  0.2116  0.3574 -0.0255
 7286SOL    HW133320   0.145   1.494   7.236 -1.1122  0.7510 -2.0919
 7286SOL    HW233321   0.115   1.536   7.367  0.4059  0.2467 -0.0940
 7287SOL     OW33322   0.003   0.714   3.359  0.3887 -0.4884  0.5678
 7287SOL    HW133323   0.004   0.728   3.264 -1.7992 -2.0409  0.3125
 7287SOL    HW233324   0.036   0.624   3.356 -1.4286 -1.0512 -2.4740
 7288SOL     OW33325   4.323   3.368  17.600 -0.1993  0.3541  0.3332
 7288SOL    HW133326   4.302   3.356  17.508 -2.3160 -1.9741  1.1044
 7288SOL    HW233327   4.383   3.293  17.609 -1.5390 -0.6353  1.1076
 7289SOL     OW33328   4.300   4.337   3.833 -0.6034 -0.1157  0.5384
 7289SOL    HW133329   4.334   4.395   3.765  1.2296 -0.4674  1.1704
 7289SOL    HW233330   4.341   4.255   3.807  1.3022  0.6148  1.2293
 7290SOL     OW33331   0.927   0.999  16.489 -0.3647 -0.1922  0.1413
 7290SOL    HW133332   0.906   1.090  16.510 -1.2363 -1.0410  3.0217
 7290SOL    HW233333   1.020   0.999  16.513 -0.4761 -2.6063  0.5848
 7291SOL     OW33334   2.331   0.761   9.054 -0.0623 -0.3085  0.0317
 7291SOL    HW133335   2.381   0.842   9.056 -1.2059  0.4296 -0.9893
 7291SOL    HW233336   2.403   0.702   9.032 -1.4183 -0.9659 -2.7225
 7292SOL     OW33337   0.188   3.639   4.909 -0.0996 -0.4334 -0.2890
 7292SOL    HW133338   0.162   3.549   4.928  0.2987 -0.6561 -0.7905
 7292SOL    HW233339   0.207   3.675   4.996 -1.1147 -0.3648 -0.0989
 7293SOL     OW33340   2.628   4.156  16.355 -0.3044 -0.0656  0.0795
 7293SOL    HW133341   2.681   4.078  16.339  0.3482  0.8849 -2.4472
 7293SOL    HW233342   2.687   4.203  16.414 -0.6992  0.3951  0.1082
 7294SOL     OW33343   2.316   2.498  16.779  0.6110 -0.5023  0.2715
 7294SOL    HW133344   2.245   2.435  16.783 -0.3280  0.2236 -5.4424
 7294SOL    HW233345   2.333   2.505  16.873 -0.1725  1.1866  0.2873
 7295SOL     OW33346   1.016   0.878   4.626 -0.1525 -0.4672  0.0073
 7295SOL    HW133347   0.989   0.825   4.701  1.4292 -1.3664 -0.0463
 7295SOL    HW233348   1.013   0.811   4.558 -0.1875 -0.1167 -0.3375
 7296SOL     OW33349   0.010   3.962  12.296  0.4218 -1.1382 -0.0605
 7296SOL    HW133350   4.661   4.022  12.288  1.2511  0.0583  1.3114
 7296SOL    HW233351   4.697   3.908  12.366 -1.0186 -2.7151 -2.0605
 7297SOL     OW33352   0.286   0.970   4.942  0.5734  0.8969  0.3453
 7297SOL    HW133353   0.375   1.004   4.929  2.3760 -3.4525  1.1441
 7297SOL    HW233354   0.234   1.009   4.872 -0.0721  1.7169  1.2753
 7298SOL     OW33355   4.462   3.815   7.299 -0.0857 -0.2177 -0.0105
 7298SOL    HW133356   4.387   3.796   7.242 -0.3766  2.7457 -0.6378
 7298SOL    HW233357   4.484   3.728   7.333  2.3796  0.2641 -0.3314
 7299SOL     OW33358   3.497   1.889   9.445  0.2461 -0.2616 -0.3902
 7299SOL    HW133359   3.455   1.930   9.521  1.3285 -2.3752  1.3386
 7299SOL    HW233360   3.442   1.815   9.420  1.8949 -1.9908  1.1030
 7300SOL     OW33361   3.710   2.739  14.050  0.5494  0.2537 -0.1502
 7300SOL    HW133362   3.796   2.700  14.033  0.5072 -0.2538  0.7831
 7300SOL    HW233363   3.651   2.665  14.059 -1.9552  2.2243 -0.2080
 7301SOL     OW33364   1.677   3.598   5.249  0.0570 -0.5286 -0.0564
 7301SOL    HW133365   1.716   3.546   5.178 -1.4285 -0.4608 -0.9293
 7301SOL    HW233366   1.674   3.540   5.325  1.4743  0.6758  0.9103
 7302SOL     OW33367   2.273   2.603  11.545  0.2871  0.2302 -0.1447
 7302SOL    HW133368   2.337   2.673  11.535  1.5274 -0.8507  0.1721
 7302SOL    HW233369   2.202   2.625  11.486 -0.3705 -1.9093 -0.1402
 7303SOL     OW33370   2.800   1.353   3.924  0.0873 -0.1514  0.0577
 7303SOL    HW133371   2.705   1.369   3.922  0.4145  2.0093  2.1906
 7303SOL    HW233372   2.803   1.326   4.015  0.2879  2.0959  0.7265
 7304SOL     OW33373   2.843   3.265   4.707 -0.4712 -0.0496 -0.4992
 7304SOL    HW133374   2.821   3.181   4.667 -0.0947  0.6399 -2.1444
 7304SOL    HW233375   2.764   3.286   4.758 -0.7801 -0.4979 -0.7919
 7305SOL     OW33376   3.789   1.530  11.975  0.0810  0.2422 -0.3040
 7305SOL    HW133377   3.702   1.489  11.979  1.0433 -2.0018 -2.4003
 7305SOL    HW233378   3.856   1.462  11.966  0.2369  0.2904  0.5578
 7306SOL     OW33379   3.314   4.172   6.762  0.2634 -0.3353 -0.2108
 7306SOL    HW133380   3.406   4.149   6.770  0.1474 -0.0387  1.8326
 7306SOL    HW233381   3.278   4.098   6.713 -0.2172 -0.2064 -0.0524
 7307SOL     OW33382   3.662   0.009   3.193  0.3400 -0.0714  0.1254
 7307SOL    HW133383   3.596   4.692   3.248 -0.9831 -0.5321 -1.7932
 7307SOL    HW233384   3.727   0.040   3.256  0.9446 -0.2527 -0.4105
 7308SOL     OW33385   2.696   2.752  10.454  0.0723 -0.2357  0.4592
 7308SOL    HW133386   2.646   2.829  10.482  1.6499  0.8065  0.4403
 7308SOL    HW233387   2.694   2.778  10.362 -2.2528  0.5963  0.7331
 7309SOL     OW33388   1.066   0.317  13.574  0.3057  0.4841 -0.3717
 7309SOL    HW133389   1.029   0.334  13.487  0.5889  0.9812 -0.3977
 7309SOL    HW233390   0.981   0.298  13.613  0.6974  2.8207  1.6000
 7310SOL     OW33391   3.858   4.270   5.006  0.0564 -0.1202  0.3635
 7310SOL    HW133392   3.935   4.310   4.966 -0.4703 -0.7822 -1.3257
 7310SOL    HW233393   3.796   4.342   5.002 -1.2500 -1.3178 -0.7576
 7311SOL     OW33394   1.663   0.803  15.671  0.0188 -0.0998 -0.7236
 7311SOL    HW133395   1.721   0.733  15.641  1.5169  0.7273  0.2775
 7311SOL    HW233396   1.577   0.761  15.667  0.1985 -0.6144  1.2051
 7312SOL     OW33397   0.335   4.005  10.595  0.1966 -0.7731  0.7867
 7312SOL    HW133398   0.322   4.082  10.539  0.0084 -1.5949 -0.2880
 7312SOL    HW233399   0.286   3.938  10.547  0.8763 -0.7431  0.0440
 7313SOL     OW33400   4.006   3.737   7.579 -0.0326  0.1028 -0.6861
 7313SOL    HW133401   4.063   3.804   7.542  0.5587  0.2189  0.4444
 7313SOL    HW233402   4.016   3.663   7.518 -0.7836  0.3125 -1.0643
 7314SOL     OW33403   0.410   0.462   5.726 -0.3931 -0.2402 -0.0854
 7314SOL    HW133404   0.362   0.498   5.650  1.5802  2.4675 -0.0316
 7314SOL    HW233405   0.471   0.416   5.667  0.6733  0.2248  0.6737
 7315SOL     OW33406   4.195   1.323   6.348  0.2205  0.1156  0.8894
 7315SOL    HW133407   4.271   1.266   6.336  1.3389  1.7115  0.3407
 7315SOL    HW233408   4.140   1.280   6.283 -0.2485  0.3106  1.1613
 7316SOL     OW33409   1.922   2.353   4.944 -0.4403  0.5194  0.3346
 7316SOL    HW133410   1.834   2.386   4.926 -0.5732  0.5294  0.9838
 7316SOL    HW233411   1.944   2.308   4.863  0.1293  0.8467  0.3038
 7317SOL     OW33412   2.012   2.400  10.523  0.1980  0.8962 -0.0367
 7317SOL    HW133413   1.942   2.464  10.536 -0.2361  0.1928  1.0992
 7317SOL    HW233414   2.019   2.396  10.428 -0.0831  1.3519 -0.0753
 7318SOL     OW33415   0.351   3.618   4.076  0.4329  0.6767 -0.5954
 7318SOL    HW133416   0.277   3.599   4.018 -1.3856  1.6625  1.4064
 7318SOL    HW233417   0.361   3.529   4.111 -0.8572 -0.3589 -2.7951
 7319SOL     OW33418   3.980   4.425   2.197 -0.0788 -0.1733 -0.0198
 7319SOL    HW133419   4.053   4.368   2.174  0.6369  0.3576  0.9473
 7319SOL    HW233420   4.002   4.454   2.286 -0.9223 -0.5877  0.3342
 7320SOL     OW33421   4.573   0.562   7.417  0.0080 -0.1621  0.3947
 7320SOL    HW133422   4.524   0.513   7.351 -0.5153  0.3774  0.3823
 7320SOL    HW233423   4.660   0.536   7.387  0.2081  2.1861 -1.0383
 7321SOL     OW33424   0.603   4.065   6.081  0.3415 -0.1992 -0.8048
 7321SOL    HW133425   0.625   4.093   6.170 -0.3524  2.7676 -1.5567
 7321SOL    HW233426   0.654   3.984   6.078  3.4194  1.8027 -2.2743
 7322SOL     OW33427   3.571   2.027   3.150  0.2339  0.5017 -0.0068
 7322SOL    HW133428   3.526   1.945   3.174 -1.6340  0.1817 -4.6729
 7322SOL    HW233429   3.644   1.980   3.109 -1.1761 -2.0651  0.3744
 7323SOL     OW33430   0.640   2.385  11.632  0.0520  0.0404 -0.5985
 7323SOL    HW133431   0.707   2.321  11.657  0.2823  0.4314 -0.2044
 7323SOL    HW233432   0.686   2.455  11.586  0.1441  0.4094  0.0456
 7324SOL     OW33433   4.600   0.065   2.632  0.2837 -0.2924 -0.0319
 7324SOL    HW133434   4.682   0.070   2.583  1.4196 -0.9034  1.8146
 7324SOL    HW233435   4.637   0.029   2.713  0.1139 -1.1721 -0.3426
 7325SOL     OW33436   1.076   1.638  10.922 -0.6116 -0.5708  0.4286
 7325SOL    HW133437   1.004   1.696  10.945  1.1363  1.1833  1.4749
 7325SOL    HW233438   1.137   1.708  10.901 -1.5431  1.4336  4.5136
 7326SOL     OW33439   1.016   2.347   2.738  0.5818 -0.1100  0.4184
 7326SOL    HW133440   0.974   2.433   2.746  0.4444 -0.0510 -0.8574
 7326SOL    HW233441   0.943   2.297   2.776  0.5598  1.7330  2.8059
 7327SOL     OW33442   0.278   4.414   5.027 -0.2481  0.2871 -0.7271
 7327SOL    HW133443   0.252   4.482   5.089 -1.5020 -1.8043  1.0389
 7327SOL    HW233444   0.213   4.344   5.036  2.0400 -1.6782  0.6840
 7328SOL     OW33445   2.692   3.570   3.781  0.5558  0.5487  0.0679
 7328SOL    HW133446   2.695   3.480   3.815  0.4082 -1.1612 -4.4814
 7328SOL    HW233447   2.714   3.619   3.861  0.6885  0.6456 -0.0289
 7329SOL     OW33448   2.758   0.318  11.994 -0.1516 -0.5627  0.1162
 7329SOL    HW133449   2.688   0.267  12.034 -2.6822  1.8626 -1.2487
 7329SOL    HW233450   2.719   0.405  12.004 -0.6992 -0.6353 -1.3873
 7330SOL     OW33451   2.365   3.208   8.113 -0.6831 -0.6315 -0.6989
 7330SOL    HW133452   2.292   3.267   8.133 -0.4116 -0.8135  0.8533
 7330SOL    HW233453   2.441   3.266   8.120  0.0663 -1.6746 -0.2285
 7331SOL     OW33454   4.718   1.013   3.218 -0.0078  0.3312 -0.1343
 7331SOL    HW133455   0.012   0.952   3.146  2.9568  1.0792  0.0011
 7331SOL    HW233456   0.073   1.066   3.220  0.3438 -0.3241  2.9192
 7332SOL     OW33457   4.174   1.404  13.075 -0.1478 -0.1186 -0.5944
 7332SOL    HW133458   4.227   1.454  13.012  0.4582  0.9939  0.7853
 7332SOL    HW233459   4.147   1.477  13.131  2.0130 -0.6103  1.1346
 7333SOL     OW33460   3.291   1.321   6.194  0.2114 -0.2022  0.3155
 7333SOL    HW133461   3.199   1.332   6.171 -0.2890 -0.2201  2.2648
 7333SOL    HW233462   3.279   1.313   6.289 -0.3016 -1.4754  0.1400
 7334SOL     OW33463   2.595   3.181  17.123  0.6190  0.1766  0.0672
 7334SOL    HW133464   2.666   3.123  17.097 -0.7050 -1.3657 -0.1155
 7334SOL    HW233465   2.574   3.145  17.210 -1.2631  1.4839  0.1559
 7335SOL     OW33466   0.086   0.320  13.088  0.2174  0.4372 -0.4568
 7335SOL    HW133467   0.132   0.393  13.129 -2.1191  2.3424 -1.2743
 7335SOL    HW233468   0.137   0.244  13.117 -3.4468 -0.7040  3.0362
 7336SOL     OW33469   1.046   0.262   9.323  0.8721 -0.6220  0.0626
 7336SOL    HW133470   0.985   0.255   9.396 -0.2951  0.1185 -0.8555
 7336SOL    HW233471   0.992   0.213   9.262  0.9644 -2.5041  1.5022
 7337SOL     OW33472   1.379   4.319   1.832 -0.1304 -0.1560 -0.0676
 7337SOL    HW133473   1.311   4.311   1.899  1.5911 -2.5282  1.4159
 7337SOL    HW233474   1.329   4.369   1.768  0.2241 -0.5197 -0.6288
 7338SOL     OW33475   3.915   0.062   1.216 -0.0264 -0.0967 -0.2060
 7338SOL    HW133476   3.933   4.709   1.268 -1.3414 -1.1345 -1.3208
 7338SOL    HW233477   3.846   0.028   1.159 -0.7187  3.6265 -1.6205
 7339SOL     OW33478   4.015   4.577   4.638 -0.1405  0.3142  0.5999
 7339SOL    HW133479   4.108   4.572   4.616 -0.6286  2.1223 -1.8814
 7339SOL    HW233480   4.021   4.664   4.677  1.2274  0.0231  1.0554
 7340SOL     OW33481   2.639   3.556   7.870 -0.1320 -0.7170  0.4056
 7340SOL    HW133482   2.650   3.615   7.945 -0.4735 -0.7854  0.5126
 7340SOL    HW233483   2.544   3.545   7.868 -0.1949 -0.3681  1.1537
 7341SOL     OW33484   4.031   4.468  10.951  1.2072 -0.0946 -0.0778
 7341SOL    HW133485   3.992   4.510  10.875 -1.2178 -0.8014  0.7652
 7341SOL    HW233486   4.106   4.524  10.972 -0.0491  1.8320 -0.7368
 7342SOL     OW33487   4.437   2.725   3.372 -0.3402  0.2171  0.9266
 7342SOL    HW133488   4.496   2.799   3.390 -1.3893  1.6528 -1.5163
 7342SOL    HW233489   4.379   2.761   3.305 -0.3696 -0.7940  0.4213
 7343SOL     OW33490   4.588   0.534   3.772  0.3019 -0.9571 -0.3798
 7343SOL    HW133491   4.674   0.509   3.736  0.3796  1.8154 -2.1361
 7343SOL    HW233492   4.529   0.463   3.745 -0.3005 -0.2816 -0.8327
 7344SOL     OW33493   0.816   2.435   7.353 -0.2405  0.4184  0.5192
 7344SOL    HW133494   0.853   2.347   7.343 -3.3832 -0.7331 -1.1704
 7344SOL    HW233495   0.724   2.411   7.342 -0.1594  0.5007 -0.3265
 7345SOL     OW33496   1.306   0.789   3.038  0.0188  0.6328 -0.2051
 7345SOL    HW133497   1.324   0.878   3.008 -0.8820  0.6073 -0.8068
 7345SOL    HW233498   1.392   0.754   3.061 -0.7169 -0.1976  1.3044
 7346SOL     OW33499   4.097   3.961   9.007 -0.5247 -0.3537 -0.1604
 7346SOL    HW133500   4.164   3.961   8.938 -1.8771  1.0130 -1.4895
 7346SOL    HW233501   4.054   3.877   8.992  1.3794 -1.7474  2.4012
 7347SOL     OW33502   3.242   0.615   5.325 -0.4027  0.1844 -0.5337
 7347SOL    HW133503   3.170   0.643   5.269 -0.2130 -0.5181 -1.1121
 7347SOL    HW233504   3.218   0.658   5.408  0.0577  3.8140 -2.2874
 7348SOL     OW33505   3.078   2.564   8.974 -0.3738  0.6439 -0.3325
 7348SOL    HW133506   3.133   2.513   9.033  0.0965  1.8863  0.3086
 7348SOL    HW233507   3.110   2.654   8.975  0.2968  0.3993  0.6131
 7349SOL     OW33508   0.813   0.381   7.827 -0.3714  0.3742 -0.1798
 7349SOL    HW133509   0.798   0.304   7.881  0.2136  1.0713  0.9986
 7349SOL    HW233510   0.765   0.445   7.880 -0.7863 -0.0113 -0.0964
 7350SOL     OW33511   1.666   1.878  12.502  0.1341  0.3813 -0.7780
 7350SOL    HW133512   1.760   1.890  12.511 -0.2162  1.6838  1.1581
 7350SOL    HW233513   1.630   1.952  12.452  0.6988 -0.2727 -2.1393
 7351SOL     OW33514   4.020   2.216  13.945 -0.0625 -0.0404  0.1766
 7351SOL    HW133515   4.076   2.154  13.991  0.3980  0.8396  0.7928
 7351SOL    HW233516   3.937   2.168  13.944  0.6529 -1.2597 -0.9813
 7352SOL     OW33517   3.214   1.273   6.461 -0.1860  0.6163 -0.1430
 7352SOL    HW133518   3.255   1.205   6.515 -1.5869  0.8670  1.2363
 7352SOL    HW233519   3.181   1.321   6.537 -1.5872 -1.6171  0.6795
 7353SOL     OW33520   3.870   3.376   4.393  0.6308 -0.8154  0.3135
 7353SOL    HW133521   3.888   3.466   4.365 -0.5688 -1.3875 -2.3091
 7353SOL    HW233522   3.902   3.376   4.483  2.5159 -3.7131 -0.3672
 7354SOL     OW33523   4.708   2.488   3.850 -0.4407  0.0530 -0.0302
 7354SOL    HW133524   0.001   2.488   3.944  0.4860  0.4131 -0.2064
 7354SOL    HW233525   4.646   2.561   3.842 -0.2321  0.2610  0.3064
 7355SOL     OW33526   3.791   3.408   2.415  0.2318 -0.0226  0.1204
 7355SOL    HW133527   3.826   3.479   2.360  0.7864  1.0004  1.7955
 7355SOL    HW233528   3.775   3.462   2.492 -0.9095 -0.3757  0.1189
 7356SOL     OW33529   4.643   3.365   6.415  0.2761  0.2495 -0.1543
 7356SOL    HW133530   4.692   3.423   6.358 -0.4102  1.8249  0.8745
 7356SOL    HW233531   4.553   3.392   6.397 -0.5083 -1.6772  0.8770
 7357SOL     OW33532   4.046   1.036  15.736 -0.3570  0.0942 -0.4204
 7357SOL    HW133533   4.048   0.947  15.773 -0.4546  0.4957  0.5516
 7357SOL    HW233534   4.120   1.073  15.784  0.8427  0.3008 -2.4736
 7358SOL     OW33535   3.702   1.829   4.318  0.4456 -0.1287  0.2743
 7358SOL    HW133536   3.647   1.777   4.260 -0.1595  0.9474 -0.1298
 7358SOL    HW233537   3.630   1.851   4.377  0.2206  0.1460 -0.0997
 7359SOL     OW33538   2.410   4.419   7.474  0.1251 -0.2846 -0.0522
 7359SOL    HW133539   2.423   4.380   7.560 -0.5906 -1.9950 -0.7125
 7359SOL    HW233540   2.482   4.482   7.467 -0.0128 -0.0701  0.5198
 7360SOL     OW33541   1.723   0.525  12.311 -0.3282 -0.5801  0.4797
 7360SOL    HW133542   1.659   0.540  12.380  0.4802  0.7751  0.9300
 7360SOL    HW233543   1.746   0.432  12.322  0.6178 -0.7080 -2.4126
 7361SOL     OW33544   2.247   4.169   2.027 -0.0722  0.1372  0.5904
 7361SOL    HW133545   2.249   4.259   1.993  0.1751  0.0034  0.2437
 7361SOL    HW233546   2.154   4.149   2.012 -0.2903  1.4539  0.1804
 7362SOL     OW33547   3.561   1.876   3.572  0.2709  0.3082  0.3544
 7362SOL    HW133548   3.607   1.809   3.521  1.4590 -0.3530  2.3008
 7362SOL    HW233549   3.533   1.814   3.639  1.6132 -2.1892 -1.4078
 7363SOL     OW33550   1.730   1.049  15.561 -0.0578 -0.0540 -0.1641
 7363SOL    HW133551   1.712   0.974  15.617  0.6563 -0.9171 -1.0998
 7363SOL    HW233552   1.768   0.998  15.490  0.5623  0.3792 -0.1477
 7364SOL     OW33553   2.190   4.319   7.742  0.1346  0.0461 -0.2621
 7364SOL    HW133554   2.279   4.297   7.716  0.4139  0.5880  0.2530
 7364SOL    HW233555   2.142   4.251   7.694 -0.3817  0.1342  0.1330
 7365SOL     OW33556   4.432   3.111  17.581 -0.7975 -0.1025 -0.2416
 7365SOL    HW133557   4.482   3.030  17.578 -0.8611 -0.1901  1.1726
 7365SOL    HW233558   4.402   3.113  17.672  0.1296  2.3868  0.0104
 7366SOL     OW33559   0.183   4.478   7.155  0.1974 -0.0499  0.4746
 7366SOL    HW133560   0.102   4.523   7.181  0.7769  1.1011  0.2955
 7366SOL    HW233561   0.201   4.525   7.073 -0.0274  1.2568  1.1636
 7367SOL     OW33562   2.637   3.350  14.259  0.2408  0.2930  0.0365
 7367SOL    HW133563   2.557   3.350  14.206  1.0624  0.6587 -1.2021
 7367SOL    HW233564   2.601   3.357  14.347  3.1772  2.6429  1.0368
 7368SOL     OW33565   2.066   1.740   1.444 -0.4229  0.7327  0.0899
 7368SOL    HW133566   2.154   1.753   1.480 -0.2960  0.4577 -0.1194
 7368SOL    HW233567   2.076   1.707   1.355 -1.6196  0.7662 -0.0543
 7369SOL     OW33568   2.419   3.791  13.377  0.0563  0.1691  0.3552
 7369SOL    HW133569   2.469   3.824  13.303  1.3811 -1.4398  0.5383
 7369SOL    HW233570   2.441   3.699  13.368  1.6419  0.6037 -0.2665
 7370SOL     OW33571   4.316   0.675   7.334 -0.0465  0.5823 -0.1290
 7370SOL    HW133572   4.393   0.644   7.381 -0.5674 -0.0265  0.3212
 7370SOL    HW233573   4.244   0.647   7.391  0.4457 -0.5100 -0.0422
 7371SOL     OW33574   2.784   0.995   2.069 -0.1464 -0.2262  0.6630
 7371SOL    HW133575   2.703   1.029   2.107  0.4832  0.7945  1.1056
 7371SOL    HW233576   2.848   1.056   2.106 -0.3045  0.6515 -0.4831
 7372SOL     OW33577   2.116   3.543  10.186 -0.0806  0.3179 -0.3794
 7372SOL    HW133578   2.114   3.631  10.149 -1.1409  0.2516 -0.4589
 7372SOL    HW233579   2.078   3.495  10.113 -1.5182 -0.2311  0.7196
 7373SOL     OW33580   2.672   1.130   5.150  0.0097  0.0638 -0.3376
 7373SOL    HW133581   2.732   1.205   5.159 -1.4078  0.9982  1.1898
 7373SOL    HW233582   2.659   1.106   5.242 -1.8974  0.6010 -0.4628
 7374SOL     OW33583   3.298   0.340   6.123 -0.3494 -0.1498 -0.0688
 7374SOL    HW133584   3.260   0.358   6.209 -2.1464  0.0579 -0.8999
 7374SOL    HW233585   3.344   0.423   6.110  2.5651 -2.2952 -3.4786
 7375SOL     OW33586   1.039   0.871   7.534  0.6503  0.4068 -0.1636
 7375SOL    HW133587   1.123   0.825   7.524  0.9830  1.5732 -2.7100
 7375SOL    HW233588   1.044   0.896   7.626  2.1052  3.8307 -1.1889
 7376SOL     OW33589   1.250   1.414   6.669  0.2319  0.2154  0.2274
 7376SOL    HW133590   1.289   1.413   6.757  2.1237 -0.3911 -0.6071
 7376SOL    HW233591   1.330   1.426   6.617 -1.0010  0.0639 -1.6990
 7377SOL     OW33592   2.125   4.631   9.147  0.0326  0.0994  0.0261
 7377SOL    HW133593   2.212   4.616   9.186  0.2779 -0.9455 -0.8992
 7377SOL    HW233594   2.091   4.542   9.155 -1.2817  0.6774  0.8406
 7378SOL     OW33595   2.106   2.365  16.214 -0.2516 -0.3639 -0.4372
 7378SOL    HW133596   2.109   2.322  16.129  3.2865  1.1800 -1.0959
 7378SOL    HW233597   2.159   2.443  16.193  0.5669 -0.9762 -0.6380
 7379SOL     OW33598   2.477   1.807   8.498  0.0638  1.0345 -0.1099
 7379SOL    HW133599   2.552   1.811   8.557  0.0017  3.2571 -0.1805
 7379SOL    HW233600   2.419   1.872   8.537 -0.9647 -1.0571  1.8562
 7380SOL     OW33601   4.280   3.226  14.569  0.2631  0.0600  0.2634
 7380SOL    HW133602   4.295   3.162  14.639  0.4526 -0.7895 -0.5552
 7380SOL    HW233603   4.187   3.246  14.585  0.7765  2.5117  0.1185
 7381SOL     OW33604   2.100   2.002   5.121  0.2775  0.1395 -0.4948
 7381SOL    HW133605   2.119   2.096   5.123  1.1703 -0.0384 -0.5105
 7381SOL    HW233606   2.150   1.970   5.045 -2.2414 -2.0097 -1.2123
 7382SOL     OW33607   2.680   1.640   6.947  0.1032 -0.0871 -0.3722
 7382SOL    HW133608   2.624   1.609   7.017  1.4564 -2.8881 -0.5145
 7382SOL    HW233609   2.613   1.660   6.881  0.0826  0.1796 -0.2714
 7383SOL     OW33610   2.246   2.298   9.507  0.0363 -0.3302 -0.0358
 7383SOL    HW133611   2.206   2.373   9.463 -2.6236 -0.9662  1.2832
 7383SOL    HW233612   2.176   2.233   9.506  1.4816 -1.8342 -3.1770
 7384SOL     OW33613   0.068   0.907   5.366 -0.7926 -0.1324  0.0560
 7384SOL    HW133614   0.070   0.894   5.271  1.1357 -1.9496  0.3380
 7384SOL    HW233615   0.154   0.947   5.382 -0.4469 -1.3843  1.4107
 7385SOL     OW33616   1.797   1.194   3.259 -0.3335 -0.0413  0.3635
 7385SOL    HW133617   1.829   1.241   3.336  0.2940 -0.8498  0.5929
 7385SOL    HW233618   1.843   1.233   3.185 -1.4442  0.4676 -0.0613
 7386SOL     OW33619   0.142   0.987   2.879 -0.4645  0.4233  0.4257
 7386SOL    HW133620   0.053   1.015   2.901 -0.7699  0.2134 -0.5297
 7386SOL    HW233621   0.169   1.074   2.847  1.3954 -1.3150 -2.6992
 7387SOL     OW33622   3.350   1.328   7.783  0.4495  0.3345 -0.1918
 7387SOL    HW133623   3.303   1.406   7.812  3.2670  1.6245  0.9488
 7387SOL    HW233624   3.286   1.260   7.766 -1.4856  2.1981 -0.3752
 7388SOL     OW33625   4.233   0.879  17.221 -0.0832  0.2842 -0.1344
 7388SOL    HW133626   4.218   0.785  17.214  0.5796  0.1126  0.9015
 7388SOL    HW233627   4.245   0.898  17.128  0.4536 -0.9851 -0.3264
 7389SOL     OW33628   2.399   1.067   5.015  0.6096 -0.8275  0.5871
 7389SOL    HW133629   2.475   1.047   5.070  1.4778  0.3380 -0.1924
 7389SOL    HW233630   2.429   1.042   4.927  1.7851  1.9575  0.2011
 7390SOL     OW33631   1.103   2.019   1.972 -0.2811 -0.2277  0.1017
 7390SOL    HW133632   1.048   1.958   2.021 -0.0855 -0.8625 -0.4639
 7390SOL    HW233633   1.173   2.040   2.034 -1.8924  2.1256  1.1051
 7391SOL     OW33634   2.928   2.217   3.353 -0.1869  0.5160 -0.2823
 7391SOL    HW133635   2.973   2.237   3.436  1.3601  2.2243 -1.5342
 7391SOL    HW233636   2.984   2.146   3.320 -0.9400  0.0359 -0.5277
 7392SOL     OW33637   2.244   0.242   8.977 -0.3801  0.1411 -0.1928
 7392SOL    HW133638   2.159   0.204   8.954 -0.5574  0.5665 -0.2441
 7392SOL    HW233639   2.270   0.195   9.057  2.4523 -2.1609 -2.4721
 7393SOL     OW33640   2.338   0.283   3.945  0.3331  0.4344  0.2743
 7393SOL    HW133641   2.340   0.377   3.927  1.1445 -0.0290 -2.0616
 7393SOL    HW233642   2.392   0.283   4.025 -0.5020  2.4824  0.8462
 7394SOL     OW33643   2.158   2.823   3.341 -0.1492  0.3114 -0.6189
 7394SOL    HW133644   2.162   2.746   3.396 -0.4141 -1.4169 -3.0017
 7394SOL    HW233645   2.227   2.878   3.377  1.5792 -1.7553 -0.8080
 7395SOL     OW33646   1.401   4.123   7.525 -0.2355 -0.6770 -0.1721
 7395SOL    HW133647   1.355   4.201   7.494  2.9446  1.7783  1.2049
 7395SOL    HW233648   1.398   4.060   7.454 -0.2056 -0.3137 -0.4929
 7396SOL     OW33649   4.397   2.010   3.738 -0.3744 -0.0711 -0.3210
 7396SOL    HW133650   4.314   1.962   3.729 -0.2575 -0.5706  1.2470
 7396SOL    HW233651   4.363   2.088   3.783  1.1717  0.7032 -0.4982
 7397SOL     OW33652   1.033   1.814   2.416 -0.1113  0.0131 -0.5087
 7397SOL    HW133653   1.119   1.831   2.377 -1.2295  0.9948 -2.5634
 7397SOL    HW233654   0.986   1.757   2.354  0.4552  0.8318 -1.6929
 7398SOL     OW33655   1.185   2.652   5.214 -0.2819 -0.4186 -0.1327
 7398SOL    HW133656   1.107   2.597   5.199  0.2278 -0.6209 -1.9951
 7398SOL    HW233657   1.157   2.722   5.273  1.8026 -2.7179  3.5641
 7399SOL     OW33658   4.048   1.028   3.267  0.0929 -0.3054  0.3233
 7399SOL    HW133659   4.138   1.037   3.236  0.3581 -2.3964  0.5218
 7399SOL    HW233660   4.058   0.934   3.278  1.5403 -0.2866 -0.8996
 7400SOL     OW33661   2.893   3.813  17.109 -0.6223  0.5991  0.1080
 7400SOL    HW133662   2.911   3.858  17.191  0.3627 -0.7282  0.6321
 7400SOL    HW233663   2.941   3.732  17.129  1.2145  0.8264 -3.3207
 7401SOL     OW33664   4.375   2.291   1.612 -0.3819  0.0722 -0.1297
 7401SOL    HW133665   4.439   2.220   1.611  0.0163  0.4221  0.2875
 7401SOL    HW233666   4.352   2.285   1.519  1.4651  1.6237 -0.6909
 7402SOL     OW33667   3.903   0.515  12.532  0.0941 -0.3265  0.0177
 7402SOL    HW133668   3.974   0.459  12.501  0.4889 -1.0372  2.2089
 7402SOL    HW233669   3.956   0.593  12.546 -1.9008  1.7075 -3.5741
 7403SOL     OW33670   4.595   4.083  12.817  0.1992  0.1463 -0.0752
 7403SOL    HW133671   4.607   4.035  12.899 -1.7435  1.7822  1.1797
 7403SOL    HW233672   4.542   4.158  12.846  0.3995  0.0971  0.4182
 7404SOL     OW33673   2.025   3.657   7.157 -0.2718 -0.3248 -0.7654
 7404SOL    HW133674   2.101   3.640   7.101  0.2243 -1.3843  0.2387
 7404SOL    HW233675   2.010   3.742   7.115  3.9995  0.3262 -0.9946
 7405SOL     OW33676   2.981   4.467   2.906 -0.0842  0.1094  0.3002
 7405SOL    HW133677   2.900   4.501   2.869 -1.0022  0.3140  2.4961
 7405SOL    HW233678   3.001   4.385   2.860 -0.9310 -0.2046  0.4771
 7406SOL     OW33679   1.766   3.570   2.756 -0.3162  0.2972  0.4413
 7406SOL    HW133680   1.679   3.610   2.746  0.3722  1.8634  0.6108
 7406SOL    HW233681   1.790   3.619   2.835 -0.0905  2.0979 -0.7373
 7407SOL     OW33682   0.599   3.609   3.234  0.3606  0.2924 -0.4254
 7407SOL    HW133683   0.510   3.575   3.247  0.2051  1.0826  0.5425
 7407SOL    HW233684   0.652   3.539   3.196  2.4988  2.0537 -0.6866
 7408SOL     OW33685   0.565   2.646   6.287  0.4841  0.0467 -0.6899
 7408SOL    HW133686   0.629   2.577   6.267 -0.5419 -1.5647  1.5658
 7408SOL    HW233687   0.615   2.690   6.356  0.9675 -1.2597 -0.2211
 7409SOL     OW33688   3.550   4.619   5.874 -0.1122 -0.2089 -0.4059
 7409SOL    HW133689   3.528   4.615   5.781  0.7291 -1.7779 -0.5392
 7409SOL    HW233690   3.482   4.685   5.889 -0.6708 -0.8235 -0.2009
 7410SOL     OW33691   1.810   0.989  15.182  0.0413 -0.1130 -0.5904
 7410SOL    HW133692   1.722   1.013  15.155  0.6562  1.2939 -1.3406
 7410SOL    HW233693   1.867   1.056  15.143  0.3017  0.1275  0.2029
 7411SOL     OW33694   1.233   2.242  10.708 -0.3074  0.4470 -0.3471
 7411SOL    HW133695   1.148   2.198  10.708 -1.1495  2.0887  0.5615
 7411SOL    HW233696   1.202   2.331  10.726  2.0734  1.4256 -1.0434
 7412SOL     OW33697   3.209   4.553   3.005 -0.4990  0.3969  0.2553
 7412SOL    HW133698   3.253   4.586   2.927 -1.9615 -0.8677 -1.1101
 7412SOL    HW233699   3.121   4.539   2.970  0.1244  1.5079 -1.7537
 7413SOL     OW33700   0.479   2.013   7.675  0.6017 -0.5611 -0.9635
 7413SOL    HW133701   0.390   2.001   7.641  0.3520  2.0949 -1.2625
 7413SOL    HW233702   0.480   2.108   7.688  0.0166 -0.3965 -2.0711
 7414SOL     OW33703   3.721   1.196   2.271  0.2619 -0.0339  0.2387
 7414SOL    HW133704   3.698   1.280   2.231  1.5212 -0.0875 -0.6073
 7414SOL    HW233705   3.638   1.178   2.313  0.4250  1.1440  1.0620
 7415SOL     OW33706   1.219   1.362   4.257 -0.6160 -0.0922  0.1012
 7415SOL    HW133707   1.138   1.407   4.235 -0.5917 -0.1832 -0.1712
 7415SOL    HW233708   1.284   1.427   4.229 -0.8890 -0.7590 -1.9931
 7416SOL     OW33709   1.170   3.794  12.970  0.1206  0.3472  0.0945
 7416SOL    HW133710   1.082   3.766  12.946 -0.2126  1.1129  0.4050
 7416SOL    HW233711   1.204   3.729  13.031  0.1277 -0.9695 -1.3162
 7417SOL     OW33712   3.307   1.150  13.299 -0.1299  0.0175  0.0049
 7417SOL    HW133713   3.317   1.243  13.318 -0.9374 -0.0187  0.6119
 7417SOL    HW233714   3.401   1.134  13.299 -0.2097 -0.3058 -4.3316
 7418SOL     OW33715   2.014   2.167   9.493 -0.7118 -0.5167 -0.8185
 7418SOL    HW133716   1.996   2.132   9.581 -1.2993 -0.4306 -0.9020
 7418SOL    HW233717   2.014   2.086   9.442  1.2457 -0.2922 -1.1451
 7419SOL     OW33718   1.008   1.830   3.036  0.2615 -0.2635  0.1688
 7419SOL    HW133719   0.955   1.886   3.093  0.4466  1.3664 -1.2611
 7419SOL    HW233720   1.093   1.842   3.077 -0.2773 -0.0279  1.2217
 7420SOL     OW33721   3.923   3.383   9.265 -0.1524  0.0804  0.0055
 7420SOL    HW133722   3.904   3.389   9.172  0.9944  0.9610 -0.1737
 7420SOL    HW233723   3.983   3.457   9.270 -0.5547  0.3083  1.7784
 7421SOL     OW33724   2.186   3.527   6.675 -0.3654 -0.4301 -0.0596
 7421SOL    HW133725   2.159   3.493   6.589 -0.7787  0.4193 -0.2706
 7421SOL    HW233726   2.097   3.537   6.708  0.2774  3.3386  0.5482
 7422SOL     OW33727   1.474   2.182   9.747  0.3006  0.1585  0.1877
 7422SOL    HW133728   1.521   2.101   9.728 -0.8228 -0.4969  0.1981
 7422SOL    HW233729   1.540   2.252   9.754  0.9250 -0.4148  0.0096
 7423SOL     OW33730   1.434   4.081  17.387  0.4109  0.7569 -0.1034
 7423SOL    HW133731   1.456   3.994  17.420 -0.9178  1.4203  2.5219
 7423SOL    HW233732   1.345   4.071  17.352 -0.1321 -0.5069  1.6543
 7424SOL     OW33733   3.419   0.204   8.177 -0.0481  0.4496  0.2102
 7424SOL    HW133734   3.442   0.295   8.194  1.0346 -0.0293  1.2934
 7424SOL    HW233735   3.330   0.196   8.211 -0.1372  3.3808  0.6349
 7425SOL     OW33736   0.235   3.180   6.494  0.1499 -0.2103  0.3620
 7425SOL    HW133737   0.297   3.109   6.474 -0.0841 -0.1051 -0.7121
 7425SOL    HW233738   0.193   3.143   6.572  1.3614 -0.2134  1.0210
 7426SOL     OW33739   0.194   0.212  10.892  0.4866  0.5657 -0.0155
 7426SOL    HW133740   0.285   0.202  10.922  0.5698  1.5517  0.0751
 7426SOL    HW233741   0.185   0.136  10.835  2.2951  0.8024 -0.6309
 7427SOL     OW33742   1.583   0.300  15.606 -0.6382  0.7582  0.1886
 7427SOL    HW133743   1.490   0.315  15.626 -0.6530  0.6895  0.1721
 7427SOL    HW233744   1.583   0.210  15.638  0.1281  0.9436  0.6873
 7428SOL     OW33745   2.436   0.425  13.818 -0.1873  0.3339  0.0652
 7428SOL    HW133746   2.462   0.394  13.731  1.3361 -1.7145  1.2381
 7428SOL    HW233747   2.460   0.350  13.872  0.4486 -0.0770 -0.7820
 7429SOL     OW33748   3.392   2.241   2.142 -0.0903  0.0383  0.2312
 7429SOL    HW133749   3.466   2.235   2.082  1.5977  0.7298  2.2551
 7429SOL    HW233750   3.417   2.173   2.205  1.8440 -0.3102 -0.9358
 7430SOL     OW33751   0.499   2.412   4.857  0.5597 -0.5204 -0.8912
 7430SOL    HW133752   0.457   2.339   4.811 -0.8485  0.8026 -1.7081
 7430SOL    HW233753   0.575   2.377   4.903  0.0355  0.7379  0.9409
 7431SOL     OW33754   0.683   3.797   3.069  0.5499  0.4387  0.2304
 7431SOL    HW133755   0.634   3.750   3.001  0.2648 -0.2173  0.8943
 7431SOL    HW233756   0.645   3.753   3.145 -1.2164  0.4785 -0.6218
 7432SOL     OW33757   4.020   0.294   6.892  0.3460  0.2242 -0.2389
 7432SOL    HW133758   4.082   0.234   6.933 -0.1506  1.6248  2.5471
 7432SOL    HW233759   4.077   0.349   6.838 -1.0058 -1.0447 -2.9689
 7433SOL     OW33760   1.001   4.414   6.945 -0.5435  0.4923 -0.2716
 7433SOL    HW133761   0.941   4.398   6.873 -1.4207 -1.7788  0.9911
 7433SOL    HW233762   0.954   4.361   7.009  0.6660 -0.8737 -0.5258
 7434SOL     OW33763   0.588   1.970   3.373  0.2555 -0.3495  0.4042
 7434SOL    HW133764   0.549   1.906   3.434 -1.5269  1.6051  1.3040
 7434SOL    HW233765   0.550   2.051   3.406 -1.4267 -0.9469 -0.0133
 7435SOL     OW33766   3.437   4.195   4.676  0.4029  0.4155  0.2715
 7435SOL    HW133767   3.414   4.281   4.641  1.8124  0.7846  0.2454
 7435SOL    HW233768   3.503   4.166   4.613 -1.9298 -1.9825 -1.0722
 7436SOL     OW33769   2.150   1.708  12.171 -0.0495  0.3414 -0.4314
 7436SOL    HW133770   2.111   1.728  12.256 -0.7531  0.7994 -0.8571
 7436SOL    HW233771   2.096   1.765  12.116  0.1249  1.0282  0.1053
 7437SOL     OW33772   0.725   2.153   8.725 -0.1922  0.3299  0.3631
 7437SOL    HW133773   0.653   2.189   8.675 -0.9768 -0.4891  0.9019
 7437SOL    HW233774   0.706   2.062   8.705 -1.0301  0.6663 -0.3433
 7438SOL     OW33775   0.057   1.025   3.780 -0.4083  0.0321  0.1979
 7438SOL    HW133776   0.006   0.944   3.788  1.2301 -1.0237 -0.0112
 7438SOL    HW233777   0.051   1.042   3.686  0.0471  1.1058  0.3654
 7439SOL     OW33778   1.271   0.924   8.675  0.1904  0.3927 -0.9512
 7439SOL    HW133779   1.234   0.851   8.724  0.9428 -0.4003 -1.5800
 7439SOL    HW233780   1.271   0.984   8.750  0.1566  0.3091 -0.8847
 7440SOL     OW33781   2.404   2.859   8.323 -0.2018  0.0285 -0.3790
 7440SOL    HW133782   2.489   2.816   8.330  0.8407  2.0237 -0.8416
 7440SOL    HW233783   2.343   2.785   8.316 -1.8601  1.4692 -1.3839
 7441SOL     OW33784   0.773   4.321   6.773  0.3158 -0.2880  0.1620
 7441SOL    HW133785   0.701   4.260   6.789 -1.1084  1.5683  0.8191
 7441SOL    HW233786   0.728   4.399   6.740 -0.5570 -1.6294 -1.8032
 7442SOL     OW33787   3.924   3.507   3.275 -0.0780 -0.3251 -0.3739
 7442SOL    HW133788   4.015   3.537   3.284 -0.0122 -0.3304 -1.0066
 7442SOL    HW233789   3.936   3.415   3.297 -0.5721  0.1728  1.9363
 7443SOL     OW33790   2.640   1.264   6.270 -0.7250  0.1889  0.1764
 7443SOL    HW133791   2.554   1.280   6.309  0.8180  0.3985  3.4782
 7443SOL    HW233792   2.631   1.172   6.245  0.8894 -0.4347  1.8548
 7444SOL     OW33793   4.286   2.924   8.246  0.2884 -0.3277  0.3716
 7444SOL    HW133794   4.238   2.851   8.287  0.5855  0.1289  1.5092
 7444SOL    HW233795   4.343   2.941   8.320  1.0712  0.0367 -0.3223
 7445SOL     OW33796   1.509   3.038   7.724  0.5246 -0.1713  0.5205
 7445SOL    HW133797   1.441   3.102   7.709  0.7853 -0.1957 -0.7826
 7445SOL    HW233798   1.477   2.970   7.665 -0.2085  1.0242 -0.4412
 7446SOL     OW33799   4.699   3.774   4.802  0.1772  0.1965 -0.5784
 7446SOL    HW133800   0.035   3.738   4.867 -0.7678 -0.8097 -0.2588
 7446SOL    HW233801   4.701   3.696   4.747  0.0215 -0.4755  0.3766
 7447SOL     OW33802   4.367   0.202   3.658  0.3743  0.4195 -0.5415
 7447SOL    HW133803   4.451   0.243   3.637  0.8685 -0.3050  0.0207
 7447SOL    HW233804   4.315   0.278   3.684  0.7702  0.4223  0.2271
 7448SOL     OW33805   2.068   0.311   5.267 -0.2340  0.3296 -0.1626
 7448SOL    HW133806   1.990   0.269   5.232 -2.1049  3.8161 -0.2477
 7448SOL    HW233807   2.110   0.362   5.197  0.0361 -2.3358 -1.9320
 7449SOL     OW33808   3.084   3.061   5.179  0.2009  0.0568  0.1973
 7449SOL    HW133809   3.054   3.030   5.264  1.0461  1.7029  1.1161
 7449SOL    HW233810   3.011   3.119   5.158 -1.1257 -1.8218 -0.3197
 7450SOL     OW33811   1.698   4.510   2.379  0.3073  0.1469  0.0553
 7450SOL    HW133812   1.638   4.550   2.316 -0.1179 -0.7881 -0.1422
 7450SOL    HW233813   1.773   4.568   2.370 -1.8332  2.9794  0.3455
 7451SOL     OW33814   1.991   0.529  10.308 -0.2100  0.0757  0.0051
 7451SOL    HW133815   2.010   0.470  10.235 -1.7104 -1.6770  1.0099
 7451SOL    HW233816   1.896   0.512  10.312 -0.1568  0.0806  1.2308
 7452SOL     OW33817   2.994   1.015   6.496 -0.3598 -0.5906  0.2509
 7452SOL    HW133818   3.033   0.932   6.525 -0.7076 -0.6508  0.5473
 7452SOL    HW233819   3.074   1.052   6.458 -0.7455  0.0350  0.0562
 7453SOL     OW33820   4.442   2.159   2.349  0.5157 -0.2545  0.0890
 7453SOL    HW133821   4.422   2.181   2.258 -1.3195 -0.6500  0.4013
 7453SOL    HW233822   4.476   2.069   2.351 -0.0782 -0.4754  0.4071
 7454SOL     OW33823   2.006   1.821   6.162 -0.0179  0.2371 -0.0775
 7454SOL    HW133824   1.957   1.864   6.232 -0.5404 -0.3411 -0.0776
 7454SOL    HW233825   2.016   1.739   6.210 -0.2326 -0.1716 -0.7264
 7455SOL     OW33826   0.536   1.957   5.475  0.0433  0.2579 -0.3762
 7455SOL    HW133827   0.579   1.881   5.437  1.2302  0.8527 -0.2147
 7455SOL    HW233828   0.598   1.977   5.545 -2.4532  2.7281  1.1457
 7456SOL     OW33829   2.678   3.645  13.108 -0.0572 -0.3695 -0.2692
 7456SOL    HW133830   2.698   3.578  13.042 -1.4990 -0.0361 -1.0517
 7456SOL    HW233831   2.723   3.717  13.062  1.9139 -1.5251 -0.1383
 7457SOL     OW33832   1.925   3.779   4.974 -0.0392 -0.1125 -0.1775
 7457SOL    HW133833   1.897   3.833   5.048 -0.3073  2.0864 -1.9015
 7457SOL    HW233834   1.940   3.846   4.907  0.6162 -0.9582 -0.8644
 7458SOL     OW33835   2.802   2.128   4.633 -0.2237 -0.3477 -0.3779
 7458SOL    HW133836   2.726   2.069   4.629 -0.9992  0.5797  0.6485
 7458SOL    HW233837   2.813   2.135   4.727 -1.9961 -1.6736 -0.0646
 7459SOL     OW33838   0.482   2.312   5.917 -0.5002 -0.3961 -0.1106
 7459SOL    HW133839   0.479   2.292   5.824 -0.2529  0.6434 -0.3480
 7459SOL    HW233840   0.563   2.275   5.953 -2.2113 -1.8602  2.2402
 7460SOL     OW33841   2.984   1.346   5.784  0.5108 -0.2135  0.7244
 7460SOL    HW133842   3.070   1.355   5.825  0.5735  0.8235  0.3667
 7460SOL    HW233843   2.941   1.335   5.869 -0.5682  4.1991  0.7584
 7461SOL     OW33844   0.533   2.206   5.086 -0.0299 -0.2644 -0.0648
 7461SOL    HW133845   0.574   2.131   5.129  1.4157  0.0404 -0.9039
 7461SOL    HW233846   0.599   2.274   5.098 -0.8693  0.5376 -0.0396
 7462SOL     OW33847   3.288   3.488   5.653  0.2213 -0.4588 -0.2382
 7462SOL    HW133848   3.242   3.482   5.570  1.4573  0.4883 -1.0023
 7462SOL    HW233849   3.254   3.413   5.702 -3.9620  1.6315  0.0488
 7463SOL     OW33850   1.998   0.005   9.712 -0.1610  0.4994 -0.1220
 7463SOL    HW133851   2.039   0.026   9.796  0.4087 -0.2728 -0.2098
 7463SOL    HW233852   1.930   4.671   9.746 -1.2519  1.0608 -1.3561
 7464SOL     OW33853   3.657   0.786   5.853  0.1176 -0.0619  0.2085
 7464SOL    HW133854   3.672   0.877   5.830  2.0299 -0.5373 -0.3922
 7464SOL    HW233855   3.574   0.766   5.810  0.1226 -0.8003  0.5385
 7465SOL     OW33856   3.646   3.004   0.648 -0.2073  0.3866  0.4430
 7465SOL    HW133857   3.629   2.943   0.720 -1.1885 -2.2804 -2.0366
 7465SOL    HW233858   3.585   3.075   0.664 -2.4693 -1.2401 -0.9512
 7466SOL     OW33859   4.665   0.533   8.961 -0.3292 -0.1694 -0.3367
 7466SOL    HW133860   4.647   0.453   8.911 -3.6705 -0.2023  0.9051
 7466SOL    HW233861   4.687   0.595   8.891 -0.2705 -1.0560 -1.1195
 7467SOL     OW33862   1.929   0.912   7.604  0.1249  0.3785 -0.6079
 7467SOL    HW133863   1.937   0.995   7.558 -1.2964  0.1906 -1.1831
 7467SOL    HW233864   1.845   0.929   7.646 -0.6928 -1.5624 -1.4603
 7468SOL     OW33865   2.408   2.602   5.302 -0.3208 -0.0422 -0.1230
 7468SOL    HW133866   2.479   2.595   5.366 -2.2304 -0.2927  1.9828
 7468SOL    HW233867   2.324   2.611   5.347 -0.1789 -0.6023  0.2544
 7469SOL     OW33868   0.120   2.158   9.250  0.3617  0.2749  0.2282
 7469SOL    HW133869   0.028   2.142   9.229 -0.2578  2.2155  1.4247
 7469SOL    HW233870   0.153   2.124   9.167 -1.2922 -0.0497 -0.2925
 7470SOL     OW33871   1.112   3.955  12.321  0.0106  0.2076 -0.0665
 7470SOL    HW133872   1.078   3.895  12.254  0.7551 -0.0985 -0.1702
 7470SOL    HW233873   1.037   4.014  12.325 -0.7781 -0.7231 -1.0022
 7471SOL     OW33874   3.487   1.211  10.368 -0.2347  0.5291  0.1843
 7471SOL    HW133875   3.504   1.248  10.455 -1.4852  0.6682  0.3756
 7471SOL    HW233876   3.455   1.122  10.382  0.8416  0.3222  1.3357
 7472SOL     OW33877   1.504   2.959  14.272 -0.6959  0.1706 -0.7036
 7472SOL    HW133878   1.411   2.954  14.295 -0.6823 -0.6953 -0.8443
 7472SOL    HW233879   1.523   2.869  14.244 -1.0071 -0.8780  2.4282
 7473SOL     OW33880   1.719   0.301   4.743  0.2664  0.1005  0.6523
 7473SOL    HW133881   1.668   0.349   4.678 -1.5606  0.3943  2.3103
 7473SOL    HW233882   1.804   0.345   4.746  0.6862 -0.5222 -1.7208
 7474SOL     OW33883   1.485   1.539   8.159  0.6438 -0.0993  0.9513
 7474SOL    HW133884   1.569   1.516   8.199  1.0190  1.6990  1.1790
 7474SOL    HW233885   1.515   1.599   8.090  0.0034 -0.1660  0.6077
 7475SOL     OW33886   2.190   1.432  15.316 -0.3814 -0.2492  0.3283
 7475SOL    HW133887   2.223   1.522  15.320  0.1895 -0.3438 -1.9278
 7475SOL    HW233888   2.098   1.454  15.329 -0.5031 -0.7601  0.3259
 7476SOL     OW33889   2.421   0.362  15.113  0.1014  0.4133 -0.1827
 7476SOL    HW133890   2.457   0.440  15.157 -0.8027  0.8517 -0.2234
 7476SOL    HW233891   2.349   0.402  15.066  0.7155 -0.0114 -1.4680
 7477SOL     OW33892   1.881   1.817   0.541  0.0651 -0.0248  0.0165
 7477SOL    HW133893   1.976   1.824   0.541 -0.0455  1.2818  0.7195
 7477SOL    HW233894   1.866   1.856   0.627  0.2951 -1.5431  0.7497
 7478SOL     OW33895   1.951   2.511  14.482  0.0500 -0.1888 -0.6506
 7478SOL    HW133896   1.881   2.532  14.544  0.3384 -0.1022 -0.3572
 7478SOL    HW233897   1.979   2.598  14.454  1.5082 -0.8697 -1.2912
 7479SOL     OW33898   2.454   1.793   4.071 -0.2214 -0.0135 -0.0279
 7479SOL    HW133899   2.525   1.841   4.027 -2.0437  0.6203 -2.2672
 7479SOL    HW233900   2.492   1.720   4.120  0.8045  0.0088 -0.7853
 7480SOL     OW33901   0.530   1.921   1.517  0.3434 -1.0010  0.1597
 7480SOL    HW133902   0.489   1.844   1.558 -0.4360  0.4856  2.2113
 7480SOL    HW233903   0.527   1.988   1.585 -2.2967 -2.2089  1.2909
 7481SOL     OW33904   1.090   4.025   6.803 -0.3141  0.5272  0.2096
 7481SOL    HW133905   1.133   4.077   6.734 -0.3305  0.1133 -0.1123
 7481SOL    HW233906   1.060   4.097   6.858 -2.0980  1.8119 -2.4446
 7482SOL     OW33907   1.694   2.792   8.807 -0.2738 -0.9560 -0.1531
 7482SOL    HW133908   1.691   2.708   8.853 -0.9225  0.2940  2.0618
 7482SOL    HW233909   1.604   2.798   8.775 -0.2922  2.5486  0.5515
 7483SOL     OW33910   4.348   3.650   4.229  0.3686 -0.1798  0.5138
 7483SOL    HW133911   4.403   3.587   4.182  1.2084  0.3761  0.7558
 7483SOL    HW233912   4.398   3.689   4.300  1.8308  2.3896 -1.9449
 7484SOL     OW33913   1.367   0.645   2.205  0.3380  0.0161 -0.6438
 7484SOL    HW133914   1.343   0.601   2.124 -3.3144 -1.2211  1.0771
 7484SOL    HW233915   1.308   0.720   2.196  1.0376  0.4346 -1.6816
 7485SOL     OW33916   2.851   0.962  10.420  0.0618  0.1747  0.0946
 7485SOL    HW133917   2.762   0.949  10.386  0.1826 -0.2538 -0.0596
 7485SOL    HW233918   2.834   0.996  10.508 -0.7303  0.8825 -0.3252
 7486SOL     OW33919   2.379   4.440  12.181  0.1220 -0.4362  0.4858
 7486SOL    HW133920   2.316   4.377  12.214  0.6324 -1.7743 -1.0679
 7486SOL    HW233921   2.318   4.486  12.123  0.5772 -1.0014 -0.4482
 7487SOL     OW33922   2.799   4.611   3.561  0.0402  0.1511  0.0353
 7487SOL    HW133923   2.759   4.557   3.493  0.7906  0.1216 -0.3829
 7487SOL    HW233924   2.724   4.653   3.603 -0.6963 -0.3186 -0.8132
 7488SOL     OW33925   1.268   3.731   4.687  0.5561  0.1441  0.4993
 7488SOL    HW133926   1.326   3.664   4.723  0.0178 -1.4558 -1.6301
 7488SOL    HW233927   1.332   3.792   4.650 -1.6506  1.0957 -1.8272
 7489SOL     OW33928   2.485   4.400  17.325 -0.4836 -0.2537 -1.3729
 7489SOL    HW133929   2.453   4.462  17.390  0.0944  0.5369 -1.8435
 7489SOL    HW233930   2.511   4.341  17.395  0.3368  1.5417 -0.1579
 7490SOL     OW33931   0.700   3.770  14.910  0.2415  0.1828 -0.1545
 7490SOL    HW133932   0.672   3.852  14.951  0.6387  0.8524 -1.1955
 7490SOL    HW233933   0.687   3.708  14.981  0.1714  1.2291  0.7475
 7491SOL     OW33934   2.361   1.620  15.386  0.1442  0.3127  0.3000
 7491SOL    HW133935   2.450   1.597  15.413 -0.1035 -1.5119 -0.4188
 7491SOL    HW233936   2.366   1.713  15.407  2.2158  0.7611 -2.1023
 7492SOL     OW33937   2.651   1.902   6.654  0.5283 -0.1181  0.8741
 7492SOL    HW133938   2.570   1.851   6.662  0.5195 -0.5468 -1.9329
 7492SOL    HW233939   2.630   1.947   6.572  0.5423 -0.6040  0.6039
 7493SOL     OW33940   3.857   2.364  12.276  0.4415  0.5008 -0.4054
 7493SOL    HW133941   3.912   2.437  12.248 -1.2008  2.1274  0.6605
 7493SOL    HW233942   3.896   2.353  12.363 -1.0786 -1.9638 -0.0324
 7494SOL     OW33943   0.749   1.126  16.753 -0.2885  0.6455  0.4280
 7494SOL    HW133944   0.780   1.213  16.779 -2.6065  1.4682  0.4887
 7494SOL    HW233945   0.828   1.076  16.773 -0.9151 -0.1850  0.8389
 7495SOL     OW33946   4.222   0.383  15.018  0.2464 -0.1082 -0.0994
 7495SOL    HW133947   4.192   0.438  14.946 -1.0595 -2.1678 -1.1375
 7495SOL    HW233948   4.259   0.448  15.077  0.9400  0.1098 -0.7741
 7496SOL     OW33949   2.452   0.863   2.228 -0.1875 -0.5302  0.0340
 7496SOL    HW133950   2.373   0.854   2.176 -0.6602  1.3756  0.3991
 7496SOL    HW233951   2.474   0.956   2.220 -0.8152 -0.1861  2.2872
 7497SOL     OW33952   4.133   0.327  12.441 -0.3904  0.2510 -0.4398
 7497SOL    HW133953   4.219   0.360  12.467  0.3369 -1.9048 -0.0412
 7497SOL    HW233954   4.154   0.237  12.416  1.8078  0.0983  1.8983
 7498SOL     OW33955   1.194   1.408  14.430 -0.1764 -0.0683 -0.0694
 7498SOL    HW133956   1.246   1.333  14.460  0.2733  1.4605  2.9749
 7498SOL    HW233957   1.107   1.370  14.417  0.7456 -3.1442  2.5969
 7499SOL     OW33958   4.655   2.678   8.966  0.5950  0.1691 -0.2598
 7499SOL    HW133959   4.588   2.611   8.953 -1.2027  2.2594 -1.7218
 7499SOL    HW233960   4.642   2.707   9.056  1.8343 -2.1797  0.6672
 7500SOL     OW33961   4.467   0.238   7.408 -0.5453  0.2720 -0.3155
 7500SOL    HW133962   4.439   0.268   7.494  0.9054  3.5049 -0.9627
 7500SOL    HW233963   4.558   0.210   7.420 -0.1898  1.3871 -0.4035
 7501SOL     OW33964   3.247   3.345   6.202  0.1263 -0.1564  0.2545
 7501SOL    HW133965   3.319   3.332   6.263 -0.2812 -0.4496  0.6734
 7501SOL    HW233966   3.270   3.402   6.129 -0.0415  0.0495  0.3622
 7502SOL     OW33967   0.795   2.877   5.204  0.5916  0.4365  0.2889
 7502SOL    HW133968   0.823   2.892   5.114 -3.1824  0.8450 -0.8030
 7502SOL    HW233969   0.735   2.951   5.213 -0.4884 -0.6114  1.8779
 7503SOL     OW33970   2.958   2.018   6.622  0.4527  0.0615 -0.3897
 7503SOL    HW133971   3.025   2.084   6.640 -0.4305  0.8827 -0.1064
 7503SOL    HW233972   2.899   2.028   6.697  1.4980  2.4334  0.1173
 7504SOL     OW33973   1.287   0.228   8.458  0.0123 -0.0537  0.4760
 7504SOL    HW133974   1.337   0.309   8.448  0.4957 -0.4725 -0.5872
 7504SOL    HW233975   1.222   0.241   8.526  0.4057  0.9337  0.6599
 7505SOL     OW33976   2.706   0.400   4.897 -0.9527  0.3556 -0.0953
 7505SOL    HW133977   2.624   0.376   4.853 -0.4878 -1.9870  0.3297
 7505SOL    HW233978   2.698   0.340   4.971 -0.4568  0.1524 -0.2020
 7506SOL     OW33979   0.037   0.344   4.534  0.4498 -0.0669 -0.2784
 7506SOL    HW133980   0.129   0.318   4.526  0.4568 -0.5990  1.4461
 7506SOL    HW233981   4.717   0.284   4.473 -1.9533 -1.9876  3.3789
 7507SOL     OW33982   4.536   1.572   0.362 -0.0599 -0.2281 -0.4095
 7507SOL    HW133983   4.459   1.554   0.308 -0.1327  0.6120 -0.5876
 7507SOL    HW233984   4.488   1.572   0.445 -1.0391 -0.6761 -0.9707
 7508SOL     OW33985   3.541   3.434  17.173 -0.0665  0.2574  0.5184
 7508SOL    HW133986   3.580   3.389  17.098 -1.1660 -1.4098  0.9260
 7508SOL    HW233987   3.591   3.515  17.173 -0.0504  0.2475 -0.2272
 7509SOL     OW33988   0.095   2.119   5.459 -0.1507 -0.1269  0.4653
 7509SOL    HW133989   0.045   2.153   5.534  0.1008  2.2625 -0.4526
 7509SOL    HW233990   0.164   2.185   5.448 -2.0577  1.7693 -0.2344
 7510SOL     OW33991   3.668   3.942   0.384 -0.4738 -0.2261  0.1854
 7510SOL    HW133992   3.625   3.999   0.320 -0.4694  1.3515  1.5914
 7510SOL    HW233993   3.684   3.855   0.347 -0.3695 -0.6741  1.2784
 7511SOL     OW33994   2.165   1.829   8.104  0.2582  0.2586 -0.0206
 7511SOL    HW133995   2.162   1.757   8.167  0.9493  1.2955  1.2041
 7511SOL    HW233996   2.095   1.887   8.134  2.1675  0.6538  3.6363
 7512SOL     OW33997   1.033   2.631   1.393  0.2084 -0.0448  0.3650
 7512SOL    HW133998   1.002   2.543   1.372  1.0210 -0.0401 -0.8375
 7512SOL    HW233999   1.058   2.623   1.485 -1.8797 -3.4376  0.6421
 7513SOL     OW34000   0.660   2.395  16.216 -0.2415 -0.0842  0.9532
 7513SOL    HW134001   0.691   2.373  16.304 -2.2438 -1.0668  1.3993
 7513SOL    HW234002   0.729   2.455  16.186 -1.2371  0.8449  0.5399
 7514SOL     OW34003   1.779   0.441   0.383 -0.0862  0.0480  0.2992
 7514SOL    HW134004   1.868   0.466   0.360  0.8347 -2.4236  1.2723
 7514SOL    HW234005   1.749   0.394   0.305  2.9362 -2.3506  0.5832
 7515SOL     OW34006   3.488   3.111   6.660  0.4606 -0.0378  0.4367
 7515SOL    HW134007   3.548   3.145   6.726  1.3832  2.1336 -1.5238
 7515SOL    HW234008   3.540   3.034   6.640 -1.0467 -1.3995  1.8193
 7516SOL     OW34009   1.823   3.645   5.867 -0.2569 -0.0657  0.2382
 7516SOL    HW134010   1.728   3.647   5.871 -0.3588  0.3487 -2.4120
 7516SOL    HW234011   1.844   3.558   5.834  0.4459 -0.2928  1.2710
 7517SOL     OW34012   0.821   4.410  17.673  0.6504 -0.1720  0.2693
 7517SOL    HW134013   0.880   4.353   0.022 -0.7549 -1.5248  0.3745
 7517SOL    HW234014   0.823   4.371  17.586  0.4188 -0.2955  0.3200
 7518SOL     OW34015   1.462   1.998   3.872  0.5793 -0.8927 -0.2660
 7518SOL    HW134016   1.377   1.959   3.849 -0.6285 -0.3580  3.3520
 7518SOL    HW234017   1.486   2.073   3.818 -0.6458  1.0311  1.8724
 7519SOL     OW34018   3.227   1.388   4.456  0.0286 -0.1818 -0.5540
 7519SOL    HW134019   3.168   1.392   4.531  1.5071 -1.4845  0.6932
 7519SOL    HW234020   3.207   1.471   4.413  0.0065 -0.4764 -1.1171
 7520SOL     OW34021   3.670   3.299   2.216 -0.2806  0.1382  0.1200
 7520SOL    HW134022   3.699   3.352   2.141 -0.5439 -0.2011 -0.2266
 7520SOL    HW234023   3.714   3.331   2.295  1.2585  1.9312 -1.4535
 7521SOL     OW34024   0.244   1.409   4.315 -0.0708  0.1923  0.5880
 7521SOL    HW134025   0.155   1.378   4.330  0.2136  0.4319  2.7507
 7521SOL    HW234026   0.291   1.349   4.374  0.7598  0.4767  0.2057
 7522SOL     OW34027   1.057   0.808   3.147  0.1824  0.0606  0.2578
 7522SOL    HW134028   1.043   0.881   3.087 -0.9523  0.8431  1.4920
 7522SOL    HW234029   1.144   0.783   3.115 -0.4260  0.7649 -1.9210
 7523SOL     OW34030   4.645   4.518   8.130  0.4471 -0.2885  0.0499
 7523SOL    HW134031   0.016   4.521   8.127  0.4826 -0.4190  0.9988
 7523SOL    HW234032   4.603   4.576   8.067  0.1017 -2.6758 -1.8836
 7524SOL     OW34033   0.091   4.144   4.174 -0.3227  0.6600  0.0316
 7524SOL    HW134034   0.138   4.212   4.126  0.3716  0.5408  0.5340
 7524SOL    HW234035   0.010   4.141   4.123 -0.7192 -2.2687  0.8191
 7525SOL     OW34036   4.506   1.256   5.622 -0.2094  0.1624 -0.0339
 7525SOL    HW134037   4.591   1.281   5.657 -0.2572  1.1498 -0.6339
 7525SOL    HW234038   4.536   1.188   5.562  0.7639  0.7332 -0.1866
 7526SOL     OW34039   0.151   3.178  16.060  0.2703 -0.1812 -0.2103
 7526SOL    HW134040   0.087   3.240  16.026  0.1626  0.6389  1.5288
 7526SOL    HW234041   0.143   3.181  16.155 -2.3585 -2.2846 -0.3546
 7527SOL     OW34042   1.031   0.148   8.233 -0.1368  0.0137 -0.0128
 7527SOL    HW134043   1.066   0.218   8.288  0.5395 -0.6105  0.3504
 7527SOL    HW234044   0.953   0.196   8.205 -0.0516  1.9315  3.0602
 7528SOL     OW34045   0.430   3.169   2.388  0.0530  0.1792  0.2364
 7528SOL    HW134046   0.513   3.213   2.408 -0.7621  2.7746 -2.1652
 7528SOL    HW234047   0.437   3.162   2.293  0.2644  2.6365  0.0600
 7529SOL     OW34048   3.238   0.774  10.250  0.1059  0.4886 -0.1018
 7529SOL    HW134049   3.198   0.801  10.167 -0.2218  0.1168 -0.0630
 7529SOL    HW234050   3.243   0.681  10.227 -0.2649  0.2649  0.7444
 7530SOL     OW34051   1.966   3.226  16.590 -0.1702  0.1922  0.0001
 7530SOL    HW134052   1.996   3.293  16.529  0.5264 -1.5670 -1.5707
 7530SOL    HW234053   2.050   3.209  16.633 -0.8266 -0.4313  1.0664
 7531SOL     OW34054   1.951   3.284  13.692 -0.6030  0.1962  0.2151
 7531SOL    HW134055   1.966   3.368  13.647 -0.1782 -1.2107 -2.2645
 7531SOL    HW234056   1.984   3.216  13.634 -0.0735 -0.0606  0.8307
 7532SOL     OW34057   4.592   2.242   6.248  0.2524  0.0997  0.2327
 7532SOL    HW134058   4.532   2.191   6.301  0.7397 -0.5213  0.1803
 7532SOL    HW234059   4.677   2.213   6.281 -0.4018 -0.1757  1.6727
 7533SOL     OW34060   0.000   3.239  17.467 -0.0357  0.6481  0.3572
 7533SOL    HW134061   4.687   3.298  17.401 -0.7187  0.2435  0.3901
 7533SOL    HW234062   4.720   3.152  17.429 -1.7140  1.1691 -0.6189
 7534SOL     OW34063   4.251   3.882   5.376  0.1833 -0.1990  0.5170
 7534SOL    HW134064   4.226   3.813   5.438 -0.4728 -0.8560 -0.4701
 7534SOL    HW234065   4.241   3.959   5.431 -1.1651  0.6509 -0.9297
 7535SOL     OW34066   3.058   0.629   0.681  0.2290  0.0254  0.3694
 7535SOL    HW134067   3.146   0.625   0.718  0.6656  2.1715 -0.4658
 7535SOL    HW234068   3.023   0.540   0.679  2.6765 -0.9335  0.1458
 7536SOL     OW34069   2.470   1.522   6.503  0.2491 -0.0678  0.1670
 7536SOL    HW134070   2.531   1.596   6.511 -1.4953  1.4206 -0.2268
 7536SOL    HW234071   2.439   1.531   6.412  1.8239 -1.5407 -0.4951
 7537SOL     OW34072   2.017   1.701  15.559 -0.9168  0.0440  0.5088
 7537SOL    HW134073   2.069   1.765  15.607  0.7445 -0.1158 -1.0987
 7537SOL    HW234074   1.928   1.713  15.592 -0.7345 -1.5441  1.5822
 7538SOL     OW34075   0.443   0.041   0.578 -0.1370 -0.4883 -0.3814
 7538SOL    HW134076   0.518   4.717   0.544 -0.9869  0.1814 -3.2086
 7538SOL    HW234077   0.363   0.022   0.528 -0.8568  0.0474  0.5751
 7539SOL     OW34078   4.414   1.444  17.369  0.5786  0.4936 -0.3418
 7539SOL    HW134079   4.415   1.442  17.464  0.0136 -0.1430 -0.3517
 7539SOL    HW234080   4.324   1.414  17.359  0.8175 -0.3650  0.0258
 7540SOL     OW34081   4.652   3.680   3.998  0.0906  0.6524 -0.5277
 7540SOL    HW134082   4.568   3.703   3.957 -1.0437 -0.0519  1.3988
 7540SOL    HW234083   4.630   3.695   4.090  2.3839 -0.9553  0.2973
 7541SOL     OW34084   2.345   3.843  12.389 -0.0920 -0.4491  0.3536
 7541SOL    HW134085   2.264   3.873  12.349 -0.2967 -2.3039 -0.5862
 7541SOL    HW234086   2.408   3.872  12.323 -0.2403 -0.5525  0.1684
 7542SOL     OW34087   0.114   0.632   5.144 -0.1598  0.2454  0.1248
 7542SOL    HW134088   0.196   0.588   5.165  0.3935  1.3152  0.1899
 7542SOL    HW234089   0.127   0.655   5.052 -1.5096  1.2800  0.1853
 7543SOL     OW34090   1.912   2.401   4.553  0.1366 -0.0470  0.3167
 7543SOL    HW134091   1.829   2.445   4.569  0.8881  0.6849  2.3008
 7543SOL    HW234092   1.889   2.327   4.497 -0.6761 -1.6165  2.7327
 7544SOL     OW34093   4.399   0.474   2.810 -0.0747  0.0552  0.0764
 7544SOL    HW134094   4.324   0.450   2.756  0.6012  0.1538 -0.8981
 7544SOL    HW234095   4.478   0.456   2.760  1.1995 -0.4531  2.2533
 7545SOL     OW34096   0.697   0.755   2.933 -0.1881 -0.2352  0.1763
 7545SOL    HW134097   0.633   0.686   2.949  0.3480 -0.9885 -0.9295
 7545SOL    HW234098   0.636   0.828   2.935  0.0671 -0.0702  1.9711
 7546SOL     OW34099   4.201   3.595   0.041  0.0762 -0.3862 -0.0861
 7546SOL    HW134100   4.119   3.565   0.003  0.2142 -3.4744  2.0882
 7546SOL    HW234101   4.256   3.520   0.022 -0.7983 -0.5056 -2.1596
 7547SOL     OW34102   2.883   2.071   2.170  0.4451  0.2793 -0.0608
 7547SOL    HW134103   2.958   2.044   2.223  1.7132  2.0832 -0.9318
 7547SOL    HW234104   2.858   1.985   2.136 -1.0696  1.1849 -1.2612
 7548SOL     OW34105   3.229   4.650  17.086  0.2459 -0.1621 -0.4011
 7548SOL    HW134106   3.185   4.597  17.019 -0.4578  1.1873 -1.0135
 7548SOL    HW234107   3.260   4.580  17.142  0.9019 -0.0288 -0.5992
 7549SOL     OW34108   1.722   3.988   8.265  0.3637 -0.1678  0.3215
 7549SOL    HW134109   1.752   4.071   8.302 -0.9361  0.0799  0.8017
 7549SOL    HW234110   1.791   3.925   8.286  0.0667 -0.4340  0.5032
 7550SOL     OW34111   4.625   4.474   8.547 -0.2267  0.2071 -0.3582
 7550SOL    HW134112   4.596   4.405   8.487  0.2262  0.7087 -1.1490
 7550SOL    HW234113   4.718   4.485   8.529 -0.2169  0.4451 -0.1641
 7551SOL     OW34114   3.914   0.333   3.817 -0.4077  0.1500 -0.6571
 7551SOL    HW134115   3.928   0.403   3.753  0.1692 -0.3618 -1.0982
 7551SOL    HW234116   3.875   0.267   3.760  1.4948 -0.5092 -1.2263
 7552SOL     OW34117   0.654   0.690  15.215  0.2608 -0.2491  0.1189
 7552SOL    HW134118   0.609   0.749  15.276 -1.2531 -1.0683 -0.1981
 7552SOL    HW234119   0.739   0.734  15.209  0.3735 -0.4121  0.5037
 7553SOL     OW34120   1.966   0.315  16.116  0.5602  0.4738  0.7569
 7553SOL    HW134121   2.008   0.377  16.057 -2.4276 -0.2492 -2.1495
 7553SOL    HW234122   1.876   0.312  16.085  1.4202 -2.2471 -1.4301
 7554SOL     OW34123   1.634   1.330  14.520  0.7426  0.1394 -0.2821
 7554SOL    HW134124   1.719   1.335  14.476  0.2043 -2.8605 -1.6989
 7554SOL    HW234125   1.579   1.362  14.448  0.1838 -1.7708 -0.7133
 7555SOL     OW34126   3.173   0.432  12.627  0.1264  0.0956 -0.3043
 7555SOL    HW134127   3.262   0.397  12.626 -0.1442 -0.5072 -2.4692
 7555SOL    HW234128   3.139   0.411  12.540 -2.0595  1.6230  0.1735
 7556SOL     OW34129   2.183   1.590   2.219 -0.1690  0.5501  0.9271
 7556SOL    HW134130   2.179   1.650   2.294 -2.0051  0.3555  0.9910
 7556SOL    HW234131   2.211   1.644   2.146  0.3554 -0.0124  0.7058
 7557SOL     OW34132   3.551   1.755   5.256  0.5901  0.3126  0.1042
 7557SOL    HW134133   3.590   1.744   5.169  0.7089  1.0651  0.0626
 7557SOL    HW234134   3.625   1.790   5.304  0.2069  0.1239  0.8293
 7558SOL     OW34135   2.591   3.198   7.168 -0.2979 -0.0764  0.6973
 7558SOL    HW134136   2.521   3.134   7.183 -0.6270  0.6515  2.2562
 7558SOL    HW234137   2.566   3.268   7.228 -1.2090  0.3178 -0.1322
 7559SOL     OW34138   3.768   1.597   5.153  0.1824  0.1111 -0.0744
 7559SOL    HW134139   3.847   1.636   5.115  1.1702 -0.8989  0.9171
 7559SOL    HW234140   3.717   1.569   5.077  2.1212  0.2227 -1.4267
 7560SOL     OW34141   3.279   3.546  10.646  0.3397 -0.1166  0.0601
 7560SOL    HW134142   3.288   3.610  10.576  1.7738 -0.6242 -0.2095
 7560SOL    HW234143   3.372   3.527  10.657  0.2545  0.2949  1.5023
 7561SOL     OW34144   3.891   1.441  11.106  0.1756 -0.4762 -0.1204
 7561SOL    HW134145   3.949   1.511  11.077  1.0875 -0.5333  1.5914
 7561SOL    HW234146   3.946   1.365  11.085  0.4911 -0.3101  0.1153
 7562SOL     OW34147   3.350   1.512   3.792  0.6511  0.3405  0.4095
 7562SOL    HW134148   3.391   1.427   3.808  0.3822 -0.0284 -0.8639
 7562SOL    HW234149   3.263   1.484   3.822  0.8610 -0.4629  0.2796
 7563SOL     OW34150   3.847   4.364   5.481 -0.6788 -0.1575  0.8616
 7563SOL    HW134151   3.914   4.315   5.434 -1.1436 -0.7990  0.8579
 7563SOL    HW234152   3.862   4.330   5.570  1.4227 -0.2865  0.4556
 7564SOL     OW34153   3.451   2.146   4.183 -0.5085  0.2656 -0.0477
 7564SOL    HW134154   3.462   2.092   4.262  1.8575  1.3318  0.3560
 7564SOL    HW234155   3.512   2.100   4.126 -2.3840 -0.5558 -1.3689
 7565SOL     OW34156   1.507   1.403  15.477  0.0671  0.1733 -0.0551
 7565SOL    HW134157   1.545   1.357  15.402  1.0648 -0.7673  1.0288
 7565SOL    HW234158   1.557   1.360  15.547  1.4611  1.2211 -0.4115
 7566SOL     OW34159   2.435   1.875  15.448 -0.5574  0.3770 -0.3632
 7566SOL    HW134160   2.496   1.949  15.442  0.3974 -0.4400 -0.7388
 7566SOL    HW234161   2.380   1.892  15.372 -0.0432  0.6585 -0.6673
 7567SOL     OW34162   4.462   2.115   7.471 -0.6183  0.1075 -0.2418
 7567SOL    HW134163   4.407   2.117   7.393 -0.1424  1.9082 -0.5522
 7567SOL    HW234164   4.532   2.175   7.443  0.6212 -0.4881  1.5419
 7568SOL     OW34165   2.681   0.608   2.789  0.2202  0.1483 -0.2988
 7568SOL    HW134166   2.607   0.601   2.849  1.3562  2.6623  1.3558
 7568SOL    HW234167   2.754   0.614   2.851 -0.6438  0.6042  0.6651
 7569SOL     OW34168   3.692   0.212   6.021  0.3397  0.4253 -0.1694
 7569SOL    HW134169   3.777   0.245   6.049  0.9985 -0.0285 -1.6381
 7569SOL    HW234170   3.663   0.292   5.978 -0.7726 -0.0901 -0.3936
 7570SOL     OW34171   3.306   2.830   4.232 -0.1995  0.6716 -0.2834
 7570SOL    HW134172   3.382   2.850   4.287  0.1551  0.6229 -0.7618
 7570SOL    HW234173   3.252   2.785   4.297  0.0825  0.8388  0.0697
 7571SOL     OW34174   1.102   4.291  10.457 -0.4454 -0.3244 -0.1392
 7571SOL    HW134175   1.095   4.274  10.551 -0.2134 -2.4181 -0.5048
 7571SOL    HW234176   1.194   4.317  10.451 -0.5531  0.5381  1.9850
 7572SOL     OW34177   2.657   4.016   7.824  0.4581 -0.0701 -0.5194
 7572SOL    HW134178   2.636   3.944   7.765 -0.5674 -1.8144  1.9768
 7572SOL    HW234179   2.576   4.041   7.869  0.3531  0.7397 -1.1665
 7573SOL     OW34180   1.464   3.646   6.278  0.2094  0.7494 -0.1257
 7573SOL    HW134181   1.445   3.670   6.369 -0.2281  1.2913 -0.3585
 7573SOL    HW234182   1.422   3.714   6.225  2.8072  1.6810 -0.9882
 7574SOL     OW34183   0.242   1.935  15.685 -0.3256  0.5300 -0.1597
 7574SOL    HW134184   0.160   1.982  15.703 -0.6606 -0.1314  0.0345
 7574SOL    HW234185   0.221   1.846  15.714 -1.6630  1.0913  0.5790
 7575SOL     OW34186   2.073   0.037   5.718  0.0289 -0.0338 -0.4970
 7575SOL    HW134187   2.087   4.672   5.750 -1.6167 -0.0467  0.1617
 7575SOL    HW234188   2.161   0.056   5.685 -0.3655 -0.4643 -1.8044
 7576SOL     OW34189   0.067   2.558   4.394 -0.4996 -0.3474 -0.0624
 7576SOL    HW134190   0.022   2.632   4.434  0.0212 -0.9666  1.6717
 7576SOL    HW234191   4.717   2.506   4.363 -0.8281  0.3618 -0.4779
 7577SOL     OW34192   3.219   0.792   1.423  0.0077  0.6431 -0.2008
 7577SOL    HW134193   3.130   0.779   1.454  1.1737 -2.9341  1.6065
 7577SOL    HW234194   3.196   0.837   1.342  1.7901  1.3247 -0.3448
 7578SOL     OW34195   3.973   1.594   3.645 -0.4427 -0.0431  0.3179
 7578SOL    HW134196   3.965   1.591   3.741  1.4117  0.0117  0.4849
 7578SOL    HW234197   3.937   1.512   3.613  0.4176 -0.1442 -0.3886
 7579SOL     OW34198   1.907   3.981   8.846  0.0141  0.3308  0.8653
 7579SOL    HW134199   1.985   3.930   8.824 -0.0326  0.8467 -0.5214
 7579SOL    HW234200   1.856   3.913   8.891  0.5438 -0.4639  0.2595
 7580SOL     OW34201   2.841   4.147   5.530 -0.4647  0.2127  1.1563
 7580SOL    HW134202   2.789   4.084   5.580 -0.2752 -1.2994 -0.5478
 7580SOL    HW234203   2.774   4.195   5.482 -1.1458 -0.8892  1.0167
 7581SOL     OW34204   1.267   1.091   4.180  0.2955 -0.1019  0.3552
 7581SOL    HW134205   1.318   1.133   4.111  1.1730 -2.1746 -0.2443
 7581SOL    HW234206   1.257   1.176   4.224  1.1152 -0.2742  0.8767
 7582SOL     OW34207   1.876   3.519   1.016 -0.0794  0.2660 -0.1970
 7582SOL    HW134208   1.818   3.588   0.983  0.3322  0.0312 -1.3944
 7582SOL    HW234209   1.876   3.544   1.109 -2.6012 -1.8877  0.3749
 7583SOL     OW34210   3.273   4.707   1.943 -0.0273 -0.1398 -0.1882
 7583SOL    HW134211   3.242   0.060   1.990  0.4984  0.5884 -1.0591
 7583SOL    HW234212   3.357   0.019   1.918 -0.6054 -0.0554 -1.9808
 7584SOL     OW34213   4.001   0.820  10.102  0.2284 -0.0168 -0.4047
 7584SOL    HW134214   3.983   0.765  10.026 -0.9549 -0.4976  0.2321
 7584SOL    HW234215   4.087   0.853  10.075 -0.1014  0.5333 -0.7994
 7585SOL     OW34216   0.304   0.992   7.348  0.0868  0.1007  0.0731
 7585SOL    HW134217   0.225   1.032   7.384  0.1688 -0.3994  0.8009
 7585SOL    HW234218   0.276   0.905   7.321  0.0001  0.3117 -0.5130
 7586SOL     OW34219   2.871   4.007   6.087 -0.5005  0.0342  0.2291
 7586SOL    HW134220   2.792   4.040   6.129  0.6550  1.3016  1.4175
 7586SOL    HW234221   2.857   3.913   6.097 -0.6956  0.2954  2.5108
 7587SOL     OW34222   2.414   2.243   5.874  0.3696  1.1297  0.3309
 7587SOL    HW134223   2.451   2.156   5.885 -0.7526  0.3096 -2.3454
 7587SOL    HW234224   2.443   2.291   5.951 -0.0790 -0.7677  1.6756
 7588SOL     OW34225   3.153   0.116   7.085  0.2208 -0.2002 -0.1170
 7588SOL    HW134226   3.080   0.122   7.147 -0.7340 -2.3785 -1.0393
 7588SOL    HW234227   3.146   0.021   7.074  2.5830 -0.0102 -3.0448
 7589SOL     OW34228   0.426   0.722   2.041  0.2126  0.2372 -0.2813
 7589SOL    HW134229   0.466   0.637   2.020  2.7434  0.7131  2.5884
 7589SOL    HW234230   0.507   0.773   2.043 -1.8116  3.4570 -1.9180
 7590SOL     OW34231   2.980   2.555   7.200 -0.0553  0.6577  0.1939
 7590SOL    HW134232   3.041   2.511   7.141 -2.0449 -1.7482 -0.0313
 7590SOL    HW234233   2.980   2.639   7.153 -2.1516  1.0629  0.9206
 7591SOL     OW34234   1.191   1.432   4.832 -0.2988 -0.2981  0.2514
 7591SOL    HW134235   1.166   1.390   4.750  0.3621  2.1697 -1.2103
 7591SOL    HW234236   1.260   1.373   4.863  1.6993  1.8296 -0.1621
 7592SOL     OW34237   1.451   3.276  16.735  0.3106  1.2398 -0.0286
 7592SOL    HW134238   1.544   3.253  16.736 -0.0909 -0.4265 -1.2660
 7592SOL    HW234239   1.442   3.306  16.645  1.2603 -1.1506 -0.9450
 7593SOL     OW34240   2.787   0.377   6.194  0.3390  0.7120  0.1642
 7593SOL    HW134241   2.759   0.373   6.102  5.0252  2.1287 -1.3064
 7593SOL    HW234242   2.702   0.361   6.236  0.6871  1.0409  1.0042
 7594SOL     OW34243   1.871   0.765   3.706 -0.0053  0.0205 -0.0363
 7594SOL    HW134244   1.954   0.718   3.698 -0.5511 -0.8323 -0.6562
 7594SOL    HW234245   1.833   0.766   3.618 -1.5601  0.5065  0.6413
 7595SOL     OW34246   1.272   3.158   7.665  0.2426 -0.7707 -0.4988
 7595SOL    HW134247   1.271   3.251   7.642 -0.9869 -0.0559  2.4248
 7595SOL    HW234248   1.251   3.114   7.583 -0.2034 -0.0512 -0.7739
 7596SOL     OW34249   3.931   3.023   8.166 -0.4992  0.1623 -0.3340
 7596SOL    HW134250   3.975   2.950   8.210  0.8006  2.1994  1.7902
 7596SOL    HW234251   3.900   3.068   8.245  2.3186  1.0985  0.2313
 7597SOL     OW34252   1.205   1.528   6.974  0.0888  0.4939 -0.2147
 7597SOL    HW134253   1.119   1.504   6.940 -0.0124  0.9662 -0.3044
 7597SOL    HW234254   1.192   1.607   7.028  1.0224  0.6785 -0.2699
 7598SOL     OW34255   4.308   1.540   9.388  0.7762 -0.2463  0.2395
 7598SOL    HW134256   4.334   1.632   9.379 -0.9384  0.3979  1.7596
 7598SOL    HW234257   4.242   1.536   9.458  0.2896 -1.5166 -0.2948
 7599SOL     OW34258   1.920   3.201   9.141 -0.1644 -0.4160 -0.6023
 7599SOL    HW134259   1.889   3.279   9.096  0.8299  0.5229  0.3467
 7599SOL    HW234260   1.879   3.223   9.224  2.6086 -0.5205  0.7686
 7600SOL     OW34261   3.984   1.184  17.101 -0.2289 -0.0967  0.5819
 7600SOL    HW134262   3.997   1.246  17.173  1.7111  1.4708 -1.1238
 7600SOL    HW234263   3.948   1.108  17.147 -1.2022 -0.1082 -0.2001
 7601SOL     OW34264   2.969   0.217   7.266  0.3946 -0.1761  0.2539
 7601SOL    HW134265   2.908   0.216   7.340 -1.7316  0.9803 -1.4854
 7601SOL    HW234266   2.944   0.298   7.221  4.1927 -0.5942 -2.6221
 7602SOL     OW34267   0.669   0.559  10.274  0.1130  0.4542 -0.2574
 7602SOL    HW134268   0.736   0.556  10.342 -0.2694 -0.5298  0.0735
 7602SOL    HW234269   0.714   0.488  10.228 -0.4700  0.1689 -0.3919
 7603SOL     OW34270   4.068   3.697   2.918  0.6178 -0.8372 -0.5697
 7603SOL    HW134271   4.126   3.624   2.895 -0.1843 -2.5189  2.7360
 7603SOL    HW234272   4.003   3.697   2.848  1.4473  0.7917 -1.3361
 7604SOL     OW34273   1.127   2.666   2.177 -0.1998 -0.8722  0.0008
 7604SOL    HW134274   1.205   2.634   2.132  0.4451 -1.1984  1.3284
 7604SOL    HW234275   1.085   2.583   2.200 -1.7622 -0.1721 -0.3649
 7605SOL     OW34276   3.078   4.235   9.002 -0.0190 -0.3423 -0.6323
 7605SOL    HW134277   3.036   4.321   8.997 -1.2846 -1.1168 -3.0101
 7605SOL    HW234278   3.010   4.174   8.974  0.4538 -1.5490  0.8143
 7606SOL     OW34279   1.598   1.146   4.245  0.3093  0.4434  0.2462
 7606SOL    HW134280   1.544   1.175   4.172 -1.1885  0.0121  1.1722
 7606SOL    HW234281   1.674   1.112   4.197  0.2635 -0.8402  1.0778
 7607SOL     OW34282   1.338   1.865   7.479  0.0826 -0.5152  0.0625
 7607SOL    HW134283   1.265   1.812   7.447  0.3626 -1.7227  1.4166
 7607SOL    HW234284   1.337   1.823   7.565  1.6817  1.8173  1.2367
 7608SOL     OW34285   4.095   4.538  15.154 -0.4611 -0.5948  0.2940
 7608SOL    HW134286   4.163   4.496  15.101 -0.0169  0.1094  0.3096
 7608SOL    HW234287   4.018   4.487  15.129 -0.0998 -1.3969  0.8226
 7609SOL     OW34288   0.363   3.895   1.417 -0.4344 -0.1065  0.2873
 7609SOL    HW134289   0.371   3.836   1.342 -2.4781  1.3615 -1.0730
 7609SOL    HW234290   0.297   3.962   1.400 -0.6752 -0.6207 -0.8164
 7610SOL     OW34291   1.069   0.587   5.289 -0.3469 -0.1576  0.3705
 7610SOL    HW134292   1.088   0.619   5.201 -0.9751 -4.7812 -1.4401
 7610SOL    HW234293   1.150   0.613   5.332  0.1904  2.2182 -2.0543
 7611SOL     OW34294   3.445   4.350   9.571 -0.0029 -0.3434  0.6286
 7611SOL    HW134295   3.378   4.408   9.608 -1.4351  0.9237 -3.9492
 7611SOL    HW234296   3.437   4.289   9.644 -2.4046  1.7117  2.0811
 7612SOL     OW34297   2.380   3.032   3.246  0.0568 -0.0359  0.3059
 7612SOL    HW134298   2.400   3.076   3.328  1.2629  2.2287 -1.2148
 7612SOL    HW234299   2.434   2.953   3.247  0.2462  0.0845 -0.3248
 7613SOL     OW34300   1.072   3.951   3.318  0.0920  0.8540  0.0550
 7613SOL    HW134301   1.024   3.994   3.247 -2.0999 -0.3058  0.8259
 7613SOL    HW234302   1.134   4.021   3.338  1.3009 -1.2279  3.4794
 7614SOL     OW34303   1.253   0.211  14.810 -0.0550  0.0132 -0.1543
 7614SOL    HW134304   1.242   0.284  14.749  0.8580  1.2245  1.1476
 7614SOL    HW234305   1.219   0.252  14.890 -0.7810  1.5746 -1.2752
 7615SOL     OW34306   3.089   1.073   5.215  0.9183 -0.5070 -0.0720
 7615SOL    HW134307   3.035   1.015   5.270 -0.2914  0.7257  0.0385
 7615SOL    HW234308   3.083   1.154   5.266 -1.1749 -1.0581  0.5735
 7616SOL     OW34309   0.249   4.210   2.367 -0.4797 -0.0433  0.0303
 7616SOL    HW134310   0.198   4.195   2.447 -1.3330  1.0262 -0.3070
 7616SOL    HW234311   0.279   4.300   2.382 -0.2230 -0.1838  0.3575
 7617SOL     OW34312   3.083   4.498   2.179  0.2563 -0.0171  0.0955
 7617SOL    HW134313   3.063   4.582   2.220 -2.4970 -0.3221 -0.5879
 7617SOL    HW234314   3.093   4.439   2.253 -2.2617 -1.8304 -1.0004
 7618SOL     OW34315   0.620   3.680   7.675 -0.4736 -0.5557  0.0749
 7618SOL    HW134316   0.660   3.739   7.611 -2.3517  0.9166  0.2600
 7618SOL    HW234317   0.656   3.724   7.752  0.0933 -1.8824  0.5501
 7619SOL     OW34318   1.111   0.080   5.800 -0.3664 -0.3805  0.9408
 7619SOL    HW134319   1.056   0.017   5.848 -0.3571 -1.9917 -1.1324
 7619SOL    HW234320   1.180   0.025   5.763 -0.9589 -1.1215  0.9345
 7620SOL     OW34321   0.162   2.685   1.591  0.6808 -0.1181  0.0187
 7620SOL    HW134322   0.255   2.697   1.613  0.2253  2.7446  0.4315
 7620SOL    HW234323   0.112   2.702   1.671  0.0565 -0.1263 -0.3761
 7621SOL     OW34324   2.727   0.839  14.304 -0.0333 -0.3822 -0.2881
 7621SOL    HW134325   2.690   0.785  14.375 -0.5337  0.1809 -0.1246
 7621SOL    HW234326   2.723   0.778  14.230 -0.6397 -3.0757  1.9268
 7622SOL     OW34327   3.685   1.571   5.662  0.1384  0.1502  0.3821
 7622SOL    HW134328   3.641   1.605   5.740  0.4733  0.9488  0.2220
 7622SOL    HW234329   3.616   1.521   5.618 -0.0220  1.4381 -0.8424
 7623SOL     OW34330   2.419   4.621  12.856 -0.2492 -0.4687 -0.3717
 7623SOL    HW134331   2.347   4.600  12.797  0.9539 -0.7156 -1.7488
 7623SOL    HW234332   2.481   4.645  12.787 -0.5614 -0.9147 -0.8113
 7624SOL     OW34333   4.259   3.925   3.249 -0.0150 -0.1217 -0.3951
 7624SOL    HW134334   4.312   3.945   3.172 -2.0632  1.4981 -1.4170
 7624SOL    HW234335   4.182   3.980   3.232  0.8122  1.5953  1.4317
 7625SOL     OW34336   3.830   4.375  17.087  0.1965 -0.1323  0.4403
 7625SOL    HW134337   3.812   4.468  17.070  1.4195 -0.3830 -2.2477
 7625SOL    HW234338   3.885   4.386  17.164  0.9543 -3.2784  0.3079
 7626SOL     OW34339   4.387   3.435   4.032 -0.1131 -0.2172 -0.5772
 7626SOL    HW134340   4.296   3.458   4.050 -0.1672  0.4426 -1.7556
 7626SOL    HW234341   4.373   3.343   4.010  0.8844 -0.5155  0.0397
 7627SOL     OW34342   3.515   2.051   2.290 -0.4060 -0.1453  0.0491
 7627SOL    HW134343   3.507   1.964   2.329 -0.5787 -0.2644 -0.2543
 7627SOL    HW234344   3.506   2.105   2.369  2.2364 -0.0863  0.3078
 7628SOL     OW34345   1.127   1.183   8.024 -0.1386  0.3530 -0.0041
 7628SOL    HW134346   1.191   1.117   8.052 -0.4667 -0.4326 -1.1222
 7628SOL    HW234347   1.123   1.251   8.091  0.0754  0.1027  0.2635
 7629SOL     OW34348   0.243   0.212   7.462 -0.4260 -0.1948  0.3570
 7629SOL    HW134349   0.302   0.241   7.532 -1.4577  2.7801 -0.0032
 7629SOL    HW234350   0.203   0.135   7.503 -0.8219  0.2191  0.7387
 7630SOL     OW34351   0.240   0.779   2.491 -0.1795 -0.2955  0.5864
 7630SOL    HW134352   0.163   0.835   2.479  1.1024  1.9066  2.4818
 7630SOL    HW234353   0.201   0.693   2.476  2.9424 -1.2003 -2.1435
 7631SOL     OW34354   2.460   3.899   7.323 -0.2692 -0.1022  0.1295
 7631SOL    HW134355   2.429   3.958   7.255  0.7895  0.2583 -0.0483
 7631SOL    HW234356   2.554   3.916   7.316  0.0800 -1.7359  0.9212
 7632SOL     OW34357   1.649   1.718  10.410 -0.0160 -0.1494 -0.9782
 7632SOL    HW134358   1.702   1.798  10.401  0.1734 -0.0208  1.1704
 7632SOL    HW234359   1.712   1.646  10.415  0.2304  0.1152 -0.2672
 7633SOL     OW34360   2.228   0.711  10.075  0.1301  0.1186  0.6715
 7633SOL    HW134361   2.240   0.639  10.013 -0.0175  0.4334  0.2843
 7633SOL    HW234362   2.304   0.696  10.131  0.0888  0.2261  0.7562
 7634SOL     OW34363   3.233   0.167   3.116  0.5854 -0.6640 -0.1896
 7634SOL    HW134364   3.156   0.151   3.061 -0.5927  1.9792  0.7324
 7634SOL    HW234365   3.199   0.173   3.206 -2.4602 -0.5191 -1.3517
 7635SOL     OW34366   3.741   0.613  15.728 -0.1149  0.6998  0.5764
 7635SOL    HW134367   3.755   0.538  15.786  2.1498  0.7276  0.0748
 7635SOL    HW234368   3.661   0.595  15.679 -1.0949  1.4557  1.9329
 7636SOL     OW34369   3.596   2.253   4.638 -0.6671  0.8563  0.6290
 7636SOL    HW134370   3.526   2.298   4.684 -0.7812  1.7643 -0.4381
 7636SOL    HW234371   3.635   2.319   4.581 -0.9205  0.9146  0.5239
 7637SOL     OW34372   3.908   1.058   5.403 -0.5124 -0.0465 -0.3951
 7637SOL    HW134373   3.983   1.037   5.347  0.2218  1.3556  0.0730
 7637SOL    HW234374   3.941   1.142   5.434  1.6860 -0.1417 -2.4468
 7638SOL     OW34375   0.957   0.825   9.933  0.0519  0.5091 -0.0612
 7638SOL    HW134376   0.870   0.830   9.894 -0.4868 -0.6795  1.0075
 7638SOL    HW234377   1.015   0.811   9.858 -1.4024 -1.4122 -0.8430
 7639SOL     OW34378   3.673   0.590  13.241 -0.4169  0.0043  0.7946
 7639SOL    HW134379   3.666   0.680  13.211 -0.8821 -1.6295 -3.9755
 7639SOL    HW234380   3.735   0.551  13.179 -0.9862 -0.6836  0.6529
 7640SOL     OW34381   3.705   0.462   1.771  0.4779 -0.4340 -0.3017
 7640SOL    HW134382   3.676   0.553   1.775  0.8171 -0.4047  1.3477
 7640SOL    HW234383   3.678   0.434   1.683 -0.2288 -0.6511 -0.0161
 7641SOL     OW34384   2.366   4.017   3.789 -0.4693 -0.3525  0.5121
 7641SOL    HW134385   2.394   3.955   3.857  1.0682 -1.1201 -0.8246
 7641SOL    HW234386   2.369   3.959   3.713  0.0990  1.8442 -1.1383
 7642SOL     OW34387   1.727   3.839   5.628  0.2264  0.4309  0.1128
 7642SOL    HW134388   1.733   3.882   5.714  1.0072 -1.2949  0.9351
 7642SOL    HW234389   1.737   3.748   5.656 -0.8976  0.2188 -0.1704
 7643SOL     OW34390   4.627   2.960   2.349 -0.3586  0.0677 -0.5384
 7643SOL    HW134391   4.657   3.045   2.318  1.8143 -0.9312 -1.1479
 7643SOL    HW234392   4.532   2.975   2.344 -0.6676 -1.5832  0.2880
 7644SOL     OW34393   0.616   3.652   9.062  0.3114 -0.6499 -0.3941
 7644SOL    HW134394   0.682   3.720   9.045 -0.7183  0.2934 -0.5857
 7644SOL    HW234395   0.666   3.576   9.092  0.5686  0.4226  1.8910
 7645SOL     OW34396   2.494   4.650  16.724 -0.1055  0.1387  0.1290
 7645SOL    HW134397   2.535   4.697  16.797  0.2985 -2.7300  1.7848
 7645SOL    HW234398   2.433   4.717  16.693  0.2061  0.2184 -0.3152
 7646SOL     OW34399   2.067   2.827   5.249  0.7255  0.1815  0.6988
 7646SOL    HW134400   2.096   2.914   5.275 -1.4062  1.2308 -0.4359
 7646SOL    HW234401   2.052   2.857   5.160  0.6997  3.6745  1.8917
 7647SOL     OW34402   0.893   0.342  16.138 -0.1604 -0.8141 -0.5501
 7647SOL    HW134403   0.927   0.416  16.088 -0.9164  0.7782  1.2853
 7647SOL    HW234404   0.942   0.343  16.221 -0.5285 -0.4953 -0.3331
 7648SOL     OW34405   3.450   2.663   6.172  0.0977  0.8678 -0.1111
 7648SOL    HW134406   3.498   2.627   6.247  0.4657 -0.3310 -0.9350
 7648SOL    HW234407   3.514   2.643   6.105  0.3017 -0.5887  0.5200
 7649SOL     OW34408   4.265   3.818   7.731 -0.1634  0.6914  0.0449
 7649SOL    HW134409   4.224   3.812   7.645  0.3606 -0.4835 -0.1178
 7649SOL    HW234410   4.199   3.800   7.798  0.0655  2.7369  0.8294
 7650SOL     OW34411   4.035   2.469   5.849  0.6422 -0.6041 -0.3144
 7650SOL    HW134412   3.982   2.548   5.863  0.0555 -0.8931 -0.9546
 7650SOL    HW234413   4.112   2.496   5.899  0.2358  0.8830 -0.4823
 7651SOL     OW34414   2.790   4.527   2.078 -0.4832 -0.1311  0.6284
 7651SOL    HW134415   2.824   4.604   2.031 -0.7324  1.0841  2.4560
 7651SOL    HW234416   2.862   4.465   2.089  0.7159  1.4151  1.6077
 7652SOL     OW34417   2.413   3.875  12.711  0.0610  0.4971 -0.6518
 7652SOL    HW134418   2.353   3.842  12.778  1.3274  1.3100  0.9018
 7652SOL    HW234419   2.457   3.948  12.755 -1.6663  0.9359  0.3856
 7653SOL     OW34420   0.489   4.138   8.604 -0.0445  0.6466 -0.2113
 7653SOL    HW134421   0.529   4.101   8.683  0.4754 -0.6829 -1.0971
 7653SOL    HW234422   0.482   4.229   8.634 -0.3231  0.3815  0.5328
 7654SOL     OW34423   4.013   3.808  16.109  0.0384  0.4512  0.6756
 7654SOL    HW134424   3.921   3.792  16.092  0.0578  0.2702  0.7422
 7654SOL    HW234425   4.037   3.789  16.019  1.1699 -0.7380  1.2253
 7655SOL     OW34426   3.856   2.523   1.983  0.4050  0.4160  0.7322
 7655SOL    HW134427   3.771   2.548   1.948 -0.4942 -1.0236  1.8893
 7655SOL    HW234428   3.835   2.436   2.018 -1.1664  0.0775 -1.0837
 7656SOL     OW34429   0.020   1.868   8.941  0.2075  0.3739 -0.2430
 7656SOL    HW134430   0.061   1.824   9.015  0.8591 -1.5751 -1.7653
 7656SOL    HW234431   0.043   1.803   8.875 -1.1210 -2.4359  2.1158
 7657SOL     OW34432   2.379   0.969   1.748 -0.4452  0.2394 -0.6993
 7657SOL    HW134433   2.394   1.022   1.826  0.5621 -2.1584  0.7131
 7657SOL    HW234434   2.324   1.035   1.705 -1.4000  1.1910  2.0035
 7658SOL     OW34435   3.454   3.665   8.215  0.1070 -0.0916  0.4007
 7658SOL    HW134436   3.393   3.628   8.279  0.4092 -0.3988  0.5117
 7658SOL    HW234437   3.480   3.583   8.174 -0.0584 -0.5617  1.2308
 7659SOL     OW34438   0.732   4.593   8.186  0.2248  0.5576 -0.0365
 7659SOL    HW134439   0.705   4.522   8.128 -0.8314  1.2637 -0.3977
 7659SOL    HW234440   0.674   4.661   8.152 -0.8682 -1.0629 -1.3975
 7660SOL     OW34441   2.255   2.496   6.192 -0.1926  0.1462 -0.4143
 7660SOL    HW134442   2.341   2.498   6.150  0.0089  1.9281  0.0469
 7660SOL    HW234443   2.227   2.411   6.160 -3.3748  1.1926 -0.4406
 7661SOL     OW34444   4.104   1.417   5.962  0.0971 -0.6366  0.7489
 7661SOL    HW134445   4.165   1.388   5.895 -2.3401  1.2551 -2.3179
 7661SOL    HW234446   4.024   1.431   5.912  0.6371 -1.3603 -0.3018
 7662SOL     OW34447   4.472   0.351  15.911 -0.3469  0.6844  0.6865
 7662SOL    HW134448   4.538   0.306  15.859 -1.7034  0.8843 -1.1991
 7662SOL    HW234449   4.419   0.396  15.844  0.4775 -0.7311 -0.9113
 7663SOL     OW34450   3.059   3.426   5.148  0.1429  0.0985  0.4405
 7663SOL    HW134451   2.984   3.369   5.132 -0.1413  0.7408 -0.5773
 7663SOL    HW234452   3.028   3.515   5.168 -0.1597 -0.6096  3.1229
 7664SOL     OW34453   1.309   0.346   2.213 -0.3661 -0.1041 -0.4191
 7664SOL    HW134454   1.319   0.412   2.282 -0.5691  2.6494 -3.0414
 7664SOL    HW234455   1.395   0.348   2.170 -0.4985  1.7032 -0.5909
 7665SOL     OW34456   2.673   2.929   2.373 -0.0590 -0.1842 -0.3367
 7665SOL    HW134457   2.735   2.947   2.301 -3.4881  0.0153 -3.2489
 7665SOL    HW234458   2.605   2.884   2.323 -0.3359 -1.7854  1.4731
 7666SOL     OW34459   2.133   0.619   4.828 -0.0459 -0.1670 -0.2303
 7666SOL    HW134460   2.091   0.705   4.829 -1.4297 -0.8326 -0.7621
 7666SOL    HW234461   2.214   0.646   4.871 -0.3411 -0.4901  0.5297
 7667SOL     OW34462   3.106   2.516   7.485 -0.2528  0.0156  0.8893
 7667SOL    HW134463   3.028   2.554   7.445 -0.7036 -2.0872 -0.2357
 7667SOL    HW234464   3.135   2.583   7.546 -0.7329  1.5552 -0.5680
 7668SOL     OW34465   2.919   1.257   3.133 -0.1115  0.3012 -0.4107
 7668SOL    HW134466   2.912   1.168   3.167 -1.8270  0.3162 -0.7413
 7668SOL    HW234467   3.006   1.254   3.092 -0.3275  1.8075 -0.9646
 7669SOL     OW34468   0.948   4.096   5.859  0.2957  0.2949  0.2847
 7669SOL    HW134469   0.960   4.078   5.766 -0.0543  2.2423 -0.1424
 7669SOL    HW234470   0.980   4.186   5.858  1.1053  0.0151  0.9831
 7670SOL     OW34471   0.923   4.269   7.977 -0.2115 -0.4455  0.4585
 7670SOL    HW134472   0.964   4.203   7.919  0.2973 -0.7575  1.1740
 7670SOL    HW234473   0.907   4.340   7.915  1.6503  0.8971  1.5132
 7671SOL     OW34474   4.080   4.163   8.478 -0.0253 -0.3045 -0.3889
 7671SOL    HW134475   4.093   4.078   8.520 -2.8062 -0.6095 -0.1650
 7671SOL    HW234476   4.088   4.137   8.386 -0.1762  1.1633 -0.8163
 7672SOL     OW34477   0.487   0.423   1.128  0.3297  0.3269  0.3355
 7672SOL    HW134478   0.398   0.457   1.135 -0.3693 -1.2361 -0.7612
 7672SOL    HW234479   0.478   0.355   1.061 -1.1674  0.5307  0.3326
 7673SOL     OW34480   3.644   4.082   5.651 -0.2043  0.2048 -0.5606
 7673SOL    HW134481   3.605   3.995   5.661  0.3332  0.0986  0.6056
 7673SOL    HW234482   3.572   4.127   5.607 -3.5739 -2.8185  1.8971
 7674SOL     OW34483   1.730   3.945   1.884 -0.8227  0.9150  0.7687
 7674SOL    HW134484   1.654   3.934   1.942 -1.8579 -2.4089 -1.1990
 7674SOL    HW234485   1.709   4.020   1.828 -0.9875  0.5304  0.3181
 7675SOL     OW34486   2.533   1.553   7.200  0.6762  0.5412  0.7087
 7675SOL    HW134487   2.562   1.547   7.291  1.1277 -1.2869  0.4337
 7675SOL    HW234488   2.504   1.644   7.200  0.0217  0.3324 -0.3287
 7676SOL     OW34489   2.247   3.339   1.628  0.3402  0.3996  0.0495
 7676SOL    HW134490   2.301   3.375   1.557 -1.4566 -0.2892 -1.6835
 7676SOL    HW234491   2.177   3.296   1.578  1.2272  0.9623 -1.6779
 7677SOL     OW34492   0.022   2.775   3.052 -0.5561 -0.2091  0.1560
 7677SOL    HW134493   0.010   2.724   3.132 -0.0650  1.4461  1.2867
 7677SOL    HW234494   0.117   2.777   3.042 -0.4279  3.5001  1.9032
 7678SOL     OW34495   0.007   0.453   3.118  0.7424  0.5664  0.4195
 7678SOL    HW134496   0.038   0.375   3.164 -2.0678 -0.1034  1.1851
 7678SOL    HW234497   4.644   0.433   3.086  0.8593  1.0635 -0.2195
 7679SOL     OW34498   0.693   4.212   9.110  0.2485 -0.1017 -0.0386
 7679SOL    HW134499   0.715   4.305   9.114 -2.0185  0.4417 -0.4782
 7679SOL    HW234500   0.601   4.216   9.084  0.6900 -0.5329 -1.6876
 7680SOL     OW34501   3.626   0.011  17.590  0.0403 -0.0755  0.0982
 7680SOL    HW134502   3.705   4.715  17.640 -0.7544 -0.6608  1.1123
 7680SOL    HW234503   3.614   4.657  17.537 -0.7402 -0.5373  0.9526
 7681SOL     OW34504   2.370   3.724   6.356  0.4065 -0.1643 -0.5399
 7681SOL    HW134505   2.305   3.694   6.293  1.2588 -0.0715 -1.4766
 7681SOL    HW234506   2.323   3.780   6.417 -0.8054 -1.7411 -0.0292
 7682SOL     OW34507   0.389   0.057  14.110  0.6068 -0.0729 -0.0381
 7682SOL    HW134508   0.355   0.136  14.151 -0.3263  0.6963 -2.2730
 7682SOL    HW234509   0.305   0.015  14.091  0.0042  1.1133  0.0345
 7683SOL     OW34510   4.199   1.509   9.046  0.0277 -0.3537 -0.1290
 7683SOL    HW134511   4.270   1.564   9.014 -0.2353 -0.2800 -0.5757
 7683SOL    HW234512   4.220   1.420   9.018 -1.7540 -0.9729  0.4814
 7684SOL     OW34513   0.856   3.297   5.922 -0.4105 -0.1269  0.2212
 7684SOL    HW134514   0.942   3.272   5.889  0.6049  0.8154  2.1528
 7684SOL    HW234515   0.818   3.271   5.837  0.3367  1.1426 -0.4977
 7685SOL     OW34516   1.940   0.384   6.965  0.1898 -0.3419  0.2193
 7685SOL    HW134517   1.866   0.440   6.988  0.1648 -0.9616  1.6770
 7685SOL    HW234518   1.949   0.402   6.871  2.0454  0.6248  0.5845
 7686SOL     OW34519   1.132   2.133   8.827  0.5193  0.3181  0.3709
 7686SOL    HW134520   1.064   2.125   8.894 -1.4542 -1.4231 -1.8368
 7686SOL    HW234521   1.196   2.071   8.862 -1.1792 -1.4665  0.2993
 7687SOL     OW34522   0.553   4.309   0.067  0.2162  0.0757 -0.9841
 7687SOL    HW134523   0.548   4.388   0.121  0.4620  0.1849 -1.1210
 7687SOL    HW234524   0.578   4.355  17.686  0.3850  1.4001 -0.1858
 7688SOL     OW34525   3.489   0.443   4.580 -0.1029 -0.1377 -0.3295
 7688SOL    HW134526   3.540   0.465   4.658 -0.5534 -1.6344  0.3861
 7688SOL    HW234527   3.556   0.440   4.512  0.1122  0.6621 -0.1630
 7689SOL     OW34528   1.544   3.215   9.535 -0.1908 -0.8246  0.4052
 7689SOL    HW134529   1.477   3.247   9.475 -1.4513  0.9927  2.7580
 7689SOL    HW234530   1.560   3.298   9.580  2.4048 -0.9484 -0.2689
 7690SOL     OW34531   0.430   0.916   1.508 -0.1421  0.3177 -0.5300
 7690SOL    HW134532   0.351   0.926   1.560  0.4874 -0.4523  0.5690
 7690SOL    HW234533   0.427   0.823   1.486 -0.5756  0.7967 -2.5085
 7691SOL     OW34534   0.590   0.042   6.162  0.2722  0.2469 -0.1983
 7691SOL    HW134535   0.570   4.695   6.222 -1.7181  0.3814 -0.7201
 7691SOL    HW234536   0.519   0.101   6.187  1.1933  1.7940 -1.2197
 7692SOL     OW34537   1.930   4.459   4.978  0.1034  0.7388  0.1384
 7692SOL    HW134538   2.002   4.402   5.006 -2.0020 -0.9517  2.1013
 7692SOL    HW234539   1.972   4.522   4.919  2.5485 -0.0451  1.0319
 7693SOL     OW34540   2.239   0.947   9.862  0.4809  0.3851  0.4865
 7693SOL    HW134541   2.285   0.912   9.785  2.2416 -0.6857  2.0478
 7693SOL    HW234542   2.230   0.871   9.920 -0.5772  2.1488  2.6253
 7694SOL     OW34543   1.434   1.779   9.975  0.5646  0.2156 -0.3710
 7694SOL    HW134544   1.405   1.703   9.924  0.7074  0.6907 -1.1570
 7694SOL    HW234545   1.356   1.794  10.028  2.1390 -0.0200  1.9924
 7695SOL     OW34546   1.129   2.428  12.172 -0.1675  0.4514 -0.1426
 7695SOL    HW134547   1.160   2.344  12.138  0.1722  0.3419  0.4333
 7695SOL    HW234548   1.136   2.412  12.266  0.4215  1.8328  0.0481
 7696SOL     OW34549   3.606   2.776   0.783 -0.6870  0.3096  0.0945
 7696SOL    HW134550   3.652   2.700   0.819  0.3993  0.3022 -1.2915
 7696SOL    HW234551   3.519   2.751   0.815 -0.5336  0.6389  0.7543
 7697SOL     OW34552   4.124   4.091   9.416 -0.2965 -0.3934 -0.1845
 7697SOL    HW134553   4.183   4.087   9.340  2.3108 -1.4535  1.8964
 7697SOL    HW234554   4.119   3.998   9.439 -2.1774  0.3773  2.4841
 7698SOL     OW34555   4.217   0.115   6.332  0.2760 -0.4886  0.6457
 7698SOL    HW134556   4.250   0.058   6.263 -1.2211 -1.0071  0.3437
 7698SOL    HW234557   4.122   0.110   6.317  0.1614 -0.6836  1.4208
 7699SOL     OW34558   4.014   3.782   4.125  0.1737 -0.3097  0.3332
 7699SOL    HW134559   3.997   3.689   4.107  3.3229 -0.5284 -1.5492
 7699SOL    HW234560   4.002   3.817   4.037  1.9235 -0.1725  0.1405
 7700SOL     OW34561   1.546   2.154   1.439 -0.1519 -0.0618 -0.0619
 7700SOL    HW134562   1.605   2.229   1.428 -0.6549  0.3276 -0.0605
 7700SOL    HW234563   1.467   2.201   1.464 -1.7389 -1.4462 -2.4008
 7701SOL     OW34564   0.239   4.685   9.487  0.6289  0.1260  0.4294
 7701SOL    HW134565   0.168   4.707   9.426  0.2487 -1.4413  0.3101
 7701SOL    HW234566   0.211   0.001   9.569 -1.8915 -1.3310  0.2869
 7702SOL     OW34567   3.619   4.479  15.842  0.3386 -0.4027 -0.5365
 7702SOL    HW134568   3.591   4.514  15.757  0.9048  0.3846 -0.3997
 7702SOL    HW234569   3.531   4.455  15.869 -1.1161  1.0113 -3.9444
 7703SOL     OW34570   2.573   2.844  11.837 -0.0505 -0.1563 -0.4144
 7703SOL    HW134571   2.640   2.884  11.782  2.4972 -1.3918  1.7691
 7703SOL    HW234572   2.573   2.748  11.832 -0.5998 -0.0962 -1.5443
 7704SOL     OW34573   1.941   2.987   2.409 -0.3557 -0.1132  0.2439
 7704SOL    HW134574   2.007   2.946   2.465 -1.6920  0.9810  2.6441
 7704SOL    HW234575   1.912   3.061   2.461  0.4064 -0.1691  0.7456
 7705SOL     OW34576   4.697   0.609  15.376  0.3960 -0.1307 -0.2391
 7705SOL    HW134577   4.607   0.587  15.402  0.6646 -0.9804 -0.0455
 7705SOL    HW234578   4.709   0.581  15.286  0.7890  1.8123 -0.7875
 7706SOL     OW34579   1.631   1.410   7.232 -0.1441  0.1619  0.3636
 7706SOL    HW134580   1.666   1.380   7.316 -1.2139 -1.3151  0.2884
 7706SOL    HW234581   1.580   1.488   7.253  0.4563  0.0281  2.3850
 7707SOL     OW34582   4.163   3.374  11.262 -0.7153  0.3530 -0.4226
 7707SOL    HW134583   4.159   3.284  11.294  2.0646  0.9492  1.6038
 7707SOL    HW234584   4.122   3.414  11.339  0.6849  0.0037  0.5039
 7708SOL     OW34585   2.084   2.509   5.242 -0.1223 -0.0635 -0.3018
 7708SOL    HW134586   2.115   2.597   5.260 -0.1491 -0.0533 -0.3066
 7708SOL    HW234587   2.063   2.467   5.325 -0.6361  1.5356  0.3674
 7709SOL     OW34588   4.485   1.530  14.608 -0.0772 -0.0436 -0.5058
 7709SOL    HW134589   4.573   1.564  14.627  0.4880 -2.8746  2.0415
 7709SOL    HW234590   4.438   1.559  14.686 -0.3701 -0.4748 -0.5261
 7710SOL     OW34591   0.952   0.078   4.635 -0.2772 -0.2183 -0.2237
 7710SOL    HW134592   0.998   0.096   4.554  1.0705  1.3437  0.9005
 7710SOL    HW234593   1.024   0.091   4.697 -0.4487 -1.6820  0.2878
 7711SOL     OW34594   3.128   2.317   9.592  0.0121 -0.5547 -0.2485
 7711SOL    HW134595   3.054   2.257   9.594 -0.7784  0.3987 -0.5161
 7711SOL    HW234596   3.182   2.279   9.661 -1.5492  2.7240  2.8130
 7712SOL     OW34597   1.826   2.508   0.781 -0.4240  0.5998 -0.0882
 7712SOL    HW134598   1.734   2.531   0.768 -0.9089 -2.3326 -1.7812
 7712SOL    HW234599   1.868   2.594   0.770 -0.3867  0.6811  0.6754
 7713SOL     OW34600   3.801   2.142   6.675  0.1303  0.2970 -0.8074
 7713SOL    HW134601   3.719   2.118   6.717  1.2024  1.7258  2.1223
 7713SOL    HW234602   3.837   2.189   6.750  0.9179 -0.9638 -0.3886
 7714SOL     OW34603   3.116   2.612  14.201 -0.1373 -0.3946 -0.3873
 7714SOL    HW134604   3.082   2.697  14.174 -3.0054 -1.4992 -0.1851
 7714SOL    HW234605   3.069   2.554  14.142 -1.0715 -0.4370  0.3982
 7715SOL     OW34606   1.020   1.384   7.620 -0.3754 -0.3518  0.3896
 7715SOL    HW134607   1.039   1.322   7.550 -1.1551 -0.9588  0.7111
 7715SOL    HW234608   0.976   1.331   7.687  0.7751 -0.2040  1.2542
 7716SOL     OW34609   3.402   2.620   9.022 -0.1664 -0.3847  0.2655
 7716SOL    HW134610   3.475   2.681   9.016 -0.0438 -0.6949 -1.4089
 7716SOL    HW234611   3.327   2.665   8.983  1.5375  1.3521 -0.9789
 7717SOL     OW34612   2.246   3.338   2.419 -0.2234 -0.4808  0.2985
 7717SOL    HW134613   2.280   3.414   2.466 -2.3030  0.3801  0.4301
 7717SOL    HW234614   2.324   3.285   2.436  0.5489  0.1648 -1.2491
 7718SOL     OW34615   0.805   3.032   7.478 -0.4245 -0.1259  0.4828
 7718SOL    HW134616   0.824   2.951   7.527  0.5661 -0.4810 -0.4941
 7718SOL    HW234617   0.711   3.019   7.465 -0.3493 -0.3667  0.1870
 7719SOL     OW34618   1.095   0.182   3.922 -0.2120 -0.0765 -0.0239
 7719SOL    HW134619   1.022   0.127   3.951 -1.6581  2.3820  1.0172
 7719SOL    HW234620   1.168   0.127   3.949  0.8418  0.3808 -1.9579
 7720SOL     OW34621   2.108   2.041   8.557 -0.1494 -0.5066  0.3737
 7720SOL    HW134622   2.134   2.101   8.487 -2.1694  0.2820  0.3133
 7720SOL    HW234623   2.015   2.034   8.536  0.2682  1.3812 -2.1305
 7721SOL     OW34624   0.980   2.928   6.628  0.6130  0.5508  0.1483
 7721SOL    HW134625   0.901   2.981   6.621  0.2249  0.0829  1.0117
 7721SOL    HW234626   0.972   2.896   6.538  1.5102 -2.7196  1.2201
 7722SOL     OW34627   4.399   0.373  12.469  0.4753  0.5756  0.5494
 7722SOL    HW134628   4.480   0.376  12.520  1.3378  0.3413 -0.7973
 7722SOL    HW234629   4.417   0.295  12.416  1.0693 -0.2150  1.9137
 7723SOL     OW34630   0.858   1.323   9.040  0.2471 -0.0601  0.4544
 7723SOL    HW134631   0.907   1.353   8.964 -0.0987  2.4083  1.1943
 7723SOL    HW234632   0.929   1.280   9.087  1.0755  0.4956 -0.3019
 7724SOL     OW34633   2.959   3.541  16.049  1.0173  0.3033 -0.2934
 7724SOL    HW134634   2.920   3.454  16.050  0.6676  0.4835  1.0612
 7724SOL    HW234635   3.030   3.537  15.985 -0.1644  1.1542 -1.6471
 7725SOL     OW34636   3.966   0.149  10.911  0.2913  0.1332  0.5156
 7725SOL    HW134637   3.871   0.145  10.908  0.1780  1.3030  2.1383
 7725SOL    HW234638   3.986   0.069  10.863 -1.0946 -1.2120  2.1582
 7726SOL     OW34639   1.957   1.920  14.128 -0.1099 -0.0433  0.3520
 7726SOL    HW134640   1.925   1.922  14.219  0.8233  1.0733  0.6669
 7726SOL    HW234641   2.040   1.876  14.143 -0.3549 -0.6988 -0.2648
 7727SOL     OW34642   0.925   0.791   5.482  0.6521  0.1331 -0.1402
 7727SOL    HW134643   0.966   0.783   5.569  0.8240  1.8107 -0.0730
 7727SOL    HW234644   0.976   0.852   5.429 -0.3955 -0.2678 -1.5890
 7728SOL     OW34645   3.997   2.637  17.046 -0.3268  0.1594  0.5688
 7728SOL    HW134646   4.081   2.677  17.070  0.0930 -0.0834 -0.5147
 7728SOL    HW234647   4.028   2.546  17.042  1.2299  0.8114 -2.2242
 7729SOL     OW34648   4.651   3.154   4.863 -0.2210 -0.0621 -0.2063
 7729SOL    HW134649   4.689   3.111   4.786 -1.2162  0.9043 -1.2390
 7729SOL    HW234650   4.635   3.072   4.908 -0.2952 -0.1798 -0.4477
 7730SOL     OW34651   4.065   4.213   7.213 -0.4822  0.1611 -0.1311
 7730SOL    HW134652   4.019   4.131   7.229 -1.0533  0.0583 -2.3078
 7730SOL    HW234653   4.158   4.193   7.224 -0.4179  0.3400 -0.3294
 7731SOL     OW34654   1.467   3.357   8.516 -0.1895 -0.6644 -0.2981
 7731SOL    HW134655   1.457   3.438   8.565 -0.9588 -0.8675 -0.1211
 7731SOL    HW234656   1.399   3.350   8.449 -0.8861  1.7907  0.1773
 7732SOL     OW34657   3.157   4.557  16.366 -0.4240 -0.6237  0.1911
 7732SOL    HW134658   3.238   4.549  16.416 -0.7188  1.3177  0.9975
 7732SOL    HW234659   3.190   4.555  16.277 -0.6789  0.8279  0.0722
 7733SOL     OW34660   1.955   4.416   0.432 -0.1035 -0.4536 -0.1757
 7733SOL    HW134661   2.041   4.383   0.457 -0.1268  1.0861  1.8833
 7733SOL    HW234662   1.937   4.357   0.359 -0.5125 -0.9965  0.3617
 7734SOL     OW34663   4.272   3.474   2.554  0.5322 -0.9681  0.0610
 7734SOL    HW134664   4.222   3.458   2.474  2.0123 -1.2393 -0.8004
 7734SOL    HW234665   4.208   3.498   2.621  1.1279 -0.2709  0.3794
 7735SOL     OW34666   3.827   2.642   5.752 -0.0446  0.4838  0.2442
 7735SOL    HW134667   3.769   2.692   5.694 -1.5966 -0.6420  0.8372
 7735SOL    HW234668   3.807   2.552   5.728 -0.5669  0.6531  0.0481
 7736SOL     OW34669   1.135   1.009   9.763 -0.0032  0.0585 -0.3139
 7736SOL    HW134670   1.188   0.973   9.834  1.5773  2.2471 -0.3927
 7736SOL    HW234671   1.093   1.084   9.805  0.6259  0.8542 -1.1120
 7737SOL     OW34672   3.265   0.719  13.389 -0.5043 -0.0828  0.5542
 7737SOL    HW134673   3.321   0.794  13.372  1.3577 -1.1065  2.0769
 7737SOL    HW234674   3.296   0.655  13.324 -1.5776 -1.6541  1.5889
 7738SOL     OW34675   0.226   2.207   8.971 -0.0296  0.2413  0.6176
 7738SOL    HW134676   0.203   2.296   8.995  1.5908  0.9350 -0.4249
 7738SOL    HW234677   0.293   2.219   8.904 -0.4502  3.0377  0.7380
 7739SOL     OW34678   0.413   1.386   5.484  0.1062 -0.0621  0.2489
 7739SOL    HW134679   0.343   1.320   5.475 -1.5421  1.5124  1.6561
 7739SOL    HW234680   0.361   1.465   5.473 -0.7469 -0.5069  1.0995
 7740SOL     OW34681   1.429   4.064  15.324 -0.4216  0.0249  0.1212
 7740SOL    HW134682   1.403   4.155  15.336 -2.8813 -0.8797  1.6949
 7740SOL    HW234683   1.491   4.071  15.252  0.7152 -0.5878  1.0323
 7741SOL     OW34684   2.478   0.649   0.193  0.0626 -0.0349  0.3430
 7741SOL    HW134685   2.525   0.598   0.258  2.2837 -0.7193 -1.7970
 7741SOL    HW234686   2.423   0.696   0.256  0.2537  1.1606 -0.3662
 7742SOL     OW34687   1.703   2.952   5.677  0.2718 -0.4172 -0.4565
 7742SOL    HW134688   1.744   3.033   5.646 -1.2458  0.6744  0.4425
 7742SOL    HW234689   1.780   2.917   5.721 -0.5307  1.4240  2.3796
 7743SOL     OW34690   1.752   2.523  14.660 -0.7352  0.3160 -0.0711
 7743SOL    HW134691   1.664   2.510  14.624 -0.8113  0.0321  0.2306
 7743SOL    HW234692   1.756   2.456  14.728  0.1199  0.7132  0.2670
 7744SOL     OW34693   2.068   3.102   2.192  0.1884  0.2481  0.0522
 7744SOL    HW134694   2.014   3.081   2.268  0.2841  1.3008  0.4055
 7744SOL    HW234695   2.131   3.030   2.192  1.2848  1.2157  0.2962
 7745SOL     OW34696   1.233   2.866   4.064 -0.3759 -0.1811  0.1551
 7745SOL    HW134697   1.172   2.936   4.088 -2.1477 -1.0535 -1.8020
 7745SOL    HW234698   1.188   2.845   3.982 -1.7172 -0.7627  1.0572
 7746SOL     OW34699   1.883   0.504   3.334 -1.4271  0.4585 -0.4491
 7746SOL    HW134700   1.846   0.589   3.311  1.8278  2.3631  1.4486
 7746SOL    HW234701   1.884   0.456   3.251 -1.3074 -1.2966  0.5659
 7747SOL     OW34702   0.281   3.508   1.555  0.5858  0.4769  0.0137
 7747SOL    HW134703   0.193   3.519   1.592  1.5597 -0.0369  2.4550
 7747SOL    HW234704   0.331   3.542   1.629 -1.2006  2.5223  0.3048
 7748SOL     OW34705   0.705   4.546   6.634 -0.7339 -0.2168  0.3956
 7748SOL    HW134706   0.751   4.536   6.551 -0.7160  0.9488  0.2684
 7748SOL    HW234707   0.617   4.564   6.601  0.4304  2.9345 -0.9742
 7749SOL     OW34708   3.400   3.121   3.959 -0.2477  0.0408  0.1488
 7749SOL    HW134709   3.308   3.103   3.978 -0.8565  1.3638 -1.5292
 7749SOL    HW234710   3.396   3.133   3.864  2.5689 -3.2043 -0.3738
 7750SOL     OW34711   2.134   2.128   9.196 -0.0914 -0.3358 -0.2466
 7750SOL    HW134712   2.225   2.147   9.174 -0.3731  2.2156  0.7334
 7750SOL    HW234713   2.142   2.045   9.244 -0.5228 -1.0193 -1.3731
 7751SOL     OW34714   4.467   1.424  12.044  0.0438 -0.4720  0.3797
 7751SOL    HW134715   4.372   1.424  12.037 -0.1840  2.9526  3.3666
 7751SOL    HW234716   4.480   1.514  12.014 -0.0431 -0.8122 -0.6913
 7752SOL     OW34717   4.581   0.946  13.343 -0.1976  0.6270  0.0201
 7752SOL    HW134718   4.647   0.911  13.403 -1.4201 -3.1447 -0.8296
 7752SOL    HW234719   4.520   0.872  13.344  0.0777  0.3998 -0.2774
 7753SOL     OW34720   2.266   0.930   3.826 -0.3973  0.1758  0.3081
 7753SOL    HW134721   2.313   0.919   3.743 -0.3652 -1.0945  0.4907
 7753SOL    HW234722   2.336   0.921   3.890  2.0236  2.2927 -1.9926
 7754SOL     OW34723   0.873   0.088   5.324  0.2811 -0.3191  0.5650
 7754SOL    HW134724   0.945   0.151   5.329  1.8158 -2.0068  0.1163
 7754SOL    HW234725   0.829   0.123   5.247  3.5939 -0.2278 -1.2733
 7755SOL     OW34726   3.000   2.483   3.083 -0.2864  0.0238 -0.3678
 7755SOL    HW134727   2.943   2.410   3.107  0.0165  0.0792  0.5516
 7755SOL    HW234728   2.970   2.499   2.994 -1.1213 -2.0251 -0.4467
 7756SOL     OW34729   4.321   4.700   0.160  0.1808  0.1649 -0.5911
 7756SOL    HW134730   4.351   4.662   0.077 -2.4443  3.1922 -2.9470
 7756SOL    HW234731   4.404   0.016   0.188 -1.1732  1.6714  1.2412
 7757SOL     OW34732   0.704   3.483   4.916  0.3600 -0.3096  0.1507
 7757SOL    HW134733   0.663   3.511   4.998 -0.2192 -1.0548  0.1161
 7757SOL    HW234734   0.626   3.484   4.860  1.0650  1.6802 -0.8130
 7758SOL     OW34735   2.743   2.162  11.782  0.5203 -0.6608 -0.4758
 7758SOL    HW134736   2.696   2.086  11.746  2.9549 -2.5220  0.2949
 7758SOL    HW234737   2.698   2.173  11.866 -1.4002 -0.5065 -1.5325
 7759SOL     OW34738   4.312   3.955   8.822  0.3065  0.0291 -0.2101
 7759SOL    HW134739   4.369   3.900   8.877  0.8836 -1.5655 -2.3841
 7759SOL    HW234740   4.376   4.004   8.770  1.6912  0.4340  1.8665
 7760SOL     OW34741   4.051   2.200  15.281  0.2578 -0.3085  0.1357
 7760SOL    HW134742   4.021   2.281  15.322  0.5009  0.5860 -1.4344
 7760SOL    HW234743   4.016   2.209  15.192  3.7956  1.4563 -1.0745
 7761SOL     OW34744   3.501   3.890   0.073 -0.0392 -0.3154 -0.7577
 7761SOL    HW134745   3.579   3.847   0.107  0.8247  0.6099 -1.5765
 7761SOL    HW234746   3.529   3.981   0.063 -0.4895 -0.0471  0.3266
 7762SOL     OW34747   3.413   0.511  13.229 -0.3567 -0.8336  0.1032
 7762SOL    HW134748   3.406   0.519  13.134  1.3948 -2.5580 -0.1601
 7762SOL    HW234749   3.505   0.538  13.233 -0.9908  1.1420  1.5995
 7763SOL     OW34750   4.160   0.745   3.296 -0.6483 -0.7041  0.7032
 7763SOL    HW134751   4.226   0.686   3.260 -1.1562 -0.0486 -1.2675
 7763SOL    HW234752   4.217   0.792   3.357 -0.1919  0.3624 -0.5683
 7764SOL     OW34753   2.168   1.068   7.321  0.8397 -0.1140  0.3447
 7764SOL    HW134754   2.264   1.066   7.315  0.8925 -2.6271  1.8122
 7764SOL    HW234755   2.156   0.976   7.294 -1.1283  0.0628  0.6269
 7765SOL     OW34756   0.206   3.909   5.517  0.3173 -0.2162 -0.2202
 7765SOL    HW134757   0.136   3.882   5.576 -1.5212 -0.7960 -2.6773
 7765SOL    HW234758   0.284   3.889   5.569  0.8242  0.7193 -0.6157
 7766SOL     OW34759   2.443   4.447   8.963 -0.1641  0.5356  0.2541
 7766SOL    HW134760   2.524   4.497   8.961  1.0765 -1.5045 -0.3337
 7766SOL    HW234761   2.451   4.429   9.057 -0.2246  0.9937  0.3467
 7767SOL     OW34762   3.179   0.285   9.991  0.0054 -0.2942 -0.4261
 7767SOL    HW134763   3.265   0.252   9.964 -0.3555 -1.3555 -0.2650
 7767SOL    HW234764   3.136   0.200   9.992 -1.1255  0.2436 -3.3073
 7768SOL     OW34765   1.888   1.102  14.885 -0.4450 -0.4925  0.1073
 7768SOL    HW134766   1.917   1.174  14.941 -0.7737 -1.6742  1.7862
 7768SOL    HW234767   1.893   1.139  14.797 -1.7400  2.6438  1.3454
 7769SOL     OW34768   0.686   4.374   5.294 -0.2240 -0.3778 -0.2579
 7769SOL    HW134769   0.744   4.393   5.221  3.8085 -1.0154  2.8235
 7769SOL    HW234770   0.605   4.343   5.251 -1.8296 -0.6413  2.9493
 7770SOL     OW34771   4.116   3.208   4.216  0.3331 -0.9815 -0.1817
 7770SOL    HW134772   4.180   3.236   4.281  0.9487 -1.1787 -0.7027
 7770SOL    HW234773   4.056   3.163   4.276  0.5850 -2.0292 -0.7044
 7771SOL     OW34774   2.949   4.182   5.896 -0.2896 -0.4693 -0.0806
 7771SOL    HW134775   2.925   4.133   5.974 -2.6392  0.2703 -0.3266
 7771SOL    HW234776   2.971   4.267   5.935 -0.2474 -2.1760  3.6262
 7772SOL     OW34777   2.595   3.073  17.409  0.1406 -0.3854  0.1182
 7772SOL    HW134778   2.574   2.983  17.382 -2.0111  0.1417  0.0515
 7772SOL    HW234779   2.629   3.066  17.498  0.8213 -0.2761 -0.1296
 7773SOL     OW34780   1.551   3.791   3.879  0.1420  0.2334  0.4497
 7773SOL    HW134781   1.573   3.698   3.879  0.8667  0.4084  3.8533
 7773SOL    HW234782   1.589   3.812   3.964 -0.7902 -2.7599  1.5913
 7774SOL     OW34783   2.143   4.439   6.849  0.2555  0.6795  0.6085
 7774SOL    HW134784   2.216   4.377   6.849 -0.5558 -0.2836  0.5872
 7774SOL    HW234785   2.189   4.521   6.831  0.7302 -0.2790 -2.4458
 7775SOL     OW34786   0.214   0.016   3.810 -0.5950 -0.5677 -0.1468
 7775SOL    HW134787   0.163   0.030   3.889  0.4339  1.3795  0.1804
 7775SOL    HW234788   0.233   0.107   3.786  1.6998 -1.0050  0.0555
 7776SOL     OW34789   0.821   3.152   6.590 -0.2269 -0.2716 -0.3768
 7776SOL    HW134790   0.761   3.203   6.645  1.3205  0.6229  0.4665
 7776SOL    HW234791   0.786   3.165   6.501 -0.1964  1.8463 -0.0952
 7777SOL     OW34792   4.056   1.619  15.169 -0.2490  0.1880  0.4471
 7777SOL    HW134793   4.063   1.544  15.228  0.9278 -1.4632 -1.7901
 7777SOL    HW234794   4.050   1.582  15.080  0.7447  2.3872 -0.5345
 7778SOL     OW34795   1.175   1.982   3.824 -0.1363  0.9231  0.5767
 7778SOL    HW134796   1.122   1.963   3.747 -1.8071 -1.8952  2.4049
 7778SOL    HW234797   1.181   2.077   3.828  1.3513  0.7904  1.5395
 7779SOL     OW34798   3.741   3.102  14.225 -0.3357  0.3121 -0.1006
 7779SOL    HW134799   3.695   3.170  14.275 -1.0698 -1.1967  1.3017
 7779SOL    HW234800   3.826   3.145  14.212 -0.0005 -0.7808 -1.4811
 7780SOL     OW34801   0.301   2.493   3.597  0.3915 -0.0347  0.0103
 7780SOL    HW134802   0.261   2.441   3.667  0.4215 -2.3747 -1.7083
 7780SOL    HW234803   0.347   2.436   3.535  0.7800  0.4398 -0.1345
 7781SOL     OW34804   1.441   1.139   4.476  0.2856 -0.3087 -0.2721
 7781SOL    HW134805   1.491   1.135   4.394 -0.2288 -2.0258 -0.5048
 7781SOL    HW234806   1.402   1.052   4.466  1.4618 -0.9062  0.3826
 7782SOL     OW34807   0.695   3.349  13.929  0.2441 -0.1490  0.3150
 7782SOL    HW134808   0.638   3.364  14.005  0.0465  1.0224 -0.0530
 7782SOL    HW234809   0.651   3.274  13.890 -1.5781  0.2172  1.6483
 7783SOL     OW34810   3.713   0.502   9.735 -0.5510  0.6763  0.4942
 7783SOL    HW134811   3.659   0.472   9.662  1.3835 -0.7049 -0.3853
 7783SOL    HW234812   3.787   0.441   9.728 -0.0041  1.5622 -1.4416
 7784SOL     OW34813   0.253   0.909   7.680 -0.2557  0.1121  0.4968
 7784SOL    HW134814   0.215   0.911   7.768 -1.9197  0.5078 -0.2472
 7784SOL    HW234815   0.336   0.953   7.701 -1.7390  2.2017  1.9482
 7785SOL     OW34816   3.083   2.416   6.051 -0.0494  0.3056  0.5780
 7785SOL    HW134817   3.070   2.469   6.129  1.7713  0.4648  0.7719
 7785SOL    HW234818   3.016   2.450   5.991  0.3668 -1.3933 -0.8723
 7786SOL     OW34819   3.653   2.772   4.111 -0.4269  0.3045  0.2959
 7786SOL    HW134820   3.590   2.729   4.169 -1.1933 -0.1259 -0.8526
 7786SOL    HW234821   3.625   2.861   4.089 -0.1220  0.7306  1.6650
 7787SOL     OW34822   3.972   4.007  14.406 -0.5245  0.2699 -0.4628
 7787SOL    HW134823   4.026   3.934  14.376 -0.8769 -0.0351 -0.3531
 7787SOL    HW234824   3.914   3.967  14.471 -1.4019  1.3850 -0.5566
 7788SOL     OW34825   0.834   2.284  15.879  0.4851 -0.0456  0.3373
 7788SOL    HW134826   0.860   2.375  15.890  0.3881  0.1945 -1.3646
 7788SOL    HW234827   0.914   2.236  15.859  0.4464 -0.0399  0.1650
 7789SOL     OW34828   3.417   0.111   6.007 -0.3634 -0.1927  0.3373
 7789SOL    HW134829   3.358   0.179   6.041 -0.5172  0.3906 -1.0821
 7789SOL    HW234830   3.501   0.155   5.999 -1.7523  2.3468 -0.4384
 7790SOL     OW34831   1.995   1.208   6.261  0.0174 -0.1673  0.4336
 7790SOL    HW134832   2.080   1.252   6.255  0.2710 -0.9554 -1.7032
 7790SOL    HW234833   1.939   1.280   6.291 -1.0152 -0.3051 -1.1201
 7791SOL     OW34834   3.782   2.852  14.297 -0.2273  0.1281 -0.1140
 7791SOL    HW134835   3.761   2.833  14.206  1.7088 -1.5710 -0.2116
 7791SOL    HW234836   3.756   2.944  14.290  3.4539  1.2453  0.6297
 7792SOL     OW34837   4.301   4.703   4.896  0.5724 -0.2843 -0.1654
 7792SOL    HW134838   4.254   4.716   4.979  1.0285  1.2067 -0.1444
 7792SOL    HW234839   4.369   4.645   4.929 -0.2337 -0.8779  0.4699
 7793SOL     OW34840   3.464   3.813   0.835  0.0099  0.6754 -1.2502
 7793SOL    HW134841   3.552   3.793   0.866 -0.4657 -0.8782 -0.9460
 7793SOL    HW234842   3.487   3.894   0.789  1.1170  2.2547  2.0808
 7794SOL     OW34843   3.273   2.579   6.528  0.5423  0.5818 -0.1781
 7794SOL    HW134844   3.226   2.634   6.590  0.9451  0.3322  0.3477
 7794SOL    HW234845   3.334   2.535   6.587  0.6555  0.1041 -0.6498
 7795SOL     OW34846   0.684   1.665  10.643  0.0899  0.5162 -0.7873
 7795SOL    HW134847   0.689   1.632  10.733 -0.2368 -2.2262 -1.7605
 7795SOL    HW234848   0.591   1.686  10.640  0.0943  0.9979  3.1039
 7796SOL     OW34849   3.373   2.876   2.224 -0.3575 -0.0361 -0.1259
 7796SOL    HW134850   3.452   2.930   2.226 -0.6671  0.4727 -1.4852
 7796SOL    HW234851   3.414   2.798   2.186 -0.8689 -0.6273  0.5393
 7797SOL     OW34852   1.945   1.683  12.427  0.4670  0.3583 -0.2377
 7797SOL    HW134853   2.012   1.622  12.457  1.5259  2.0018  0.7445
 7797SOL    HW234854   1.939   1.757  12.488  1.2433  1.0990 -1.0756
 7798SOL     OW34855   2.738   3.648   7.448 -0.6822  0.0664  0.6373
 7798SOL    HW134856   2.719   3.693   7.366  1.1971 -0.2387  0.0525
 7798SOL    HW234857   2.770   3.566   7.411  0.7517  0.0570  1.9113
 7799SOL     OW34858   4.682   1.988   3.890  0.8106  0.1809  0.0793
 7799SOL    HW134859   4.641   1.940   3.818 -0.0341  0.2603  0.5126
 7799SOL    HW234860   4.645   1.956   3.972  1.2698 -0.1204  0.1686
 7800SOL     OW34861   3.684   0.062  10.859  0.3340 -0.0981  0.0985
 7800SOL    HW134862   3.639   4.718  10.908 -0.4521  1.5558  1.6951
 7800SOL    HW234863   3.648   0.141  10.900  1.4222  0.7438 -0.5662
 7801SOL     OW34864   2.836   0.143   2.325  0.0457  0.2778 -0.2507
 7801SOL    HW134865   2.863   0.213   2.265  0.7770  0.3309  0.1414
 7801SOL    HW234866   2.757   0.123   2.274 -0.0745 -0.7064  0.3213
 7802SOL     OW34867   3.335   4.654   9.972 -0.1257  0.2393  0.2694
 7802SOL    HW134868   3.370   4.672  10.059 -0.7458  1.5641  0.2452
 7802SOL    HW234869   3.250   4.699   9.963  0.2357  0.2163 -3.1712
 7803SOL     OW34870   4.686   1.710  16.603 -0.3331  0.2943 -0.4997
 7803SOL    HW134871   4.694   1.767  16.526  0.8961 -1.4710 -1.6998
 7803SOL    HW234872   4.664   1.629  16.558  0.7044 -0.9552  1.2574
 7804SOL     OW34873   2.625   2.654   0.439  0.0033 -0.5601  0.2114
 7804SOL    HW134874   2.531   2.658   0.457  0.3910  2.6507  1.5830
 7804SOL    HW234875   2.648   2.747   0.435  3.1619 -1.3316  0.7539
 7805SOL     OW34876   0.703   0.553   3.273 -0.0545 -0.3171  0.6893
 7805SOL    HW134877   0.756   0.519   3.201 -1.3150  0.0156 -0.4105
 7805SOL    HW234878   0.710   0.647   3.257 -2.2461 -0.3571 -0.6008
 7806SOL     OW34879   0.674   3.732   1.853 -0.0553  0.0043  0.3901
 7806SOL    HW134880   0.741   3.731   1.785  1.0808 -1.8620  1.5211
 7806SOL    HW234881   0.616   3.806   1.832  2.0105  1.4887 -0.0866
 7807SOL     OW34882   3.740   3.437   4.831 -0.0507  0.1343  0.8297
 7807SOL    HW134883   3.803   3.467   4.896 -0.1680  2.3229 -0.0792
 7807SOL    HW234884   3.780   3.479   4.755 -0.2380 -1.8860 -0.3817
 7808SOL     OW34885   3.738   3.695   0.882 -0.1016 -0.7832 -0.0953
 7808SOL    HW134886   3.822   3.735   0.905 -1.0360  0.2896  1.4861
 7808SOL    HW234887   3.737   3.639   0.959  3.2493 -2.2544 -1.1312
 7809SOL     OW34888   4.041   2.421   5.514 -0.5906 -0.2392  0.6690
 7809SOL    HW134889   4.112   2.378   5.466 -0.6583 -0.1248  0.4681
 7809SOL    HW234890   4.016   2.344   5.566 -0.9346 -1.6786 -1.6281
 7810SOL     OW34891   3.313   2.020  11.734  0.8645  0.2729  0.1656
 7810SOL    HW134892   3.331   2.114  11.734 -2.2475  0.8440  2.0646
 7810SOL    HW234893   3.224   2.019  11.700  0.2947  1.0848  1.6270
 7811SOL     OW34894   0.328   2.981  16.049 -0.1474  0.0590  0.0612
 7811SOL    HW134895   0.253   3.038  16.029  1.3575  1.9879 -0.0289
 7811SOL    HW234896   0.396   3.042  16.078 -0.8107  1.4162 -1.2521
 7812SOL     OW34897   2.521   3.508   7.570 -0.2552 -0.0612 -0.0513
 7812SOL    HW134898   2.500   3.558   7.649  2.5376  0.8591  0.1003
 7812SOL    HW234899   2.603   3.547   7.541 -1.0976  2.2236  0.6504
 7813SOL     OW34900   3.760   0.331   3.047 -0.9142  0.2628 -0.6533
 7813SOL    HW134901   3.726   0.332   3.136 -1.1300  2.4148 -0.7625
 7813SOL    HW234902   3.689   0.286   3.003 -1.5124 -1.4906  2.1201
 7814SOL     OW34903   2.634   3.953   3.166 -0.6362 -0.4070  0.0361
 7814SOL    HW134904   2.612   3.864   3.194 -0.1683 -0.7170 -0.5786
 7814SOL    HW234905   2.601   4.005   3.239  1.7992  1.0215  0.0945
 7815SOL     OW34906   2.824   1.620   5.020  0.0374 -0.4478 -0.1236
 7815SOL    HW134907   2.810   1.700   4.970 -0.5498  1.0292  2.4033
 7815SOL    HW234908   2.902   1.590   4.974  1.4777  1.8904  0.7858
 7816SOL     OW34909   1.877   2.190   4.400 -0.1260  0.7272 -0.5901
 7816SOL    HW134910   1.869   2.129   4.327 -1.3493  2.2540 -1.7132
 7816SOL    HW234911   1.973   2.181   4.400 -0.3927 -1.9109  1.7252
 7817SOL     OW34912   2.833   0.162   4.714 -0.0032  0.2029  0.3233
 7817SOL    HW134913   2.808   0.069   4.713 -0.4702  0.3328  0.1846
 7817SOL    HW234914   2.756   0.198   4.671  0.3918  0.1141 -0.4475
 7818SOL     OW34915   4.669   4.514   4.094  0.0117 -0.2952  0.0203
 7818SOL    HW134916   4.713   4.453   4.034 -0.8457 -1.0808  0.1915
 7818SOL    HW234917   0.024   4.529   4.144 -1.4036 -1.4860  2.6074
 7819SOL     OW34918   2.587   2.486   8.448 -0.5943 -0.0155 -0.1248
 7819SOL    HW134919   2.570   2.501   8.355 -1.8152  2.3851  0.4835
 7819SOL    HW234920   2.499   2.505   8.480 -0.6255  0.6938 -0.6490
 7820SOL     OW34921   3.178   2.825   5.052 -0.0744  0.1553  0.4471
 7820SOL    HW134922   3.238   2.819   5.126 -2.1453 -2.8748  1.8690
 7820SOL    HW234923   3.143   2.913   5.065  0.8101  1.0440 -2.9408
 7821SOL     OW34924   1.806   3.930   4.438  0.0800  0.0178 -0.3898
 7821SOL    HW134925   1.780   4.020   4.422  0.9701  0.3079 -0.2289
 7821SOL    HW234926   1.722   3.884   4.438  0.0611  0.0408  0.8339
 7822SOL     OW34927   3.791   2.064   2.938  0.0764  0.2528  0.0966
 7822SOL    HW134928   3.717   2.118   2.911  0.5482 -0.0611 -1.8713
 7822SOL    HW234929   3.865   2.125   2.945 -0.0727  0.5947 -1.3117
 7823SOL     OW34930   1.272   1.107   7.234 -0.7738  0.2406 -0.0394
 7823SOL    HW134931   1.219   1.027   7.225 -0.8500  0.1097  1.6206
 7823SOL    HW234932   1.355   1.080   7.274 -0.4357  2.3981  0.6949
 7824SOL     OW34933   4.405   1.207   6.015  0.0564  0.1429  0.3866
 7824SOL    HW134934   4.322   1.183   5.975  0.2413  0.9324 -0.4672
 7824SOL    HW234935   4.425   1.139   6.080  1.1672  1.3778  1.3610
 7825SOL     OW34936   3.344   3.344  14.160 -0.2687 -0.5324  0.2034
 7825SOL    HW134937   3.400   3.318  14.088 -0.5537  3.0349 -1.2965
 7825SOL    HW234938   3.340   3.439  14.152  2.9226 -0.5850 -1.8932
 7826SOL     OW34939   3.972   2.851  17.333  0.2033 -0.2880  0.0474
 7826SOL    HW134940   3.954   2.930  17.283  2.0536 -0.3164 -0.6713
 7826SOL    HW234941   3.898   2.799  17.302  1.4308 -2.4343  0.6630
 7827SOL     OW34942   3.298   4.719   3.874 -0.7051  0.2496  0.2306
 7827SOL    HW134943   3.259   4.704   3.788  0.6873 -1.4665 -0.0971
 7827SOL    HW234944   3.264   4.643   3.920  0.2198 -0.2181  0.1305
 7828SOL     OW34945   0.324   3.181   0.333 -0.0741 -0.1175  0.8022
 7828SOL    HW134946   0.249   3.239   0.324 -1.0447 -1.5503 -0.2901
 7828SOL    HW234947   0.351   3.185   0.241 -0.2504  0.6451  0.7852
 7829SOL     OW34948   0.373   3.873   9.561  0.1085  0.4536  0.0159
 7829SOL    HW134949   0.382   3.942   9.626 -0.4724  0.1719  0.3934
 7829SOL    HW234950   0.439   3.811   9.593 -1.5471 -0.7130  1.1838
 7830SOL     OW34951   2.837   1.880   4.968 -0.1092  0.3397 -0.1652
 7830SOL    HW134952   2.902   1.912   5.031 -1.0061 -0.9558  1.4309
 7830SOL    HW234953   2.775   1.952   4.961  0.6063  1.0268  0.6332
 7831SOL     OW34954   1.327   1.687   3.798 -0.1825  0.5479  0.7554
 7831SOL    HW134955   1.383   1.649   3.865 -1.5155 -1.9318  0.4602
 7831SOL    HW234956   1.394   1.749   3.770 -0.1819  1.3148  2.4454
 7832SOL     OW34957   3.959   2.510   8.845  0.7049  0.4312  0.4756
 7832SOL    HW134958   3.928   2.591   8.803  0.3540  0.6161  1.0888
 7832SOL    HW234959   3.923   2.457   8.774 -1.8915  1.7996  0.7460
 7833SOL     OW34960   3.760   4.279   6.488 -0.0709  0.3029 -0.5390
 7833SOL    HW134961   3.817   4.349   6.454  0.7001  0.5876  1.3052
 7833SOL    HW234962   3.693   4.336   6.527  0.5758  1.1616 -0.6662
 7834SOL     OW34963   0.308   3.407  12.174  0.3397  0.3477  0.2761
 7834SOL    HW134964   0.322   3.389  12.082  2.6344 -0.5534  0.7912
 7834SOL    HW234965   0.299   3.502  12.162  2.0523  0.1317 -2.7067
 7835SOL     OW34966   4.217   1.728   6.863  0.0091  0.3541  0.1578
 7835SOL    HW134967   4.134   1.681   6.865 -0.9210  1.8999 -1.1539
 7835SOL    HW234968   4.217   1.751   6.770  0.1886 -0.8479 -0.1325
 7836SOL     OW34969   2.584   1.857   4.574 -0.2791  0.0200 -0.2668
 7836SOL    HW134970   2.541   1.942   4.567  0.3689  0.2808 -1.0712
 7836SOL    HW234971   2.645   1.857   4.501  3.0306  0.3202  2.4923
 7837SOL     OW34972   1.519   0.335   1.814  0.4210  0.2532  0.1681
 7837SOL    HW134973   1.475   0.253   1.790 -0.5677  1.2707 -1.4465
 7837SOL    HW234974   1.542   0.363   1.725 -0.8286  1.2583  0.1674
 7838SOL     OW34975   2.810   4.174   4.233 -0.2159 -0.2028  0.3392
 7838SOL    HW134976   2.720   4.202   4.218 -0.0763 -1.6967 -3.2022
 7838SOL    HW234977   2.842   4.241   4.295  0.1698  0.9155 -1.0612
 7839SOL     OW34978   0.260   3.664   0.516 -0.8900 -0.1397  0.3231
 7839SOL    HW134979   0.232   3.647   0.426 -1.2174 -0.7285  0.5323
 7839SOL    HW234980   0.280   3.757   0.525 -3.0109  0.4183 -0.7539
 7840SOL     OW34981   0.406   4.521   0.375 -0.0512  0.0265  0.3101
 7840SOL    HW134982   0.501   4.530   0.383 -0.0227 -0.0679  0.0877
 7840SOL    HW234983   0.415   4.518   0.279 -0.9231 -0.2812  0.2397
 7841SOL     OW34984   0.229   2.830  16.261 -0.1116  0.0623 -0.3026
 7841SOL    HW134985   0.275   2.866  16.185 -1.6704  1.5261 -0.5631
 7841SOL    HW234986   0.197   2.907  16.308 -1.5546 -1.5304  1.2828
 7842SOL     OW34987   1.229   2.990   1.825  0.1509  0.6930  0.1016
 7842SOL    HW134988   1.162   2.967   1.761  1.8987  1.0225 -1.8313
 7842SOL    HW234989   1.202   3.079   1.847 -1.0600  0.3209  0.1337
 7843SOL     OW34990   1.487   0.660   6.401  0.1114  0.5183  0.0234
 7843SOL    HW134991   1.399   0.653   6.439 -0.1835  0.5407 -0.6427
 7843SOL    HW234992   1.513   0.751   6.414  1.4289  0.2926 -1.0543
 7844SOL     OW34993   3.059   1.429   7.871  0.4027  0.7219  0.4429
 7844SOL    HW134994   3.027   1.402   7.785 -1.7630 -0.3834  1.6016
 7844SOL    HW234995   3.060   1.341   7.909  2.8919  0.3309 -0.5219
 7845SOL     OW34996   0.573   4.125   0.473 -0.7305  0.5110 -0.9865
 7845SOL    HW134997   0.574   4.121   0.568 -0.0708 -0.5101 -1.0428
 7845SOL    HW234998   0.492   4.078   0.456 -0.6791  0.1073 -0.0972
 7846SOL     OW34999   1.054   2.424   7.111  0.3281 -0.4278  0.4668
 7846SOL    HW135000   0.972   2.468   7.135  0.5195  1.7049 -2.8160
 7846SOL    HW235001   1.023   2.334   7.113 -2.0669  0.3956 -0.7374
 7847SOL     OW35002   0.067   0.187   6.784  0.2680 -0.4494  0.2157
 7847SOL    HW135003   4.723   0.207   6.720 -0.7459 -0.3357  1.3267
 7847SOL    HW235004   0.048   0.253   6.850  2.2859  1.1973 -0.8883
 7848SOL     OW35005   0.514   0.961  10.551 -0.3634 -0.6603 -0.0780
 7848SOL    HW135006   0.538   0.876  10.516  1.3566  0.4891 -1.6938
 7848SOL    HW235007   0.528   1.010  10.470 -0.0565  1.0262  0.9857
 7849SOL     OW35008   2.884   4.109   4.647 -0.3288 -0.1729  0.4190
 7849SOL    HW135009   2.921   4.190   4.612 -2.0829  0.8408  0.8895
 7849SOL    HW235010   2.939   4.043   4.605  3.5254  1.5018  2.7833
 7850SOL     OW35011   3.679   1.159   7.600  0.3209  0.3153 -0.0211
 7850SOL    HW135012   3.711   1.125   7.683 -1.1891  2.1780  1.3149
 7850SOL    HW235013   3.586   1.135   7.606 -0.3297  3.1769  1.2671
 7851SOL     OW35014   0.662   2.700  11.657  0.4861 -0.0429  0.1893
 7851SOL    HW135015   0.702   2.663  11.578 -1.4063 -3.1126  0.6881
 7851SOL    HW235016   0.717   2.687  11.734  1.2109  2.2514  0.0756
 7852SOL     OW35017   0.830   3.608   8.687  0.1101 -0.1070  0.1775
 7852SOL    HW135018   0.820   3.559   8.769  0.5196 -0.9639 -0.2839
 7852SOL    HW235019   0.744   3.644   8.667  0.4068  0.7234  0.4255
 7853SOL     OW35020   3.950   3.519   5.595 -0.1044  0.4536  0.3011
 7853SOL    HW135021   3.896   3.571   5.535 -0.2006 -0.9742 -0.8540
 7853SOL    HW235022   3.883   3.490   5.657  0.5774  1.6663  1.5887
 7854SOL     OW35023   4.519   3.935   5.442 -0.2589 -0.0296  0.8302
 7854SOL    HW135024   4.564   3.867   5.392  2.5651  2.4681 -0.0284
 7854SOL    HW235025   4.427   3.924   5.416  0.0219 -0.8852  0.2265
 7855SOL     OW35026   1.250   1.834   3.412  0.0030 -0.1402  0.1781
 7855SOL    HW135027   1.341   1.806   3.410 -0.3871 -1.3573 -0.6037
 7855SOL    HW235028   1.236   1.803   3.322  0.4592  0.8787 -0.2478
 7856SOL     OW35029   4.072   3.668   6.738  0.1905  0.6098 -0.3269
 7856SOL    HW135030   4.154   3.693   6.697  1.6564 -3.0803  0.3003
 7856SOL    HW235031   4.100   3.584   6.775 -0.8368 -0.4763 -1.9908
 7857SOL     OW35032   0.803   1.057   3.763 -1.0611  0.3434  0.6366
 7857SOL    HW135033   0.724   1.072   3.710  0.1351  1.1997 -0.8959
 7857SOL    HW235034   0.758   1.018   3.838 -0.0573 -0.1339  0.9889
 7858SOL     OW35035   1.325   3.727   4.083  0.1128  0.0958 -0.7626
 7858SOL    HW135036   1.333   3.808   4.032  0.1752  0.7788  0.3355
 7858SOL    HW235037   1.234   3.736   4.110  0.2496 -0.3117 -0.1799
 7859SOL     OW35038   1.735   4.511   8.336 -0.3308  0.0828  0.0340
 7859SOL    HW135039   1.655   4.539   8.380  0.9385  1.1409  1.7004
 7859SOL    HW235040   1.765   4.587   8.286 -0.5526  2.4265  3.4364
 7860SOL     OW35041   3.446   2.358  13.093  0.0261  0.3940 -0.0484
 7860SOL    HW135042   3.409   2.271  13.107  0.9928 -0.1131 -0.7119
 7860SOL    HW235043   3.538   2.345  13.114 -0.1602  0.9156  1.0970
 7861SOL     OW35044   2.224   3.379  11.652 -0.0412  0.7172 -0.5807
 7861SOL    HW135045   2.213   3.462  11.699 -1.9235  1.0508 -1.6052
 7861SOL    HW235046   2.297   3.406  11.596 -0.4229 -1.4350 -2.1041
 7862SOL     OW35047   2.174   0.127  11.599 -0.8935 -0.2057 -0.0618
 7862SOL    HW135048   2.191   0.088  11.513 -1.6824  3.0932 -1.7056
 7862SOL    HW235049   2.100   0.072  11.625 -2.3963  2.1733  0.6883
 7863SOL     OW35050   0.585   4.024   1.780 -0.3614  0.3585 -0.7017
 7863SOL    HW135051   0.633   4.060   1.855  1.2622  0.6069 -1.8592
 7863SOL    HW235052   0.609   4.080   1.706 -2.8476  0.3366 -1.5335
 7864SOL     OW35053   0.503   1.247  11.469 -0.1849 -0.0047 -0.2459
 7864SOL    HW135054   0.480   1.163  11.508  1.3998  0.2757  1.3179
 7864SOL    HW235055   0.557   1.283  11.540 -2.3480  1.9611  0.4104
 7865SOL     OW35056   1.129   4.117  17.527 -0.2251 -0.0214  0.0911
 7865SOL    HW135057   1.119   4.022  17.515  0.7152 -0.0153 -0.8024
 7865SOL    HW235058   1.125   4.149  17.437  0.1172  2.0104  0.8096
 7866SOL     OW35059   1.732   1.893  11.256 -0.5046 -0.3661 -0.7123
 7866SOL    HW135060   1.638   1.881  11.239 -0.6459 -1.4474  0.7851
 7866SOL    HW235061   1.762   1.947  11.184  0.8347 -0.0440  0.0934
 7867SOL     OW35062   3.007   4.012   7.512  0.0989  0.3480  0.0194
 7867SOL    HW135063   3.054   4.026   7.594  0.1057  0.2889  0.0256
 7867SOL    HW235064   3.057   3.934   7.485  0.3565  0.6350 -0.3301
 7868SOL     OW35065   2.495   0.689   5.634 -0.2451  0.3830  0.5889
 7868SOL    HW135066   2.480   0.744   5.557 -0.2913 -1.4534 -0.7022
 7868SOL    HW235067   2.507   0.600   5.601 -1.0194  1.4979 -2.7699
 7869SOL     OW35068   3.332   2.096   8.285 -0.0020 -0.6923  0.0894
 7869SOL    HW135069   3.397   2.107   8.214 -0.9266 -1.2975 -0.8522
 7869SOL    HW235070   3.389   2.089   8.361 -1.6473  1.1754  1.4750
 7870SOL     OW35071   4.653   4.104   4.401 -0.0692  0.8600  0.1630
 7870SOL    HW135072   4.710   4.113   4.477 -1.9444 -1.7556  1.8732
 7870SOL    HW235073   4.720   4.117   4.335 -1.1006  0.8876 -0.8806
 7871SOL     OW35074   4.619   1.294  10.902  0.2605  0.1587  0.7233
 7871SOL    HW135075   4.574   1.261  10.824  0.4299  2.9783 -0.5700
 7871SOL    HW235076   4.563   1.263  10.973 -2.3502  2.4949 -0.2832
 7872SOL     OW35077   2.129   1.584   6.357  0.0413  0.1345  0.1098
 7872SOL    HW135078   2.114   1.641   6.432 -0.7273  0.8581 -0.5947
 7872SOL    HW235079   2.223   1.601   6.349 -0.2983  2.1236  0.3210
 7873SOL     OW35080   1.499   1.792   8.610 -0.5725 -0.1588 -0.5174
 7873SOL    HW135081   1.424   1.806   8.551  0.5954  3.1974 -1.1763
 7873SOL    HW235082   1.493   1.698   8.629 -0.6079  0.4117  2.3228
 7874SOL     OW35083   2.635   4.564   2.577 -0.0613  0.7729 -0.2271
 7874SOL    HW135084   2.637   4.533   2.668 -2.3693  1.4811  0.0452
 7874SOL    HW235085   2.630   4.481   2.529 -0.4986 -0.2173  1.5008
 7875SOL     OW35086   2.600   2.802  14.166 -0.1236 -0.6730  0.3071
 7875SOL    HW135087   2.651   2.812  14.246 -0.5842 -0.6800  0.6007
 7875SOL    HW235088   2.529   2.761  14.214  1.6109 -3.2009  0.7036
 7876SOL     OW35089   2.348   3.422  10.907 -0.0754 -0.0466  0.4599
 7876SOL    HW135090   2.414   3.479  10.946  0.2085 -1.0055  1.3667
 7876SOL    HW235091   2.402   3.380  10.841 -0.0526  1.9684 -0.7936
 7877SOL     OW35092   0.440   1.574   8.406 -0.2473 -0.0328  0.0432
 7877SOL    HW135093   0.451   1.492   8.357 -1.9037 -0.8077  0.9862
 7877SOL    HW235094   0.488   1.633   8.348  1.9340  0.6239  2.5407
 7878SOL     OW35095   3.398   4.426   4.538 -0.2710  0.0453  0.3150
 7878SOL    HW135096   3.468   4.481   4.503 -0.7548 -0.4753 -1.4641
 7878SOL    HW235097   3.350   4.483   4.597 -0.8284 -0.0594 -0.0456
 7879SOL     OW35098   3.674   0.642   9.443 -0.0340 -0.2081  0.2015
 7879SOL    HW135099   3.743   0.579   9.466  2.0131  1.6038 -0.9953
 7879SOL    HW235100   3.643   0.591   9.368  0.3176 -0.5451  0.2835
 7880SOL     OW35101   3.155   0.608   8.067  0.2441 -0.1161  0.5968
 7880SOL    HW135102   3.135   0.609   7.974 -0.1230  0.9111  0.6890
 7880SOL    HW235103   3.251   0.601   8.069  0.3813  1.8731  0.4463
 7881SOL     OW35104   1.032   0.308   5.272 -0.5205 -0.2720 -0.1728
 7881SOL    HW135105   1.035   0.403   5.263 -3.2551 -0.3513 -1.7659
 7881SOL    HW235106   1.049   0.301   5.366 -1.4425 -0.1145 -0.0017
 7882SOL     OW35107   2.400   3.032   8.516 -0.5677  0.0564  0.2889
 7882SOL    HW135108   2.430   3.115   8.478  1.9240 -1.1640 -0.4732
 7882SOL    HW235109   2.401   2.986   8.431  1.5530 -0.9828  0.8556
 7883SOL     OW35110   1.576   0.453   5.158 -0.3931 -0.1492 -0.7604
 7883SOL    HW135111   1.580   0.502   5.240  1.2361  0.2474 -1.0946
 7883SOL    HW235112   1.552   0.523   5.098  0.4661  1.5178  0.8443
 7884SOL     OW35113   0.985   1.483   4.230 -0.3888  0.6709  0.0514
 7884SOL    HW135114   0.958   1.501   4.320 -1.8084 -1.4507  0.0520
 7884SOL    HW235115   0.902   1.452   4.193  0.4392 -2.4523  0.7876
 7885SOL     OW35116   3.105   1.581   4.912 -0.0291  0.2980  0.0410
 7885SOL    HW135117   3.141   1.619   4.832  0.8971  2.3376  1.4464
 7885SOL    HW235118   3.148   1.635   4.978  3.2529  0.6756 -2.3772
 7886SOL     OW35119   0.359   3.573   3.401 -0.4897 -0.5986 -0.0476
 7886SOL    HW135120   0.282   3.589   3.346 -1.5649  4.2518  2.9223
 7886SOL    HW235121   0.336   3.621   3.480  1.0609 -0.8757  0.5567
 7887SOL     OW35122   1.432   4.178  11.942 -0.5068  0.5260  0.2609
 7887SOL    HW135123   1.463   4.227  12.018 -0.9259  2.4386 -0.8089
 7887SOL    HW235124   1.342   4.158  11.967 -0.2664  1.0312  1.5555
 7888SOL     OW35125   0.574   2.058  13.563 -0.5579  0.3651 -0.3251
 7888SOL    HW135126   0.568   1.988  13.498 -3.7274  1.5632 -1.3447
 7888SOL    HW235127   0.485   2.095  13.560 -0.7305  0.1284  1.8163
 7889SOL     OW35128   0.443   0.518   6.395  0.2738 -0.0096 -0.7326
 7889SOL    HW135129   0.442   0.432   6.436 -0.2421  0.3973  0.1003
 7889SOL    HW235130   0.371   0.565   6.436 -0.2543 -0.8120 -0.7265
 7890SOL     OW35131   2.765   3.798   2.698  0.0066 -0.1355 -0.2334
 7890SOL    HW135132   2.790   3.891   2.703 -1.6429  0.3545 -1.1301
 7890SOL    HW235133   2.795   3.774   2.786 -0.7656 -0.7610 -0.1481
 7891SOL     OW35134   3.229   0.911  10.699  0.2553 -0.1563  0.2210
 7891SOL    HW135135   3.170   0.854  10.649  1.1657  0.2393 -1.2992
 7891SOL    HW235136   3.313   0.877  10.671  0.5027  0.7292 -0.1396
 7892SOL     OW35137   0.439   1.030  12.739  0.3710 -0.0764 -0.1781
 7892SOL    HW135138   0.428   1.125  12.745 -0.4270 -0.2444  1.0539
 7892SOL    HW235139   0.527   1.023  12.775  0.2035  0.5931  0.3726
 7893SOL     OW35140   3.522   2.829  11.934  0.0398 -0.1617  1.1516
 7893SOL    HW135141   3.465   2.844  11.858 -0.1074 -2.8759  0.7014
 7893SOL    HW235142   3.603   2.870  11.905 -0.0322 -0.5011  0.4573
 7894SOL     OW35143   0.630   1.191   5.947 -0.0957 -0.2553 -0.5045
 7894SOL    HW135144   0.550   1.139   5.955 -0.6388  0.4338 -1.4631
 7894SOL    HW235145   0.589   1.275   5.928 -1.0928 -1.2281 -2.6767
 7895SOL     OW35146   4.106   1.611   8.392 -1.0605 -0.4316  0.1892
 7895SOL    HW135147   4.101   1.549   8.319  1.4304 -2.7754  1.9866
 7895SOL    HW235148   4.123   1.689   8.339 -0.7622 -0.2783  0.5099
 7896SOL     OW35149   4.207   2.802  12.720  0.3159 -0.3046 -0.0409
 7896SOL    HW135150   4.126   2.823  12.766  1.6139  1.1010  1.6057
 7896SOL    HW235151   4.177   2.721  12.679 -0.4451 -1.2169  2.3859
 7897SOL     OW35152   4.357   0.658  10.309  0.4948  0.2633 -0.1550
 7897SOL    HW135153   4.358   0.753  10.299 -1.1061  0.0645 -2.2794
 7897SOL    HW235154   4.412   0.628  10.236  1.6895 -1.3716  1.4336
 7898SOL     OW35155   4.155   1.250   5.469  0.1466  0.2103  0.5920
 7898SOL    HW135156   4.192   1.217   5.387  0.6078  0.0351  0.8697
 7898SOL    HW235157   4.099   1.324   5.446 -0.1657 -0.4981 -0.9017
 7899SOL     OW35158   1.109   2.063   7.327 -0.5485  0.0038 -0.1112
 7899SOL    HW135159   1.112   1.968   7.340 -1.5908 -0.1208 -0.8105
 7899SOL    HW235160   1.024   2.097   7.353 -0.8146  0.1746 -1.2258
 7900SOL     OW35161   1.717   0.088   4.928 -0.0756 -0.3362 -0.2879
 7900SOL    HW135162   1.655   0.093   5.001 -3.0109  1.6138 -2.9543
 7900SOL    HW235163   1.708   0.165   4.872  0.9765 -0.1537 -0.2140
 7901SOL     OW35164   4.653   2.956  14.319 -0.2186  0.1492  0.0439
 7901SOL    HW135165   4.714   3.011  14.368  2.5503 -0.7177 -2.4193
 7901SOL    HW235166   4.694   2.965  14.233  0.7929  1.6378  0.6629
 7902SOL     OW35167   3.271   1.212   5.462  0.1887 -0.6188  0.4009
 7902SOL    HW135168   3.215   1.175   5.530 -0.3315 -0.0268  0.2965
 7902SOL    HW235169   3.289   1.301   5.494  1.1162 -0.3182 -0.9661
 7903SOL     OW35170   1.152   4.513   5.643  0.6917  0.3396  0.8718
 7903SOL    HW135171   1.113   4.482   5.561  0.6347  0.8255  0.7149
 7903SOL    HW235172   1.094   4.475   5.709 -0.6178 -1.4547 -1.2818
 7904SOL     OW35173   3.018   0.828   1.007  0.1184 -0.1670 -0.1668
 7904SOL    HW135174   2.940   0.816   1.061  0.2840  0.4987  0.2168
 7904SOL    HW235175   3.071   0.879   1.068 -1.8236 -0.6984  1.9760
 7905SOL     OW35176   4.374   3.739   3.948  0.2211 -0.0940  0.2172
 7905SOL    HW135177   4.342   3.716   4.036  2.3053 -2.1279  0.4341
 7905SOL    HW235178   4.347   3.664   3.895 -0.2631  0.1097  0.1729
 7906SOL     OW35179   4.343   0.525  17.303 -0.6359  0.4046 -0.2991
 7906SOL    HW135180   4.300   0.536  17.388  1.5036 -1.0612  0.9893
 7906SOL    HW235181   4.264   0.527  17.250  1.0161 -0.8338 -2.7979
 7907SOL     OW35182   0.929   0.295   3.259 -0.0275  0.1558 -0.6144
 7907SOL    HW135183   0.849   0.271   3.306  0.3643 -0.9361 -0.5043
 7907SOL    HW235184   0.953   0.377   3.302  0.4191  0.4788 -1.4654
 7908SOL     OW35185   3.922   3.283   0.007  0.2714  0.0249  0.9651
 7908SOL    HW135186   3.990   3.216   0.009 -0.1185 -0.4102 -1.3696
 7908SOL    HW235187   3.951   3.330  17.629  0.2120 -0.2317  0.7873
 7909SOL     OW35188   1.404   1.527  15.198  0.2019 -0.1318 -0.0474
 7909SOL    HW135189   1.422   1.575  15.117 -0.5844 -1.7802 -1.1938
 7909SOL    HW235190   1.438   1.441  15.175  2.3776  1.2525 -1.9040
 7910SOL     OW35191   1.418   3.179  13.172 -0.0768  0.2282  0.5593
 7910SOL    HW135192   1.435   3.153  13.263 -0.5876 -0.7655  0.3737
 7910SOL    HW235193   1.337   3.227  13.190 -0.3877  0.5547 -1.7667
 7911SOL     OW35194   1.346   4.104   8.156  0.1233  0.1997 -0.4680
 7911SOL    HW135195   1.388   4.077   8.075  2.0912  3.3592 -0.5258
 7911SOL    HW235196   1.299   4.183   8.130 -0.7276  0.0017  0.4476
 7912SOL     OW35197   1.255   3.790   3.099  0.0718 -0.2707 -0.6562
 7912SOL    HW135198   1.161   3.769   3.105  0.2246 -1.0500 -0.9322
 7912SOL    HW235199   1.249   3.883   3.081 -1.7857 -0.4695 -1.1140
 7913SOL     OW35200   0.488   0.129   8.028  0.3170  0.2430 -0.3446
 7913SOL    HW135201   0.477   0.216   8.067 -5.1098 -1.0517  1.0534
 7913SOL    HW235202   0.434   0.076   8.087  1.8022  1.0600  1.7511
 7914SOL     OW35203   0.385   2.856   6.943  0.3618  0.0875 -0.1747
 7914SOL    HW135204   0.312   2.906   6.908  0.4111  0.6748  0.5515
 7914SOL    HW235205   0.368   2.859   7.037 -2.1904  2.2827 -0.7231
 7915SOL     OW35206   4.397   2.407   6.872 -0.0635 -0.5130  0.2053
 7915SOL    HW135207   4.373   2.347   6.943  0.5771 -0.3461  0.5642
 7915SOL    HW235208   4.472   2.369   6.827  0.8096  3.0853 -1.3591
 7916SOL     OW35209   1.035   1.859   4.330  0.2142  0.0552  0.2402
 7916SOL    HW135210   0.942   1.874   4.312 -0.3539 -2.4816  1.0297
 7916SOL    HW235211   1.073   1.895   4.249  1.6112  2.5091  1.9880
 7917SOL     OW35212   4.467   1.710   3.336  0.3109  0.6814  0.4280
 7917SOL    HW135213   4.379   1.709   3.375  0.2526 -0.1819  0.2795
 7917SOL    HW235214   4.510   1.791   3.360 -2.2461  1.1847  3.3517
 7918SOL     OW35215   0.350   3.342  15.940  0.6439 -0.7365 -0.2592
 7918SOL    HW135216   0.283   3.341  15.872 -1.3179  1.7346  1.6336
 7918SOL    HW235217   0.292   3.334  16.015 -0.3837 -1.0468 -1.0961
 7919SOL     OW35218   0.554   0.740   5.834  0.6326  0.2733 -0.0668
 7919SOL    HW135219   0.612   0.687   5.780  2.6156  2.2447  0.1163
 7919SOL    HW235220   0.621   0.790   5.881  0.9271 -0.4475  0.2895
 7920SOL     OW35221   0.270   3.915   5.937  0.2210  0.1193  0.0952
 7920SOL    HW135222   0.244   3.830   5.903  0.4241  0.0474  0.1207
 7920SOL    HW235223   0.331   3.883   6.002 -0.0647  0.7808  0.6869
 7921SOL     OW35224   3.145   3.461   6.467 -0.2359 -0.1941  0.4408
 7921SOL    HW135225   3.136   3.549   6.431  1.0171 -0.2147  0.0763
 7921SOL    HW235226   3.134   3.415   6.384  0.2055  0.0891  0.2261
 7922SOL     OW35227   1.630   4.374  14.659 -0.6989  0.5324  0.1757
 7922SOL    HW135228   1.611   4.405  14.747 -1.0622  1.8738 -0.3769
 7922SOL    HW235229   1.557   4.314  14.641  0.4121 -0.1674 -2.1100
 7923SOL     OW35230   2.917   3.870   1.370  0.4061 -0.1845  0.0142
 7923SOL    HW135231   2.941   3.944   1.427 -0.8773  1.8074 -2.0493
 7923SOL    HW235232   3.002   3.837   1.343 -0.8571 -2.8593 -0.6810
 7924SOL     OW35233   0.529   4.634   7.336  0.0623 -0.2582  0.1537
 7924SOL    HW135234   0.615   4.669   7.315  0.6274 -2.4289 -1.2274
 7924SOL    HW235235   0.477   4.691   7.279 -0.5582 -0.7425  0.2332
 7925SOL     OW35236   0.988   2.883   7.612  0.8002  0.3807 -0.0974
 7925SOL    HW135237   1.027   2.939   7.679 -2.2212  1.9665  0.3392
 7925SOL    HW235238   1.052   2.891   7.542  1.0588 -1.2205 -0.0600
 7926SOL     OW35239   3.707   0.751   4.700 -0.3162 -0.5711  0.0307
 7926SOL    HW135240   3.618   0.757   4.734 -0.3113 -0.8424  0.0960
 7926SOL    HW235241   3.705   0.826   4.641 -0.7865  0.8309  1.8240
 7927SOL     OW35242   2.271   2.443  15.375  0.2307 -0.7093  0.8858
 7927SOL    HW135243   2.261   2.361  15.425 -1.2539  0.2653  2.1939
 7927SOL    HW235244   2.273   2.402  15.289  1.9202 -1.0789  1.0904
 7928SOL     OW35245   1.783   4.579   4.204  0.2342  0.5287 -0.0002
 7928SOL    HW135246   1.835   4.614   4.277  1.6810 -2.9300  0.6089
 7928SOL    HW235247   1.851   4.557   4.141 -0.3110  2.7242 -1.3622
 7929SOL     OW35248   2.713   4.715   9.192  0.7535  0.2387  0.2946
 7929SOL    HW135249   2.748   0.050   9.258 -0.4133  0.3302  0.8291
 7929SOL    HW235250   2.780   4.648   9.202 -0.8591 -1.3515  0.5730
 7930SOL     OW35251   3.835   2.723  14.565  0.0313 -0.4832  0.7643
 7930SOL    HW135252   3.833   2.760  14.477 -0.6905 -2.0130  0.1451
 7930SOL    HW235253   3.753   2.674  14.556 -0.0682 -0.1455 -0.0725
 7931SOL     OW35254   2.341   3.864  12.051 -0.0194  0.3953 -0.8908
 7931SOL    HW135255   2.353   3.775  12.084 -0.2002  0.3761 -0.8743
 7931SOL    HW235256   2.409   3.910  12.101 -2.1576  2.1297  0.4222
 7932SOL     OW35257   4.083   1.078   6.571 -0.5102 -0.0729  0.0940
 7932SOL    HW135258   4.051   1.093   6.482  1.2088  0.9476 -0.3398
 7932SOL    HW235259   4.092   1.164   6.610 -0.0263 -0.1917  0.2410
 7933SOL     OW35260   3.375   3.279  17.330 -0.0429  0.3043 -0.9026
 7933SOL    HW135261   3.446   3.226  17.366  0.0620  0.6404 -0.6280
 7933SOL    HW235262   3.415   3.321  17.254 -1.6850  1.3667 -1.1775
 7934SOL     OW35263   1.081   3.244   2.173 -0.1225 -0.0674 -0.1533
 7934SOL    HW135264   1.025   3.277   2.243  0.4930 -1.9659  1.2356
 7934SOL    HW235265   1.165   3.231   2.218 -1.2709 -0.3139  1.9451
 7935SOL     OW35266   1.686   1.413   0.449 -0.5100  0.8573 -0.4061
 7935SOL    HW135267   1.648   1.492   0.488 -0.9335 -0.9061  2.7149
 7935SOL    HW235268   1.607   1.384   0.403  0.5959 -0.9873 -1.1360
 7936SOL     OW35269   2.159   1.789   7.836  0.4127 -0.4913  0.1752
 7936SOL    HW135270   2.066   1.791   7.815  0.0970  0.1470  1.6148
 7936SOL    HW235271   2.163   1.802   7.931 -0.3787  0.4463  0.0748
 7937SOL     OW35272   3.755   4.142   2.693 -0.0142 -0.3971  0.3283
 7937SOL    HW135273   3.678   4.195   2.676  0.3991 -0.0025 -0.2877
 7937SOL    HW235274   3.729   4.109   2.779  0.7396  1.3676  1.2179
 7938SOL     OW35275   0.179   3.487  11.689  0.1724 -0.7626  0.2475
 7938SOL    HW135276   0.174   3.571  11.735  0.8701  0.3044 -1.6442
 7938SOL    HW235277   0.147   3.513  11.603 -1.4919  1.6379  1.5844
 7939SOL     OW35278   1.994   2.397   1.807  0.0670 -0.0964  0.6992
 7939SOL    HW135279   1.980   2.458   1.734  0.5423 -0.9524 -0.0968
 7939SOL    HW235280   1.987   2.314   1.762 -0.4640 -0.4503  1.4282
 7940SOL     OW35281   2.082   4.241   2.489  0.0395 -0.0452  0.1129
 7940SOL    HW135282   2.098   4.327   2.526  0.5166 -0.5478  1.0822
 7940SOL    HW235283   2.004   4.254   2.436  0.0257 -1.6435 -0.2574
 7941SOL     OW35284   2.725   0.081  17.296 -0.3496 -0.0188  0.0677
 7941SOL    HW135285   2.646   0.054  17.342  0.2063 -2.5050 -0.4238
 7941SOL    HW235286   2.785   0.019  17.337 -1.0580 -0.1511  0.9054
 7942SOL     OW35287   0.264   1.570  12.833 -0.5338 -0.6758  0.0152
 7942SOL    HW135288   0.182   1.554  12.880 -0.2437 -0.2229  0.6813
 7942SOL    HW235289   0.329   1.543  12.898  0.5317  0.7076 -0.4494
 7943SOL     OW35290   0.723   3.935   2.092  0.2185 -0.4167  0.2328
 7943SOL    HW135291   0.708   3.849   2.054  0.8363 -0.8206  0.8956
 7943SOL    HW235292   0.809   3.914   2.129 -0.4273 -1.8202  0.9173
 7944SOL     OW35293   2.614   1.070   6.787 -0.1500  0.1932  0.4806
 7944SOL    HW135294   2.700   1.090   6.750 -0.3227  1.2460  0.6492
 7944SOL    HW235295   2.595   1.155   6.825 -0.9185 -0.3853  1.3836
 7945SOL     OW35296   4.012   0.250   0.524 -0.3867 -0.6202  0.0661
 7945SOL    HW135297   3.992   0.183   0.589  0.1819 -2.0203 -1.1787
 7945SOL    HW235298   4.106   0.260   0.511 -0.3094 -0.8773  0.4505
 7946SOL     OW35299   2.318   2.502   6.574  0.4495  0.0020 -0.7317
 7946SOL    HW135300   2.392   2.478   6.518 -1.0579 -2.0456 -1.8879
 7946SOL    HW235301   2.339   2.595   6.579 -4.6841  1.1947 -1.6380
 7947SOL     OW35302   2.713   3.715   3.307  0.2869  0.3989 -0.4440
 7947SOL    HW135303   2.777   3.646   3.324 -1.8195 -2.1161 -2.6663
 7947SOL    HW235304   2.742   3.784   3.367 -1.2776  0.2417  0.5001
 7948SOL     OW35305   4.552   1.042   8.906 -0.0935  0.0729 -0.3360
 7948SOL    HW135306   4.493   0.985   8.956 -0.0342  5.0191  5.4451
 7948SOL    HW235307   4.633   1.012   8.948 -0.1672 -0.7457 -0.7859
 7949SOL     OW35308   1.947   1.450  11.652  0.2695 -0.2212  0.4741
 7949SOL    HW135309   2.002   1.476  11.578 -0.8542  4.1611  1.1682
 7949SOL    HW235310   1.896   1.382  11.608 -0.5658 -0.0778  1.2323
 7950SOL     OW35311   3.493   3.174   8.151 -0.0966 -0.5830 -0.0758
 7950SOL    HW135312   3.504   3.115   8.076 -1.2675 -2.8674  1.5592
 7950SOL    HW235313   3.401   3.199   8.151 -0.9487 -3.6743  0.2625
 7951SOL     OW35314   0.005   3.315   8.719  0.8306 -0.3241  0.2979
 7951SOL    HW135315   4.697   3.404   8.706 -0.1107 -0.6749  0.2316
 7951SOL    HW235316   0.071   3.326   8.787  0.7109 -0.4419  0.4355
 7952SOL     OW35317   0.579   1.874  15.989  0.8562 -0.1905 -0.1085
 7952SOL    HW135318   0.546   1.933  16.057 -0.2733 -0.5955 -0.3138
 7952SOL    HW235319   0.593   1.933  15.916  2.0239  2.0608  1.9282
 7953SOL     OW35320   0.738   1.705   7.114 -0.2015  0.6739  0.4778
 7953SOL    HW135321   0.763   1.791   7.080 -0.3732  0.0802 -1.1555
 7953SOL    HW235322   0.767   1.709   7.205  1.2324 -3.4923  0.2469
 7954SOL     OW35323   1.295   0.665  12.818 -0.0859  0.2930  0.0874
 7954SOL    HW135324   1.230   0.612  12.771  0.8723 -2.0027  1.3456
 7954SOL    HW235325   1.352   0.680  12.743  0.1539  0.8623  0.3864
 7955SOL     OW35326   1.887   0.683   7.464  0.4286  0.1348 -0.1881
 7955SOL    HW135327   1.959   0.631   7.501  0.6999 -0.3281 -1.3642
 7955SOL    HW235328   1.910   0.768   7.503 -0.1201  0.5384 -0.7539
 7956SOL     OW35329   0.434   3.094   3.215 -0.1768  0.2510  0.9150
 7956SOL    HW135330   0.525   3.065   3.221 -0.0999  0.2464 -0.2593
 7956SOL    HW235331   0.429   3.152   3.291 -0.5754  0.1485  0.9629
 7957SOL     OW35332   1.561   0.970  13.518  0.0959 -0.5092 -0.0327
 7957SOL    HW135333   1.553   1.033  13.447 -2.4458 -0.4123  0.3393
 7957SOL    HW235334   1.496   0.915  13.474 -1.5435  1.0139  0.4591
 7958SOL     OW35335   4.705   4.225  14.240  0.5639  0.3925  0.2913
 7958SOL    HW135336   4.624   4.185  14.272  0.8548  1.3795  2.2200
 7958SOL    HW235337   0.010   4.174  14.164  1.8487  1.7502 -0.1135
 7959SOL     OW35338   4.351   4.233   8.988 -0.1178  0.0344  0.2740
 7959SOL    HW135339   4.413   4.294   8.947 -0.0320  0.8093  1.5870
 7959SOL    HW235340   4.281   4.232   8.922 -0.2786 -0.1450  0.4456
 7960SOL     OW35341   3.782   2.093   6.972 -0.2458 -0.0849 -0.0737
 7960SOL    HW135342   3.782   1.998   6.970 -0.5762 -0.0574 -1.3400
 7960SOL    HW235343   3.872   2.110   6.998  0.3832  0.3653 -2.5598
 7961SOL     OW35344   1.245   4.518   0.806 -0.4873  0.0390 -0.3828
 7961SOL    HW135345   1.301   4.442   0.822 -0.2964  0.0427 -1.0117
 7961SOL    HW235346   1.292   4.545   0.727  1.1969  0.6551  0.8289
 7962SOL     OW35347   1.681   3.346   7.315  0.0547 -0.5359 -0.7668
 7962SOL    HW135348   1.679   3.310   7.404  0.3776  0.0414 -0.5253
 7962SOL    HW235349   1.631   3.276   7.274  0.7752 -1.5847  0.1351
 7963SOL     OW35350   2.184   4.246   0.225  0.0126  0.1921 -0.8193
 7963SOL    HW135351   2.202   4.153   0.239  1.4765  0.4231 -1.2468
 7963SOL    HW235352   2.150   4.248   0.136  1.6506 -0.5539 -1.4583
 7964SOL     OW35353   3.413   0.319  12.568  0.3211 -0.0092 -0.3984
 7964SOL    HW135354   3.403   0.392  12.506 -0.6622 -0.5846 -0.9227
 7964SOL    HW235355   3.508   0.316  12.579  0.3574 -0.5220 -0.8706
 7965SOL     OW35356   1.939   2.879  11.249 -0.2734  0.0274 -0.2250
 7965SOL    HW135357   1.855   2.838  11.231 -0.4907  1.0561 -1.5803
 7965SOL    HW235358   1.922   2.971  11.226 -0.4778  0.1773  0.5504
 7966SOL     OW35359   4.135   3.374   9.478  0.0120 -0.3964  0.2086
 7966SOL    HW135360   4.089   3.291   9.491 -1.9556  0.6676 -0.0331
 7966SOL    HW235361   4.213   3.339   9.434  0.0557 -0.7633  0.5709
 7967SOL     OW35362   1.442   1.706   2.789  0.2822 -0.1532  0.1993
 7967SOL    HW135363   1.377   1.708   2.719 -0.0744  0.8835  0.5573
 7967SOL    HW235364   1.417   1.622   2.826  1.3747 -0.9337 -0.8494
 7968SOL     OW35365   3.093   2.819   8.576 -0.3797 -0.5041  0.2223
 7968SOL    HW135366   3.047   2.764   8.638 -1.0498 -1.0727 -0.7806
 7968SOL    HW235367   3.032   2.886   8.544 -1.1863 -1.2569  0.2120
 7969SOL     OW35368   2.793   2.900   3.306 -0.5126 -0.0745 -0.1438
 7969SOL    HW135369   2.838   2.887   3.389  0.3451  0.2808 -0.5499
 7969SOL    HW235370   2.703   2.899   3.338 -0.7043  0.7228 -0.6388
 7970SOL     OW35371   2.057   3.972  12.088 -0.5606 -0.2310 -0.3790
 7970SOL    HW135372   2.062   4.062  12.120  1.0224 -0.1410 -0.8572
 7970SOL    HW235373   2.055   3.923  12.170  2.3882 -0.7476 -0.6112
 7971SOL     OW35374   1.805   3.612   3.927  0.1815  0.2764  0.3676
 7971SOL    HW135375   1.831   3.691   3.879  1.7670  0.1429  1.0093
 7971SOL    HW235376   1.852   3.625   4.010 -2.5219  1.2995  1.7302
 7972SOL     OW35377   2.855   0.941   8.498  0.3880 -0.0667  0.2295
 7972SOL    HW135378   2.869   1.001   8.572 -0.6930  1.0650 -0.4843
 7972SOL    HW235379   2.935   0.958   8.449  0.1447 -1.5526 -0.6785
 7973SOL     OW35380   3.575   1.646   5.904  0.2404  0.4580 -0.0989
 7973SOL    HW135381   3.581   1.592   5.983  1.5008  0.3501 -0.2567
 7973SOL    HW235382   3.482   1.636   5.886 -0.0641  0.1539  1.6939
 7974SOL     OW35383   2.283   3.951   5.248  0.2514  0.2136  0.0135
 7974SOL    HW135384   2.238   3.879   5.203  0.1948  0.0814  0.2870
 7974SOL    HW235385   2.266   4.014   5.177 -0.7171 -1.0265 -0.8481
 7975SOL     OW35386   2.053   1.588   4.221  0.8744  0.0218  0.0820
 7975SOL    HW135387   2.107   1.610   4.144  1.4916  1.3813  0.9030
 7975SOL    HW235388   2.081   1.664   4.272  0.4956  0.4813 -0.3900
 7976SOL     OW35389   2.891   1.069   4.673  0.8129  0.3627  0.1792
 7976SOL    HW135390   2.925   1.106   4.755 -1.7136 -0.7898  1.7333
 7976SOL    HW235391   2.900   0.977   4.699 -2.1132 -0.2892 -1.1070
 7977SOL     OW35392   4.592   0.972   6.328 -0.5974 -0.4009 -0.2940
 7977SOL    HW135393   4.647   0.999   6.401 -1.0951 -1.1109  0.3347
 7977SOL    HW235394   4.585   0.877   6.337  2.1838 -0.5998 -0.3841
 7978SOL     OW35395   1.999   3.416   2.713 -0.6872 -0.6222  0.2425
 7978SOL    HW135396   2.027   3.452   2.629  0.3033 -1.7229  0.1122
 7978SOL    HW235397   1.911   3.453   2.715  0.1377  1.2355  2.0818
 7979SOL     OW35398   3.665   3.220   4.522  0.0072 -0.2418 -0.1038
 7979SOL    HW135399   3.583   3.218   4.473  1.4100  2.9955 -2.5928
 7979SOL    HW235400   3.722   3.279   4.473  1.4294 -1.7920 -0.3051
 7980SOL     OW35401   0.055   1.354  15.832  0.1057  0.1144 -0.1591
 7980SOL    HW135402   4.700   1.355  15.886  0.0932 -3.1684 -0.1130
 7980SOL    HW235403   0.110   1.294  15.883 -0.1620  1.3574  1.5896
 7981SOL     OW35404   1.800   2.044   2.082 -0.4038 -0.0409 -0.3958
 7981SOL    HW135405   1.712   2.039   2.047  0.3308 -1.6740 -1.9954
 7981SOL    HW235406   1.847   2.006   2.008  0.2178  2.2737 -1.1873
 7982SOL     OW35407   0.979   1.528   8.851  0.4279 -0.3398  0.1136
 7982SOL    HW135408   0.931   1.593   8.800  2.1467  0.2893 -0.6744
 7982SOL    HW235409   0.999   1.578   8.931  1.7404  1.6928 -1.4984
 7983SOL     OW35410   3.785   2.911   7.889 -0.2022 -0.0138  0.0334
 7983SOL    HW135411   3.788   3.007   7.890 -1.0449 -0.0110  1.6323
 7983SOL    HW235412   3.881   2.906   7.889 -0.1061  1.9505  2.5187
 7984SOL     OW35413   2.799   1.178   4.166 -0.3373 -0.2558  0.4238
 7984SOL    HW135414   2.773   1.116   4.097 -1.4335  2.1604 -1.3383
 7984SOL    HW235415   2.721   1.197   4.217 -1.9502 -0.8532 -1.8527
 7985SOL     OW35416   0.042   0.853  13.505 -0.2177  0.0987 -0.4425
 7985SOL    HW135417   0.135   0.836  13.493 -0.5287 -1.3552 -0.8510
 7985SOL    HW235418   0.055   0.920  13.571  0.9667 -1.9365  1.3792
 7986SOL     OW35419   0.411   0.331   0.690  0.0008 -0.0858 -0.5848
 7986SOL    HW135420   0.395   0.242   0.658 -1.2574 -0.3094  0.6339
 7986SOL    HW235421   0.342   0.370   0.638 -0.3104  0.1260 -0.0147
 7987SOL     OW35422   3.267   4.039   2.947 -0.3907 -0.1721 -0.4092
 7987SOL    HW135423   3.274   4.117   3.003  1.2387 -1.6752  1.4558
 7987SOL    HW235424   3.301   3.970   3.004  0.8932 -1.4872 -2.7922
 7988SOL     OW35425   1.062   4.313   2.686  0.6299 -0.0905 -0.0743
 7988SOL    HW135426   1.012   4.240   2.649 -2.4923  1.8543  0.3427
 7988SOL    HW235427   1.118   4.275   2.754  2.4190  1.1830 -0.8461
 7989SOL     OW35428   0.743   1.304   9.620 -0.1873 -0.6235  0.4780
 7989SOL    HW135429   0.658   1.280   9.658 -1.5517  0.0583 -2.1774
 7989SOL    HW235430   0.786   1.220   9.602  1.0277  0.5335 -2.1004
 7990SOL     OW35431   2.716   3.345  11.333  0.2125 -0.0052  0.2318
 7990SOL    HW135432   2.761   3.423  11.302 -1.2334  1.3831  1.6187
 7990SOL    HW235433   2.623   3.367  11.326  0.6987  2.1523  0.8193
 7991SOL     OW35434   2.536   2.640  10.710 -0.3621 -0.2696  0.2848
 7991SOL    HW135435   2.455   2.617  10.664 -0.0804  0.7077 -0.7069
 7991SOL    HW235436   2.602   2.600  10.653 -0.7507  0.1656 -0.4734
 7992SOL     OW35437   2.603   1.330   6.871  0.3348  0.0160  0.4178
 7992SOL    HW135438   2.652   1.297   6.947  0.6241  0.6855  0.5244
 7992SOL    HW235439   2.674   1.362   6.815  0.1030  0.4607  0.3774
 7993SOL     OW35440   1.343   1.401  17.309  0.3496 -0.6237 -0.5240
 7993SOL    HW135441   1.359   1.397  17.403 -2.1444  0.5897 -0.0496
 7993SOL    HW235442   1.308   1.490  17.297 -0.4372 -0.4301  3.1347
 7994SOL     OW35443   4.388   3.871  16.688  0.4404 -0.1764 -0.8206
 7994SOL    HW135444   4.354   3.949  16.645 -0.6585  0.9518  2.0821
 7994SOL    HW235445   4.483   3.886  16.682  0.3921  0.2945 -0.3973
 7995SOL     OW35446   4.405   3.046   0.157  0.4251  0.1809  0.2090
 7995SOL    HW135447   4.372   3.109   0.221 -0.5072 -0.6079  0.5120
 7995SOL    HW235448   4.465   2.994   0.209  0.1261 -0.4833 -0.1091
 7996SOL     OW35449   2.393   0.284   3.374 -0.0137 -0.1628  0.3756
 7996SOL    HW135450   2.380   0.353   3.439  0.3144  0.4224 -0.1769
 7996SOL    HW235451   2.447   0.239   3.440  1.5755  1.0497 -0.0901
 7997SOL     OW35452   4.476   0.084  12.424 -0.0668 -0.3098  0.1232
 7997SOL    HW135453   4.532   0.065  12.499 -1.9320 -2.7986  0.9051
 7997SOL    HW235454   4.541   0.106  12.358  0.3666 -0.4101  0.5206
 7998SOL     OW35455   0.893   2.826   1.974  0.2634  0.1769  0.3638
 7998SOL    HW135456   0.920   2.912   2.004 -1.9624  1.5311 -1.5220
 7998SOL    HW235457   0.943   2.809   1.894 -1.2150 -0.3539 -0.4496
 7999SOL     OW35458   2.300   1.691  15.660  0.3256 -0.2880  0.3416
 7999SOL    HW135459   2.384   1.734  15.644  0.3366 -0.3737  0.1785
 7999SOL    HW235460   2.288   1.655  15.572  0.0097  2.1305 -0.6132
 8000SOL     OW35461   3.868   4.556   7.036 -0.1366 -0.3553 -0.0781
 8000SOL    HW135462   3.850   4.462   7.028 -0.5924 -0.3423  0.7771
 8000SOL    HW235463   3.802   4.598   6.982 -1.2470 -0.0581  1.5100
 8001SOL     OW35464   4.070   3.582   4.360 -0.5264  0.2632 -0.2758
 8001SOL    HW135465   4.154   3.571   4.315 -0.9160  1.2461 -1.2653
 8001SOL    HW235466   4.079   3.674   4.384 -0.1925  0.0919  0.2667
 8002SOL     OW35467   1.533   2.448   8.376 -0.2489  0.3833  0.5289
 8002SOL    HW135468   1.614   2.412   8.412 -0.2950  1.5137  1.7701
 8002SOL    HW235469   1.493   2.448   8.463 -0.9642  2.0465  0.2087
 8003SOL     OW35470   1.665   4.098  15.121  0.2175  0.3899 -0.4670
 8003SOL    HW135471   1.703   4.012  15.101 -1.4778 -0.7293  1.1287
 8003SOL    HW235472   1.627   4.137  15.042  0.2171 -0.8019 -1.0459
 8004SOL     OW35473   0.302   2.904  13.847  0.5853 -0.2232 -0.2501
 8004SOL    HW135474   0.342   2.939  13.767 -0.4800 -0.7653 -1.0155
 8004SOL    HW235475   0.307   2.972  13.915 -2.1817 -1.1675  0.8664
 8005SOL     OW35476   3.707   1.560   6.714 -0.1624 -0.0941 -0.1277
 8005SOL    HW135477   3.638   1.581   6.652 -0.3144  0.5389  0.2553
 8005SOL    HW235478   3.673   1.488   6.766 -1.7688 -1.2273 -2.7936
 8006SOL     OW35479   2.997   4.522   6.833 -0.0047  0.4201  0.0299
 8006SOL    HW135480   2.973   4.492   6.921 -0.0897 -0.9716 -0.4797
 8006SOL    HW235481   3.076   4.475   6.810 -0.0673  1.2650 -1.9006
 8007SOL     OW35482   1.907   1.914   1.875  0.2054  0.9455  0.3408
 8007SOL    HW135483   1.862   1.949   1.798  0.0514  0.5227  0.2420
 8007SOL    HW235484   1.854   1.835   1.886  1.7821  0.0109  1.0608
 8008SOL     OW35485   2.901   4.693   2.562  0.4038 -0.5659 -0.0055
 8008SOL    HW135486   2.896   0.047   2.507  0.1152 -1.1164 -0.7626
 8008SOL    HW235487   2.809   4.684   2.590 -0.0203 -0.5517 -1.4263
 8009SOL     OW35488   1.362   0.521   1.933 -0.1602  0.7598 -0.0224
 8009SOL    HW135489   1.438   0.470   1.903 -0.2276 -0.2483  1.5581
 8009SOL    HW235490   1.307   0.502   1.856 -1.2036  0.5969  0.7601
 8010SOL     OW35491   0.091   3.642   6.174  0.7370  0.4206  0.0785
 8010SOL    HW135492   0.086   3.679   6.086  0.7636  0.5848  0.1471
 8010SOL    HW235493   0.169   3.590   6.155 -0.0474 -1.5092  2.0566
 8011SOL     OW35494   3.879   3.022  16.612  0.0093 -0.2410  0.1774
 8011SOL    HW135495   3.811   3.070  16.659 -1.3660 -0.2945 -1.7570
 8011SOL    HW235496   3.949   3.082  16.637 -0.6491  1.1262 -1.2781
 8012SOL     OW35497   1.663   2.079   7.238  0.3971 -1.0020  0.7896
 8012SOL    HW135498   1.743   2.027   7.240  0.8678 -0.3522 -0.4816
 8012SOL    HW235499   1.658   2.092   7.143  0.8840  0.8448  1.0058
 8013SOL     OW35500   4.099   0.074   8.033  0.2109  0.1326 -0.7649
 8013SOL    HW135501   4.157   0.018   8.085 -0.3912 -1.3647 -1.7028
 8013SOL    HW235502   4.060   0.014   7.970  0.4775  1.5987 -2.3430
 8014SOL     OW35503   0.486   0.502   8.496  0.4451  0.2454  0.4736
 8014SOL    HW135504   0.468   0.592   8.523  4.1754  0.9518  0.6253
 8014SOL    HW235505   0.415   0.465   8.548  0.1691 -1.0209 -0.8041
 8015SOL     OW35506   3.474   3.861  11.104 -0.1284 -0.4909 -0.0528
 8015SOL    HW135507   3.401   3.873  11.044 -0.9295 -2.1091  0.6132
 8015SOL    HW235508   3.447   3.909  11.182  0.3131 -2.6654  1.4198
 8016SOL     OW35509   1.932   1.465   7.377  0.2933  0.0112 -0.4297
 8016SOL    HW135510   2.015   1.419   7.389 -0.4670 -1.6923 -1.7513
 8016SOL    HW235511   1.866   1.407   7.417 -1.0734  1.3228 -0.7894
 8017SOL     OW35512   0.868   0.742   1.631  0.6726  0.3314 -0.7071
 8017SOL    HW135513   0.948   0.689   1.629 -0.5630 -1.4802 -2.2993
 8017SOL    HW235514   0.800   0.685   1.595  0.5244 -0.3951  0.7179
 8018SOL     OW35515   3.358   1.784   4.578  0.4204  0.0546  0.3916
 8018SOL    HW135516   3.321   1.802   4.664 -0.0832  0.4718  0.0848
 8018SOL    HW235517   3.432   1.726   4.599  0.6527  0.1575 -0.1191
 8019SOL     OW35518   1.987   1.413   3.361  0.1896  0.0240 -0.2280
 8019SOL    HW135519   1.949   1.487   3.313 -2.0155 -0.8974  0.1124
 8019SOL    HW235520   2.070   1.451   3.389  1.6857 -1.7972 -2.2351
 8020SOL     OW35521   0.188   3.944   6.549  0.1180 -0.6019 -0.0363
 8020SOL    HW135522   0.159   3.877   6.487 -2.2591  0.4632 -0.0748
 8020SOL    HW235523   0.274   3.906   6.564  0.3302  0.1318  0.5937
 8021SOL     OW35524   3.973   3.032   6.094 -0.0180 -0.4658 -0.1519
 8021SOL    HW135525   3.960   2.956   6.150  1.0141  1.9951  3.4021
 8021SOL    HW235526   4.065   3.029   6.068 -0.8908 -0.7236 -3.2002
 8022SOL     OW35527   3.992   3.950   4.734 -0.1838  0.0609 -0.1667
 8022SOL    HW135528   3.993   4.044   4.718  0.3285  0.2628  1.0637
 8022SOL    HW235529   4.004   3.944   4.829 -0.6922 -0.8776 -0.1615
 8023SOL     OW35530   1.436   3.131   6.138  0.2777 -0.1439  0.0795
 8023SOL    HW135531   1.488   3.164   6.211 -0.0629  0.9782 -0.1851
 8023SOL    HW235532   1.403   3.050   6.178 -0.7396 -0.3072 -1.0854
 8024SOL     OW35533   4.659   4.604   1.634  0.4517  0.5299  0.4073
 8024SOL    HW135534   4.613   4.667   1.690  0.2823 -1.4018  2.4445
 8024SOL    HW235535   4.582   4.560   1.599 -0.1437  1.4648  0.5264
 8025SOL     OW35536   1.489   1.215   9.926  0.1647  0.4185 -1.0990
 8025SOL    HW135537   1.579   1.213   9.958  0.3585 -0.7116 -1.7321
 8025SOL    HW235538   1.458   1.125   9.933 -1.0033  1.0829  2.2746
 8026SOL     OW35539   0.320   3.776  14.472 -0.1842  0.2926  0.0936
 8026SOL    HW135540   0.380   3.741  14.406  1.8645  2.2684  0.8901
 8026SOL    HW235541   0.324   3.870  14.459 -1.8467  0.3474  0.0565
 8027SOL     OW35542   1.334   1.119  14.775 -0.1804 -0.3042  0.1878
 8027SOL    HW135543   1.309   1.158  14.859  1.1859 -3.0893  1.8635
 8027SOL    HW235544   1.338   1.024  14.785  3.6948 -0.4391 -2.6613
 8028SOL     OW35545   3.997   2.663   7.468 -0.1863  0.3846 -0.4093
 8028SOL    HW135546   4.053   2.586   7.474 -0.7866  0.1299  1.6963
 8028SOL    HW235547   4.052   2.727   7.513 -0.2949 -0.5557  1.0265
 8029SOL     OW35548   4.180   1.848   3.738 -0.2559 -0.1863 -0.0036
 8029SOL    HW135549   4.111   1.867   3.675 -1.3820 -1.8381  0.7305
 8029SOL    HW235550   4.236   1.775   3.713  1.2147  0.9907 -0.1094
 8030SOL     OW35551   1.831   2.733   2.897 -0.0042 -0.2673  0.1505
 8030SOL    HW135552   1.789   2.808   2.853  2.3019  1.3050  0.6406
 8030SOL    HW235553   1.895   2.707   2.831  1.5219  0.7779  1.2349
 8031SOL     OW35554   0.986   1.775   1.706  0.2760 -0.3487 -0.2849
 8031SOL    HW135555   0.948   1.826   1.634  1.6626 -1.3185 -1.6867
 8031SOL    HW235556   0.915   1.723   1.744  0.4400  0.6430  1.3360
 8032SOL     OW35557   4.546   0.545   6.607 -0.3782  0.2949  0.0236
 8032SOL    HW135558   4.547   0.573   6.699 -0.6241 -0.6904  0.3323
 8032SOL    HW235559   4.464   0.589   6.584 -0.0557  0.4864 -0.7482
 8033SOL     OW35560   3.128   2.468   5.283 -0.7727  0.1905 -0.0221
 8033SOL    HW135561   3.181   2.515   5.348 -1.2826  1.2615 -0.3997
 8033SOL    HW235562   3.165   2.379   5.286 -0.4178  0.3135 -1.0724
 8034SOL     OW35563   2.303   2.979   3.535  0.2139 -0.7031  0.0948
 8034SOL    HW135564   2.371   2.934   3.585 -1.5946 -1.5550  1.7771
 8034SOL    HW235565   2.224   2.994   3.587 -0.6020 -0.2041 -1.3027
 8035SOL     OW35566   2.631   2.697   6.705  0.7258  0.0484  0.0676
 8035SOL    HW135567   2.537   2.678   6.704  0.7098  0.0704  1.1871
 8035SOL    HW235568   2.663   2.607   6.715 -1.4536 -0.8276 -0.7950
 8036SOL     OW35569   3.273   2.408   4.478 -0.3727  0.6620  0.3307
 8036SOL    HW135570   3.314   2.403   4.565  1.7617 -0.8276 -0.7797
 8036SOL    HW235571   3.353   2.416   4.427  0.1179  1.1519  1.1700
 8037SOL     OW35572   1.834   2.518  15.565  0.3125  0.0904 -0.0319
 8037SOL    HW135573   1.896   2.517  15.492  0.9523  1.8802  0.4974
 8037SOL    HW235574   1.848   2.610  15.585  0.8423 -0.0578  0.2760
 8038SOL     OW35575   2.693   3.736   5.842  0.0598  0.2290  0.2212
 8038SOL    HW135576   2.667   3.764   5.930  0.3928 -2.5501  1.2067
 8038SOL    HW235577   2.778   3.693   5.847 -1.9074 -3.5229  1.1483
 8039SOL     OW35578   1.043   3.794   4.837 -0.4277 -0.7641  0.0500
 8039SOL    HW135579   1.126   3.771   4.795 -0.7106  0.2065 -1.0515
 8039SOL    HW235580   1.016   3.703   4.851  0.6589 -1.2028 -0.7522
 8040SOL     OW35581   1.459   0.221   5.710  0.0780 -0.2160  0.1422
 8040SOL    HW135582   1.422   0.140   5.744 -1.0384  1.2438  2.4051
 8040SOL    HW235583   1.481   0.193   5.621  0.2806  2.0898 -0.5266
 8041SOL     OW35584   2.849   0.947   7.861  0.1526  0.5221  0.6065
 8041SOL    HW135585   2.776   0.946   7.923  0.1773  0.5599  0.6362
 8041SOL    HW235586   2.807   0.898   7.790  0.1888  2.1163 -0.5135
 8042SOL     OW35587   4.163   4.564  16.248  0.3197 -0.0383  0.4329
 8042SOL    HW135588   4.236   4.504  16.263 -0.1114 -0.5323  0.5652
 8042SOL    HW235589   4.149   4.561  16.153  2.1154  0.2661  0.1601
 8043SOL     OW35590   3.649   4.430   3.198  0.2142  0.1388 -0.2836
 8043SOL    HW135591   3.599   4.511   3.208 -0.3199 -0.4283  1.5320
 8043SOL    HW235592   3.683   4.433   3.108  3.0627 -1.2040  0.7730
 8044SOL     OW35593   3.557   1.985   7.133 -0.0646 -0.2095  0.3216
 8044SOL    HW135594   3.507   1.976   7.214 -2.7657 -1.6159 -1.4934
 8044SOL    HW235595   3.647   1.996   7.162  0.1137  0.1373 -0.3674
 8045SOL     OW35596   1.661   4.404   4.621  0.1231 -0.4466  0.2137
 8045SOL    HW135597   1.613   4.487   4.616  3.0903  1.2188 -0.6022
 8045SOL    HW235598   1.680   4.398   4.715 -0.1307 -0.0098  0.2924
 8046SOL     OW35599   1.804   1.939   7.737  0.8651 -0.1284  0.2879
 8046SOL    HW135600   1.825   2.027   7.706  1.2472 -0.5842 -0.7466
 8046SOL    HW235601   1.775   1.978   7.820 -0.5069 -0.3093 -0.1038
 8047SOL     OW35602   3.454   1.258   3.916  0.3381 -0.4230 -0.5264
 8047SOL    HW135603   3.546   1.281   3.927  0.5533 -2.0452  1.1342
 8047SOL    HW235604   3.460   1.164   3.901  1.4214 -0.3567 -0.4685
 8048SOL     OW35605   0.555   4.146  13.220  0.1886  0.0534  0.4601
 8048SOL    HW135606   0.644   4.140  13.256  0.5688 -1.1518 -0.6763
 8048SOL    HW235607   0.567   4.128  13.126  1.6880 -1.0992  0.8664
 8049SOL     OW35608   0.585   0.552   9.988  0.2576  0.4038 -0.6370
 8049SOL    HW135609   0.666   0.509   9.959  1.3922  1.0894  1.4994
 8049SOL    HW235610   0.543   0.553   9.902  1.4538 -1.9187 -1.2573
 8050SOL     OW35611   1.251   2.937   0.925 -0.3356 -0.3816  0.3116
 8050SOL    HW135612   1.167   2.980   0.938 -0.7956 -1.2424  0.2438
 8050SOL    HW235613   1.234   2.849   0.959  2.1189 -0.9624  0.0231
 8051SOL     OW35614   1.399   3.246   4.825 -0.4761 -0.2966 -0.1180
 8051SOL    HW135615   1.326   3.196   4.789 -1.0652  0.6329 -0.2103
 8051SOL    HW235616   1.458   3.176   4.851  0.8907  0.6801 -0.5842
 8052SOL     OW35617   0.539   4.440  13.174  0.0979  1.1495  0.5978
 8052SOL    HW135618   0.564   4.525  13.138  2.4593 -0.8853 -2.5982
 8052SOL    HW235619   0.564   4.376  13.108 -0.6958  0.4848  0.9409
 8053SOL     OW35620   1.452   3.727   9.221 -0.2444  0.8785  0.0920
 8053SOL    HW135621   1.501   3.770   9.292  0.0075  1.8808 -0.6843
 8053SOL    HW235622   1.380   3.780   9.187 -0.8659 -1.1032 -1.6386
 8054SOL     OW35623   2.137   2.836   6.466  0.2901  0.0273 -0.1844
 8054SOL    HW135624   2.132   2.931   6.479 -2.3133 -0.2346  0.6118
 8054SOL    HW235625   2.045   2.812   6.458 -0.0505  1.2988 -0.0237
 8055SOL     OW35626   1.940   3.403   5.778 -0.3889  0.3202 -0.3278
 8055SOL    HW135627   1.989   3.325   5.804  0.1239 -0.1672 -2.7946
 8055SOL    HW235628   1.990   3.419   5.699  0.6864  1.2259  0.5327
 8056SOL     OW35629   1.778   2.865  13.979  0.1755  0.4423 -0.6728
 8056SOL    HW135630   1.756   2.939  14.037 -0.1203 -1.0185  1.0738
 8056SOL    HW235631   1.873   2.867  13.985 -0.0213  2.4900  2.3017
 8057SOL     OW35632   2.700   1.577  11.991  0.0861 -0.1807 -0.3358
 8057SOL    HW135633   2.624   1.621  11.953 -0.8160  0.0376  1.7446
 8057SOL    HW235634   2.666   1.493  12.019 -1.9284  0.5101 -0.6772
 8058SOL     OW35635   1.337   0.334  15.733  0.0454  0.6252 -0.0845
 8058SOL    HW135636   1.297   0.297  15.811  0.4369 -0.2055 -0.2736
 8058SOL    HW235637   1.382   0.411  15.765 -4.2151  2.1395  2.2050
 8059SOL     OW35638   1.979   1.126  14.245 -0.3874  0.6171 -0.3133
 8059SOL    HW135639   1.948   1.036  14.237  1.7461 -0.1621  0.3239
 8059SOL    HW235640   1.962   1.156  14.155  1.5883  0.1973 -0.8268
 8060SOL     OW35641   1.846   1.738   9.942 -0.1433  0.0014 -0.1347
 8060SOL    HW135642   1.883   1.652   9.920 -0.0989 -0.1153  0.3925
 8060SOL    HW235643   1.897   1.803   9.892  2.1346 -0.0616  2.0900
 8061SOL     OW35644   1.229   3.786   0.479  0.5560 -0.1235  0.4822
 8061SOL    HW135645   1.220   3.694   0.452 -1.1830 -0.2291  1.4227
 8061SOL    HW235646   1.217   3.775   0.573  0.3161 -1.4613  0.2995
 8062SOL     OW35647   0.488   1.261  11.774 -0.0265  0.0829  0.0292
 8062SOL    HW135648   0.488   1.169  11.798 -0.1395 -0.2979 -1.4651
 8062SOL    HW235649   0.453   1.313  11.847 -0.5178  2.0976 -1.6438
 8063SOL     OW35650   2.480   2.955   0.027  0.1684  0.5181 -0.1267
 8063SOL    HW135651   2.470   2.875   0.079  1.5847  0.9599  0.8329
 8063SOL    HW235652   2.414   2.942  17.659  0.7447  1.4799 -0.8598
 8064SOL     OW35653   0.377   0.257  10.634  0.1817 -0.6928  0.2573
 8064SOL    HW135654   0.282   0.254  10.639  0.0825 -1.6455 -2.6186
 8064SOL    HW235655   0.406   0.232  10.722  1.1241 -1.1518 -0.1814
 8065SOL     OW35656   1.644   1.778   4.305  0.3805  0.4386 -0.2986
 8065SOL    HW135657   1.635   1.839   4.231 -0.6399  1.3008  0.5448
 8065SOL    HW235658   1.740   1.773   4.308  0.3608 -0.1215 -0.5801
 8066SOL     OW35659   1.257   3.413   2.461 -0.3302 -0.3521  0.9865
 8066SOL    HW135660   1.224   3.501   2.478 -0.4169  0.0495 -1.3029
 8066SOL    HW235661   1.314   3.402   2.537  0.1109  1.2406  0.8951
 8067SOL     OW35662   0.449   3.897   1.096 -0.1530  0.0904  0.4435
 8067SOL    HW135663   0.355   3.891   1.115 -0.6232  2.0076 -1.2974
 8067SOL    HW235664   0.462   3.809   1.061  1.8331 -0.2620  2.0945
 8068SOL     OW35665   2.319   2.694  16.544 -0.6431 -1.0501 -0.1805
 8068SOL    HW135666   2.317   2.645  16.626  0.7469  3.0296  2.3100
 8068SOL    HW235667   2.226   2.713  16.543 -0.6535 -1.2073 -1.5272
 8069SOL     OW35668   3.250   3.080   5.457 -0.7834  0.2962 -0.6957
 8069SOL    HW135669   3.155   3.067   5.453 -0.9318  0.5383  1.9518
 8069SOL    HW235670   3.260   3.165   5.500  0.4102  0.0605 -0.5028
 8070SOL     OW35671   1.540   2.649   6.848  0.2389 -0.0171 -0.0903
 8070SOL    HW135672   1.490   2.695   6.915  0.0502 -0.4797  0.0918
 8070SOL    HW235673   1.616   2.621   6.899  1.9190 -0.4243 -2.8198
 8071SOL     OW35674   2.245   1.737   7.256 -0.2528 -0.1346  0.4185
 8071SOL    HW135675   2.234   1.810   7.195  0.1721  1.6466  2.4545
 8071SOL    HW235676   2.286   1.783   7.329 -0.0632 -0.9439  0.8283
 8072SOL     OW35677   1.331   4.224   9.361 -0.1961 -0.0291  0.7372
 8072SOL    HW135678   1.358   4.293   9.421  1.1999 -0.8094  1.0066
 8072SOL    HW235679   1.413   4.195   9.321 -0.1800  0.9780  0.0533
 8073SOL     OW35680   4.392   2.962  11.553 -0.1678  0.4170  0.1448
 8073SOL    HW135681   4.446   2.892  11.517 -0.4991 -1.2620  2.9157
 8073SOL    HW235682   4.368   2.931  11.640 -0.9041  2.3718  0.6401
 8074SOL     OW35683   1.385   2.054   3.181  0.4039  0.1528  0.8784
 8074SOL    HW135684   1.386   2.011   3.096  1.2151  1.2375  0.3419
 8074SOL    HW235685   1.414   2.144   3.165  0.3615 -0.2317 -1.3838
 8075SOL     OW35686   2.709   1.752   3.227 -0.0819  0.0309  0.6549
 8075SOL    HW135687   2.792   1.736   3.272 -0.5508  0.4976  1.6762
 8075SOL    HW235688   2.722   1.722   3.137 -3.0041 -0.6042  0.4659
 8076SOL     OW35689   1.399   2.369   6.833  0.2815 -0.8581  0.2311
 8076SOL    HW135690   1.431   2.394   6.747  3.3906 -1.1398  1.3050
 8076SOL    HW235691   1.457   2.420   6.889  1.6078 -1.3794 -0.6696
 8077SOL     OW35692   3.999   3.229  16.707 -0.1127 -0.6049  0.0842
 8077SOL    HW135693   3.947   3.309  16.718  0.2989 -0.1112 -1.4674
 8077SOL    HW235694   4.024   3.245  16.616  1.5163 -1.0146  0.4549
 8078SOL     OW35695   4.154   2.283  12.970  0.0697 -0.1381  0.1327
 8078SOL    HW135696   4.148   2.350  12.902 -2.2446 -0.8997 -0.4131
 8078SOL    HW235697   4.243   2.298  13.002  0.1607 -3.2261  1.2682
 8079SOL     OW35698   3.766   0.234   1.905 -0.1630  0.3177 -0.0549
 8079SOL    HW135699   3.780   0.318   1.860  1.8010  1.2484  2.2317
 8079SOL    HW235700   3.855   0.209   1.931 -0.0569 -1.0796 -1.8004
 8080SOL     OW35701   3.192   1.143   4.749  0.0946 -0.8679 -0.3573
 8080SOL    HW135702   3.187   1.125   4.842 -0.8279  2.0439  0.1661
 8080SOL    HW235703   3.196   1.060   4.701 -3.3635  0.0344 -2.2403
 8081SOL     OW35704   1.470   2.285   3.050 -0.2824  0.0465 -0.5442
 8081SOL    HW135705   1.554   2.262   3.010  0.1636  1.3723 -0.3828
 8081SOL    HW235706   1.416   2.297   2.973 -0.3819 -0.2548 -0.5196
 8082SOL     OW35707   2.950   0.093   5.188 -0.9776 -0.2841  0.1530
 8082SOL    HW135708   2.954   0.127   5.099 -1.0063 -1.6361 -0.3581
 8082SOL    HW235709   3.013   0.158   5.219 -1.1515 -1.0937  2.2358
 8083SOL     OW35710   1.193   1.199  17.566  0.2328  0.6360  0.2034
 8083SOL    HW135711   1.199   1.107  17.594 -0.3094 -0.1461 -2.2804
 8083SOL    HW235712   1.163   1.240  17.647  1.3070  0.8662  0.4875
 8084SOL     OW35713   3.816   3.366   6.731  0.0603  0.2193 -0.0463
 8084SOL    HW135714   3.879   3.325   6.672 -1.6892 -1.4299 -0.7499
 8084SOL    HW235715   3.876   3.387   6.803 -0.2561 -0.5851  0.4490
 8085SOL     OW35716   3.815   1.299   9.403  0.0226 -0.2424  0.3278
 8085SOL    HW135717   3.757   1.314   9.328 -0.2018  1.7039  0.8894
 8085SOL    HW235718   3.751   1.273   9.470  2.6602 -0.2963  2.8325
 8086SOL     OW35719   1.565   2.328   7.968  0.5351  0.9006 -0.0301
 8086SOL    HW135720   1.606   2.358   8.049  0.1183 -0.3688  0.6508
 8086SOL    HW235721   1.496   2.271   8.002  1.9026 -0.2223  0.8526
 8087SOL     OW35722   3.304   1.477  13.403 -0.0169 -0.4519  0.2002
 8087SOL    HW135723   3.300   1.527  13.485  0.8862 -1.4246  0.8253
 8087SOL    HW235724   3.243   1.532  13.352  0.1344  0.4828  1.0095
 8088SOL     OW35725   0.237   2.277  11.048  0.1374 -0.0151  0.3036
 8088SOL    HW135726   0.244   2.295  11.142  0.4657 -0.0755  0.2903
 8088SOL    HW235727   0.313   2.320  11.011 -0.2605 -0.0479 -0.5480
 8089SOL     OW35728   2.571   3.423   2.796 -0.3497  0.5205 -0.0434
 8089SOL    HW135729   2.610   3.457   2.715 -1.5900 -0.8741 -1.2135
 8089SOL    HW235730   2.499   3.484   2.814 -0.4404 -0.0898  1.7027
 8090SOL     OW35731   3.100   2.218   2.585  0.7332  0.0840  0.1652
 8090SOL    HW135732   3.164   2.286   2.606 -0.8367  0.6369  3.2961
 8090SOL    HW235733   3.097   2.250   2.495 -0.3612  2.4728  1.0641
 8091SOL     OW35734   0.715   3.792  11.015 -0.1342 -0.3560  0.0442
 8091SOL    HW135735   0.689   3.795  10.923 -2.5767 -0.8250  0.7218
 8091SOL    HW235736   0.715   3.698  11.035  0.1035 -0.1790  0.8682
 8092SOL     OW35737   1.451   4.349   4.135  0.3997  0.4692 -0.8347
 8092SOL    HW135738   1.516   4.340   4.066  0.5611 -0.2999 -0.5857
 8092SOL    HW235739   1.437   4.266   4.181  0.9045  2.5881  3.1180
 8093SOL     OW35740   4.063   3.197   4.877 -0.4164  0.1492  0.1093
 8093SOL    HW135741   4.108   3.268   4.923 -1.8325  0.7448  0.6012
 8093SOL    HW235742   4.057   3.238   4.791  0.2678 -2.7625 -1.3422
 8094SOL     OW35743   1.799   2.689  10.328  0.4434 -0.1385 -0.1652
 8094SOL    HW135744   1.853   2.613  10.305  1.2205  0.2396  0.3914
 8094SOL    HW235745   1.868   2.756  10.335 -1.4405  1.7036  0.5542
 8095SOL     OW35746   4.385   2.729   6.620 -0.4221  0.4185 -0.3908
 8095SOL    HW135747   4.397   2.821   6.644 -0.0732  0.8103 -2.0353
 8095SOL    HW235748   4.429   2.720   6.535  3.5430 -0.2130  1.7524
 8096SOL     OW35749   0.692   3.362   5.441 -0.4367  0.4724  0.4251
 8096SOL    HW135750   0.716   3.390   5.352 -3.4737 -1.5023 -1.0099
 8096SOL    HW235751   0.772   3.325   5.478  0.3832  0.1989 -1.5951
 8097SOL     OW35752   4.530   0.385   3.497 -0.2168 -0.0732  0.4459
 8097SOL    HW135753   4.514   0.473   3.462 -1.5424 -1.5963 -2.6825
 8097SOL    HW235754   4.626   0.384   3.496 -0.1903  1.2209  1.0622
 8098SOL     OW35755   1.104   1.398   3.279 -0.2473 -0.2740  0.0742
 8098SOL    HW135756   1.160   1.328   3.314 -0.6846  0.2314  1.8289
 8098SOL    HW235757   1.170   1.448   3.232  1.0142 -0.7380  1.3315
 8099SOL     OW35758   4.194   2.620   9.018  0.2835  0.1833 -0.0023
 8099SOL    HW135759   4.134   2.668   9.075  2.1203  0.2525  1.8727
 8099SOL    HW235760   4.128   2.591   8.955 -0.9370  0.2124  1.2800
 8100SOL     OW35761   0.363   3.577   7.414  0.0818  0.3372  0.4249
 8100SOL    HW135762   0.393   3.660   7.451  0.6485 -0.6886  2.2688
 8100SOL    HW235763   0.304   3.561   7.488  1.2453  0.6310  1.4185
 8101SOL     OW35764   2.184   1.309   7.409  0.3167 -0.2072 -0.0923
 8101SOL    HW135765   2.191   1.216   7.391  2.8685  0.0345 -0.3957
 8101SOL    HW235766   2.205   1.343   7.321  0.3684 -2.8224 -1.0764
 8102SOL     OW35767   0.262   4.368  12.692  0.0264  0.3410  0.0284
 8102SOL    HW135768   0.346   4.362  12.738  0.0569 -0.2890 -0.1086
 8102SOL    HW235769   0.228   4.279  12.699 -1.4716  0.7680 -2.0400
 8103SOL     OW35770   1.999   3.319  10.043  0.0749 -0.1822  0.5813
 8103SOL    HW135771   2.060   3.248  10.064 -0.6321 -1.6756 -2.4132
 8103SOL    HW235772   1.943   3.276   9.979  0.1786  1.9297 -0.9164
 8104SOL     OW35773   1.739   4.194   3.645  0.7382  0.2569 -0.8408
 8104SOL    HW135774   1.756   4.202   3.551  0.2843 -0.2135 -0.9676
 8104SOL    HW235775   1.818   4.235   3.681 -1.5783  3.1991  0.8800
 8105SOL     OW35776   1.872   4.237   3.139 -0.3506 -0.2428  0.0050
 8105SOL    HW135777   1.937   4.198   3.081 -1.2353  0.4256 -1.4337
 8105SOL    HW235778   1.812   4.276   3.076  0.0895 -0.0704 -0.3121
 8106SOL     OW35779   1.443   3.146  14.550 -0.2902 -0.4733 -0.2146
 8106SOL    HW135780   1.475   3.206  14.617  0.0954  0.2629 -1.0500
 8106SOL    HW235781   1.390   3.089  14.605  1.6483  0.0650  2.2263
 8107SOL     OW35782   3.029   4.130   6.830  0.2642 -0.3873  0.2893
 8107SOL    HW135783   3.017   4.143   6.736  1.4274  0.2482  0.2198
 8107SOL    HW235784   3.124   4.139   6.841  0.2294  0.5443 -0.1694
 8108SOL     OW35785   4.611   2.386   4.291 -0.1710 -0.0701 -0.1426
 8108SOL    HW135786   4.520   2.403   4.267 -0.8649 -1.2914  1.6546
 8108SOL    HW235787   4.611   2.290   4.294  0.9027 -0.0498  0.7335
 8109SOL     OW35788   1.208   2.660   5.902 -0.1002  0.2255 -0.0654
 8109SOL    HW135789   1.242   2.576   5.933 -0.6688 -0.1508 -0.4663
 8109SOL    HW235790   1.280   2.720   5.922 -0.5018  1.3513 -1.9804
 8110SOL     OW35791   0.831   4.586   0.248  0.4153  0.5030 -0.0233
 8110SOL    HW135792   0.802   4.495   0.259  1.0341  0.1367 -1.4206
 8110SOL    HW235793   0.854   4.587   0.156  0.2655  0.0947 -0.0663
 8111SOL     OW35794   2.399   1.185   4.014 -0.7633 -0.0761 -0.2786
 8111SOL    HW135795   2.316   1.200   3.969 -0.0367  0.5332 -1.4116
 8111SOL    HW235796   2.413   1.094   3.987  0.8752  0.2196 -0.4330
 8112SOL     OW35797   1.367   0.138  11.788  0.2171  0.1225  0.2444
 8112SOL    HW135798   1.451   0.094  11.776 -0.5768 -0.8603 -1.6739
 8112SOL    HW235799   1.303   0.096  11.730  1.6570 -1.3823 -0.2528
 8113SOL     OW35800   3.319   3.775   7.954 -0.0925  0.0518 -0.8668
 8113SOL    HW135801   3.224   3.782   7.945 -0.2009 -3.0095 -2.1094
 8113SOL    HW235802   3.330   3.722   8.032 -1.7185  0.8038 -0.1093
 8114SOL     OW35803   3.548   3.799  13.178  0.0024 -0.1488 -0.2085
 8114SOL    HW135804   3.524   3.706  13.179 -0.1383 -0.1160 -1.5139
 8114SOL    HW235805   3.562   3.819  13.271 -0.6089 -1.4886  0.1795
 8115SOL     OW35806   0.884   3.590  11.331 -0.3515  0.3225 -0.3204
 8115SOL    HW135807   0.933   3.642  11.395  0.6777 -1.8566  0.6563
 8115SOL    HW235808   0.806   3.641  11.311 -0.4817  0.6020  0.8785
 8116SOL     OW35809   3.311   3.877   0.396  0.0320 -0.2559 -0.2747
 8116SOL    HW135810   3.388   3.826   0.424  1.3417  2.0249  0.3309
 8116SOL    HW235811   3.310   3.945   0.464  1.2553  1.1760 -1.6879
 8117SOL     OW35812   0.861   2.374   9.220 -0.1436  0.6332  0.6860
 8117SOL    HW135813   0.823   2.419   9.145  0.5420 -0.1256 -0.1157
 8117SOL    HW235814   0.787   2.338   9.269 -1.4499  1.6422 -0.5678
 8118SOL     OW35815   1.659   3.140   4.576  0.1801  0.0726 -0.1313
 8118SOL    HW135816   1.713   3.216   4.558 -0.0732  0.5865  1.2933
 8118SOL    HW235817   1.587   3.136   4.512  0.6674 -0.0430 -0.6703
 8119SOL     OW35818   4.689   1.542   6.812  0.3330 -0.2402  0.3470
 8119SOL    HW135819   0.019   1.537   6.734 -0.9090 -0.0863 -0.5312
 8119SOL    HW235820   4.631   1.470   6.790 -0.3483  0.2441  0.5626
 8120SOL     OW35821   3.020   0.523   5.998 -0.1968  0.5175 -0.1571
 8120SOL    HW135822   3.053   0.433   6.007 -0.6800  0.5074  1.5419
 8120SOL    HW235823   2.937   0.525   6.046 -0.8275  0.4319 -1.2310
 8121SOL     OW35824   3.454   1.925   9.749  0.3950 -0.3196  0.0211
 8121SOL    HW135825   3.476   1.837   9.777  1.6412  0.2624  0.8934
 8121SOL    HW235826   3.539   1.970   9.746 -0.4193  1.3666  2.0310
 8122SOL     OW35827   2.919   0.841  16.993  0.1810  0.4318 -0.0143
 8122SOL    HW135828   2.844   0.786  17.015  1.2309 -0.5446  1.1285
 8122SOL    HW235829   2.887   0.927  17.021  2.5102  1.2547  0.1993
 8123SOL     OW35830   2.801   4.520  16.920 -0.0927  0.3926  0.3308
 8123SOL    HW135831   2.742   4.466  16.972 -0.1738 -1.8245 -2.0633
 8123SOL    HW235832   2.774   4.607  16.949  1.6174  0.7909  0.7067
 8124SOL     OW35833   1.226   1.293   0.622  0.0844  0.2525  0.1500
 8124SOL    HW135834   1.270   1.375   0.643  0.5188  0.0645 -0.0295
 8124SOL    HW235835   1.266   1.244   0.694  0.1490 -0.7895 -0.5954
 8125SOL     OW35836   1.464   1.801  11.557 -0.0946 -0.4655 -0.3535
 8125SOL    HW135837   1.552   1.764  11.551  0.8644  1.5174  1.1868
 8125SOL    HW235838   1.438   1.782  11.648  2.0937  3.0752  1.0329
 8126SOL     OW35839   4.179   1.249   7.532 -0.1427  0.5509  0.0009
 8126SOL    HW135840   4.157   1.320   7.472 -1.5485 -0.4605 -0.6812
 8126SOL    HW235841   4.095   1.204   7.539 -0.4851  0.8999 -1.7416
 8127SOL     OW35842   0.911   4.623   3.327  0.1026 -0.5549 -0.0726
 8127SOL    HW135843   0.878   4.670   3.403 -1.0627 -1.0594 -0.2576
 8127SOL    HW235844   0.955   4.545   3.362 -2.1113 -1.3939  0.8413
 8128SOL     OW35845   3.429   0.044   9.538 -0.2752  0.2997  0.5038
 8128SOL    HW135846   3.429   0.019   9.446 -0.6451 -0.2537  0.6569
 8128SOL    HW235847   3.420   4.684   9.581  0.0163 -1.3034 -2.6226
 8129SOL     OW35848   3.632   2.494  12.329 -0.1540 -0.2377 -0.2905
 8129SOL    HW135849   3.632   2.524  12.239  0.6862  2.6006  0.6604
 8129SOL    HW235850   3.709   2.438  12.332  0.0735  0.1942  1.8494
 8130SOL     OW35851   1.650   3.810   8.877 -0.1667 -0.0513  0.7807
 8130SOL    HW135852   1.638   3.797   8.783  0.7814 -0.0840  0.6639
 8130SOL    HW235853   1.593   3.739   8.905  0.9657 -0.3650  2.2740
 8131SOL     OW35854   3.639   2.611   3.281  0.3930 -0.4914 -0.6802
 8131SOL    HW135855   3.680   2.616   3.367 -1.4422 -0.6295  0.1867
 8131SOL    HW235856   3.655   2.700   3.249  0.0395 -0.2857 -0.2755
 8132SOL     OW35857   2.723   3.731   1.231 -0.0447 -0.2210  0.3160
 8132SOL    HW135858   2.722   3.797   1.162 -2.1537 -0.7774 -0.1906
 8132SOL    HW235859   2.797   3.773   1.274  0.1799 -0.1687 -0.1248
 8133SOL     OW35860   0.990   1.542   1.462 -0.7028  0.0328 -0.0886
 8133SOL    HW135861   0.949   1.468   1.507 -1.8571  1.2769  0.8894
 8133SOL    HW235862   0.920   1.606   1.456 -0.8962 -0.1706  0.0221
 8134SOL     OW35863   0.922   0.595   2.096 -0.5452 -0.3297 -0.7468
 8134SOL    HW135864   0.885   0.643   2.022 -0.2194  0.4665 -0.3894
 8134SOL    HW235865   0.841   0.553   2.123 -1.0010  0.6402 -0.6102
 8135SOL     OW35866   2.416   0.561   3.509  0.2752 -0.5559 -0.0995
 8135SOL    HW135867   2.374   0.646   3.521  1.8639  0.1777  0.3107
 8135SOL    HW235868   2.349   0.505   3.549  0.0561 -2.2044 -2.7595
 8136SOL     OW35869   1.281   3.932  13.762  0.3769 -0.3241  0.6606
 8136SOL    HW135870   1.222   3.964  13.694  0.8311  0.1224  0.4840
 8136SOL    HW235871   1.254   3.840  13.764 -0.1807 -0.2175 -1.3314
 8137SOL     OW35872   0.883   4.230   5.435  0.5246  0.4147 -0.3447
 8137SOL    HW135873   0.834   4.219   5.516  0.4455  2.4946 -0.1157
 8137SOL    HW235874   0.824   4.292   5.394 -1.2338 -0.2367  1.1930
 8138SOL     OW35875   2.382   1.599   7.744 -0.0837 -0.2681  0.3181
 8138SOL    HW135876   2.306   1.652   7.769  0.8746  0.1262  2.3696
 8138SOL    HW235877   2.442   1.667   7.712 -0.5378  1.4827  3.1394
 8139SOL     OW35878   0.392   2.769   8.912 -0.4590 -0.1068  0.3520
 8139SOL    HW135879   0.305   2.810   8.917 -0.0496  0.7327  0.5641
 8139SOL    HW235880   0.436   2.837   8.861 -2.9159  1.2777  0.0306
 8140SOL     OW35881   4.535   3.659   1.681 -0.1578  0.0516 -0.1480
 8140SOL    HW135882   4.502   3.596   1.616  0.9749 -0.4205 -0.2622
 8140SOL    HW235883   4.460   3.719   1.679  0.5028  0.8328 -1.2847
 8141SOL     OW35884   3.302   0.612   4.043 -0.2220 -0.8238  0.3473
 8141SOL    HW135885   3.300   0.546   4.112 -1.3848 -1.2060 -0.0527
 8141SOL    HW235886   3.376   0.585   3.989 -0.4771  0.9411 -0.8846
 8142SOL     OW35887   4.554   0.627   5.460 -0.0381  0.3473  0.2761
 8142SOL    HW135888   4.606   0.553   5.429 -0.0636  0.0227  1.0090
 8142SOL    HW235889   4.615   0.678   5.512 -0.7828  0.5850  0.9237
 8143SOL     OW35890   2.351   2.314   7.259  0.2473  0.1425  0.3342
 8143SOL    HW135891   2.310   2.229   7.276  1.1578 -0.0109  1.7193
 8143SOL    HW235892   2.426   2.284   7.207 -0.8340 -0.1516 -1.0576
 8144SOL     OW35893   3.895   1.039   8.533 -0.3962 -0.0893 -0.9304
 8144SOL    HW135894   3.950   0.975   8.488 -0.6591 -0.9400 -0.0544
 8144SOL    HW235895   3.890   1.010   8.624  1.3769  3.7099  0.3825
 8145SOL     OW35896   2.186   3.921   8.807  0.3812  0.0508 -0.2023
 8145SOL    HW135897   2.174   3.838   8.761  0.1543  0.4905 -0.9419
 8145SOL    HW235898   2.178   3.982   8.733  0.8885  0.7490  0.3235
 8146SOL     OW35899   2.305   0.024  13.341  0.3893  0.1315  0.5133
 8146SOL    HW135900   2.380   0.024  13.281 -1.0927  1.0881 -1.3171
 8146SOL    HW235901   2.325   4.665  13.383  0.8498 -0.1933 -0.3545
 8147SOL     OW35902   3.822   2.490   6.153 -0.1749  0.1000  0.2099
 8147SOL    HW135903   3.825   2.411   6.098 -0.7559  0.8636 -0.9087
 8147SOL    HW235904   3.748   2.533   6.111 -0.8683 -1.3082 -0.0041
 8148SOL     OW35905   0.742   3.312   4.244 -0.4826  0.0226  0.4396
 8148SOL    HW135906   0.753   3.225   4.284  0.9591  0.2052  0.4605
 8148SOL    HW235907   0.687   3.360   4.305 -1.1521  0.3606 -0.4450
 8149SOL     OW35908   4.471   0.913  10.742  0.3985  1.5989 -0.3921
 8149SOL    HW135909   4.436   1.001  10.733 -1.1234  0.9992 -0.4073
 8149SOL    HW235910   4.564   0.935  10.733  1.0418 -0.2188  1.8619
 8150SOL     OW35911   1.223   1.976  13.756 -0.4908  0.3826 -0.1971
 8150SOL    HW135912   1.251   1.993  13.846 -3.0838  2.6825  0.1969
 8150SOL    HW235913   1.129   1.989  13.768 -0.4314 -1.0261  1.7055
 8151SOL     OW35914   1.932   2.790   8.937 -0.2256  0.2379  0.0142
 8151SOL    HW135915   1.936   2.694   8.934 -1.1682  0.1584  0.9933
 8151SOL    HW235916   1.852   2.804   8.887  1.9116  3.9822 -2.3216
 8152SOL     OW35917   3.508   2.886  15.406  0.1125 -0.0803  0.1615
 8152SOL    HW135918   3.442   2.925  15.349  0.1279 -0.7060 -0.2850
 8152SOL    HW235919   3.564   2.957  15.436 -0.2994  0.3515 -0.1001
 8153SOL     OW35920   3.380   0.033   4.142  0.5614  0.7110 -0.3465
 8153SOL    HW135921   3.394   4.663   4.145  0.1256  0.5952 -1.7185
 8153SOL    HW235922   3.363   0.043   4.048  2.4507  0.3176 -0.7311
 8154SOL     OW35923   0.115   1.891  10.377  0.5154 -0.1530  0.0566
 8154SOL    HW135924   0.098   1.840  10.298  1.9718 -1.0045  0.3038
 8154SOL    HW235925   0.036   1.873  10.429  0.8401 -0.7777  0.3269
 8155SOL     OW35926   2.819   1.157  13.012 -0.4423 -0.1268 -0.5871
 8155SOL    HW135927   2.914   1.156  13.025 -0.6805  0.4724  1.1813
 8155SOL    HW235928   2.814   1.112  12.928 -0.8229  0.2037 -0.7443
 8156SOL     OW35929   1.324   3.227   2.256 -0.1037 -0.2801  0.3270
 8156SOL    HW135930   1.321   3.298   2.320 -0.2887  0.5236 -0.5692
 8156SOL    HW235931   1.379   3.260   2.185  0.1217  0.9729  1.0865
 8157SOL     OW35932   3.901   0.735  12.791 -0.4575 -0.4529  0.3662
 8157SOL    HW135933   3.902   0.805  12.856 -1.7422 -1.2474  1.2205
 8157SOL    HW235934   3.967   0.761  12.725  0.5573  0.2430  1.6511
 8158SOL     OW35935   1.339   1.353   7.861  0.2498 -0.1882 -0.3306
 8158SOL    HW135936   1.376   1.279   7.813  2.8064  1.1463 -0.3799
 8158SOL    HW235937   1.263   1.306   7.896 -0.3467  0.0274 -1.3376
 8159SOL     OW35938   2.801   3.076   9.751 -0.0987  0.3895  0.2266
 8159SOL    HW135939   2.721   3.023   9.747  0.3706 -0.3511  0.7325
 8159SOL    HW235940   2.863   3.026   9.698 -0.1431 -0.4590  0.9747
 8160SOL     OW35941   3.535   2.750  12.434  0.4659  0.1178 -0.2925
 8160SOL    HW135942   3.517   2.668  12.388 -0.0252  0.6256 -1.0153
 8160SOL    HW235943   3.627   2.737  12.456  0.8494 -1.2191 -2.6103
 8161SOL     OW35944   3.426   0.666   7.152  0.4437  0.5959 -0.4984
 8161SOL    HW135945   3.467   0.639   7.070 -3.5183  1.0979 -2.6557
 8161SOL    HW235946   3.401   0.582   7.190  2.1009 -0.0735 -0.9153
 8162SOL     OW35947   1.499   2.446   5.664 -0.0499  0.1652 -0.2003
 8162SOL    HW135948   1.534   2.485   5.744 -0.4708  0.4468 -0.1573
 8162SOL    HW235949   1.580   2.446   5.613  0.1683 -1.7757  0.1232
 8163SOL     OW35950   2.476   1.829  10.194 -0.2349 -0.0030  0.1020
 8163SOL    HW135951   2.428   1.838  10.111  0.0407 -1.1575 -0.1826
 8163SOL    HW235952   2.535   1.757  10.169 -1.2231 -1.9097  3.3728
 8164SOL     OW35953   1.244   2.200   1.407  0.2888 -0.1779 -1.0373
 8164SOL    HW135954   1.252   2.215   1.501 -1.3802  0.8821 -1.0665
 8164SOL    HW235955   1.163   2.149   1.404 -1.6871  3.0800 -2.8079
 8165SOL     OW35956   1.953   2.748   0.878 -0.0701  0.5827  0.4518
 8165SOL    HW135957   1.917   2.829   0.841 -1.0145  0.6308  1.4752
 8165SOL    HW235958   1.905   2.745   0.960  0.0143 -3.0119  0.3733
 8166SOL     OW35959   0.897   3.759   9.845  0.1445  0.2190 -0.4160
 8166SOL    HW135960   0.891   3.755   9.941 -1.9433 -1.9287 -0.6370
 8166SOL    HW235961   0.980   3.808   9.844 -1.1671  2.4583  1.8981
 8167SOL     OW35962   2.233   0.083  13.768  0.1537 -0.1717 -0.0612
 8167SOL    HW135963   2.207   0.167  13.804 -0.0913 -0.7603  1.1521
 8167SOL    HW235964   2.313   0.059  13.815 -0.8412 -2.0431  0.6943
 8168SOL     OW35965   0.996   1.102  15.435  0.0927 -0.0231 -0.1978
 8168SOL    HW135966   0.920   1.104  15.377 -1.0068  0.5555  1.2540
 8168SOL    HW235967   1.071   1.113  15.376  1.8242  1.4279  2.2847
 8169SOL     OW35968   0.590   1.686  11.127 -0.6140 -0.0505  0.9103
 8169SOL    HW135969   0.537   1.722  11.055  2.2528 -0.5909 -1.4581
 8169SOL    HW235970   0.639   1.764  11.152 -0.3024 -0.0106  0.1766
 8170SOL     OW35971   3.739   1.684  13.855  0.1330 -0.5573 -0.2171
 8170SOL    HW135972   3.658   1.703  13.807  0.5592 -0.8796 -1.0701
 8170SOL    HW235973   3.707   1.652  13.939  0.6700 -0.4006  0.0428
 8171SOL     OW35974   4.087   1.985  10.099 -0.2695  0.5114 -0.1588
 8171SOL    HW135975   4.056   2.045  10.031  1.0419 -0.6281 -1.7642
 8171SOL    HW235976   4.029   1.908  10.093  2.2672 -1.3445 -0.9919
 8172SOL     OW35977   0.339   3.064   5.189 -0.0651  0.6440  0.1018
 8172SOL    HW135978   0.287   3.066   5.109  1.5489 -3.5249 -1.0473
 8172SOL    HW235979   0.365   2.973   5.203 -0.2932  0.2957 -1.7688
 8173SOL     OW35980   4.548   3.543  17.606  0.0018  0.5831 -0.7539
 8173SOL    HW135981   4.465   3.570  17.567 -1.4887 -1.5932  0.9723
 8173SOL    HW235982   4.531   3.456  17.642  1.7221  0.3499 -0.5116
 8174SOL     OW35983   3.853   0.062   4.950  0.1475  0.2870  0.2034
 8174SOL    HW135984   3.783   0.087   4.889  1.0018 -2.2733 -1.8009
 8174SOL    HW235985   3.922   0.082   4.886 -0.4134  0.8560 -0.2284
 8175SOL     OW35986   2.843   1.098  13.268  0.5349  0.2923  0.5762
 8175SOL    HW135987   2.838   1.003  13.259 -1.6101  0.1069  3.7174
 8175SOL    HW235988   2.816   1.118  13.179  1.9796  0.2007  0.1126
 8176SOL     OW35989   3.203   0.686   6.126  0.7525  0.1580  0.2944
 8176SOL    HW135990   3.177   0.676   6.218  3.7753 -1.7689  0.9487
 8176SOL    HW235991   3.129   0.634   6.094  1.5190 -0.7744  0.0307
 8177SOL     OW35992   1.831   2.287   3.213  0.3726  0.4942 -0.0515
 8177SOL    HW135993   1.782   2.264   3.134  1.7636  0.6021 -0.9381
 8177SOL    HW235994   1.911   2.326   3.178 -0.1068  1.0998 -0.4751
 8178SOL     OW35995   4.399   2.670  15.163  0.4849  0.6261  0.7723
 8178SOL    HW135996   4.326   2.665  15.102  1.8984 -0.7645 -0.7960
 8178SOL    HW235997   4.353   2.670  15.247  1.7773  1.6678  1.4761
 8179SOL     OW35998   4.609   3.528  14.459  0.0880  0.2419  0.2811
 8179SOL    HW135999   4.675   3.595  14.473  0.9024 -0.1399 -1.5980
 8179SOL    HW236000   4.619   3.505  14.366 -1.2636  2.4377 -0.3873
 8180SOL     OW36001   1.071   0.171   6.287 -0.3626 -0.2949 -0.0476
 8180SOL    HW136002   0.993   0.115   6.281  0.4827 -1.5473  0.5061
 8180SOL    HW236003   1.046   0.244   6.232  3.1526 -0.8325 -2.3981
 8181SOL     OW36004   0.737   4.029   4.874  0.1163 -0.2055  0.3477
 8181SOL    HW136005   0.810   4.090   4.881  0.2108 -0.3551  0.6911
 8181SOL    HW236006   0.777   3.975   4.806  3.5727  2.9450 -0.0608
 8182SOL     OW36007   3.306   3.462   8.355  1.0020 -0.2079  0.0091
 8182SOL    HW136008   3.279   3.380   8.313  0.0868 -1.4514  2.9796
 8182SOL    HW236009   3.312   3.441   8.448  0.9467  0.3054  0.1280
 8183SOL     OW36010   2.295   1.866   1.540  0.4382 -0.4540 -0.4361
 8183SOL    HW136011   2.378   1.899   1.506  0.7223 -1.8868 -1.1019
 8183SOL    HW236012   2.286   1.909   1.625  0.3554 -1.0115 -0.1657
 8184SOL     OW36013   3.314   1.251  15.398 -0.3687  0.7520 -0.0896
 8184SOL    HW136014   3.335   1.244  15.304  0.4143 -0.5301  0.1775
 8184SOL    HW236015   3.226   1.215  15.408 -0.2278  0.6677  0.8223
 8185SOL     OW36016   0.235   4.005   7.040  0.1485 -0.1939  0.1857
 8185SOL    HW136017   0.173   4.044   6.978 -0.5499 -0.9187  0.4322
 8185SOL    HW236018   0.232   4.072   7.109 -0.3978 -1.0407  0.9916
 8186SOL     OW36019   0.193   0.771  12.600 -0.0120  0.0081  0.5322
 8186SOL    HW136020   0.160   0.799  12.514 -0.6763 -1.5952  0.2649
 8186SOL    HW236021   0.273   0.723  12.579 -0.5924 -0.4974 -0.5194
 8187SOL     OW36022   0.642   4.338   4.094 -0.1813  0.7130  0.0777
 8187SOL    HW136023   0.678   4.400   4.031  0.8082 -1.0196 -1.0432
 8187SOL    HW236024   0.627   4.259   4.043 -0.4629  0.0334  1.2131
 8188SOL     OW36025   4.107   1.731   9.174  0.6952 -0.1126  0.2480
 8188SOL    HW136026   4.109   1.784   9.094 -1.2098  1.0856  1.0174
 8188SOL    HW236027   4.155   1.653   9.146  1.4869  0.0163  1.2282
 8189SOL     OW36028   0.828   0.871  10.576  0.5066 -0.1203  0.2975
 8189SOL    HW136029   0.917   0.885  10.608  0.5295 -0.1453  0.2449
 8189SOL    HW236030   0.835   0.888  10.482 -0.6278 -1.8334 -0.0965
 8190SOL     OW36031   2.070   2.956  13.707 -0.2508  0.4513  0.5277
 8190SOL    HW136032   2.063   3.020  13.636  0.3775  0.9234  0.8880
 8190SOL    HW236033   1.976   2.938  13.706 -0.5750  2.1935 -0.2670
 8191SOL     OW36034   2.065   4.638   4.812 -0.1277 -0.0703 -0.3247
 8191SOL    HW136035   2.056   4.558   4.760 -0.9811  0.2085 -0.5928
 8191SOL    HW236036   2.090   4.706   4.749 -2.7483  1.2042  0.0111
 8192SOL     OW36037   3.345   0.425   7.280  0.5671 -0.0269 -0.6024
 8192SOL    HW136038   3.407   0.384   7.340  2.4321  0.6644 -2.0468
 8192SOL    HW236039   3.302   0.348   7.243 -0.3184  0.7908 -1.2927
 8193SOL     OW36040   4.263   3.080   8.911  0.2247  0.0963  0.1834
 8193SOL    HW136041   4.207   3.158   8.914 -0.8919 -0.6341 -1.7758
 8193SOL    HW236042   4.351   3.115   8.924  0.8123 -1.1748 -0.4375
 8194SOL     OW36043   1.084   0.781   2.218 -0.2343 -0.5830 -0.1311
 8194SOL    HW136044   1.026   0.712   2.186 -0.8478 -0.3543  0.4970
 8194SOL    HW236045   1.039   0.852   2.173  1.0134 -0.5953 -1.4038
 8195SOL     OW36046   0.647   0.409   9.167 -0.0118 -0.3846 -0.2382
 8195SOL    HW136047   0.643   0.392   9.261 -3.5589 -0.6977 -0.4349
 8195SOL    HW236048   0.619   0.323   9.136  0.8865 -0.9389  0.5378
 8196SOL     OW36049   1.439   4.486  14.401  0.1456 -0.0723  0.0698
 8196SOL    HW136050   1.422   4.486  14.495 -0.5612 -3.8881 -0.0650
 8196SOL    HW236051   1.488   4.409  14.370  3.1428  2.0362 -0.4844
 8197SOL     OW36052   0.872   3.375   4.650  0.1499 -0.1406 -0.3234
 8197SOL    HW136053   0.921   3.323   4.585 -0.4185  0.3856 -1.1577
 8197SOL    HW236054   0.925   3.354   4.727  1.9757  0.1030 -1.5092
 8198SOL     OW36055   0.962   0.144  17.106  0.0123 -0.4535 -0.0698
 8198SOL    HW136056   0.888   0.164  17.164 -0.3100  1.8822 -1.2922
 8198SOL    HW236057   0.978   0.051  17.119 -0.6245 -0.7592 -1.5354
 8199SOL     OW36058   0.346   1.570   7.887  0.5325  0.2454 -0.3165
 8199SOL    HW136059   0.288   1.599   7.957  0.9922  0.6904 -0.1299
 8199SOL    HW236060   0.393   1.652   7.877  3.4793 -1.2519  1.5628
 8200SOL     OW36061   3.048   1.418  13.311  0.0944 -0.3989 -0.6950
 8200SOL    HW136062   3.048   1.461  13.226  2.9507  0.1011 -0.4251
 8200SOL    HW236063   2.963   1.446  13.345  1.2398  0.7307  1.2573
 8201SOL     OW36064   3.454   1.353  12.624  0.5494 -0.2865 -0.0211
 8201SOL    HW136065   3.399   1.413  12.674  1.7676  1.2420 -0.5087
 8201SOL    HW236066   3.420   1.265  12.643  2.3975 -1.3663 -1.6235
 8202SOL     OW36067   1.836   4.322  14.092 -0.0786  0.3446 -0.3840
 8202SOL    HW136068   1.908   4.345  14.033  0.5981 -1.6203 -0.2920
 8202SOL    HW236069   1.887   4.283  14.162 -1.1921  1.9850  1.3380
 8203SOL     OW36070   4.717   1.834   1.977  0.3970 -0.4182 -0.7137
 8203SOL    HW136071   0.005   1.846   1.883 -2.2143 -0.4160 -1.0530
 8203SOL    HW236072   4.628   1.800   1.988  0.5411 -0.3024  0.7883
 8204SOL     OW36073   1.477   1.682   6.935 -0.1229 -0.4787 -0.3681
 8204SOL    HW136074   1.447   1.669   6.845  0.3175 -1.8936 -0.3094
 8204SOL    HW236075   1.556   1.734   6.919 -2.3169  2.9612 -0.0165
 8205SOL     OW36076   0.557   2.736  11.368  0.2829 -0.7760  0.4429
 8205SOL    HW136077   0.513   2.818  11.390  2.2629 -0.0484  1.7245
 8205SOL    HW236078   0.565   2.687  11.450 -1.1432 -1.9082 -0.1076
 8206SOL     OW36079   2.821   2.204   7.651  0.1275  0.5776  0.3504
 8206SOL    HW136080   2.912   2.224   7.674  0.2499 -0.1869  0.5282
 8206SOL    HW236081   2.799   2.284   7.604 -1.3591  0.3613  0.6684
 8207SOL     OW36082   0.811   0.903   6.936 -0.2825  0.1849  0.3252
 8207SOL    HW136083   0.887   0.851   6.962 -0.1120  0.9645  1.3847
 8207SOL    HW236084   0.761   0.823   6.919  1.3883 -0.7656 -0.1732
 8208SOL     OW36085   0.384   1.027  13.178  0.5666  0.0180 -0.4869
 8208SOL    HW136086   0.361   1.090  13.247  2.0881 -0.8296  0.8244
 8208SOL    HW236087   0.476   1.048  13.160  0.9008 -1.5183 -0.6290
 8209SOL     OW36088   3.751   3.152  15.762 -0.2380  0.4761  0.0544
 8209SOL    HW136089   3.713   3.065  15.752  1.5656 -0.3070  0.0083
 8209SOL    HW236090   3.742   3.192  15.675  1.4593 -1.6851 -1.0970
 8210SOL     OW36091   1.360   3.604   8.311  0.4927  0.4450 -0.5290
 8210SOL    HW136092   1.331   3.694   8.330  1.3260  0.4573  0.6691
 8210SOL    HW236093   1.381   3.571   8.398 -0.5064 -0.1686 -0.5171
 8211SOL     OW36094   2.142   0.059  11.126  0.2019 -0.1188  0.4379
 8211SOL    HW136095   2.121   0.134  11.182  0.2066 -0.2490  0.6119
 8211SOL    HW236096   2.237   0.065  11.125  0.1720  0.2505 -1.2335
 8212SOL     OW36097   4.573   0.152   5.800  0.1143  0.4358 -0.2190
 8212SOL    HW136098   4.569   0.067   5.757  0.6561  0.2833  0.0264
 8212SOL    HW236099   4.615   0.217   5.745 -0.6040  0.2418 -0.9948
 8213SOL     OW36100   0.103   3.504   8.252 -0.4380 -0.1975 -0.1206
 8213SOL    HW136101   0.152   3.444   8.195  0.8392  0.1894  0.5569
 8213SOL    HW236102   0.165   3.576   8.241 -1.2492  0.6706  1.0124
 8214SOL     OW36103   1.732   2.237   2.963 -0.1517  0.3059  0.4525
 8214SOL    HW136104   1.816   2.279   2.949  0.4444 -1.9493 -2.7041
 8214SOL    HW236105   1.691   2.249   2.877  0.5904  3.5004  0.5459
 8215SOL     OW36106   2.208   0.609   7.034  0.0241 -0.2844  0.2811
 8215SOL    HW136107   2.172   0.612   6.946 -0.3992  1.4560  0.5194
 8215SOL    HW236108   2.292   0.564   7.018 -0.3833 -1.1603  0.6058
 8216SOL     OW36109   2.713   1.021  14.100  0.2156  0.2875  0.0705
 8216SOL    HW136110   2.729   1.109  14.134 -1.1160  0.3374  0.5718
 8216SOL    HW236111   2.710   0.973  14.183 -0.5988  0.3637  0.0827
 8217SOL     OW36112   2.406   2.905   5.436 -0.1156  0.1043 -0.6964
 8217SOL    HW136113   2.380   2.819   5.403  0.1327  0.7142 -2.5013
 8217SOL    HW236114   2.496   2.879   5.454 -0.3494 -0.9458 -1.0868
 8218SOL     OW36115   3.180   2.206   5.339 -0.3039  0.2320  0.3123
 8218SOL    HW136116   3.087   2.214   5.358 -0.2664 -0.3274  0.7176
 8218SOL    HW236117   3.201   2.117   5.366 -2.8679 -0.3566  0.3236
 8219SOL     OW36118   3.233   1.953  10.079  0.1526  0.0736 -0.2790
 8219SOL    HW136119   3.138   1.960  10.089  0.2011  0.8116 -0.3345
 8219SOL    HW236120   3.238   1.860  10.055  0.3828  0.1154 -0.3992
 8220SOL     OW36121   4.022   2.053   4.747  0.2908 -0.3837  0.5246
 8220SOL    HW136122   4.040   2.085   4.836 -0.1226  0.1665  0.4102
 8220SOL    HW236123   4.028   2.136   4.700  0.9923 -0.8513 -0.2234
 8221SOL     OW36124   1.357   1.140   5.233  0.0033 -0.4651 -0.2274
 8221SOL    HW136125   1.380   1.218   5.284 -1.2309 -2.3882  3.1954
 8221SOL    HW236126   1.360   1.067   5.294  3.6113 -1.2163 -1.2588
 8222SOL     OW36127   1.109   0.614   8.516 -0.1839 -0.1239  0.3125
 8222SOL    HW136128   1.173   0.548   8.543  0.2038  0.7326  1.4493
 8222SOL    HW236129   1.075   0.570   8.438 -0.5024 -2.3488  1.7004
 8223SOL     OW36130   3.950   1.266   9.109  0.5868  0.2464  0.3974
 8223SOL    HW136131   3.968   1.177   9.138  1.0911 -0.3430 -1.7015
 8223SOL    HW236132   3.962   1.255   9.015 -2.8339  3.5812 -0.4593
 8224SOL     OW36133   4.645   0.141   4.396  0.0238 -0.3859  0.4490
 8224SOL    HW136134   4.697   0.061   4.391  1.9298  0.8529  0.2384
 8224SOL    HW236135   4.570   0.120   4.451 -0.4948 -1.7151 -0.7907
 8225SOL     OW36136   3.555   1.131  17.104 -0.3102  0.2015  0.5220
 8225SOL    HW136137   3.467   1.094  17.108  0.0059 -0.7771 -1.4608
 8225SOL    HW236138   3.582   1.090  17.186 -0.3573  3.1294  2.0215
 8226SOL     OW36139   1.448   2.367   6.166 -0.0744  0.5015  0.4995
 8226SOL    HW136140   1.466   2.296   6.105  0.1776  0.5083  0.5660
 8226SOL    HW236141   1.362   2.348   6.204 -0.8856  1.1318 -1.0447
 8227SOL     OW36142   4.517   1.180   3.564 -0.1636 -0.1964  0.1158
 8227SOL    HW136143   4.467   1.109   3.604  0.1007 -0.1811  0.4798
 8227SOL    HW236144   4.595   1.134   3.535 -0.3751 -2.1891  2.7425
 8228SOL     OW36145   3.148   2.965   2.110 -0.0580  0.3778 -0.2537
 8228SOL    HW136146   3.141   2.888   2.053  2.7827 -1.0285  1.3232
 8228SOL    HW236147   3.232   2.938   2.146 -0.0601  0.4211 -0.2161
 8229SOL     OW36148   2.541   3.574  12.679  0.4099  0.2545  0.1359
 8229SOL    HW136149   2.636   3.591  12.680  0.3889  0.5167 -1.3816
 8229SOL    HW236150   2.540   3.525  12.761  1.9862 -0.2050 -0.1167
 8230SOL     OW36151   2.363   4.078   6.423 -0.2420 -0.5425 -0.3840
 8230SOL    HW136152   2.294   4.012   6.418 -1.6132  0.9431 -1.3249
 8230SOL    HW236153   2.392   4.072   6.514 -0.3790 -1.2286 -0.3883
 8231SOL     OW36154   1.031   2.229  17.386 -0.4652  0.0591  0.6965
 8231SOL    HW136155   1.024   2.167  17.314 -1.8718 -0.6234  1.4237
 8231SOL    HW236156   1.084   2.301  17.352  0.2263 -0.7703  0.0368
 8232SOL     OW36157   0.444   3.197   2.116 -0.2036  0.1217  0.1976
 8232SOL    HW136158   0.487   3.134   2.058 -1.5425 -2.1925  1.6901
 8232SOL    HW236159   0.373   3.230   2.060  0.6678 -2.1480 -2.2572
 8233SOL     OW36160   2.380   2.272  11.329  0.2869 -0.1574 -0.3126
 8233SOL    HW136161   2.355   2.325  11.405 -2.3590  0.8930 -1.9129
 8233SOL    HW236162   2.459   2.320  11.305  0.5026  1.1294  3.0471
 8234SOL     OW36163   3.251   3.512   5.988 -0.0004  0.2377  0.5086
 8234SOL    HW136164   3.215   3.595   5.956 -0.7246  0.5043  2.0336
 8234SOL    HW236165   3.337   3.506   5.947 -0.5928  0.6514 -0.7899
 8235SOL     OW36166   3.119   0.340   5.242  0.1888  0.0571  0.1869
 8235SOL    HW136167   3.190   0.360   5.303 -1.2084  0.4772  1.6883
 8235SOL    HW236168   3.166   0.375   5.167  0.2307  0.0528  0.2114
 8236SOL     OW36169   4.065   0.199   7.203 -0.1052  0.8236 -0.4744
 8236SOL    HW136170   3.987   0.167   7.247  0.3116 -0.6817 -0.8292
 8236SOL    HW236171   4.068   0.138   7.130  4.1860  0.7053 -0.2151
 8237SOL     OW36172   3.924   1.111   7.493  0.2451  0.0326  0.0329
 8237SOL    HW136173   3.839   1.103   7.536 -0.4662  2.8507 -0.7916
 8237SOL    HW236174   3.928   1.040   7.429 -2.2066  1.2085 -1.4220
 8238SOL     OW36175   1.876   1.482   7.103  0.2267  0.4613  0.2774
 8238SOL    HW136176   1.899   1.517   7.189  0.0586 -0.0589  0.5290
 8238SOL    HW236177   1.782   1.483   7.123  0.0315  1.2997 -0.6541
 8239SOL     OW36178   4.145   2.097   3.566  0.2061  1.1884  0.3717
 8239SOL    HW136179   4.221   2.129   3.519 -1.2610 -0.8087 -3.3211
 8239SOL    HW236180   4.103   2.061   3.488 -2.1809  2.0873  1.2469
 8240SOL     OW36181   4.190   0.744   1.961  0.1700  0.3960 -0.2283
 8240SOL    HW136182   4.106   0.703   1.983 -0.3032  0.3063 -2.1580
 8240SOL    HW236183   4.223   0.669   1.910 -3.6714 -0.8894 -0.8296
 8241SOL     OW36184   1.844   0.184   6.234 -0.1660  0.0167 -0.3174
 8241SOL    HW136185   1.802   0.145   6.310  1.3113 -3.2225 -1.1333
 8241SOL    HW236186   1.808   0.127   6.165 -1.8979  2.1147 -1.1504
 8242SOL     OW36187   0.914   1.015   1.815 -0.4677  0.1688  0.0379
 8242SOL    HW136188   0.884   1.105   1.828  1.4989  0.6917  1.0237
 8242SOL    HW236189   0.845   0.978   1.760  0.8138 -1.2229 -0.6197
 8243SOL     OW36190   3.971   3.902   0.369 -0.3240  0.5858  0.4523
 8243SOL    HW136191   3.969   3.857   0.285 -1.1317 -0.8005  1.2270
 8243SOL    HW236192   3.882   3.886   0.400 -0.8906  0.3098 -1.3069
 8244SOL     OW36193   3.854   2.599   5.400 -0.2021  0.0054 -0.2937
 8244SOL    HW136194   3.832   2.526   5.343 -0.1010  0.1593 -0.5314
 8244SOL    HW236195   3.875   2.545   5.476 -0.7417 -1.5852 -1.2748
 8245SOL     OW36196   1.965   2.481   8.285  0.1971 -0.2523  0.1674
 8245SOL    HW136197   2.015   2.563   8.286 -1.0640  0.5145  0.9782
 8245SOL    HW236198   1.886   2.502   8.335  0.5680 -0.8727  0.9978
 8246SOL     OW36199   3.523   0.841  10.024  0.7567  0.1028 -0.1158
 8246SOL    HW136200   3.529   0.747  10.006  2.2051  0.1220  0.2897
 8246SOL    HW236201   3.570   0.854  10.106 -0.0983 -0.1588  0.4249
 8247SOL     OW36202   1.760   3.975   6.653 -0.6366 -0.1610  0.0848
 8247SOL    HW136203   1.676   4.008   6.684 -0.7961 -1.3008  0.8620
 8247SOL    HW236204   1.752   3.982   6.558 -0.5135 -0.2046  0.0709
 8248SOL     OW36205   2.983   4.323   5.162  0.3640 -0.5816 -0.4877
 8248SOL    HW136206   2.914   4.343   5.226  1.2909 -0.3426  0.4389
 8248SOL    HW236207   2.973   4.400   5.106  1.1152 -0.7722 -0.8710
 8249SOL     OW36208   2.977   4.230   3.562 -0.4782 -0.2404 -0.2428
 8249SOL    HW136209   3.023   4.161   3.610  0.2289  1.4336  1.4672
 8249SOL    HW236210   2.915   4.185   3.504 -1.7010 -2.5839  2.8623
 8250SOL     OW36211   3.276   0.099  16.784  0.5544  0.8267 -0.3407
 8250SOL    HW136212   3.226   0.158  16.839 -1.6798 -0.5484 -0.8948
 8250SOL    HW236213   3.297   0.018  16.831  0.6372  1.2780  0.3897
 8251SOL     OW36214   1.417   3.517   4.750 -0.2360 -0.0109  0.2698
 8251SOL    HW136215   1.434   3.429   4.783 -1.3859 -0.5283 -0.5204
 8251SOL    HW236216   1.473   3.517   4.672 -1.6212 -0.3451 -0.7171
 8252SOL     OW36217   4.687   2.454   6.480 -0.2755  0.6585  0.4717
 8252SOL    HW136218   4.651   2.495   6.402  2.0015 -2.6117 -2.3516
 8252SOL    HW236219   4.692   2.520   6.549 -2.6522  2.2332 -0.8735
 8253SOL     OW36220   0.654   1.916   6.325  0.1014 -0.2766 -0.0324
 8253SOL    HW136221   0.646   1.826   6.293  0.3989  0.4239 -2.0934
 8253SOL    HW236222   0.749   1.914   6.334  0.1243 -0.3317 -0.2754
 8254SOL     OW36223   4.010   4.552   3.559 -0.3916 -0.1973  0.0410
 8254SOL    HW136224   4.066   4.530   3.633 -1.3273 -0.9422  0.5323
 8254SOL    HW236225   4.064   4.625   3.529  3.2352 -3.5862 -1.7346
 8255SOL     OW36226   0.152   2.944   6.839  0.5187 -0.0449 -0.1609
 8255SOL    HW136227   0.062   2.945   6.874 -0.3346  1.6958 -2.3885
 8255SOL    HW236228   0.128   2.933   6.747  0.9113 -2.2978  0.0285
 8256SOL     OW36229   3.585   4.657   0.768  0.1340  0.6306 -0.3956
 8256SOL    HW136230   3.576   0.016   0.813 -1.9214 -0.5726  1.4429
 8256SOL    HW236231   3.528   4.596   0.815  1.9789  0.4347  1.5741
 8257SOL     OW36232   3.200   3.952   1.572  0.3440  0.0540 -0.1307
 8257SOL    HW136233   3.263   3.880   1.566 -1.0449 -1.2222  0.5272
 8257SOL    HW236234   3.227   4.005   1.498  1.2700 -1.0069 -0.5511
 8258SOL     OW36235   4.340   0.303   0.280  0.1370 -0.6772 -0.2660
 8258SOL    HW136236   4.248   0.301   0.253 -0.0525 -0.9430  0.3990
 8258SOL    HW236237   4.318   0.300   0.373 -1.2815  3.3593 -0.4789
 8259SOL     OW36238   1.428   2.499   4.046 -0.2515  0.1077 -0.0208
 8259SOL    HW136239   1.338   2.498   4.014 -0.1287 -0.4514 -0.3522
 8259SOL    HW236240   1.420   2.485   4.140  0.7694  0.5272  0.1320
 8260SOL     OW36241   0.777   0.658   3.898  0.3848 -0.3579 -0.2540
 8260SOL    HW136242   0.839   0.591   3.870  0.2574 -0.8373  0.5936
 8260SOL    HW236243   0.831   0.736   3.904  1.9486 -1.5396  0.8655
 8261SOL     OW36244   3.689   2.810   7.423 -0.6803 -0.1741 -0.2388
 8261SOL    HW136245   3.644   2.746   7.368 -0.9004 -0.8067  0.6898
 8261SOL    HW236246   3.750   2.837   7.354 -0.3238  1.8771  0.8797
 8262SOL     OW36247   2.008   0.859   4.820  0.4000 -0.0817 -0.1490
 8262SOL    HW136248   1.951   0.929   4.851  2.3631  0.7599  1.5418
 8262SOL    HW236249   2.068   0.902   4.760 -1.1490  0.9701 -0.9650
 8263SOL     OW36250   1.591   0.050   3.893  0.9127 -0.2556  0.3863
 8263SOL    HW136251   1.643   0.111   3.841  1.7153  0.3260  1.8713
 8263SOL    HW236252   1.639   4.692   3.884  1.6982  0.2751 -0.3491
 8264SOL     OW36253   1.561   4.152  13.024  0.3727 -0.0995 -0.3567
 8264SOL    HW136254   1.533   4.061  13.018  0.6527 -0.1386 -1.0351
 8264SOL    HW236255   1.589   4.155  13.116 -1.0598  0.7689  0.0544
 8265SOL     OW36256   1.251   2.402  13.347  0.1838  0.4638  0.3166
 8265SOL    HW136257   1.195   2.331  13.318  2.3161 -1.3399  0.6464
 8265SOL    HW236258   1.319   2.355  13.394 -0.9852 -2.1792 -0.6631
 8266SOL     OW36259   0.739   1.562  17.034 -0.1784  0.0210 -0.8994
 8266SOL    HW136260   0.810   1.624  17.017 -0.1146 -0.7908 -3.6901
 8266SOL    HW236261   0.772   1.496  17.096 -1.5407  0.0789 -0.1079
 8267SOL     OW36262   0.982   1.218   8.339 -0.0671  0.5547  0.2180
 8267SOL    HW136263   0.963   1.302   8.297 -0.9905  0.6243  0.7833
 8267SOL    HW236264   1.074   1.198   8.319 -0.9003 -1.9840 -1.1332
 8268SOL     OW36265   0.524   3.432  15.727 -0.3267 -0.0080 -0.1452
 8268SOL    HW136266   0.577   3.511  15.741  1.4261 -1.0761 -0.8323
 8268SOL    HW236267   0.460   3.436  15.799  1.7953  1.2365  1.6760
 8269SOL     OW36268   1.921   1.598   8.698 -0.9400 -0.8242 -0.2615
 8269SOL    HW136269   1.964   1.598   8.783 -0.4371 -0.6980 -0.5142
 8269SOL    HW236270   1.871   1.680   8.705 -1.1430 -0.9615 -0.1342
 8270SOL     OW36271   1.136   1.844   6.993  0.6104 -0.1786 -0.0660
 8270SOL    HW136272   1.110   1.783   7.061 -2.7590  0.9196 -0.3820
 8270SOL    HW236273   1.199   1.903   7.034 -0.3110 -0.0936  1.2026
 8271SOL     OW36274   0.973   3.367  16.595  0.1208  0.0757  0.3332
 8271SOL    HW136275   0.899   3.426  16.584 -1.3338 -1.8355 -0.2316
 8271SOL    HW236276   1.030   3.390  16.522 -0.3045  1.8159  0.5557
 8272SOL     OW36277   3.653   4.646   2.797  0.1300  0.2226 -0.0611
 8272SOL    HW136278   3.720   4.674   2.860 -0.8653  0.7126  0.7842
 8272SOL    HW236279   3.717   4.623   2.730 -0.5196 -0.5541 -0.4148
 8273SOL     OW36280   1.102   2.216   4.609  0.0519 -0.6053 -0.6286
 8273SOL    HW136281   1.175   2.212   4.670 -0.8954 -0.7627  0.4910
 8273SOL    HW236282   1.116   2.305   4.577 -0.4023 -0.7618 -1.2707
 8274SOL     OW36283   1.785   0.723   3.158  0.2937 -0.2286  0.6427
 8274SOL    HW136284   1.754   0.813   3.170 -1.3448 -0.8065  0.6775
 8274SOL    HW236285   1.843   0.743   3.084 -0.6094  0.6462  0.1737
 8275SOL     OW36286   2.669   3.505   2.267  0.4289 -0.6971 -0.3220
 8275SOL    HW136287   2.734   3.467   2.207 -0.0728 -1.1880 -0.5567
 8275SOL    HW236288   2.614   3.429   2.286  1.8729 -1.7244 -0.2400
 8276SOL     OW36289   3.053   0.693   9.173  0.1329 -0.0045  0.2365
 8276SOL    HW136290   3.095   0.756   9.233 -0.9117 -0.2596  1.2405
 8276SOL    HW236291   2.984   0.653   9.225  0.8786 -0.4841  0.8663
 8277SOL     OW36292   0.594   0.324  12.363 -0.0834  0.2253 -0.0559
 8277SOL    HW136293   0.530   0.381  12.320  1.7246  1.1463 -1.5304
 8277SOL    HW236294   0.552   0.238  12.364  0.1972  0.0755 -1.0107
 8278SOL     OW36295   3.439   0.803   3.431  0.5560 -0.5318 -0.3305
 8278SOL    HW136296   3.494   0.745   3.378  1.8751  1.4110 -1.0685
 8278SOL    HW236297   3.498   0.878   3.431  0.4204 -0.4317  0.8322
 8279SOL     OW36298   1.128   1.214  10.519  0.5783  0.1022  0.3722
 8279SOL    HW136299   1.089   1.297  10.493  2.9467  0.9377 -0.5050
 8279SOL    HW236300   1.221   1.232  10.507  0.7163 -0.5476  0.4484
 8280SOL     OW36301   3.264   2.588   2.397  0.4310 -0.4239  0.4498
 8280SOL    HW136302   3.253   2.549   2.310  0.4177  1.5468 -0.4188
 8280SOL    HW236303   3.172   2.607   2.418  1.2605  1.4525  2.3963
 8281SOL     OW36304   1.430   2.609   1.536 -0.1092  0.5734 -0.1754
 8281SOL    HW136305   1.397   2.657   1.611 -2.0121  3.4238 -2.8627
 8281SOL    HW236306   1.394   2.652   1.459 -0.5025  0.2547 -0.1703
 8282SOL     OW36307   0.000   4.425   9.869 -0.2406 -0.1224 -0.1402
 8282SOL    HW136308   0.020   4.332   9.873 -1.5058 -0.4745 -2.4652
 8282SOL    HW236309   4.719   4.426   9.774  0.4247  1.5262 -0.1609
 8283SOL     OW36310   0.267   2.342  12.838  0.0682  0.6806 -0.1468
 8283SOL    HW136311   0.318   2.266  12.866  0.6906  1.6379  1.3099
 8283SOL    HW236312   0.214   2.303  12.768 -0.8390  1.2942  0.1926
 8284SOL     OW36313   4.327   1.440  13.422  0.4225 -0.3404 -0.0255
 8284SOL    HW136314   4.329   1.487  13.339 -1.2055 -0.2426  0.0015
 8284SOL    HW236315   4.404   1.385  13.407 -0.2571 -1.0719 -0.8086
 8285SOL     OW36316   4.592   3.426   9.110 -0.3994  0.4212 -0.1138
 8285SOL    HW136317   4.539   3.478   9.049  1.0263  0.0045 -1.7187
 8285SOL    HW236318   4.629   3.362   9.050 -0.0223  1.6636 -1.2192
 8286SOL     OW36319   0.270   2.596   6.217  0.3420 -0.1201 -0.1576
 8286SOL    HW136320   0.359   2.612   6.250  0.8424  1.9453 -2.4790
 8286SOL    HW236321   0.278   2.582   6.123  1.8890  0.5227 -0.1270
 8287SOL     OW36322   2.935   0.603   2.987 -0.1918  0.2488  0.1766
 8287SOL    HW136323   2.885   0.546   3.045 -0.8572  0.8854  0.2180
 8287SOL    HW236324   3.004   0.627   3.049 -0.6005 -0.6480  0.9767
 8288SOL     OW36325   4.100   3.105   5.818 -0.0866  0.0442  0.1712
 8288SOL    HW136326   4.157   3.058   5.879 -0.6663 -1.6114 -0.5726
 8288SOL    HW236327   4.020   3.061   5.846 -0.7166  0.0742 -1.6018
 8289SOL     OW36328   3.930   0.487   0.743 -0.3027 -0.1506 -0.0315
 8289SOL    HW136329   3.925   0.394   0.761 -1.5074 -0.5944 -2.6490
 8289SOL    HW236330   4.003   0.514   0.799 -1.0929  0.1358  0.8589
 8290SOL     OW36331   4.670   0.049   7.629 -0.2953  0.0803  0.5642
 8290SOL    HW136332   4.618   0.021   7.554 -0.0165  0.3740  0.2583
 8290SOL    HW236333   4.626   0.133   7.638  0.7044  0.9457 -2.5426
 8291SOL     OW36334   4.392   0.770   9.175 -0.4797 -0.2912  0.1319
 8291SOL    HW136335   4.378   0.709   9.102  0.0182 -0.4843  0.1966
 8291SOL    HW236336   4.373   0.702   9.239 -0.3054  0.8076  1.3498
 8292SOL     OW36337   2.351   0.120  12.592 -0.1189  0.5803  0.3519
 8292SOL    HW136338   2.432   0.086  12.554  0.2210 -0.0174  1.5849
 8292SOL    HW236339   2.357   0.216  12.594  0.3613  0.5641 -0.5280
 8293SOL     OW36340   0.118   0.218   3.257  0.1189  0.2551 -0.6026
 8293SOL    HW136341   0.138   0.135   3.300  0.7907 -0.1117 -1.6100
 8293SOL    HW236342   0.171   0.195   3.180  0.4967 -0.9503  0.0254
 8294SOL     OW36343   4.294   0.284   6.994  0.3076 -0.2996 -0.1396
 8294SOL    HW136344   4.278   0.368   7.036 -0.5107 -0.4439 -0.1621
 8294SOL    HW236345   4.268   0.227   7.066  0.9359  0.6594  0.8284
 8295SOL     OW36346   2.066   1.602   0.306 -0.3208  0.1616  0.3642
 8295SOL    HW136347   2.118   1.683   0.301 -0.0586 -0.1483 -2.3077
 8295SOL    HW236348   2.079   1.570   0.395 -0.9264 -3.6564 -0.9048
 8296SOL     OW36349   1.764   3.849  12.026 -0.6009  0.7787 -0.1380
 8296SOL    HW136350   1.842   3.901  12.046 -0.3442 -0.0908  1.1702
 8296SOL    HW236351   1.786   3.766  12.069  1.0209  1.5958  0.5873
 8297SOL     OW36352   2.050   2.784  14.435 -0.7123 -0.5886  0.1081
 8297SOL    HW136353   2.048   2.828  14.520 -1.2595  0.8266 -0.6431
 8297SOL    HW236354   2.133   2.806  14.393 -1.2610  1.4390  0.0963
 8298SOL     OW36355   2.083   1.452  15.640  0.1271  0.8068  0.6344
 8298SOL    HW136356   2.172   1.486  15.639  0.5728 -0.2553  6.4161
 8298SOL    HW236357   2.041   1.521  15.590  1.0687 -0.0129 -1.2923
 8299SOL     OW36358   2.333   1.256   5.961 -0.0069 -0.0003 -0.0146
 8299SOL    HW136359   2.292   1.170   5.962  2.5300 -1.2199 -1.5140
 8299SOL    HW236360   2.277   1.310   6.017 -1.3297 -1.2203 -0.1560
 8300SOL     OW36361   1.058   1.469  13.427 -0.3239 -0.2180  0.1839
 8300SOL    HW136362   1.070   1.374  13.434  0.9921 -0.1592 -1.6261
 8300SOL    HW236363   0.990   1.471  13.360  0.2293 -0.0303 -0.3625
 8301SOL     OW36364   0.366   2.594   8.723  0.1377  0.0135  0.3414
 8301SOL    HW136365   0.276   2.623   8.713  0.4534  0.5031 -1.0465
 8301SOL    HW236366   0.388   2.642   8.803 -1.1248 -0.2755  0.8646
 8302SOL     OW36367   3.424   0.086   7.922  0.3407 -0.4242  0.0951
 8302SOL    HW136368   3.481   0.018   7.960 -0.7015 -2.2683 -1.6596
 8302SOL    HW236369   3.408   0.146   7.995 -1.2586 -1.8298  0.8929
 8303SOL     OW36370   1.643   3.548   7.927 -0.0432  0.1039  0.1103
 8303SOL    HW136371   1.623   3.632   7.968  0.8500  0.3899 -0.0408
 8303SOL    HW236372   1.628   3.483   7.995  0.3120 -0.5995 -0.4775
 8304SOL     OW36373   2.848   3.008   2.187  0.1928  0.2955  0.2500
 8304SOL    HW136374   2.943   3.010   2.199  0.1598  1.1961  0.3545
 8304SOL    HW236375   2.828   3.082   2.130 -1.8376  0.0021  0.5918
 8305SOL     OW36376   3.436   1.938   5.713  0.1454 -0.5598  0.4510
 8305SOL    HW136377   3.408   1.866   5.769  0.1321  0.1285  1.3215
 8305SOL    HW236378   3.531   1.920   5.712  0.4404  0.9921  1.4504
 8306SOL     OW36379   4.229   1.326   4.617 -0.1805 -0.0422  0.1236
 8306SOL    HW136380   4.225   1.238   4.654 -1.6899  0.0199  0.1095
 8306SOL    HW236381   4.322   1.328   4.593 -0.3275  0.5524 -0.3831
 8307SOL     OW36382   1.151   3.358   1.140 -0.2094  0.0012  0.1820
 8307SOL    HW136383   1.092   3.284   1.125 -0.2994  0.1779 -0.3600
 8307SOL    HW236384   1.220   3.310   1.186  0.8871  0.8116 -0.6043
 8308SOL     OW36385   3.012   2.578   8.673  0.0234 -0.6596  0.0194
 8308SOL    HW136386   3.032   2.570   8.766  2.5568 -0.8576 -0.5671
 8308SOL    HW236387   2.970   2.494   8.653  0.9171 -0.5320 -2.3530
 8309SOL     OW36388   2.718   1.833   8.143  0.2716  0.0541 -0.9191
 8309SOL    HW136389   2.756   1.779   8.073 -0.0663 -1.7710  0.3110
 8309SOL    HW236390   2.715   1.784   8.225 -0.0908  0.8888 -0.4356
 8310SOL     OW36391   1.459   0.999   7.386  0.1532 -0.7861  0.6502
 8310SOL    HW136392   1.531   1.055   7.416  0.4062 -1.8344  1.9607
 8310SOL    HW236393   1.501   0.914   7.397 -1.3918 -1.3745  1.9757
 8311SOL     OW36394   2.616   0.968   4.828 -0.0045 -0.0617 -0.2382
 8311SOL    HW136395   2.598   0.955   4.735 -0.5050 -0.9315 -0.0179
 8311SOL    HW236396   2.695   1.022   4.821  0.8795 -1.1730  1.1212
 8312SOL     OW36397   2.631   3.419   5.794  0.2625 -0.0689  0.0371
 8312SOL    HW136398   2.666   3.451   5.710  0.9738  0.6082  0.5851
 8312SOL    HW236399   2.706   3.384   5.841 -0.8668 -0.9441  1.1671
 8313SOL     OW36400   2.441   0.035  13.951  0.5433  0.9877  0.2928
 8313SOL    HW136401   2.532   0.028  13.980  0.4753  0.9030  0.4842
 8313SOL    HW236402   2.397   0.003  14.030 -0.0956 -0.2479 -0.5680
 8314SOL     OW36403   3.107   3.534   0.549 -0.5223  0.3993 -0.0286
 8314SOL    HW136404   3.119   3.609   0.606 -4.0773 -0.2899  1.6647
 8314SOL    HW236405   3.117   3.465   0.615  2.5476  4.1673  3.4338
 8315SOL     OW36406   1.969   2.555   1.209 -0.2352 -0.2644 -0.0635
 8315SOL    HW136407   1.974   2.622   1.277  0.0836  0.7242 -1.0612
 8315SOL    HW236408   2.043   2.497   1.229  0.2289 -0.3481 -2.0843
 8316SOL     OW36409   4.523   4.583   2.427 -0.1367  0.1862  0.6045
 8316SOL    HW136410   4.528   4.649   2.496  1.5967 -0.3431  0.9774
 8316SOL    HW236411   4.433   4.549   2.428 -0.6433  1.4741 -0.9781
 8317SOL     OW36412   3.015   3.848   9.333  0.9724 -0.4562  0.2228
 8317SOL    HW136413   2.920   3.860   9.336  0.6678 -2.3954 -1.9108
 8317SOL    HW236414   3.052   3.936   9.325 -1.0288  0.2109 -1.5822
 8318SOL     OW36415   1.106   0.839   6.602  0.0202  0.7936  0.1017
 8318SOL    HW136416   1.020   0.821   6.564  1.9139 -2.2695 -2.7155
 8318SOL    HW236417   1.146   0.914   6.557  4.6842 -1.3164  0.7075
 8319SOL     OW36418   4.539   0.245  14.209  0.3106 -0.5664  0.1814
 8319SOL    HW136419   4.538   0.292  14.126  1.1629  1.3559  1.2563
 8319SOL    HW236420   4.495   0.162  14.189 -0.6025 -0.6076  2.3301
 8320SOL     OW36421   3.441   1.809   2.877 -0.5304  0.1618  0.3061
 8320SOL    HW136422   3.498   1.877   2.840 -2.0797 -1.3288 -4.8891
 8320SOL    HW236423   3.389   1.780   2.802  1.3213 -2.2135 -0.0906
 8321SOL     OW36424   3.225   0.119   8.367  0.7284 -0.0227 -0.1520
 8321SOL    HW136425   3.136   0.150   8.385  1.6188  2.2947  0.3061
 8321SOL    HW236426   3.274   0.139   8.446 -1.1401  1.2953  0.6721
 8322SOL     OW36427   1.003   0.289   5.605  0.4846  0.0010  0.3901
 8322SOL    HW136428   0.948   0.288   5.684 -2.5751  1.8253 -1.7268
 8322SOL    HW236429   1.049   0.207   5.625  2.1649  1.3103  1.9110
 8323SOL     OW36430   0.877   1.221   2.891 -0.5681  0.0516  0.3220
 8323SOL    HW136431   0.839   1.306   2.915  0.7551  0.8271 -0.3032
 8323SOL    HW236432   0.875   1.241   2.798 -0.2908 -3.2795 -0.3826
 8324SOL     OW36433   1.819   2.505   8.646  0.2200 -0.1905  0.1920
 8324SOL    HW136434   1.814   2.591   8.605  0.4505  0.4317  1.4621
 8324SOL    HW236435   1.766   2.525   8.724  1.7756  1.4881  0.8212
 8325SOL     OW36436   3.406   3.115   3.556  0.2146 -0.1565  0.0478
 8325SOL    HW136437   3.374   3.035   3.598 -0.9314 -1.0743 -2.5479
 8325SOL    HW236438   3.334   3.176   3.540  0.0005 -0.2737  0.5587
 8326SOL     OW36439   2.228   0.343   2.716 -0.1128 -0.4872  1.1332
 8326SOL    HW136440   2.192   0.373   2.633 -2.8506 -1.7639  1.8536
 8326SOL    HW236441   2.269   0.265   2.678 -1.8162 -0.6885 -0.3192
 8327SOL     OW36442   0.446   3.573   7.856 -0.1331  0.5472  0.3292
 8327SOL    HW136443   0.422   3.662   7.881 -2.2161 -0.1851  0.9062
 8327SOL    HW236444   0.523   3.597   7.805  0.6363 -1.3244  0.5978
 8328SOL     OW36445   2.743   0.688   5.308 -0.4679  0.2505 -0.2722
 8328SOL    HW136446   2.788   0.715   5.228  0.9550 -0.8423  0.1682
 8328SOL    HW236447   2.783   0.602   5.319 -0.3954  0.2292 -0.7262
 8329SOL     OW36448   1.376   2.490   9.357 -0.7898 -0.0407 -0.2217
 8329SOL    HW136449   1.298   2.459   9.310 -2.8433  1.0198  2.4664
 8329SOL    HW236450   1.365   2.586   9.358 -2.3358 -0.2385  1.4658
 8330SOL     OW36451   1.360   2.798   8.486 -0.2114  0.5365 -0.0982
 8330SOL    HW136452   1.422   2.733   8.452 -0.1061  1.1766 -1.1497
 8330SOL    HW236453   1.290   2.747   8.526  0.8782  0.4120  1.6241
 8331SOL     OW36454   1.410   3.323   3.638  0.0997  0.0242  0.6573
 8331SOL    HW136455   1.438   3.295   3.725 -1.7609 -0.2140  1.1817
 8331SOL    HW236456   1.315   3.312   3.649  0.0550  0.7659  1.0541
 8332SOL     OW36457   2.047   4.228  15.348  0.2082  0.5950 -0.0561
 8332SOL    HW136458   2.075   4.314  15.377 -0.8173  2.1028 -3.4798
 8332SOL    HW236459   2.048   4.172  15.425 -1.4133 -0.5907 -0.8949
 8333SOL     OW36460   1.786   0.738  13.162 -0.2652  0.2544  0.4424
 8333SOL    HW136461   1.810   0.730  13.254 -0.0596 -1.0592  0.2778
 8333SOL    HW236462   1.751   0.827  13.154  0.6768  0.5085 -0.7917
 8334SOL     OW36463   2.162   2.747  11.151 -0.3013 -0.3132 -0.0995
 8334SOL    HW136464   2.135   2.661  11.185  1.1108 -0.3221  1.0097
 8334SOL    HW236465   2.082   2.795  11.174 -0.8424 -0.5078 -1.5905
 8335SOL     OW36466   3.470   2.120  10.789  0.4118 -0.6349  0.3500
 8335SOL    HW136467   3.475   2.025  10.780  1.6753 -0.3628 -1.7884
 8335SOL    HW236468   3.408   2.129  10.862  0.6186 -0.6175  0.5257
 8336SOL     OW36469   1.302   3.892  14.065  0.3777  0.0983 -0.3752
 8336SOL    HW136470   1.290   3.977  14.023  0.5789  0.2972 -0.0334
 8336SOL    HW236471   1.307   3.826  13.996 -0.2724  0.4555 -0.7588
 8337SOL     OW36472   2.857   4.264   3.098 -0.2324 -0.0869  0.2285
 8337SOL    HW136473   2.940   4.294   3.062 -0.6962  0.4442 -0.3981
 8337SOL    HW236474   2.850   4.182   3.048 -1.8989 -0.7136  1.4946
 8338SOL     OW36475   1.346   1.325   5.628  0.2019 -0.0764 -0.2935
 8338SOL    HW136476   1.275   1.266   5.602  0.7998  0.0660 -2.1972
 8338SOL    HW236477   1.418   1.267   5.603 -0.0849 -1.7012  2.6052
 8339SOL     OW36478   0.839   1.747   3.646  0.4350  0.3302 -0.3035
 8339SOL    HW136479   0.832   1.663   3.601  0.0967 -1.2430  2.6848
 8339SOL    HW236480   0.905   1.800   3.601 -1.2833  0.9714 -2.0833
 8340SOL     OW36481   2.580   3.334  14.988 -0.0879  0.0652 -0.2963
 8340SOL    HW136482   2.656   3.369  15.034  0.3891 -0.1744 -0.9037
 8340SOL    HW236483   2.627   3.288  14.918  1.5666  2.6815 -0.9199
 8341SOL     OW36484   4.597   1.168   2.416 -1.2160 -0.7081  0.2251
 8341SOL    HW136485   4.553   1.236   2.467  2.8350  2.6086 -0.7340
 8341SOL    HW236486   4.526   1.105   2.402 -2.7640  1.1387 -0.0790
 8342SOL     OW36487   1.981   0.353   7.813  0.1442 -0.2654  0.4747
 8342SOL    HW136488   1.900   0.372   7.862 -0.5172 -0.9579 -0.3691
 8342SOL    HW236489   1.962   0.263   7.787  0.1305 -0.1664  0.1453
 8343SOL     OW36490   0.277   3.776  11.371  0.1795 -0.5006  0.6414
 8343SOL    HW136491   0.268   3.683  11.392  1.3651 -0.6624  0.4131
 8343SOL    HW236492   0.370   3.792  11.381 -0.0733  1.2622  0.3302
 8344SOL     OW36493   1.498   4.122   6.369  0.2359 -0.4057  0.3501
 8344SOL    HW136494   1.552   4.043   6.367  0.6350 -0.1552  1.0504
 8344SOL    HW236495   1.416   4.084   6.336  0.0263 -2.2355  3.0045
 8345SOL     OW36496   2.906   0.708   8.168  0.0064 -0.3501 -0.0666
 8345SOL    HW136497   2.813   0.713   8.150  0.3786 -1.8840 -2.5456
 8345SOL    HW236498   2.955   0.708   8.085 -0.0128 -1.2861 -0.0867
 8346SOL     OW36499   3.369   3.277   2.264  0.3687 -0.4640 -0.0048
 8346SOL    HW136500   3.340   3.317   2.182  2.0773  1.5423  0.3702
 8346SOL    HW236501   3.460   3.306   2.257  0.7058 -1.1257  1.7504
 8347SOL     OW36502   0.738   4.182   5.663 -0.0838  0.4374  0.1469
 8347SOL    HW136503   0.671   4.120   5.692  0.7027 -1.4242 -1.9969
 8347SOL    HW236504   0.794   4.186   5.741  0.3808  0.9726 -0.2179
 8348SOL     OW36505   2.289   2.958   1.427 -0.3228 -0.4812 -0.1824
 8348SOL    HW136506   2.349   2.985   1.358 -0.9127 -2.1275 -1.3543
 8348SOL    HW236507   2.347   2.966   1.503 -0.5009  0.4297 -0.1482
 8349SOL     OW36508   3.945   3.880   3.109  0.0932  0.1162 -0.0049
 8349SOL    HW136509   3.983   3.955   3.061  0.1045 -1.0878 -1.9016
 8349SOL    HW236510   3.989   3.810   3.061  1.3084 -0.6148  2.1653
 8350SOL     OW36511   0.364   1.681   9.136 -0.7585  0.0401  0.2347
 8350SOL    HW136512   0.347   1.682   9.230  1.6506 -2.0602  0.6966
 8350SOL    HW236513   0.395   1.770   9.119  0.7848 -0.1835  1.8452
 8351SOL     OW36514   3.132   4.365  13.471  0.0693  0.1330 -0.1515
 8351SOL    HW136515   3.110   4.438  13.529 -1.6635 -0.3023 -0.2361
 8351SOL    HW236516   3.184   4.409  13.404 -1.3784  1.0141 -0.7120
 8352SOL     OW36517   2.510   0.518   7.716  0.2980  0.2920  0.5749
 8352SOL    HW136518   2.476   0.447   7.661 -3.6645  2.5361  0.0791
 8352SOL    HW236519   2.549   0.473   7.791  0.5809 -0.7608 -0.2021
 8353SOL     OW36520   3.192   1.643   7.529 -0.0949 -0.0969 -0.4629
 8353SOL    HW136521   3.262   1.578   7.539  0.8507  1.6291  4.5697
 8353SOL    HW236522   3.166   1.661   7.620  3.4603 -1.8262  0.9224
 8354SOL     OW36523   1.954   3.658   2.557 -0.0846  0.4445  0.0140
 8354SOL    HW136524   1.904   3.718   2.501 -1.1611 -1.2650 -0.8725
 8354SOL    HW236525   1.900   3.648   2.635 -1.2662 -1.2717 -1.0062
 8355SOL     OW36526   0.415   2.850   5.348  0.0864  0.1752 -0.4079
 8355SOL    HW136527   0.335   2.800   5.339  0.1025 -0.2874  2.0204
 8355SOL    HW236528   0.476   2.794   5.300  1.0786 -0.3250  1.4106
 8356SOL     OW36529   2.993   3.936   7.185 -0.4631 -0.1142  0.3311
 8356SOL    HW136530   3.014   3.862   7.128 -2.6875  1.3418 -2.4058
 8356SOL    HW236531   2.920   3.983   7.144  1.4621  1.2904 -1.5482
 8357SOL     OW36532   3.880   2.826  16.919  0.0899 -0.5560  0.3886
 8357SOL    HW136533   3.921   2.780  16.992  0.8633 -1.0528 -0.3664
 8357SOL    HW236534   3.862   2.751  16.862 -1.7655  1.3553 -1.5559
 8358SOL     OW36535   0.997   0.398   9.897 -0.0623  0.4067 -0.2790
 8358SOL    HW136536   1.022   0.309   9.874 -1.6167  0.2688 -1.3787
 8358SOL    HW236537   1.035   0.406   9.985  0.4131 -0.3664 -0.4158
 8359SOL     OW36538   4.453   2.627   3.842  0.2158 -0.3557 -0.1691
 8359SOL    HW136539   4.418   2.546   3.803 -2.1011 -0.8013  2.8458
 8359SOL    HW236540   4.403   2.694   3.796 -0.6504 -0.6924  0.2808
 8360SOL     OW36541   3.729   1.498  16.211 -0.0150  0.1036  0.3882
 8360SOL    HW136542   3.753   1.507  16.119  1.0427  1.2605  0.7881
 8360SOL    HW236543   3.690   1.580  16.241 -3.5974 -1.7627  0.8532
 8361SOL     OW36544   1.720   3.412   3.657 -0.0992  0.4239  0.3702
 8361SOL    HW136545   1.697   3.345   3.593  2.3037  0.1370 -0.1758
 8361SOL    HW236546   1.643   3.466   3.640 -0.7249  0.2104  2.4774
 8362SOL     OW36547   3.665   0.039   6.926 -0.0109 -1.0179  0.3869
 8362SOL    HW136548   3.577   0.064   6.956 -0.5780  0.3786 -2.4945
 8362SOL    HW236549   3.660   0.073   6.837  0.8799 -1.3877  0.2073
 8363SOL     OW36550   0.992   1.698   0.541  0.1659 -0.2585 -0.1538
 8363SOL    HW136551   0.956   1.772   0.491 -0.1488 -1.7092 -2.0872
 8363SOL    HW236552   0.913   1.683   0.591  0.1815 -0.0119 -0.0582
 8364SOL     OW36553   1.184   4.665  15.760 -0.6370 -0.2767  0.0003
 8364SOL    HW136554   1.185   4.639  15.668 -0.3916  0.9254 -0.3419
 8364SOL    HW236555   1.138   4.587  15.791 -2.0028  0.9084  0.9513
 8365SOL     OW36556   3.979   3.619  14.154  0.3664  0.6737  0.2074
 8365SOL    HW136557   3.972   3.533  14.112  1.0191  1.6248 -1.8581
 8365SOL    HW236558   3.895   3.637  14.197 -0.0767 -0.4676 -0.1869
 8366SOL     OW36559   0.113   2.773   6.337  0.4517  0.2155 -0.9431
 8366SOL    HW136560   0.038   2.806   6.287  0.2533  3.2805  1.3158
 8366SOL    HW236561   0.162   2.713   6.281  1.2798 -1.8291  1.9714
 8367SOL     OW36562   2.491   0.543  15.288  0.0402 -0.0924 -0.1807
 8367SOL    HW136563   2.556   0.611  15.303  0.3173 -0.5306  0.6431
 8367SOL    HW236564   2.423   0.584  15.342  0.5746  1.4500 -0.6786
 8368SOL     OW36565   3.955   0.077  13.872 -0.3033 -0.4615 -0.1829
 8368SOL    HW136566   3.939   0.079  13.778  0.6189 -0.6981 -0.3496
 8368SOL    HW236567   3.868   0.060  13.909 -1.1266  3.2635 -0.3709
 8369SOL     OW36568   4.008   1.513   9.465 -0.4018 -0.1716 -0.4662
 8369SOL    HW136569   4.031   1.594   9.510  1.7671 -0.4149 -1.1165
 8369SOL    HW236570   3.948   1.470   9.525  1.4890 -2.3850 -0.1393
 8370SOL     OW36571   3.212   1.120  10.545  0.0491  0.2725 -0.0475
 8370SOL    HW136572   3.251   1.072  10.472 -1.8854  0.8177 -1.4091
 8370SOL    HW236573   3.201   1.045  10.604  1.0183 -2.3544 -3.1833
 8371SOL     OW36574   3.047   1.817  11.357 -0.4469  0.4448 -0.0398
 8371SOL    HW136575   3.070   1.726  11.341 -1.0716  0.1831  0.5761
 8371SOL    HW236576   3.076   1.870  11.283  2.0385 -1.6272 -0.5714
 8372SOL     OW36577   0.711   1.290  12.403 -0.3556 -0.8488 -0.0299
 8372SOL    HW136578   0.739   1.212  12.450 -2.4703 -0.3526  2.0121
 8372SOL    HW236579   0.747   1.285  12.314  1.9555 -0.3411  0.8632
 8373SOL     OW36580   2.905   2.582   8.356  0.6161 -0.0376 -0.4786
 8373SOL    HW136581   2.937   2.598   8.445  0.1884 -0.8835 -0.1799
 8373SOL    HW236582   2.925   2.489   8.356  1.1330  0.0750  0.6731
 8374SOL     OW36583   0.729   1.724   1.406  0.0674 -0.2432 -0.6880
 8374SOL    HW136584   0.664   1.773   1.456  0.0869 -3.1460  2.2235
 8374SOL    HW236585   0.739   1.775   1.326 -1.5408 -0.7788 -1.2234
 8375SOL     OW36586   4.209   3.971   3.636  0.2480 -0.4234 -0.7097
 8375SOL    HW136587   4.121   3.963   3.599  0.0558 -0.0492 -0.3419
 8375SOL    HW236588   4.243   4.045   3.585  0.0983 -0.7273 -1.2428
 8376SOL     OW36589   3.675   2.141   1.668  1.0390 -0.1115  0.0582
 8376SOL    HW136590   3.699   2.048   1.659 -0.2280 -0.6985  2.8271
 8376SOL    HW236591   3.764   2.176   1.659  0.1754  1.9840 -0.1145
 8377SOL     OW36592   2.155   4.624   8.531 -0.6265 -0.1325 -0.2585
 8377SOL    HW136593   2.101   4.546   8.525 -2.3950  1.0375  0.4923
 8377SOL    HW236594   2.200   4.620   8.615 -1.5261 -1.5588  0.1464
 8378SOL     OW36595   2.583   0.116   2.224 -0.2350  0.3106 -0.4496
 8378SOL    HW136596   2.518   0.186   2.231  0.9034  1.0856  2.8249
 8378SOL    HW236597   2.566   0.092   2.133 -2.0686 -2.0762  0.5320
 8379SOL     OW36598   0.926   4.158  12.367  0.3557 -0.7168  0.0536
 8379SOL    HW136599   0.970   4.242  12.349  2.6528 -1.5746  1.6942
 8379SOL    HW236600   0.841   4.171  12.325  0.0980  1.1904  1.1638
 8380SOL     OW36601   2.924   0.209  13.559 -0.1358 -0.3286 -0.1826
 8380SOL    HW136602   2.888   0.195  13.471 -0.5633  3.7654 -0.6338
 8380SOL    HW236603   2.969   0.129  13.589 -2.7236 -0.7536  2.5741
 8381SOL     OW36604   0.610   3.995   8.806  0.3346  0.1615  0.1704
 8381SOL    HW136605   0.548   3.959   8.869 -0.4958 -0.9823 -1.3198
 8381SOL    HW236606   0.691   3.948   8.829 -0.2974 -0.8418  0.3346
 8382SOL     OW36607   3.685   1.467   4.606 -0.7293 -0.4812 -0.2400
 8382SOL    HW136608   3.692   1.375   4.581  1.3183 -0.7775  1.4114
 8382SOL    HW236609   3.749   1.509   4.548 -0.9370 -2.0946 -1.6456
 8383SOL     OW36610   2.243   1.809   0.347  0.1494 -0.1119  0.0602
 8383SOL    HW136611   2.329   1.790   0.309  0.9693 -1.3284  2.5166
 8383SOL    HW236612   2.248   1.904   0.350 -0.6402 -0.1780  2.9059
 8384SOL     OW36613   4.414   4.102  13.213 -0.2192 -0.1999 -0.7623
 8384SOL    HW136614   4.371   4.118  13.297  0.3375  1.7134 -0.8510
 8384SOL    HW236615   4.345   4.067  13.157  0.3990  1.2772 -2.4459
 8385SOL     OW36616   3.303   2.362   0.218 -0.4947 -0.1990  0.0578
 8385SOL    HW136617   3.313   2.447   0.174  0.7053  0.2916  1.2516
 8385SOL    HW236618   3.254   2.311   0.154  1.1089 -0.0728 -1.2816
 8386SOL     OW36619   3.936   4.294   2.864  0.2942  0.0702 -0.3246
 8386SOL    HW136620   3.901   4.286   2.775  0.4472  0.5384 -0.4259
 8386SOL    HW236621   3.863   4.342   2.903 -0.4306 -1.5303  0.3068
 8387SOL     OW36622   3.184   3.672   4.773  0.2891  0.4532 -0.0598
 8387SOL    HW136623   3.128   3.721   4.833  1.3058  0.8855  0.5287
 8387SOL    HW236624   3.151   3.584   4.792 -0.1984  0.6510  0.0221
 8388SOL     OW36625   2.826   1.493   7.166  0.5306 -0.5568 -0.0325
 8388SOL    HW136626   2.744   1.519   7.123  0.2072 -0.5867  0.5680
 8388SOL    HW236627   2.811   1.399   7.156 -2.7793  0.0157 -0.5343
 8389SOL     OW36628   1.834   3.192   5.603 -0.0496 -0.0632  0.1355
 8389SOL    HW136629   1.853   3.187   5.510  1.5475 -0.7206  0.4783
 8389SOL    HW236630   1.863   3.279   5.632  0.1046 -0.6919  1.8973
 8390SOL     OW36631   3.220   1.922  17.627 -0.1153 -0.2321 -0.0443
 8390SOL    HW136632   3.273   1.897   0.002  1.4330  1.9573 -0.4072
 8390SOL    HW236633   3.156   1.959  17.688  1.5108  1.0799  0.8554
 8391SOL     OW36634   3.711   2.033   7.866 -0.1009  0.2535  0.2529
 8391SOL    HW136635   3.805   2.048   7.852 -0.4156  2.6746  0.6327
 8391SOL    HW236636   3.698   2.104   7.929 -0.0026  2.5153 -2.2474
 8392SOL     OW36637   0.938   1.688  16.898  0.1952 -0.2129 -0.2480
 8392SOL    HW136638   0.888   1.727  16.826  0.1330 -1.6994 -1.0100
 8392SOL    HW236639   1.017   1.657  16.853  0.9216 -0.7396  1.3896
 8393SOL     OW36640   1.853   1.718  10.646  0.2516 -0.3602  0.4175
 8393SOL    HW136641   1.822   1.641  10.599 -0.3233 -0.1089  0.3793
 8393SOL    HW236642   1.835   1.787  10.583 -0.2115 -1.3606 -0.5402
 8394SOL     OW36643   3.026   3.181   4.260 -0.4025  0.5835 -0.2085
 8394SOL    HW136644   3.017   3.117   4.190 -2.0515  0.8657 -0.2713
 8394SOL    HW236645   3.052   3.118   4.327  0.8578  0.9487 -0.3595
 8395SOL     OW36646   3.454   4.284   4.943 -0.3151  0.2709  0.4804
 8395SOL    HW136647   3.449   4.269   4.848 -1.7677  3.2793  0.0995
 8395SOL    HW236648   3.515   4.216   4.974 -0.6541 -0.2990 -0.0821
 8396SOL     OW36649   0.755   0.360   4.089  0.2851 -0.3006 -0.3822
 8396SOL    HW136650   0.715   0.366   4.002  0.5188 -1.1959 -0.5513
 8396SOL    HW236651   0.845   0.354   4.057 -0.2679 -0.7507 -1.8581
 8397SOL     OW36652   2.953   1.689   4.666 -0.0357  0.0138 -0.1824
 8397SOL    HW136653   3.029   1.671   4.612  0.3897  0.5950  0.2242
 8397SOL    HW236654   2.991   1.762   4.715  2.0386 -0.9959 -0.2834
 8398SOL     OW36655   4.064   2.648   6.984 -0.2073 -0.3154 -0.2369
 8398SOL    HW136656   4.028   2.637   6.896 -1.3118  0.0110  0.1730
 8398SOL    HW236657   4.114   2.730   6.980 -2.4241  1.0471 -0.0780
 8399SOL     OW36658   1.428   3.294   2.032  0.2037  0.1316 -0.1571
 8399SOL    HW136659   1.462   3.379   2.001 -0.8741  0.7749  0.4287
 8399SOL    HW236660   1.336   3.302   2.008  0.3747  2.3412 -0.1356
 8400SOL     OW36661   1.352   1.865   8.399 -0.5714  0.3613 -0.1061
 8400SOL    HW136662   1.345   1.847   8.305  0.7136 -0.6867  0.0077
 8400SOL    HW236663   1.433   1.916   8.403  0.6707 -1.7336  1.1865
 8401SOL     OW36664   2.893   4.452   0.809  0.4304 -0.5596  0.8139
 8401SOL    HW136665   2.811   4.453   0.859 -0.0058  0.0072  0.0778
 8401SOL    HW236666   2.884   4.530   0.754  1.5185 -0.0527  1.3566
 8402SOL     OW36667   0.443   1.224   4.025 -0.0263 -0.1850  0.4886
 8402SOL    HW136668   0.412   1.144   3.985  1.1883 -0.7995  0.7716
 8402SOL    HW236669   0.523   1.255   3.981 -0.3904  1.4921  0.9919
 8403SOL     OW36670   1.689   4.021  14.057  0.2224 -0.2615  0.1011
 8403SOL    HW136671   1.773   4.062  14.036  0.2292 -0.5764 -0.4944
 8403SOL    HW236672   1.718   3.935  14.087  2.0754 -0.3432 -1.9068
 8404SOL     OW36673   1.854   1.619  14.504  0.0023  0.2978 -0.6097
 8404SOL    HW136674   1.926   1.652  14.450  1.5594  0.9500  1.8872
 8404SOL    HW236675   1.852   1.524  14.490 -1.6018  0.1368  0.7475
 8405SOL     OW36676   0.399   3.199   6.225  0.2553 -0.2050  0.4127
 8405SOL    HW136677   0.406   3.112   6.185  1.5350  0.3708 -0.6186
 8405SOL    HW236678   0.468   3.253   6.186  1.0692 -0.7654  1.0567
 8406SOL     OW36679   3.587   4.709   6.292  0.5037 -0.1606  0.0383
 8406SOL    HW136680   3.561   4.723   6.200 -0.4599  0.4051  0.3971
 8406SOL    HW236681   3.644   0.058   6.308 -0.2784  0.0762  1.7367
 8407SOL     OW36682   2.629   0.987   2.996 -0.2150  0.0969 -0.4722
 8407SOL    HW136683   2.566   0.918   3.017 -1.5468  0.9953 -1.5521
 8407SOL    HW236684   2.603   1.062   3.049 -1.5273  0.5678 -1.7976
 8408SOL     OW36685   0.768   3.966  16.973  0.3136 -0.4677  0.0898
 8408SOL    HW136686   0.746   3.880  16.937 -2.2064  0.6186 -0.9497
 8408SOL    HW236687   0.688   4.011  16.943 -1.3839 -3.3824  0.2166
 8409SOL     OW36688   0.239   0.219   1.174 -0.1817 -0.0764 -0.5503
 8409SOL    HW136689   0.179   0.151   1.142  1.8329 -1.5699 -1.1300
 8409SOL    HW236690   0.308   0.209   1.109  2.3954 -2.5394  2.5455
 8410SOL     OW36691   3.413   0.075   8.899  0.2890  0.2563 -0.4870
 8410SOL    HW136692   3.356   0.027   8.839  3.2286  0.7223 -3.7167
 8410SOL    HW236693   3.374   0.162   8.896  0.8973  0.5206 -0.7869
 8411SOL     OW36694   3.116   2.877  15.507  0.3580 -0.0950 -0.2864
 8411SOL    HW136695   3.139   2.886  15.599 -2.0084 -2.3807  0.5044
 8411SOL    HW236696   3.131   2.968  15.479  1.6221  0.9613  3.8672
 8412SOL     OW36697   4.132   2.832   5.371  0.3716 -0.0285  0.0271
 8412SOL    HW136698   4.165   2.758   5.320  2.5926 -0.2984  1.8647
 8412SOL    HW236699   4.116   2.793   5.457  0.7298  3.4537  1.6622
 8413SOL     OW36700   2.825   0.531   6.448 -0.4224  0.4992  0.4802
 8413SOL    HW136701   2.849   0.449   6.492  3.1888 -0.1987 -2.7834
 8413SOL    HW236702   2.817   0.490   6.361  1.6906 -0.7457  0.8732
 8414SOL     OW36703   1.109   1.200  15.674 -0.0777  0.3515  0.0105
 8414SOL    HW136704   1.052   1.147  15.730 -1.2627 -0.0891 -1.6248
 8414SOL    HW236705   1.073   1.175  15.589 -1.4577  0.8450  0.4590
 8415SOL     OW36706   0.409   0.319  13.142  0.8307  0.0639  0.4237
 8415SOL    HW136707   0.466   0.296  13.069  1.0652  3.4180 -0.4422
 8415SOL    HW236708   0.428   0.246  13.201 -0.5345  0.8111  1.7978
 8416SOL     OW36709   0.806   4.061  11.082 -0.6398  0.0378 -0.8338
 8416SOL    HW136710   0.777   3.973  11.060 -1.6160  0.4562 -1.1959
 8416SOL    HW236711   0.740   4.110  11.034 -1.0161 -0.0488 -0.4032
 8417SOL     OW36712   1.838   3.199   5.074 -0.0579  0.3460 -0.3188
 8417SOL    HW136713   1.750   3.236   5.079 -0.9870 -2.0100  0.5806
 8417SOL    HW236714   1.872   3.234   4.992 -0.4984 -0.8841 -1.0355
 8418SOL     OW36715   4.396   0.501  16.449  0.3505 -0.5106  0.0712
 8418SOL    HW136716   4.317   0.449  16.462  0.6717 -1.2152 -0.8062
 8418SOL    HW236717   4.366   0.584  16.413  0.4510 -0.3525  0.3455
 8419SOL     OW36718   4.451   1.328   9.306  0.1518 -0.3995 -0.0148
 8419SOL    HW136719   4.496   1.341   9.223 -1.3254 -1.6971 -1.0135
 8419SOL    HW236720   4.408   1.408   9.335 -1.7725 -2.0049  1.6210
 8420SOL     OW36721   1.246   1.127   8.293 -0.0746 -0.2424  0.6852
 8420SOL    HW136722   1.322   1.186   8.301 -1.3579  1.4205  0.6429
 8420SOL    HW236723   1.278   1.056   8.348  0.6190  0.0985  0.7240
 8421SOL     OW36724   4.669   2.700   7.565 -0.2266  0.2301  0.2506
 8421SOL    HW136725   4.682   2.792   7.588 -1.8698  0.3142  0.8470
 8421SOL    HW236726   4.587   2.681   7.612 -1.0919 -1.3669 -1.9165
 8422SOL     OW36727   1.049   2.978   2.608  0.3371 -0.1475 -0.1549
 8422SOL    HW136728   1.121   2.986   2.670 -0.3294  0.3285  0.5584
 8422SOL    HW236729   1.082   2.914   2.545 -0.8960 -0.4545 -0.4825
 8423SOL     OW36730   1.119   2.892   3.794  0.0159 -0.0891  0.7167
 8423SOL    HW136731   1.123   2.811   3.743  0.0619 -0.3380  1.1133
 8423SOL    HW236732   1.048   2.940   3.751 -1.5379 -2.4644  0.6529
 8424SOL     OW36733   3.907   1.480  11.469 -0.5946 -0.5444  0.1830
 8424SOL    HW136734   3.961   1.519  11.538  1.2452 -2.8069  0.0234
 8424SOL    HW236735   3.845   1.551  11.454 -1.5841 -1.3569  0.4401
 8425SOL     OW36736   0.298   3.771   6.876 -0.1903 -0.4474 -0.1484
 8425SOL    HW136737   0.290   3.731   6.962  0.8103 -1.4003 -0.5041
 8425SOL    HW236738   0.255   3.855   6.892  3.4573  1.5903 -1.2122
 8426SOL     OW36739   0.286   0.545  13.068 -0.4262 -0.4195 -0.3044
 8426SOL    HW136740   0.339   0.468  13.090 -0.7066  0.0312  2.0285
 8426SOL    HW236741   0.358   0.606  13.057 -0.2310 -0.1442  2.3708
 8427SOL     OW36742   1.818   1.926  10.429  0.3685  0.1244 -0.6891
 8427SOL    HW136743   1.855   1.950  10.343 -0.2699  0.1382 -0.9577
 8427SOL    HW236744   1.794   2.016  10.453 -1.1606  0.0657 -1.9573
 8428SOL     OW36745   0.011   3.482   2.969 -0.5291 -0.2045 -0.0789
 8428SOL    HW136746   4.705   3.552   2.913 -0.7321  0.2455  0.5922
 8428SOL    HW236747   4.677   3.412   2.939  0.5611  0.5117 -3.7780
 8429SOL     OW36748   4.326   2.489   4.455  0.4843  0.2521 -0.0437
 8429SOL    HW136749   4.315   2.396   4.471  0.6429 -0.2188 -2.7305
 8429SOL    HW236750   4.266   2.497   4.381  0.4546 -0.2572 -0.0712
 8430SOL     OW36751   1.090   4.672   2.940 -0.0377 -0.0746  0.6548
 8430SOL    HW136752   1.083   4.619   3.019 -1.9277  1.7974  1.7376
 8430SOL    HW236753   0.997   4.684   2.923  0.0451 -0.1013  0.1871
 8431SOL     OW36754   4.566   2.253   8.727  0.2366 -0.3002 -0.1444
 8431SOL    HW136755   4.641   2.200   8.755  1.3436  2.0006  1.3095
 8431SOL    HW236756   4.556   2.304   8.808  0.8241 -0.9511  0.3381
 8432SOL     OW36757   2.106   0.727   9.238  0.3935  0.0619 -0.2852
 8432SOL    HW136758   2.104   0.632   9.245 -1.1684 -0.1555 -3.5482
 8432SOL    HW236759   2.179   0.737   9.177  0.8593  0.0755  0.2793
 8433SOL     OW36760   0.570   4.314   2.002  0.6730  0.0585  0.3931
 8433SOL    HW136761   0.502   4.247   1.997  2.2998 -1.3525 -2.5326
 8433SOL    HW236762   0.531   4.387   1.954  0.7398  1.1677  1.9988
 8434SOL     OW36763   3.529   0.796  13.062  1.0008  0.0342  0.4780
 8434SOL    HW136764   3.544   0.718  13.008  1.1652  0.4983 -0.1517
 8434SOL    HW236765   3.618   0.827  13.077  0.7272  1.7800 -1.5580
 8435SOL     OW36766   0.156   2.902   4.278 -0.0423  0.1086 -0.4156
 8435SOL    HW136767   0.243   2.896   4.318  0.4266  0.5697 -1.3907
 8435SOL    HW236768   0.106   2.834   4.324 -0.7931  0.8894 -0.0591
 8436SOL     OW36769   1.377   3.881   7.000  0.4771  0.0446 -0.2012
 8436SOL    HW136770   1.313   3.892   7.071 -2.6213 -2.7622 -2.5693
 8436SOL    HW236771   1.319   3.854   6.930  0.2579  0.3224 -0.1272
 8437SOL     OW36772   0.226   3.890   2.055 -0.1589  0.0803  0.2797
 8437SOL    HW136773   0.302   3.914   2.002 -0.3034 -0.7947 -0.3244
 8437SOL    HW236774   0.171   3.961   2.023  0.3438  0.3886  0.0845
 8438SOL     OW36775   2.218   1.886  11.250 -0.2075  0.8153  0.0223
 8438SOL    HW136776   2.310   1.865  11.267 -0.7923 -0.8634  1.1099
 8438SOL    HW236777   2.226   1.982  11.246  0.5683  0.7122 -0.8952
 8439SOL     OW36778   0.975   2.900  11.017 -0.6578 -0.2911  0.2499
 8439SOL    HW136779   0.918   2.886  11.093 -2.4360 -0.3666 -1.1164
 8439SOL    HW236780   0.977   2.995  11.020  0.1614 -0.2908 -0.4526
 8440SOL     OW36781   4.273   3.106   7.136 -0.3604 -0.0802  0.1613
 8440SOL    HW136782   4.295   3.036   7.074  3.2298 -0.2211  1.6189
 8440SOL    HW236783   4.196   3.063   7.174 -1.2939  1.4968  0.0553
 8441SOL     OW36784   1.833   0.654   4.966  0.1288  0.5577  0.0422
 8441SOL    HW136785   1.740   0.669   4.983 -0.4020 -0.5977 -1.8277
 8441SOL    HW236786   1.871   0.739   4.945  1.5583  0.3761  1.8613
 8442SOL     OW36787   3.794   0.663  13.867 -0.3462 -0.4615 -0.2558
 8442SOL    HW136788   3.863   0.725  13.889 -0.7294  0.3128 -1.2038
 8442SOL    HW236789   3.750   0.716  13.800  0.2483 -0.9098 -1.0065
 8443SOL     OW36790   0.942   2.436   8.487  0.0573 -0.1077  0.6603
 8443SOL    HW136791   0.849   2.454   8.505 -0.5351 -0.9418 -1.4961
 8443SOL    HW236792   0.959   2.360   8.543 -1.7046 -0.4777  0.7107
 8444SOL     OW36793   4.297   4.110   5.112 -0.1322  0.4466 -0.0495
 8444SOL    HW136794   4.359   4.181   5.099 -0.7391  1.2711  1.5889
 8444SOL    HW236795   4.319   4.087   5.202  1.7406  1.0786 -0.3505
 8445SOL     OW36796   0.907   4.702   4.008  0.3413 -0.2361  0.0732
 8445SOL    HW136797   0.941   0.002   4.094  2.7179  0.8880 -1.1981
 8445SOL    HW236798   0.883   4.610   4.015 -1.4258  0.2717  0.7540
 8446SOL     OW36799   2.570   1.119   8.672 -0.2753 -0.1921  0.0042
 8446SOL    HW136800   2.636   1.141   8.607 -0.6141 -1.0944 -0.6362
 8446SOL    HW236801   2.567   1.023   8.670  1.6388 -0.2755  1.6571
 8447SOL     OW36802   0.764   4.299  16.968  0.1663 -0.0755 -0.5464
 8447SOL    HW136803   0.795   4.308  16.877 -0.7767  3.0339 -0.5699
 8447SOL    HW236804   0.846   4.269  17.007  0.8216  1.2906 -0.8405
 8448SOL     OW36805   1.185   2.729   1.105  0.3518 -0.1258  0.7994
 8448SOL    HW136806   1.111   2.762   1.156 -0.5725 -0.4198 -0.3340
 8448SOL    HW236807   1.252   2.740   1.172 -0.0991 -0.5961  1.3221
 8449SOL     OW36808   4.157   4.426   2.719  0.0979  0.0115 -0.3035
 8449SOL    HW136809   4.240   4.449   2.761  0.2614  1.2733 -1.3210
 8449SOL    HW236810   4.109   4.385   2.791 -0.6048 -1.6602 -1.7327
 8450SOL     OW36811   2.899   3.919  16.648  0.0527 -0.4336  0.2655
 8450SOL    HW136812   2.864   3.833  16.623  0.3626  0.3088 -2.7010
 8450SOL    HW236813   2.844   3.952  16.719  0.7721  0.7136  0.2819
 8451SOL     OW36814   1.811   0.680   5.838 -0.8357  0.6488  0.4898
 8451SOL    HW136815   1.778   0.600   5.799 -0.5902  0.2814  1.0418
 8451SOL    HW236816   1.899   0.656   5.868 -0.3247  0.2070 -1.3258
 8452SOL     OW36817   0.840   2.148   2.802  0.3308 -0.3818 -0.4401
 8452SOL    HW136818   0.763   2.141   2.746 -0.7597 -2.9370  1.3778
 8452SOL    HW236819   0.905   2.105   2.747  0.2805 -1.4450  0.3220
 8453SOL     OW36820   1.969   4.235   8.968  0.3726  0.5626  0.1743
 8453SOL    HW136821   1.929   4.298   8.908  1.7882  1.0666 -0.2432
 8453SOL    HW236822   1.946   4.151   8.928  0.4866  1.2560 -1.3572
 8454SOL     OW36823   4.076   2.010   7.488  0.0461 -0.3358 -0.1382
 8454SOL    HW136824   4.148   2.067   7.462 -1.1361  1.2267 -0.0208
 8454SOL    HW236825   4.068   2.017   7.584  2.5980 -2.0848  0.1955
 8455SOL     OW36826   3.976   0.315   1.577 -0.2205  0.7923 -0.1750
 8455SOL    HW136827   4.042   0.320   1.646 -0.4207  0.9504  0.0074
 8455SOL    HW236828   3.953   0.223   1.572 -1.2325  1.0208  0.2406
 8456SOL     OW36829   1.499   2.636   6.143 -0.2506  0.4360 -0.1688
 8456SOL    HW136830   1.499   2.544   6.114  0.4491  0.5833 -0.6294
 8456SOL    HW236831   1.437   2.620   6.214  0.6758 -2.1656  0.0487
 8457SOL     OW36832   1.939   2.970   4.344 -0.1999  0.0948  0.0717
 8457SOL    HW136833   1.899   3.054   4.319 -0.3591  1.0361  3.5765
 8457SOL    HW236834   1.894   2.939   4.422 -0.4745  1.3004  0.3862
 8458SOL     OW36835   4.706   2.863  13.809  0.3596 -0.5907  0.3669
 8458SOL    HW136836   4.635   2.817  13.764 -0.5129  1.5920 -0.4665
 8458SOL    HW236837   0.035   2.895  13.738 -0.3901  0.4895  0.2918
 8459SOL     OW36838   2.812   0.051  17.046  0.2012  0.6725  0.4657
 8459SOL    HW136839   2.804   0.060  17.141  0.8423 -0.9916  0.6747
 8459SOL    HW236840   2.744   0.107  17.009  3.1085  2.3214 -2.3872
 8460SOL     OW36841   3.807   4.013   7.441  0.2547 -0.0587 -0.1085
 8460SOL    HW136842   3.823   4.101   7.475 -2.4931  0.4006 -0.0745
 8460SOL    HW236843   3.859   4.013   7.360  1.1043 -1.0579  0.4364
 8461SOL     OW36844   1.169   0.593  14.096 -0.8058  0.2950 -0.5194
 8461SOL    HW136845   1.243   0.565  14.042 -0.2039  0.3992  0.2480
 8461SOL    HW236846   1.217   0.620  14.174  0.3674  0.0288 -1.1499
 8462SOL     OW36847   3.452   1.172   4.899  0.1875 -0.0607 -0.3570
 8462SOL    HW136848   3.402   1.226   4.961 -4.3704 -4.6319 -0.1189
 8462SOL    HW236849   3.535   1.153   4.942  0.0620  2.5634  1.0912
 8463SOL     OW36850   0.446   0.068   6.680 -0.0533 -0.2106  0.0561
 8463SOL    HW136851   0.425   4.701   6.667  0.7200  0.1025 -3.3196
 8463SOL    HW236852   0.502   0.067   6.757  0.8984 -1.9549 -0.6671
 8464SOL     OW36853   4.513   0.891   9.665 -0.6366  0.1599 -0.4730
 8464SOL    HW136854   4.477   0.952   9.600 -0.4416  0.2433 -0.5038
 8464SOL    HW236855   4.606   0.884   9.640 -1.1780 -1.5187 -2.0670
 8465SOL     OW36856   1.723   2.865  16.826  0.2445  0.4294 -0.1475
 8465SOL    HW136857   1.709   2.858  16.731  0.1197 -0.7251 -0.0422
 8465SOL    HW236858   1.802   2.918  16.816 -0.0529  1.4062  2.8927
 8466SOL     OW36859   2.196   0.825   1.995  0.4076 -0.1193 -0.0822
 8466SOL    HW136860   2.132   0.791   1.933  1.7326 -0.9765 -0.9767
 8466SOL    HW236861   2.200   0.914   1.961  1.9970 -0.1409  0.0559
 8467SOL     OW36862   3.833   2.316   8.699  0.2365  0.2036  0.4072
 8467SOL    HW136863   3.850   2.240   8.754 -0.2161 -0.0617  0.1843
 8467SOL    HW236864   3.745   2.335   8.730  0.0335  0.3000 -0.2260
 8468SOL     OW36865   3.855   2.233  16.758 -0.2753  0.2562 -0.4167
 8468SOL    HW136866   3.811   2.196  16.836 -0.5501  2.4991  0.4997
 8468SOL    HW236867   3.948   2.221  16.777 -0.7163 -1.4000  0.7635
 8469SOL     OW36868   2.566   2.270   7.099  0.1256 -0.6571  0.5277
 8469SOL    HW136869   2.623   2.216   7.153  2.0049 -1.6495 -2.4382
 8469SOL    HW236870   2.628   2.315   7.042 -0.2664  0.0992  0.6974
 8470SOL     OW36871   1.677   0.823   4.390 -0.0656  0.1305  0.3464
 8470SOL    HW136872   1.630   0.871   4.322 -1.1273 -0.9618  0.3186
 8470SOL    HW236873   1.597   0.788   4.428  0.4909 -0.0755  1.3201
 8471SOL     OW36874   2.956   3.514  16.313  0.0717  0.4711 -0.9354
 8471SOL    HW136875   2.891   3.445  16.325  0.3364  0.3875  0.0266
 8471SOL    HW236876   2.958   3.525  16.218  3.0344  0.0667 -0.9235
 8472SOL     OW36877   1.487   2.016   8.774  0.0668 -0.6968  0.1182
 8472SOL    HW136878   1.420   2.013   8.842  1.1391 -2.8175  1.0744
 8472SOL    HW236879   1.474   1.934   8.727 -0.2105  0.2130 -1.4013
 8473SOL     OW36880   0.304   0.341   4.781  0.0723 -0.1363  0.0884
 8473SOL    HW136881   0.289   0.324   4.874  0.6614 -4.3350 -0.5849
 8473SOL    HW236882   0.305   0.436   4.775 -1.1085 -0.0604  1.0468
 8474SOL     OW36883   0.907   2.369  10.379 -0.1092 -0.1650 -0.6965
 8474SOL    HW136884   0.859   2.410  10.307 -0.3062  3.4147  1.4519
 8474SOL    HW236885   0.857   2.288  10.383  0.7008 -0.7297 -1.9691
 8475SOL     OW36886   2.008   4.499   5.963 -0.6353 -0.0494  0.1889
 8475SOL    HW136887   2.050   4.426   6.009  2.8379 -0.3867 -3.4773
 8475SOL    HW236888   1.950   4.525   6.034  0.4333  2.2164  0.2152
 8476SOL     OW36889   1.066   1.697   2.822 -0.4378  0.1588 -0.0151
 8476SOL    HW136890   1.142   1.647   2.851  0.4397  0.9437 -0.9602
 8476SOL    HW236891   1.034   1.739   2.902 -1.1845 -0.5210  0.0412
 8477SOL     OW36892   1.972   3.037   4.764 -0.2684  0.0876  0.4946
 8477SOL    HW136893   1.995   3.000   4.678 -0.7894 -3.0503  1.7030
 8477SOL    HW236894   2.011   2.971   4.821  0.5608  0.0421 -0.1201
 8478SOL     OW36895   2.377   0.376   5.459 -0.3996  0.3991  0.1674
 8478SOL    HW136896   2.321   0.378   5.537  1.1554  1.5739  1.2319
 8478SOL    HW236897   2.369   0.282   5.441 -2.2605  0.9265 -1.7301
 8479SOL     OW36898   3.407   3.258   7.282 -0.2609  0.6047 -0.1027
 8479SOL    HW136899   3.337   3.193   7.273 -0.2755  0.8142 -1.5286
 8479SOL    HW236900   3.404   3.299   7.196 -1.3542 -1.6001 -1.1119
 8480SOL     OW36901   2.097   2.740   8.055 -0.4100  0.0992  1.2889
 8480SOL    HW136902   2.079   2.680   7.982  1.7502  1.8866 -0.7081
 8480SOL    HW236903   2.074   2.823   8.013  2.8625  0.2855 -0.1060
 8481SOL     OW36904   3.785   1.008   9.047  0.0210 -0.0900 -1.0573
 8481SOL    HW136905   3.811   0.936   8.989 -1.4062 -0.9041 -0.6939
 8481SOL    HW236906   3.701   1.039   9.013  0.7530  0.4871 -2.3474
 8482SOL     OW36907   3.984   2.124   7.828  0.1041 -0.2863  0.3860
 8482SOL    HW136908   4.076   2.150   7.821 -0.0927  0.4732  0.5448
 8482SOL    HW236909   3.954   2.199   7.881  0.5587  0.5196 -0.4896
 8483SOL     OW36910   3.141   0.890   8.977 -0.1099 -0.0865 -0.5316
 8483SOL    HW136911   3.203   0.821   9.001 -1.3532 -0.5976  1.2486
 8483SOL    HW236912   3.082   0.869   9.050  1.0641 -0.1110  0.4083
 8484SOL     OW36913   1.805   0.839  14.781 -0.2291 -0.6584 -0.5401
 8484SOL    HW136914   1.844   0.903  14.840  0.0643 -0.8440 -0.5316
 8484SOL    HW236915   1.735   0.896  14.750 -2.0440 -2.3604  0.4317
 8485SOL     OW36916   3.290   0.415  13.917  0.2494 -0.3546  0.1435
 8485SOL    HW136917   3.251   0.344  13.968  1.1669 -2.2378 -1.8009
 8485SOL    HW236918   3.259   0.395  13.829  1.9430 -0.0135 -0.5296
 8486SOL     OW36919   1.902   2.346   1.414 -0.1082 -0.1747  0.1385
 8486SOL    HW136920   1.868   2.351   1.325  0.7156  4.4878  0.0595
 8486SOL    HW236921   1.853   2.421   1.449 -0.7216 -0.7849  0.5999
 8487SOL     OW36922   1.312   1.918  15.172  0.0649  0.1983  0.0927
 8487SOL    HW136923   1.395   1.938  15.129  0.3544  1.5558  1.2957
 8487SOL    HW236924   1.264   1.893  15.092 -0.7103  1.8770  0.0312
 8488SOL     OW36925   1.104   2.637   3.667  0.1273 -0.0373  0.3688
 8488SOL    HW136926   1.039   2.619   3.599 -0.8818 -0.8622  1.5495
 8488SOL    HW236927   1.181   2.621   3.611  0.1396  1.0115  0.0850
 8489SOL     OW36928   3.253   2.339  10.019 -0.2586 -0.0599  0.1007
 8489SOL    HW136929   3.216   2.286   9.949  0.0490  0.6993 -0.6218
 8489SOL    HW236930   3.184   2.398  10.049  1.7835  2.1886  0.3936
 8490SOL     OW36931   4.637   0.017  17.287 -0.4832 -0.6444 -0.4899
 8490SOL    HW136932   4.684   4.684  17.227  1.1373 -0.3528  0.4895
 8490SOL    HW236933   4.628   0.091  17.226  3.2135 -0.0067 -0.3010
 8491SOL     OW36934   2.048   0.108   7.323  0.3533  0.7873 -0.3183
 8491SOL    HW136935   2.099   0.037   7.362 -0.3139  0.3508 -0.2315
 8491SOL    HW236936   2.115   0.176   7.312 -0.4766  1.7184  0.3962
 8492SOL     OW36937   0.085   4.394   2.077  0.0648 -0.2715  0.2099
 8492SOL    HW136938   0.071   4.466   2.139 -0.9077  0.2589 -0.6291
 8492SOL    HW236939   0.148   4.422   2.010  0.2824 -0.3942  0.3607
 8493SOL     OW36940   1.012   4.668   8.897 -0.5754  0.0670 -0.0708
 8493SOL    HW136941   1.006   0.039   8.894  0.6006  0.1199 -0.6072
 8493SOL    HW236942   1.085   4.659   8.959  0.2058  0.3039 -0.9507
 8494SOL     OW36943   3.163   0.447  15.354  0.3642 -0.2316 -0.0374
 8494SOL    HW136944   3.185   0.502  15.430  0.6957 -0.9894  0.4166
 8494SOL    HW236945   3.188   0.365  15.397 -1.4636 -0.1529  1.1520
 8495SOL     OW36946   0.219   1.166   3.182 -0.3177  0.1733  0.2264
 8495SOL    HW136947   0.307   1.146   3.150 -0.0996  1.2978  0.1118
 8495SOL    HW236948   0.224   1.260   3.200 -1.1422  0.7061 -2.2765
 8496SOL     OW36949   2.270   4.534   8.784  0.2624 -0.5461  0.0296
 8496SOL    HW136950   2.204   4.577   8.838  0.2257 -0.4061 -0.1262
 8496SOL    HW236951   2.332   4.496   8.846  1.6066  1.8467  0.1603
 8497SOL     OW36952   1.969   0.605  12.978  0.0366 -0.0550  0.2148
 8497SOL    HW136953   1.912   0.650  13.040 -2.8036 -0.5922 -2.0201
 8497SOL    HW236954   1.928   0.520  12.964  0.6676 -0.5606  1.4382
 8498SOL     OW36955   4.350   3.145   2.173  0.1962 -0.2759  0.3284
 8498SOL    HW136956   4.373   3.083   2.103  0.3513  2.7725 -2.2936
 8498SOL    HW236957   4.421   3.207   2.161  1.3421 -1.7920 -0.7379
 8499SOL     OW36958   1.581   1.536   5.548 -0.5723 -0.1457 -0.4041
 8499SOL    HW136959   1.556   1.568   5.462 -0.4143  1.7274  0.2398
 8499SOL    HW236960   1.516   1.575   5.607 -0.3203 -0.5022  0.1069
 8500SOL     OW36961   0.389   2.017  11.929  0.5258 -0.5966  0.7290
 8500SOL    HW136962   0.435   1.997  11.847  0.4298  2.9418 -0.1611
 8500SOL    HW236963   0.419   1.946  11.986 -1.4090 -1.7270  0.3593
 8501SOL     OW36964   2.635   4.346   2.403 -0.2731  0.3535  0.3164
 8501SOL    HW136965   2.566   4.307   2.350 -0.3794  0.9524  0.0078
 8501SOL    HW236966   2.642   4.434   2.365 -1.5335  0.5385  0.5026
 8502SOL     OW36967   0.440   4.378   5.655 -0.3001 -0.0929 -0.1088
 8502SOL    HW136968   0.509   4.318   5.628  2.2470  2.8819 -0.2073
 8502SOL    HW236969   0.409   4.322   5.727  0.3106  1.3330  1.2666
 8503SOL     OW36970   3.083   1.867   6.887  0.4737  0.2001  0.0538
 8503SOL    HW136971   2.992   1.872   6.917  0.6354 -3.5588  1.2102
 8503SOL    HW236972   3.131   1.907   6.960  2.9730 -1.2742 -0.7855
 8504SOL     OW36973   2.283   1.935   4.925  0.1973  0.7856  0.2045
 8504SOL    HW136974   2.294   1.857   4.870 -1.3906 -0.3823  1.5304
 8504SOL    HW236975   2.285   2.008   4.864 -2.4063  0.0724 -0.7622
 8505SOL     OW36976   1.157   2.361  14.303  0.0957 -0.6183 -0.0422
 8505SOL    HW136977   1.206   2.306  14.242  2.4539 -2.5436  3.5603
 8505SOL    HW236978   1.226   2.378  14.367  0.1490  1.3579 -0.6008
 8506SOL     OW36979   1.383   0.002   3.118  0.3343  0.8962 -0.2329
 8506SOL    HW136980   1.311   0.008   3.181  1.7145 -2.2760  1.6613
 8506SOL    HW236981   1.350   0.058   3.048  1.0340 -0.4333 -1.6213
 8507SOL     OW36982   0.552   4.214  16.478  0.2229 -0.4186 -0.2138
 8507SOL    HW136983   0.548   4.279  16.548 -2.1173 -0.6880 -0.0929
 8507SOL    HW236984   0.636   4.236  16.438  1.6581 -2.4442  1.6084
 8508SOL     OW36985   3.425   2.432   3.324  0.9190  0.2558  0.0597
 8508SOL    HW136986   3.495   2.497   3.314 -0.2140  0.9750 -3.1811
 8508SOL    HW236987   3.407   2.410   3.233  0.1321 -1.0451  0.5338
 8509SOL     OW36988   3.071   3.777   4.999 -0.3976 -0.0466  0.1532
 8509SOL    HW136989   3.034   3.855   5.042  0.5695  0.8749 -0.6686
 8509SOL    HW236990   3.140   3.746   5.057 -1.3273 -1.6929  0.3710
 8510SOL     OW36991   0.112   3.955   0.274  0.2038 -0.1183  0.1334
 8510SOL    HW136992   0.179   3.932   0.338 -1.0298 -1.4022  0.9542
 8510SOL    HW236993   0.036   3.969   0.332 -0.6290 -1.1792 -0.7013
 8511SOL     OW36994   1.396   0.478   8.457  0.4191  0.2521 -0.1273
 8511SOL    HW136995   1.475   0.517   8.418  1.7390 -0.4774  1.7895
 8511SOL    HW236996   1.419   0.497   8.548 -0.4435  1.5460 -0.1830
 8512SOL     OW36997   3.321   2.389   9.405 -0.0979  0.0748 -0.0861
 8512SOL    HW136998   3.403   2.343   9.423  1.3520  2.4153 -0.6349
 8512SOL    HW236999   3.257   2.362   9.470  1.0141 -1.3603  0.4039
 8513SOL     OW37000   0.176   3.923   9.854  0.3833  0.1739  0.1446
 8513SOL    HW137001   0.246   3.973   9.813 -0.4486  1.6957  0.5847
 8513SOL    HW237002   0.209   3.834   9.847  0.4871 -0.1937  5.6598
 8514SOL     OW37003   2.794   1.869  11.476 -0.7016 -0.3093 -0.4707
 8514SOL    HW137004   2.878   1.886  11.433  0.4656  0.6149  2.1434
 8514SOL    HW237005   2.786   1.775  11.463 -0.1215 -0.2450 -1.2544
 8515SOL     OW37006   0.088   0.593   4.598 -0.0032 -0.3103 -0.0947
 8515SOL    HW137007   0.177   0.580   4.567 -0.3660 -2.2636 -0.2961
 8515SOL    HW237008   0.051   0.505   4.597  1.7284 -1.0241  0.3938
 8516SOL     OW37009   1.573   4.496   1.923 -0.7822  0.0204  0.2298
 8516SOL    HW137010   1.508   4.426   1.913 -1.4140  0.8416 -1.2797
 8516SOL    HW237011   1.599   4.517   1.833 -0.0487  0.7289  0.6037
 8517SOL     OW37012   0.950   2.590  15.423 -0.9001 -0.3481 -0.3737
 8517SOL    HW137013   0.878   2.650  15.402  0.9419  1.7569 -0.7012
 8517SOL    HW237014   1.026   2.640  15.394 -1.5494  0.9217  0.1065
 8518SOL     OW37015   4.225   0.779   5.838 -0.2834 -0.4785 -0.1398
 8518SOL    HW137016   4.228   0.746   5.748  0.2069  1.5233 -0.8401
 8518SOL    HW237017   4.298   0.840   5.831 -0.9255  0.4484  1.3491
 8519SOL     OW37018   4.428   4.639   4.014  0.0962  0.0532 -0.0913
 8519SOL    HW137019   4.476   4.556   4.010 -0.5614 -0.1599 -3.2436
 8519SOL    HW237020   4.497   4.693   3.976  0.9009 -1.7649 -1.2283
 8520SOL     OW37021   2.653   1.518   6.126 -0.3700 -0.0423  0.0569
 8520SOL    HW137022   2.632   1.510   6.033 -0.0932 -0.8301  0.0667
 8520SOL    HW237023   2.673   1.426   6.143  0.2755  0.3496  1.4559
 8521SOL     OW37024   4.162   1.327   1.167  0.1819 -0.1094 -0.1152
 8521SOL    HW137025   4.187   1.385   1.239  1.9476  0.2201 -0.9940
 8521SOL    HW237026   4.183   1.388   1.096  1.8486 -0.6950 -0.1172
 8522SOL     OW37027   3.890   4.240   9.407  0.5457  0.7531  0.4894
 8522SOL    HW137028   3.976   4.199   9.421 -0.5917  0.3944  6.2740
 8522SOL    HW237029   3.832   4.164   9.407  0.2063  1.0189  3.2054
 8523SOL     OW37030   0.686   1.723   0.456  0.4577 -0.3008 -0.0941
 8523SOL    HW137031   0.709   1.813   0.436  0.7412 -0.5296 -0.8019
 8523SOL    HW237032   0.680   1.692   0.365 -1.2218  0.0998 -0.1228
 8524SOL     OW37033   1.461   4.527   6.189  0.0370 -0.2391  0.5343
 8524SOL    HW137034   1.461   4.611   6.234  1.4268  0.1967 -0.2858
 8524SOL    HW237035   1.513   4.471   6.246  1.3715  1.3490  0.8643
 8525SOL     OW37036   0.524   1.397   7.474 -0.0898  0.3531 -0.1287
 8525SOL    HW137037   0.594   1.338   7.446 -1.9334 -1.7478 -0.3335
 8525SOL    HW237038   0.571   1.442   7.544 -0.2454  1.4026 -0.6978
 8526SOL     OW37039   1.310   0.239  12.035 -0.1991  0.0646  0.1756
 8526SOL    HW137040   1.328   0.207  11.946  0.2282 -0.4338  0.4436
 8526SOL    HW237041   1.224   0.278  12.018 -1.6414 -2.5725  1.2837
 8527SOL     OW37042   1.651   1.170   2.603  0.5660  0.1693 -0.4034
 8527SOL    HW137043   1.675   1.083   2.570  1.2840  1.1571 -2.5035
 8527SOL    HW237044   1.559   1.158   2.627  0.3420  2.2687 -0.2648
 8528SOL     OW37045   0.592   2.690  13.692 -0.1418 -0.1406 -0.1723
 8528SOL    HW137046   0.584   2.596  13.708 -0.4403 -0.8496 -4.4498
 8528SOL    HW237047   0.644   2.698  13.612  1.6959 -0.2513  1.0169
 8529SOL     OW37048   2.080   2.098  13.995  0.0621  0.2423 -0.1565
 8529SOL    HW137049   2.125   2.018  13.969  2.1620  1.5281 -0.5185
 8529SOL    HW237050   2.017   2.051  14.049  1.0844 -0.2803  0.5870
 8530SOL     OW37051   1.370   3.922   8.635  0.1877 -0.6467  0.9193
 8530SOL    HW137052   1.438   3.989   8.633  0.7354 -1.2346 -0.2874
 8530SOL    HW237053   1.305   3.966   8.689  0.0109  0.1671  0.0518
 8531SOL     OW37054   2.312   4.670   6.266  0.0923  0.7285 -0.0814
 8531SOL    HW137055   2.229   4.661   6.314  0.6703 -0.1027  0.7565
 8531SOL    HW237056   2.282   4.666   6.175 -2.6991  1.1031  0.8070
 8532SOL     OW37057   0.256   0.283  14.224  0.3997  0.3315  0.1867
 8532SOL    HW137058   0.171   0.282  14.182  0.4483  1.0463  0.0798
 8532SOL    HW237059   0.278   0.373  14.248  1.5686 -0.3093  1.5126
 8533SOL     OW37060   0.171   3.927   1.127 -0.1237  0.1119 -0.0061
 8533SOL    HW137061   0.135   3.970   1.205  1.9065  1.5710  0.1343
 8533SOL    HW237062   0.134   3.840   1.141  0.7515 -0.1280  0.8018
 8534SOL     OW37063   0.690   2.377  16.906  0.2065  0.4714  0.1246
 8534SOL    HW137064   0.667   2.468  16.922  0.9800  0.6572  0.1790
 8534SOL    HW237065   0.643   2.359  16.824 -0.7473  2.8594  0.1441
 8535SOL     OW37066   2.375   0.950  16.849  0.4181 -0.0856  0.3855
 8535SOL    HW137067   2.331   1.034  16.838 -4.6221 -2.8427 -0.9722
 8535SOL    HW237068   2.436   0.961  16.776 -1.5789  1.4396 -1.0414
 8536SOL     OW37069   0.699   0.735   8.489 -0.2638  0.0542  0.0971
 8536SOL    HW137070   0.742   0.819   8.472 -1.0491  0.3098 -0.6362
 8536SOL    HW237071   0.617   0.766   8.527 -1.6853 -2.0743 -1.2395
 8537SOL     OW37072   4.623   4.217   3.474  0.4287 -0.1633  0.2235
 8537SOL    HW137073   4.615   4.127   3.442  0.0134  0.1989 -0.6561
 8537SOL    HW237074   4.668   4.189   3.555  1.6182  1.3336  0.0837
 8538SOL     OW37075   1.934   4.245   5.252  0.3332 -0.2557 -0.3666
 8538SOL    HW137076   1.910   4.259   5.160  0.2880 -0.5517 -0.3995
 8538SOL    HW237077   1.969   4.331   5.276  1.8553 -1.4442  1.6021
 8539SOL     OW37078   4.394   0.131   4.174  0.0502 -0.6489  0.0852
 8539SOL    HW137079   4.392   0.058   4.112 -0.2602 -0.4955 -0.0837
 8539SOL    HW237080   4.431   0.077   4.244  1.1465  0.0484  0.0440
 8540SOL     OW37081   1.519   0.768   8.069 -0.0328 -0.2405 -0.1746
 8540SOL    HW137082   1.508   0.693   8.011 -0.5702  0.1466 -0.5676
 8540SOL    HW237083   1.464   0.735   8.141  1.6334 -1.6334  0.4531
 8541SOL     OW37084   2.485   1.078   0.200  0.1800  0.1767  0.4005
 8541SOL    HW137085   2.402   1.109   0.238  0.2303  1.9898 -0.9563
 8541SOL    HW237086   2.554   1.080   0.267 -0.6226 -0.0512  1.2427
 8542SOL     OW37087   4.715   3.249   0.930 -0.4834  0.0657 -0.4709
 8542SOL    HW137088   0.016   3.307   0.858 -1.7824  1.1622 -0.0415
 8542SOL    HW237089   4.633   3.293   0.953  0.0793  0.6767  0.3682
 8543SOL     OW37090   3.616   4.197   3.367  0.3383  0.0055 -0.3211
 8543SOL    HW137091   3.554   4.268   3.350  1.2195  0.4622 -1.5680
 8543SOL    HW237092   3.692   4.254   3.381  1.4126 -1.4272 -0.3206
 8544SOL     OW37093   3.836   0.599   4.499 -0.1516  0.5427  0.0848
 8544SOL    HW137094   3.797   0.657   4.565 -0.7445  1.3661 -0.9876
 8544SOL    HW237095   3.771   0.575   4.433 -0.8821 -1.1775  1.4301
 8545SOL     OW37096   1.833   4.242   8.365  0.3779 -0.2326  0.4800
 8545SOL    HW137097   1.772   4.316   8.362  0.5439 -0.1495 -1.2705
 8545SOL    HW237098   1.911   4.291   8.338  0.8185 -1.3953 -0.3794
 8546SOL     OW37099   3.676   1.427   8.944  0.0259 -0.6344 -0.4438
 8546SOL    HW137100   3.739   1.499   8.944 -0.2632 -0.3789  3.5232
 8546SOL    HW237101   3.613   1.457   8.879  1.5124 -0.9887 -2.0555
 8547SOL     OW37102   2.236   3.667  11.530  0.1318 -0.4484  0.1460
 8547SOL    HW137103   2.177   3.632  11.464  1.0684 -1.1249 -0.3335
 8547SOL    HW237104   2.319   3.642  11.488 -1.0971 -1.3378 -1.7469
 8548SOL     OW37105   4.098   2.624   3.098  0.3811 -0.0097  0.0182
 8548SOL    HW137106   4.008   2.638   3.071  0.1677  1.9286  1.7087
 8548SOL    HW237107   4.140   2.617   3.012  1.5558 -1.7297  0.7333
 8549SOL     OW37108   4.010   0.995   9.185  0.2694 -0.0878 -0.0193
 8549SOL    HW137109   4.032   0.919   9.239  1.2224  1.0372  1.1919
 8549SOL    HW237110   3.926   0.973   9.145 -0.6675  2.9204  0.2443
 8550SOL     OW37111   4.314   2.050   0.553  0.2507 -0.1788 -0.3733
 8550SOL    HW137112   4.291   1.958   0.541  1.4513 -0.6704  1.0501
 8550SOL    HW237113   4.408   2.042   0.569  0.4262  0.4900 -1.0822
 8551SOL     OW37114   1.301   0.120   7.531  0.1321 -0.6008 -0.8948
 8551SOL    HW137115   1.349   0.133   7.449  0.0861  1.4671 -0.5819
 8551SOL    HW237116   1.243   0.196   7.525  1.0657  0.0494 -1.7253
 8552SOL     OW37117   0.175   1.668  15.668  0.1732 -0.6739 -0.0806
 8552SOL    HW137118   0.233   1.623  15.730 -1.2623 -1.4931  0.6564
 8552SOL    HW237119   0.208   1.632  15.585  0.4848 -0.9484  0.1603
 8553SOL     OW37120   4.150   3.359  14.932  0.1050  0.4995  0.3002
 8553SOL    HW137121   4.165   3.320  15.018 -2.8066 -0.4195  0.4005
 8553SOL    HW237122   4.242   3.373  14.911 -0.0726  1.2253  0.0091
 8554SOL     OW37123   0.420   2.468   9.243 -1.0089 -0.4860  0.1941
 8554SOL    HW137124   0.419   2.563   9.231  1.6811 -0.0850  2.8318
 8554SOL    HW237125   0.333   2.448   9.209 -0.5011  0.2136 -1.5371
 8555SOL     OW37126   1.051   2.857  14.201  0.4911 -0.1531  0.1431
 8555SOL    HW137127   0.996   2.886  14.129  1.4062 -2.0487 -1.3201
 8555SOL    HW237128   1.061   2.765  14.177 -0.9278 -0.1145 -0.6014
 8556SOL     OW37129   0.326   4.254  16.691  0.3139 -0.0265  0.0927
 8556SOL    HW137130   0.346   4.336  16.736 -1.9963  0.1560  0.8195
 8556SOL    HW237131   0.299   4.295  16.610 -1.7077  1.0030  1.2827
 8557SOL     OW37132   3.718   1.656  10.606 -0.0384  0.2786 -0.3240
 8557SOL    HW137133   3.713   1.751  10.592  2.2001  0.3702 -0.4667
 8557SOL    HW237134   3.632   1.620  10.583  1.2943 -1.7564 -2.0553
 8558SOL     OW37135   3.865   2.608   9.676 -0.4962 -0.5256 -0.3220
 8558SOL    HW137136   3.856   2.701   9.697  0.0087 -1.2815  3.1696
 8558SOL    HW237137   3.866   2.580   9.767 -0.9649  1.3980  0.2701
 8559SOL     OW37138   2.011   1.707  15.191 -0.4495  0.3116 -0.2852
 8559SOL    HW137139   1.970   1.656  15.122  0.9695  0.3556 -1.1774
 8559SOL    HW237140   1.938   1.723  15.251 -1.2804 -0.6718 -1.0449
 8560SOL     OW37141   3.426   0.820   9.280 -0.5734 -0.2827 -0.3150
 8560SOL    HW137142   3.456   0.911   9.278  1.2172 -0.9111 -1.5152
 8560SOL    HW237143   3.483   0.788   9.350 -1.0851  1.5259  0.9441
 8561SOL     OW37144   3.422   3.155   4.379  0.3757  0.1759 -0.0515
 8561SOL    HW137145   3.415   3.205   4.297 -0.5444  0.7575  0.3735
 8561SOL    HW237146   3.330   3.169   4.403 -0.1560 -0.1196 -1.8851
 8562SOL     OW37147   4.467   3.903  12.625  0.0404  0.5611  0.2776
 8562SOL    HW137148   4.372   3.899  12.618  0.1573 -1.8178  0.2614
 8562SOL    HW237149   4.479   3.992  12.661 -1.8609  2.1171 -2.9699
 8563SOL     OW37150   0.075   4.534   3.085  0.1403  0.2445 -0.0249
 8563SOL    HW137151   0.153   4.545   3.140 -0.0735  0.7897  0.1700
 8563SOL    HW237152   0.019   4.518   3.161 -1.3480 -0.2855 -1.2386
 8564SOL     OW37153   2.097   1.014   3.361 -0.6305  0.5982  0.2714
 8564SOL    HW137154   2.008   1.043   3.381 -1.5615 -0.8748 -1.8504
 8564SOL    HW237155   2.159   1.054   3.423  0.6374  1.3508 -1.4758
 8565SOL     OW37156   3.494   1.051   3.698 -0.0802 -0.1279  0.3912
 8565SOL    HW137157   3.509   1.100   3.618  0.1547 -0.2740  0.3448
 8565SOL    HW237158   3.582   1.016   3.713  0.8454  1.8937 -0.3842
 8566SOL     OW37159   3.624   3.028   5.795  0.5038  0.2506 -0.0799
 8566SOL    HW137160   3.546   2.973   5.784 -0.3201  1.2144  1.0478
 8566SOL    HW237161   3.622   3.086   5.719  1.4427 -0.3492 -0.5553
 8567SOL     OW37162   3.961   3.482   7.784  0.2174  0.2488  0.7144
 8567SOL    HW137163   3.954   3.407   7.844 -1.8561 -0.5695 -0.5473
 8567SOL    HW237164   3.880   3.476   7.733  0.3008 -1.3074  0.7508
 8568SOL     OW37165   4.429   3.954   4.318 -0.0159 -0.2440  0.1025
 8568SOL    HW137166   4.485   4.011   4.371  0.0436  0.5428 -0.8182
 8568SOL    HW237167   4.350   3.956   4.373 -0.4075  0.6041 -0.4968
 8569SOL     OW37168   4.099   2.980   6.554  0.1118 -0.9977  0.0719
 8569SOL    HW137169   4.174   2.971   6.494  1.8992  1.2329  1.9796
 8569SOL    HW237170   4.033   2.993   6.486  0.8039 -0.3509 -0.4856
 8570SOL     OW37171   3.494   2.330  17.426  0.0716  0.1348 -1.0439
 8570SOL    HW137172   3.522   2.421  17.418  1.0334 -0.3045 -2.5547
 8570SOL    HW237173   3.473   2.314  17.334  1.7471  1.2856 -1.6217
 8571SOL     OW37174   1.765   0.912   5.692 -0.2702  0.0267 -0.3356
 8571SOL    HW137175   1.802   0.881   5.610  1.9401  0.2121  0.6070
 8571SOL    HW237176   1.773   0.831   5.744 -1.2401  0.3496  0.3149
 8572SOL     OW37177   2.218   3.009  11.484  0.4274  0.0137 -0.3875
 8572SOL    HW137178   2.266   2.935  11.446  0.3879 -0.6421  0.8510
 8572SOL    HW237179   2.267   3.016  11.566  1.0210 -0.7469 -0.6728
 8573SOL     OW37180   3.266   1.271   8.686 -0.4631 -0.1125 -0.4408
 8573SOL    HW137181   3.206   1.344   8.703 -0.6522 -0.0715 -1.3278
 8573SOL    HW237182   3.237   1.212   8.756  0.6733 -1.3297 -1.0085
 8574SOL     OW37183   2.950   4.386   1.859  0.4867 -0.4461 -0.4849
 8574SOL    HW137184   2.869   4.336   1.869 -0.5277  1.6934  1.9225
 8574SOL    HW237185   3.009   4.326   1.812  1.5084 -0.2204  0.5169
 8575SOL     OW37186   0.274   1.440  13.246  0.5294 -0.0433 -0.0937
 8575SOL    HW137187   0.198   1.409  13.197  0.5251  0.2138 -0.2490
 8575SOL    HW237188   0.275   1.373  13.314 -2.7507 -1.6448 -1.6520
 8576SOL     OW37189   3.236   2.500  17.460 -0.2797 -0.0980  0.4603
 8576SOL    HW137190   3.252   2.423  17.513  0.0034 -0.8955 -0.7804
 8576SOL    HW237191   3.276   2.472  17.377 -0.7160  1.8256 -0.4118
 8577SOL     OW37192   1.553   1.854   1.487  0.2818  0.2008  0.3914
 8577SOL    HW137193   1.644   1.840   1.458  0.8597 -0.9793  2.8145
 8577SOL    HW237194   1.545   1.949   1.495  0.9052  0.3032 -0.1181
 8578SOL     OW37195   4.213   1.386   2.621 -0.2545  0.8195 -0.4919
 8578SOL    HW137196   4.190   1.325   2.551 -1.5747  0.7295  0.0215
 8578SOL    HW237197   4.294   1.415   2.581  0.9379 -0.6196  0.8721
 8579SOL     OW37198   1.221   3.220  17.641 -0.0701 -0.2440 -0.1705
 8579SOL    HW137199   1.173   3.165   0.002 -0.5846  1.2107  0.7354
 8579SOL    HW237200   1.245   3.298  17.690 -1.8133  0.2409 -0.0940
 8580SOL     OW37201   3.669   2.964   7.075 -0.1313 -0.0140  0.4440
 8580SOL    HW137202   3.709   2.958   6.988 -1.7210 -4.0635  0.0044
 8580SOL    HW237203   3.576   2.944   7.061 -0.2014  0.7312 -0.1792
 8581SOL     OW37204   2.770   2.889   6.841 -0.3952 -1.1338  0.2452
 8581SOL    HW137205   2.798   2.930   6.759  1.1333 -2.0816  0.2909
 8581SOL    HW237206   2.727   2.812   6.804 -0.6223 -1.3504  0.9721
 8582SOL     OW37207   4.194   1.824   4.720  1.0135  0.0865  0.3293
 8582SOL    HW137208   4.113   1.779   4.744  0.7724  1.4989  2.0945
 8582SOL    HW237209   4.157   1.908   4.694 -1.8726 -1.2005  0.3135
 8583SOL     OW37210   4.290   1.412  11.052 -0.3493 -0.0125 -0.6610
 8583SOL    HW137211   4.276   1.497  11.093 -0.7330 -0.2206 -0.3575
 8583SOL    HW237212   4.206   1.392  11.011 -0.6029  1.8879 -1.0353
 8584SOL     OW37213   2.909   0.280   6.536  0.4596 -0.0998  0.2986
 8584SOL    HW137214   2.923   0.215   6.468  0.6808  0.3415 -0.0795
 8584SOL    HW237215   2.880   0.223   6.607  0.9726  0.7062  1.1517
 8585SOL     OW37216   3.341   1.611   7.995 -0.0745 -0.3650  0.5442
 8585SOL    HW137217   3.341   1.622   7.900  0.7485 -1.2471  0.4458
 8585SOL    HW237218   3.406   1.678   8.018 -0.7819  0.8998 -1.0994
 8586SOL     OW37219   4.259   2.095  13.201  0.2156 -0.4849  0.3258
 8586SOL    HW137220   4.172   2.062  13.224 -0.2645  1.2777  1.0565
 8586SOL    HW237221   4.261   2.188  13.224 -3.0460 -0.0027 -1.4575
 8587SOL     OW37222   1.642   4.419  13.945 -0.1329 -0.1311  0.1283
 8587SOL    HW137223   1.611   4.332  13.919  0.4438 -0.2915 -0.0227
 8587SOL    HW237224   1.702   4.397  14.016 -0.8768  0.9878  1.0990
 8588SOL     OW37225   3.741   3.254   4.183 -0.3487 -0.2781  0.1564
 8588SOL    HW137226   3.798   3.302   4.123  1.4813 -1.8468  0.6353
 8588SOL    HW237227   3.773   3.298   4.261  3.0687 -1.8661 -0.3372
 8589SOL     OW37228   0.780   3.042   2.226  0.0756  0.2913 -0.1888
 8589SOL    HW137229   0.842   3.062   2.155 -1.1667  1.5634 -0.9234
 8589SOL    HW237230   0.829   2.974   2.272  1.7658  1.0868 -0.7789
 8590SOL     OW37231   3.085   1.772  17.419 -0.4072 -0.1543  0.4124
 8590SOL    HW137232   3.142   1.836  17.461 -0.5799  1.3352 -1.5844
 8590SOL    HW237233   3.052   1.721  17.492  0.6031 -1.4491 -0.0413
 8591SOL     OW37234   0.352   4.650   6.989 -0.1674 -0.4862 -0.0910
 8591SOL    HW137235   0.287   4.720   6.995  0.6479  0.3183 -0.6350
 8591SOL    HW237236   0.430   4.706   6.987 -2.2965  2.5081 -0.1723
 8592SOL     OW37237   4.164   2.705   2.532 -0.4403  0.4367  0.2834
 8592SOL    HW137238   4.190   2.745   2.449  2.3402 -0.4570  0.7116
 8592SOL    HW237239   4.218   2.758   2.590 -0.3367 -0.3712  0.9180
 8593SOL     OW37240   1.538   0.805   7.647 -0.5206 -0.3112 -0.3709
 8593SOL    HW137241   1.563   0.728   7.597 -0.4627 -0.0865 -0.6820
 8593SOL    HW237242   1.489   0.760   7.715  2.1352  1.8919  3.0461
 8594SOL     OW37243   1.235   2.922   5.553 -0.2517 -0.1918  0.2181
 8594SOL    HW137244   1.307   2.864   5.577 -2.1910 -2.3233  0.9092
 8594SOL    HW237245   1.206   2.877   5.474  0.7073  1.8982 -1.3034
 8595SOL     OW37246   2.469   4.324   3.519 -0.3172 -0.3526  0.5391
 8595SOL    HW137247   2.478   4.296   3.610  0.4199 -1.6372  0.0747
 8595SOL    HW237248   2.376   4.343   3.506  0.0508  0.6251 -0.7127
 8596SOL     OW37249   0.267   1.111   9.133 -0.1919 -0.2700 -0.2060
 8596SOL    HW137250   0.173   1.121   9.119 -0.1914  0.0809  0.0256
 8596SOL    HW237251   0.282   1.179   9.199 -0.1256 -0.0473 -0.4548
 8597SOL     OW37252   2.484   3.597   8.386  0.1763 -0.2587  0.2492
 8597SOL    HW137253   2.461   3.671   8.331 -1.4384 -0.9254  0.0172
 8597SOL    HW237254   2.579   3.602   8.381  0.4417 -2.6713  2.6296
 8598SOL     OW37255   4.421   2.627  11.766 -0.6023  0.2609  0.1676
 8598SOL    HW137256   4.348   2.587  11.718 -0.7633 -0.6692  1.1995
 8598SOL    HW237257   4.382   2.704  11.809  0.9825  0.6071  0.9978
 8599SOL     OW37258   3.458   3.485   4.831 -0.2668 -0.3820 -0.1341
 8599SOL    HW137259   3.405   3.459   4.907  2.3503 -0.1971  1.7547
 8599SOL    HW237260   3.552   3.477   4.848  0.2668  2.5683 -1.7710
 8600SOL     OW37261   1.627   3.384  15.345 -0.3883  0.8334  0.2717
 8600SOL    HW137262   1.676   3.381  15.428  0.6246  0.0803 -0.3529
 8600SOL    HW237263   1.538   3.390  15.379 -0.1485  3.5257  0.4525
 8601SOL     OW37264   3.104   0.790   6.619  0.1180  0.1616 -0.3938
 8601SOL    HW137265   3.057   0.776   6.701  0.1648  0.2074 -0.3594
 8601SOL    HW237266   3.194   0.810   6.644 -0.0880 -0.5631  0.8974
 8602SOL     OW37267   1.424   0.184   0.790  0.7251  0.2359  0.1453
 8602SOL    HW137268   1.467   0.265   0.817  3.2556 -1.5279  1.3959
 8602SOL    HW237269   1.449   0.191   0.698 -0.0791  1.4123  0.0179
 8603SOL     OW37270   4.253   2.997  17.421 -0.2919 -0.4843  0.1334
 8603SOL    HW137271   4.310   2.921  17.407  0.4526 -0.0897  1.0610
 8603SOL    HW237272   4.302   3.051  17.483  1.3727 -0.3979 -1.2562
 8604SOL     OW37273   2.023   1.050   5.251  0.2887  0.3014 -0.2594
 8604SOL    HW137274   1.949   1.067   5.193 -0.9335 -3.6059  0.1548
 8604SOL    HW237275   2.082   0.988   5.207 -0.5521 -0.0300 -0.9167
 8605SOL     OW37276   1.209   0.832  10.794  0.2854 -0.6977  0.4147
 8605SOL    HW137277   1.281   0.883  10.758 -1.8870  2.2828  0.2473
 8605SOL    HW237278   1.146   0.887  10.748 -0.5422 -2.3491 -0.4484
 8606SOL     OW37279   0.376   1.218   6.378  0.3658  0.3732  0.0640
 8606SOL    HW137280   0.335   1.297   6.344  0.9042 -0.0253 -1.5377
 8606SOL    HW237281   0.407   1.258   6.459 -0.6333 -0.6460  0.9555
 8607SOL     OW37282   0.220   0.726   7.483  0.5980 -0.4111 -0.2820
 8607SOL    HW137283   0.262   0.778   7.551  0.7859 -0.7983 -0.0999
 8607SOL    HW237284   0.131   0.718   7.519 -0.1064 -2.4553 -2.4748
 8608SOL     OW37285   2.759   4.118  14.508  0.1060 -0.2273  0.0241
 8608SOL    HW137286   2.733   4.048  14.449 -1.2526 -0.1002  0.4772
 8608SOL    HW237287   2.816   4.162  14.445 -0.0480  1.5099  1.0763
 8609SOL     OW37288   0.462   0.210  15.818 -0.6149  0.1637 -0.0504
 8609SOL    HW137289   0.439   0.266  15.744 -0.2307  0.5217  0.1036
 8609SOL    HW237290   0.370   0.185  15.832 -0.6717  0.9007  0.8723
 8610SOL     OW37291   2.223   3.127   4.094  0.1503  0.0638 -0.2492
 8610SOL    HW137292   2.195   3.039   4.121 -0.4722  0.6119  0.8894
 8610SOL    HW237293   2.313   3.132   4.125  1.3949 -2.0330 -3.4861
 8611SOL     OW37294   1.751   4.312  15.800 -0.8016 -0.2202 -0.3237
 8611SOL    HW137295   1.753   4.327  15.895 -2.8019  4.1831 -0.9892
 8611SOL    HW237296   1.683   4.244  15.803  0.0213 -1.0825 -1.5711
 8612SOL     OW37297   1.128   0.926   0.666  0.5361 -0.3032  0.5418
 8612SOL    HW137298   1.204   0.965   0.623 -0.2363  1.9753  1.2305
 8612SOL    HW237299   1.169   0.872   0.734  0.6602 -0.7447  0.1167
 8613SOL     OW37300   4.275   0.224   3.081  0.6319  0.3874  0.2611
 8613SOL    HW137301   4.246   0.217   2.990  2.2498 -0.9816 -0.1510
 8613SOL    HW237302   4.187   0.228   3.118  1.7128  1.0685  2.7004
 8614SOL     OW37303   1.263   2.716   8.057 -0.4233  0.5979  0.1561
 8614SOL    HW137304   1.355   2.744   8.056  0.7995 -3.3456  2.1411
 8614SOL    HW237305   1.253   2.688   8.148 -2.5098  1.4736  0.2080
 8615SOL     OW37306   2.438   1.434   4.830 -0.2173 -0.6203  0.0030
 8615SOL    HW137307   2.348   1.463   4.847 -0.4770 -1.7885  0.6382
 8615SOL    HW237308   2.466   1.505   4.773  0.0912 -0.3776  0.4569
 8616SOL     OW37309   1.908   2.099  11.125  0.1981  0.4986  0.1452
 8616SOL    HW137310   1.995   2.120  11.157  0.2074  2.9425 -1.5060
 8616SOL    HW237311   1.916   2.118  11.032 -2.3117 -2.0402 -0.5849
 8617SOL     OW37312   0.644   3.165   5.742  0.0351 -0.0169 -0.3321
 8617SOL    HW137313   0.558   3.169   5.700  0.6374  1.4135 -1.4564
 8617SOL    HW237314   0.694   3.115   5.678  0.4329  1.0304 -0.8449
 8618SOL     OW37315   2.880   4.056   8.943  0.1248  0.1021  0.0559
 8618SOL    HW137316   2.799   4.098   8.914  1.8784  0.9437 -3.5923
 8618SOL    HW237317   2.838   3.983   8.987  1.9578 -0.6571  0.5544
 8619SOL     OW37318   2.402   3.745   4.958 -0.4222  0.2555  0.3307
 8619SOL    HW137319   2.451   3.824   4.980  1.9577 -1.3093  0.7261
 8619SOL    HW237320   2.332   3.748   5.023  1.0849 -2.4557  2.1167
 8620SOL     OW37321   2.765   3.625   5.088  0.2149 -0.4600  0.7776
 8620SOL    HW137322   2.777   3.678   5.009 -2.5888 -0.8209  0.1161
 8620SOL    HW237323   2.798   3.681   5.159  1.9375 -0.8743  0.3130
 8621SOL     OW37324   4.548   1.760   7.900 -0.0181 -0.1416  0.6136
 8621SOL    HW137325   4.479   1.783   7.962 -0.0321  1.1427  0.1227
 8621SOL    HW237326   4.509   1.792   7.819 -2.5437 -0.9987  1.4829
 8622SOL     OW37327   0.331   4.397   6.866 -0.5045 -0.1897  0.0078
 8622SOL    HW137328   0.339   4.479   6.915  0.0620  0.0547 -0.4903
 8622SOL    HW237329   0.238   4.406   6.846 -0.1946 -0.7198 -1.6701
 8623SOL     OW37330   1.019   2.077   9.295 -0.8193  0.2407  0.5232
 8623SOL    HW137331   0.963   2.150   9.268 -1.2047  0.2647  1.3988
 8623SOL    HW237332   1.107   2.100   9.265 -2.0899  0.7879 -2.8002
 8624SOL     OW37333   3.736   3.713   8.796  0.2376  0.1663  0.0522
 8624SOL    HW137334   3.672   3.780   8.821  1.8869  1.8631 -0.2253
 8624SOL    HW237335   3.680   3.659   8.741 -0.3921 -1.9165  2.7243
 8625SOL     OW37336   0.520   4.434  10.398 -0.1728 -0.1125 -0.2889
 8625SOL    HW137337   0.468   4.497  10.447  0.6977  0.1720  0.2706
 8625SOL    HW237338   0.593   4.492  10.374  0.6044 -0.0360  2.2611
 8626SOL     OW37339   0.939   3.257   5.582  0.5302 -0.3155  0.2186
 8626SOL    HW137340   0.943   3.188   5.515  1.3594 -0.5558  0.5010
 8626SOL    HW237341   1.008   3.231   5.643  2.0079 -1.0864 -1.7664
 8627SOL     OW37342   0.527   1.746   4.014  0.1463  0.1296 -0.0015
 8627SOL    HW137343   0.456   1.709   3.962 -0.4421 -1.0094  1.6122
 8627SOL    HW237344   0.519   1.678   4.082 -0.4087 -0.9619 -1.1679
 8628SOL     OW37345   2.301   1.534  10.368 -0.1298 -0.0928  0.3833
 8628SOL    HW137346   2.392   1.557  10.352 -1.0007  1.5327 -2.1651
 8628SOL    HW237347   2.301   1.520  10.463  0.4155  0.1891  0.4247
 8629SOL     OW37348   2.217   3.848   1.910  0.2792  0.2409 -0.7742
 8629SOL    HW137349   2.183   3.762   1.888  1.3549 -0.1545 -0.8699
 8629SOL    HW237350   2.301   3.819   1.946 -0.5744 -1.7188 -0.3441
 8630SOL     OW37351   3.152   4.046   4.381 -0.4424  0.1283  0.0036
 8630SOL    HW137352   3.194   4.129   4.359 -1.6780  0.9988  0.9076
 8630SOL    HW237353   3.095   4.041   4.305  0.2911 -0.1618 -0.5252
 8631SOL     OW37354   3.070   3.994  10.343  0.5119 -0.5954 -0.8445
 8631SOL    HW137355   3.039   3.904  10.357 -0.7031 -0.1107 -0.4298
 8631SOL    HW237356   2.990   4.044  10.327 -0.7438 -1.7018  1.8361
 8632SOL     OW37357   1.250   1.692   3.150 -0.1096  0.6747 -0.1692
 8632SOL    HW137358   1.337   1.705   3.112  0.4760 -0.4552  0.7529
 8632SOL    HW237359   1.214   1.621   3.096  3.0664 -1.2324  0.2061
 8633SOL     OW37360   1.848   3.086  14.598  0.1863  0.4599  0.4892
 8633SOL    HW137361   1.905   3.010  14.608 -1.3521 -0.8832 -0.8149
 8633SOL    HW237362   1.831   3.117  14.687 -1.4914  1.1669 -0.0675
 8634SOL     OW37363   2.104   1.224  17.576  0.3009 -0.1143  0.1931
 8634SOL    HW137364   2.099   1.275  17.657  0.6226 -0.3621  0.3650
 8634SOL    HW237365   2.080   1.136  17.605 -2.1296  0.9759  1.4804
 8635SOL     OW37366   0.129   3.679   5.867  0.2506  0.2108  0.0980
 8635SOL    HW137367   0.111   3.590   5.898 -1.0937 -0.4522 -2.6508
 8635SOL    HW237368   0.057   3.712   5.813 -0.4938 -1.4096  0.0847
 8636SOL     OW37369   2.611   3.296   4.822 -0.5210 -0.0191  0.2889
 8636SOL    HW137370   2.596   3.363   4.888  1.3869 -0.6108  1.3181
 8636SOL    HW237371   2.536   3.308   4.764  0.0430 -0.3950 -0.5187
 8637SOL     OW37372   2.917   1.821   2.474  0.7155  0.0272  0.2819
 8637SOL    HW137373   2.972   1.792   2.402  2.1105  1.9890  0.5417
 8637SOL    HW237374   2.947   1.769   2.548  1.0475  0.2455  0.3020
 8638SOL     OW37375   2.363   2.372   3.851 -0.6293 -0.3025  0.1117
 8638SOL    HW137376   2.326   2.348   3.766 -0.5291 -1.3578  0.3660
 8638SOL    HW237377   2.361   2.468   3.849  1.8523 -0.2415  0.7617
 8639SOL     OW37378   4.282   4.081  11.384  0.5246  0.5113 -0.1657
 8639SOL    HW137379   4.193   4.063  11.355  1.0311  0.5800 -1.7483
 8639SOL    HW237380   4.317   4.132  11.311  2.2279 -1.9807 -1.0876
 8640SOL     OW37381   3.200   1.855   2.724 -0.3797 -0.0857  0.5699
 8640SOL    HW137382   3.161   1.774   2.757  0.1709 -0.3814  0.4945
 8640SOL    HW237383   3.151   1.919   2.776 -1.4032 -0.2319 -0.2230
 8641SOL     OW37384   0.690   1.016  12.853 -0.0276 -0.1276 -0.2234
 8641SOL    HW137385   0.685   1.070  12.932  1.0239  0.5277 -0.6060
 8641SOL    HW237386   0.769   0.965  12.873 -1.4265 -1.2477  2.5659
 8642SOL     OW37387   1.305   0.719   6.976 -0.0678  0.0233  0.1725
 8642SOL    HW137388   1.315   0.638   6.926 -2.9029 -0.1690 -0.0743
 8642SOL    HW237389   1.391   0.749   7.007  0.1441 -1.2445  0.8185
 8643SOL     OW37390   1.897   0.388  17.196  0.5957 -0.3093 -0.0644
 8643SOL    HW137391   1.982   0.431  17.194 -0.4534  1.6797 -1.6556
 8643SOL    HW237392   1.866   0.425  17.114  1.0839 -0.9501 -0.5417
 8644SOL     OW37393   0.915   1.477   2.730  0.0694 -0.1500 -0.4824
 8644SOL    HW137394   0.848   1.531   2.688 -0.3649  0.7693  1.3984
 8644SOL    HW237395   0.969   1.547   2.768  2.1809 -1.7076 -0.5906
 8645SOL     OW37396   0.868   3.479   8.914  0.5102 -0.3276  0.1067
 8645SOL    HW137397   0.835   3.510   8.998  0.3836 -1.2579  0.4050
 8645SOL    HW237398   0.964   3.481   8.914  0.4488  2.1357  0.7816
 8646SOL     OW37399   3.111   2.534  16.735 -0.2816  0.9241 -0.1823
 8646SOL    HW137400   3.199   2.499  16.730  0.8183  3.4241  1.6525
 8646SOL    HW237401   3.120   2.590  16.812 -0.8855  0.4313  0.2503
 8647SOL     OW37402   0.603   4.099   3.939  0.1480  0.3018 -0.5117
 8647SOL    HW137403   0.591   4.097   3.844 -0.7119  0.3612 -0.4082
 8647SOL    HW237404   0.682   4.046   3.948  0.6475  0.8320 -1.8734
 8648SOL     OW37405   1.255   3.443   0.105  0.8028  0.5230  0.0860
 8648SOL    HW137406   1.320   3.456   0.174  1.1784  2.7457 -0.6926
 8648SOL    HW237407   1.171   3.455   0.149  0.3855  0.6162 -0.7538
 8649SOL     OW37408   2.648   0.763   2.005 -0.1384 -0.0961  0.1790
 8649SOL    HW137409   2.576   0.822   2.029  0.3554  0.0673  1.2549
 8649SOL    HW237410   2.714   0.831   2.018 -1.6554  1.2527  0.8804
 8650SOL     OW37411   2.822   3.004   2.705 -0.2050  0.3255  0.2768
 8650SOL    HW137412   2.833   3.064   2.631 -1.2750  0.6502  0.3806
 8650SOL    HW237413   2.767   3.052   2.767  0.4064 -0.6885  1.6138
 8651SOL     OW37414   4.494   0.095  11.689 -0.2360 -0.8896 -0.1862
 8651SOL    HW137415   4.441   0.159  11.736 -2.0333 -1.2310 -1.7379
 8651SOL    HW237416   4.563   0.079  11.754  0.7596  0.5948 -0.8702
 8652SOL     OW37417   2.362   1.178   6.664 -0.4540  0.9320  0.0822
 8652SOL    HW137418   2.379   1.171   6.758  0.6690  0.1738 -0.1754
 8652SOL    HW237419   2.286   1.122   6.644  0.4824 -0.4091  0.2477
 8653SOL     OW37420   3.930   0.001   9.466 -0.2614  0.0038  0.1000
 8653SOL    HW137421   3.858   0.032   9.520 -0.7937 -0.0456 -0.5894
 8653SOL    HW237422   3.904   4.634   9.479  0.3283 -0.2028 -0.1703
 8654SOL     OW37423   4.008   0.778   3.854 -0.1109 -0.0260  0.2682
 8654SOL    HW137424   4.098   0.747   3.869  0.0088  0.6159  0.8667
 8654SOL    HW237425   3.955   0.722   3.910  0.0194 -2.6460 -2.2480
 8655SOL     OW37426   3.431   3.836  15.547  0.3312  0.1327 -0.3843
 8655SOL    HW137427   3.361   3.878  15.496  1.4083  2.4453  0.0398
 8655SOL    HW237428   3.508   3.886  15.519  0.6944  0.4560  1.1959
 8656SOL     OW37429   1.883   1.651   3.297  0.6258  0.1992 -0.0657
 8656SOL    HW137430   1.824   1.701   3.240 -0.9463 -1.5515  0.0231
 8656SOL    HW237431   1.829   1.650   3.376  1.7604 -2.7289  0.6693
 8657SOL     OW37432   2.483   0.281  11.070  0.0618 -0.0143  0.5316
 8657SOL    HW137433   2.454   0.204  11.117 -2.8058  0.7635  0.0461
 8657SOL    HW237434   2.453   0.245  10.986 -2.7389 -1.1200  2.0300
 8658SOL     OW37435   1.911   2.232  10.179  0.6138  0.3643 -0.4248
 8658SOL    HW137436   1.828   2.249  10.134  0.7059  0.0993 -0.6912
 8658SOL    HW237437   1.920   2.139  10.159  2.8082  0.0248  2.1454
 8659SOL     OW37438   1.208   3.289  14.832 -0.7255 -0.2143  0.2943
 8659SOL    HW137439   1.281   3.233  14.857 -0.3441 -0.6679 -1.8283
 8659SOL    HW237440   1.241   3.379  14.825  2.2659 -1.4073 -0.7968
 8660SOL     OW37441   1.168   4.193   7.080  0.4678  0.4945 -0.0964
 8660SOL    HW137442   1.143   4.103   7.104  1.1739 -0.6160 -3.6373
 8660SOL    HW237443   1.112   4.251   7.132 -2.2745 -0.6859 -1.7781
 8661SOL     OW37444   0.067   0.929   6.538 -0.1875  0.8025 -0.3785
 8661SOL    HW137445   4.711   0.897   6.580 -0.7453 -0.3362 -2.3075
 8661SOL    HW237446   0.076   1.017   6.573 -0.0642  1.0818 -1.1154
 8662SOL     OW37447   3.945   0.978   4.116  0.0767 -0.1625 -0.0274
 8662SOL    HW137448   3.885   0.910   4.084 -0.1309 -0.3251  0.6895
 8662SOL    HW237449   3.945   0.949   4.208  1.7290  0.3163  0.1210
 8663SOL     OW37450   3.697   2.223  11.028 -0.1125 -0.7403  0.8522
 8663SOL    HW137451   3.602   2.207  11.026 -0.1588 -0.4974  1.1180
 8663SOL    HW237452   3.722   2.150  10.972 -1.2954 -0.7281  0.3055
 8664SOL     OW37453   3.711   2.417  17.121 -0.1798  0.4400 -0.0059
 8664SOL    HW137454   3.801   2.443  17.104  0.5260 -1.1906  1.3042
 8664SOL    HW237455   3.723   2.360  17.196 -0.7675 -1.1016 -1.0798
 8665SOL     OW37456   0.033   4.558   6.759 -0.1395 -0.7182 -0.0609
 8665SOL    HW137457   4.692   4.559   6.829 -0.4682 -0.5232 -0.3724
 8665SOL    HW237458   0.062   4.649   6.758 -2.0209 -0.1152  0.4049
 8666SOL     OW37459   1.678   4.197   4.427  0.2470  0.3788 -0.2876
 8666SOL    HW137460   1.660   4.257   4.499  0.9894 -0.2922  0.4516
 8666SOL    HW237461   1.587   4.176   4.408  0.3750 -2.5850  2.3861
 8667SOL     OW37462   1.374   2.785   1.294 -0.5945 -0.0210  0.3767
 8667SOL    HW137463   1.448   2.846   1.292 -0.3818 -0.3175 -0.9704
 8667SOL    HW237464   1.314   2.827   1.356  2.4594  1.9027  2.0136
 8668SOL     OW37465   0.138   1.571   3.428 -0.5820  0.2196 -0.2867
 8668SOL    HW137466   0.118   1.600   3.517 -1.7395  0.8367 -0.7440
 8668SOL    HW237467   0.226   1.607   3.433 -0.0835 -0.6015 -3.2372
 8669SOL     OW37468   2.790   0.466  15.212 -0.0582  0.2304  0.1313
 8669SOL    HW137469   2.781   0.538  15.149 -1.1107  0.5033  0.5910
 8669SOL    HW237470   2.702   0.428  15.205 -2.1482  5.6331 -3.6393
 8670SOL     OW37471   0.827   3.468   8.299 -0.0858 -0.3621  0.0811
 8670SOL    HW137472   0.774   3.496   8.374 -0.4886 -3.0718  0.8162
 8670SOL    HW237473   0.916   3.481   8.333  0.4172 -0.0980 -1.3629
 8671SOL     OW37474   4.443   0.302   8.984 -0.0826 -0.0138 -0.3501
 8671SOL    HW137475   4.356   0.330   8.954 -0.0334  0.1113 -0.3776
 8671SOL    HW237476   4.430   0.269   9.072 -3.5006  1.2084 -0.4090
 8672SOL     OW37477   4.546   1.018  11.805 -0.3962 -0.5788 -0.8151
 8672SOL    HW137478   4.635   1.054  11.806 -0.6405 -0.0021  0.7875
 8672SOL    HW237479   4.555   0.980  11.893 -0.6252  0.7566 -0.2191
 8673SOL     OW37480   2.808   1.517   6.742 -0.0927  0.1972  0.3376
 8673SOL    HW137481   2.791   1.568   6.820  2.3883  2.1762 -0.3926
 8673SOL    HW237482   2.736   1.554   6.691  0.4082 -0.7987 -1.1039
 8674SOL     OW37483   2.270   3.007   7.793 -0.0931  0.1986 -0.4174
 8674SOL    HW137484   2.327   2.943   7.836 -1.1918  0.2646  1.1446
 8674SOL    HW237485   2.190   2.993   7.843 -0.0572  0.9439 -0.1618
 8675SOL     OW37486   0.441   2.960  11.399  0.5038 -0.2510 -0.1661
 8675SOL    HW137487   0.507   3.018  11.438 -0.0599  0.6044 -0.4839
 8675SOL    HW237488   0.370   3.016  11.369  1.5373  0.5195 -1.1813
 8676SOL     OW37489   4.083   1.049   7.953 -0.1563 -0.6335  0.4596
 8676SOL    HW137490   3.998   1.006   7.962 -0.7220  0.0882 -1.6240
 8676SOL    HW237491   4.101   1.084   8.041  0.1605  3.2291 -1.1380
 8677SOL     OW37492   3.966   0.612   1.867 -0.2572  0.3515  0.1507
 8677SOL    HW137493   3.935   0.523   1.882  1.1674 -0.2619 -0.6112
 8677SOL    HW237494   4.058   0.597   1.848 -0.1995  2.0336 -0.8961
 8678SOL     OW37495   0.083   4.223   6.173  0.2299  0.3002 -0.2009
 8678SOL    HW137496   0.163   4.172   6.189  0.7383  1.3969  0.7809
 8678SOL    HW237497   0.041   4.223   6.259 -0.2723  3.6510 -0.4591
 8679SOL     OW37498   2.827   2.281   3.121  0.7642 -0.6359 -0.0076
 8679SOL    HW137499   2.863   2.277   3.210 -1.8964 -0.1885  1.0754
 8679SOL    HW237500   2.829   2.189   3.093 -1.0484 -0.7087  0.1420
 8680SOL     OW37501   2.511   2.613   3.647  0.2877 -0.1667  0.1550
 8680SOL    HW137502   2.483   2.680   3.585  0.1322 -1.4213 -1.1319
 8680SOL    HW237503   2.540   2.547   3.584 -2.1012 -0.2112 -0.8592
 8681SOL     OW37504   2.614   0.845   8.612 -0.2719  0.7196 -0.0824
 8681SOL    HW137505   2.581   0.771   8.561  0.2991 -0.3052  1.0304
 8681SOL    HW237506   2.697   0.872   8.574 -0.0327 -1.0019 -0.7688
 8682SOL     OW37507   3.004   0.104  13.962 -0.2171 -0.1587 -0.3041
 8682SOL    HW137508   2.937   0.168  13.986  1.1894  1.2656 -0.2356
 8682SOL    HW237509   3.077   0.150  14.003 -0.9618  1.3918 -0.7370
 8683SOL     OW37510   3.581   2.143   3.648 -0.3885 -0.8687  0.3942
 8683SOL    HW137511   3.505   2.174   3.598  1.4602  2.6774 -0.1817
 8683SOL    HW237512   3.595   2.057   3.608 -1.7790 -0.4229 -1.0193
 8684SOL     OW37513   4.722   0.232   6.097 -0.7553  0.0018  0.2404
 8684SOL    HW137514   0.071   0.286   6.126  1.2735 -2.0460 -1.0461
 8684SOL    HW237515   4.720   0.265   6.007  0.6948 -1.3747 -0.3030
 8685SOL     OW37516   3.118   1.037  16.404  0.5247 -0.0872 -0.0781
 8685SOL    HW137517   3.193   1.042  16.345 -0.4472 -1.8849 -1.5063
 8685SOL    HW237518   3.114   0.943  16.425  0.6154  0.3299  1.7594
 8686SOL     OW37519   2.486   0.994   8.992  0.1267  0.3777 -0.8342
 8686SOL    HW137520   2.416   1.051   8.959  0.4238  0.4072 -1.4259
 8686SOL    HW237521   2.555   1.059   9.003  0.3876 -0.5104  2.6721
 8687SOL     OW37522   0.862   1.280   3.580 -0.2593  0.3362  0.4850
 8687SOL    HW137523   0.858   1.187   3.603 -1.8567 -0.2296 -2.1344
 8687SOL    HW237524   0.920   1.313   3.649  0.3913 -1.3988  0.7791
 8688SOL     OW37525   3.411   4.605   6.462 -0.2842 -0.1665  0.4493
 8688SOL    HW137526   3.328   4.653   6.459  0.5374  1.4029  2.6054
 8688SOL    HW237527   3.475   4.661   6.418 -0.0204 -2.2252 -1.7634
 8689SOL     OW37528   1.298   4.456   6.549  0.8864  0.5169 -0.0084
 8689SOL    HW137529   1.248   4.507   6.611 -1.6124 -0.3196 -1.3321
 8689SOL    HW237530   1.386   4.469   6.584 -0.4263  3.5010  2.1024
 8690SOL     OW37531   4.121   1.491  14.652 -0.2319  0.1488  0.2034
 8690SOL    HW137532   4.154   1.579  14.631  0.9102 -0.2108  0.4969
 8690SOL    HW237533   4.107   1.452  14.566  1.1402  0.4833 -0.1672
 8691SOL     OW37534   2.938   1.021  13.814  0.3259  0.1378  0.1057
 8691SOL    HW137535   2.932   0.987  13.725  0.5284  0.4576 -0.0300
 8691SOL    HW237536   2.845   1.018  13.835  0.1864  0.4581 -0.4934
 8692SOL     OW37537   1.371   1.714   6.422  0.8315 -0.1063 -0.1067
 8692SOL    HW137538   1.289   1.666   6.413  0.5541  0.3781 -0.1415
 8692SOL    HW237539   1.365   1.774   6.348  0.5287  1.8970  1.5410
 8693SOL     OW37540   2.584   3.364  12.071  0.1809  0.1992 -0.2324
 8693SOL    HW137541   2.674   3.341  12.093  0.2999  0.2665 -0.6455
 8693SOL    HW237542   2.542   3.277  12.070 -0.7463  0.6610 -1.5250
 8694SOL     OW37543   2.703   3.641  17.003  0.0780 -0.2137 -0.0205
 8694SOL    HW137544   2.769   3.695  17.046  1.1005 -1.6028  0.1211
 8694SOL    HW237545   2.736   3.554  17.024  0.3681  0.1328  0.9606
 8695SOL     OW37546   0.920   2.676  10.412  0.5433 -0.1052 -0.2216
 8695SOL    HW137547   0.947   2.586  10.429  1.2942  0.2621  0.4931
 8695SOL    HW237548   0.987   2.712  10.353  2.7937  0.6465  2.8367
 8696SOL     OW37549   3.631   1.013  13.514  0.0467 -0.3522  0.0843
 8696SOL    HW137550   3.628   1.089  13.456  0.4862 -0.9799 -0.7686
 8696SOL    HW237551   3.714   1.028  13.560 -0.5261 -0.8920  1.2863
 8697SOL     OW37552   4.021   4.364   0.812 -0.3426  0.2836 -0.1727
 8697SOL    HW137553   4.050   4.307   0.883  1.0342  1.6076  0.3418
 8697SOL    HW237554   4.105   4.392   0.775  0.4102  1.6034  2.5040
 8698SOL     OW37555   1.674   4.521   5.925  0.2475 -0.1012 -0.2964
 8698SOL    HW137556   1.652   4.430   5.904 -0.5330  0.2750 -1.1577
 8698SOL    HW237557   1.717   4.516   6.010 -0.1124 -1.1832 -0.1876
 8699SOL     OW37558   1.761   3.964   3.215 -0.2565 -0.0569 -0.4125
 8699SOL    HW137559   1.805   4.044   3.245  0.3335  0.6164 -3.1269
 8699SOL    HW237560   1.824   3.895   3.236  2.0419  2.0277 -0.3697
 8700SOL     OW37561   4.260   4.419   8.393  0.1296 -0.3752 -0.6042
 8700SOL    HW137562   4.341   4.379   8.361  0.8427 -1.6215  2.6691
 8700SOL    HW237563   4.292   4.496   8.439  1.6613 -1.3959  0.0549
 8701SOL     OW37564   3.006   3.505   6.073 -0.4125 -0.1991 -0.0190
 8701SOL    HW137565   3.000   3.572   6.005 -1.4627  0.1016  0.3653
 8701SOL    HW237566   3.093   3.474   6.051 -0.7286 -1.5133  0.5824
 8702SOL     OW37567   2.324   3.076  14.723  0.1482  1.0532 -0.6120
 8702SOL    HW137568   2.300   3.151  14.669 -2.3433 -0.3736 -1.4930
 8702SOL    HW237569   2.371   3.024  14.657  0.2038  0.3162  0.0049
 8703SOL     OW37570   1.401   4.388   0.301  0.5424  0.5390 -0.4438
 8703SOL    HW137571   1.311   4.418   0.290  0.5226  1.1701  1.3894
 8703SOL    HW237572   1.442   4.421   0.222  0.8993  2.2434  0.4574
 8704SOL     OW37573   4.064   0.364   0.288  0.6011  0.1723 -0.4607
 8704SOL    HW137574   4.006   0.440   0.294 -1.0558 -1.2292  1.3661
 8704SOL    HW237575   4.030   0.315   0.363 -1.5590 -0.0434 -1.5523
 8705SOL     OW37576   0.076   1.215   8.667 -0.3091  0.2906 -0.0072
 8705SOL    HW137577   0.076   1.303   8.705 -0.6540  0.8498 -1.2763
 8705SOL    HW237578   0.111   1.166   8.741 -0.0356 -0.9684 -0.9815
 8706SOL     OW37579   3.475   2.913  16.137  0.3764 -0.2373 -0.5483
 8706SOL    HW137580   3.467   2.818  16.128  1.3235 -0.2894 -0.7899
 8706SOL    HW237581   3.563   2.932  16.106  0.7984 -1.7600 -0.3024
 8707SOL     OW37582   0.060   1.298   5.675 -0.1382 -0.4450 -0.1612
 8707SOL    HW137583   0.115   1.289   5.597 -1.3654  0.1566 -1.0921
 8707SOL    HW237584   0.097   1.234   5.736  0.9417  0.3850  0.0745
 8708SOL     OW37585   3.989   1.575   6.817 -0.4561  0.6167 -0.0653
 8708SOL    HW137586   4.026   1.490   6.792 -0.8813  0.2257  0.6386
 8708SOL    HW237587   3.904   1.572   6.772 -0.9579 -1.3671  0.9842
 8709SOL     OW37588   3.088   1.475   8.706  0.3744  0.0222  0.4529
 8709SOL    HW137589   3.028   1.471   8.779 -1.3781 -0.9480 -1.0473
 8709SOL    HW237590   3.037   1.435   8.636 -0.4084  0.7139  0.6341
 8710SOL     OW37591   4.724   2.454   5.196 -0.1858 -0.6779  0.3010
 8710SOL    HW137592   4.695   2.364   5.211  0.5395 -1.4672 -3.0962
 8710SOL    HW237593   0.047   2.437   5.115  0.3056 -0.8768  0.6300
 8711SOL     OW37594   1.200   2.237   3.839  0.6981  0.0667  0.3949
 8711SOL    HW137595   1.233   2.202   3.921  1.8919  1.3640  0.4683
 8711SOL    HW237596   1.185   2.325   3.875  1.3004 -0.6034  2.2808
 8712SOL     OW37597   3.960   0.286   5.445  0.1930 -0.2548  0.2821
 8712SOL    HW137598   3.966   0.339   5.524 -0.1025 -1.2286  0.9674
 8712SOL    HW237599   4.030   0.222   5.457 -0.0732 -0.5832  0.0928
 8713SOL     OW37600   2.185   3.053   5.411  0.2891  0.4119 -0.3116
 8713SOL    HW137601   2.126   3.002   5.467 -1.2671  1.1178 -1.3082
 8713SOL    HW237602   2.269   3.015   5.439  0.0478  0.8675  1.0274
 8714SOL     OW37603   4.682   0.498   2.229 -0.3021 -0.0512  0.0401
 8714SOL    HW137604   4.701   0.463   2.142 -0.0986  1.4525 -0.5203
 8714SOL    HW237605   4.663   0.588   2.202  1.2705  0.1136 -0.4904
 8715SOL     OW37606   2.237   2.586   0.681  0.0381 -0.0183 -0.1394
 8715SOL    HW137607   2.208   2.501   0.713  1.6498 -1.5899 -2.8664
 8715SOL    HW237608   2.263   2.638   0.757  2.5784 -1.8380  0.2227
 8716SOL     OW37609   3.396   1.952  12.691 -0.4152 -0.1036 -0.1823
 8716SOL    HW137610   3.393   2.019  12.760  1.4080 -1.2278  0.9794
 8716SOL    HW237611   3.307   1.928  12.666 -0.6089  1.9021 -1.3927
 8717SOL     OW37612   1.181   3.132   4.694 -0.0310 -0.0855 -0.4080
 8717SOL    HW137613   1.111   3.135   4.629 -0.6281  1.1662  0.3034
 8717SOL    HW237614   1.204   3.042   4.673 -2.5309 -0.5161 -1.2697
 8718SOL     OW37615   3.127   1.256   8.279  0.2376  0.0710  0.0323
 8718SOL    HW137616   3.084   1.331   8.320  1.0340 -0.9584  2.6993
 8718SOL    HW237617   3.207   1.301   8.251 -2.4657  2.8468 -3.2606
 8719SOL     OW37618   1.066   0.706   2.465 -0.1925  0.0642 -0.3182
 8719SOL    HW137619   1.081   0.738   2.377  0.6508 -0.1199 -0.2362
 8719SOL    HW237620   1.009   0.771   2.507 -1.2634 -0.9709 -0.1692
 8720SOL     OW37621   3.459   4.213   9.810  0.0888  0.8583  0.0105
 8720SOL    HW137622   3.398   4.258   9.868 -1.2450 -0.2938 -0.5242
 8720SOL    HW237623   3.541   4.230   9.857 -0.9040  1.3216  1.5654
 8721SOL     OW37624   4.128   4.039   0.174  0.2913  0.1841 -0.4670
 8721SOL    HW137625   4.184   3.961   0.175 -0.6624 -0.4935  1.0287
 8721SOL    HW237626   4.058   4.012   0.234  0.2897 -0.5732 -0.8098
 8722SOL     OW37627   2.757   3.861   5.542  0.2714 -0.1255  0.5649
 8722SOL    HW137628   2.773   3.823   5.628  0.4317 -3.6162 -1.0355
 8722SOL    HW237629   2.822   3.820   5.486  0.0247  1.0757 -0.5984
 8723SOL     OW37630   4.366   1.073   4.655 -0.0225  0.5139 -0.6170
 8723SOL    HW137631   4.394   1.049   4.567 -1.8763  2.0599 -1.6322
 8723SOL    HW237632   4.449   1.062   4.701 -0.4688 -0.0479  0.0507
 8724SOL     OW37633   3.240   1.107   7.074 -0.0870  0.5262  0.1730
 8724SOL    HW137634   3.214   1.015   7.083  0.8230 -0.2038 -4.3758
 8724SOL    HW237635   3.194   1.134   6.995 -0.6551 -1.9362 -0.3347
 8725SOL     OW37636   4.723   3.270  10.875  0.1261 -0.4650  0.4508
 8725SOL    HW137637   4.646   3.286  10.930  1.2010 -0.5245  1.9773
 8725SOL    HW237638   0.061   3.327  10.919  0.5341  0.1634 -0.9622
 8726SOL     OW37639   2.616   1.015   8.323 -0.2090  0.2585 -0.2930
 8726SOL    HW137640   2.582   0.926   8.323  0.3709  0.0299  1.2577
 8726SOL    HW237641   2.710   1.005   8.339 -0.3153 -1.9963 -0.9920
 8727SOL     OW37642   2.443   4.254  11.883 -0.2799  0.0238  0.1995
 8727SOL    HW137643   2.510   4.310  11.844 -0.8230  0.4404 -0.1386
 8727SOL    HW237644   2.489   4.210  11.954  0.8380  3.4418  1.5965
 8728SOL     OW37645   3.177   3.691   1.301 -0.0515  0.0367  0.3432
 8728SOL    HW137646   3.204   3.655   1.385  2.1692 -0.5634 -0.6269
 8728SOL    HW237647   3.262   3.706   1.259  0.1808  1.1147  1.2094
 8729SOL     OW37648   3.899   0.304   8.464  0.3392 -0.2527  0.6404
 8729SOL    HW137649   3.902   0.217   8.423 -1.6691 -0.9531  1.9830
 8729SOL    HW237650   3.988   0.333   8.445 -0.5992  0.7443 -2.2989
 8730SOL     OW37651   3.870   1.203   2.811 -0.2062 -0.2787  0.3607
 8730SOL    HW137652   3.955   1.202   2.856  0.1440  1.1746 -0.2952
 8730SOL    HW237653   3.897   1.159   2.730  2.0283 -2.2464  2.1747
 8731SOL     OW37654   3.747   0.096   4.479  0.1486  0.2118 -0.0357
 8731SOL    HW137655   3.833   0.138   4.484 -0.7174  1.5452  3.9738
 8731SOL    HW237656   3.726   0.134   4.393  0.3323  0.1463 -0.1093
 8732SOL     OW37657   1.190   2.398  17.111  0.6385  0.4786  0.3612
 8732SOL    HW137658   1.180   2.488  17.142 -0.6222  0.1657  0.8847
 8732SOL    HW237659   1.259   2.406  17.045  2.3396  1.9727  2.3101
 8733SOL     OW37660   1.507   2.634   5.411 -0.3564  0.2366 -0.0016
 8733SOL    HW137661   1.425   2.662   5.452 -0.4936  0.1052 -0.1861
 8733SOL    HW237662   1.575   2.648   5.477  0.3090 -1.0926 -0.4090
 8734SOL     OW37663   4.545   3.225   7.011  0.3203  0.0173  0.3906
 8734SOL    HW137664   4.627   3.271   6.991  0.9673  0.3598  3.8166
 8734SOL    HW237665   4.480   3.288   6.981  0.6132  0.6795  1.1637
 8735SOL     OW37666   1.187   3.878   4.353 -0.3654  0.4367  0.2230
 8735SOL    HW137667   1.142   3.955   4.318 -1.3862 -0.2871 -0.0616
 8735SOL    HW237668   1.130   3.825   4.409  1.5549 -1.9752 -0.1096
 8736SOL     OW37669   1.330   3.749   7.310 -0.0167  0.5069  0.3577
 8736SOL    HW137670   1.344   3.659   7.282 -0.4628  0.9183 -1.2490
 8736SOL    HW237671   1.242   3.771   7.278  0.4907  1.6043 -0.2801
 8737SOL     OW37672   2.917   2.713  15.763  0.3734  0.6668  0.4348
 8737SOL    HW137673   2.828   2.736  15.735  0.8607  1.9365 -0.0401
 8737SOL    HW237674   2.954   2.654  15.697  0.9035  1.4163  0.0592
 8738SOL     OW37675   4.642   0.962  11.162 -0.3551 -0.1177  0.0351
 8738SOL    HW137676   4.604   0.882  11.198 -1.0028  0.0365 -0.3000
 8738SOL    HW237677   4.574   1.024  11.188  0.0906  0.6495 -0.6307
 8739SOL     OW37678   1.477   1.687   2.146 -0.1257 -0.1532 -0.3116
 8739SOL    HW137679   1.501   1.602   2.184 -1.6463 -0.8323 -0.8542
 8739SOL    HW237680   1.552   1.712   2.092  0.6966 -0.4190  0.6962
 8740SOL     OW37681   1.659   2.660  16.998  0.1396 -0.2407 -0.3311
 8740SOL    HW137682   1.704   2.589  16.951 -0.3732 -1.2507  0.6953
 8740SOL    HW237683   1.655   2.726  16.929 -1.4388  1.3226  1.2586
 8741SOL     OW37684   1.468   3.048   8.533  0.1477 -0.1585 -0.0697
 8741SOL    HW137685   1.428   2.963   8.513  0.5577 -0.2158 -0.6642
 8741SOL    HW237686   1.542   3.047   8.472 -1.2840  2.0960 -1.8335
 8742SOL     OW37687   2.873   2.799   3.057  0.2672 -0.1411 -0.1749
 8742SOL    HW137688   2.855   2.851   3.135  0.1492 -1.2574  0.5383
 8742SOL    HW237689   2.781   2.781   3.040  0.6616 -0.0483 -2.4188
 8743SOL     OW37690   2.913   3.291  10.989 -0.2824 -0.0858 -0.2375
 8743SOL    HW137691   2.940   3.333  11.070 -0.3875  1.0656 -0.7922
 8743SOL    HW237692   2.992   3.303  10.937 -0.8830 -2.7371 -1.7608
 8744SOL     OW37693   3.663   2.476   4.171  0.5329 -0.6071  0.2820
 8744SOL    HW137694   3.599   2.445   4.107 -0.1138 -0.5133  0.8775
 8744SOL    HW237695   3.747   2.479   4.124  1.1369  0.9945  1.4609
 8745SOL     OW37696   2.411   3.714   1.330  0.3098 -0.5543  0.2473
 8745SOL    HW137697   2.339   3.777   1.324 -1.7635 -2.9385  0.0888
 8745SOL    HW237698   2.448   3.734   1.244  0.8414  0.5768  0.7344
 8746SOL     OW37699   4.239   3.234   6.893  0.1753  0.4741 -0.4728
 8746SOL    HW137700   4.253   3.158   6.837  1.8952 -0.3183  1.0036
 8746SOL    HW237701   4.263   3.193   6.976  0.3051  1.8668  0.1712
 8747SOL     OW37702   0.752   2.007   8.305 -0.2357 -0.3243 -0.4174
 8747SOL    HW137703   0.696   1.931   8.291  1.0519 -1.5930  1.1897
 8747SOL    HW237704   0.809   1.977   8.377 -0.3555 -0.2273 -0.2820
 8748SOL     OW37705   3.035   0.766   5.123  0.1216 -0.0387  0.7460
 8748SOL    HW137706   2.973   0.825   5.165 -2.3105 -1.2799 -1.0733
 8748SOL    HW237707   2.980   0.693   5.094  1.9839 -1.5027  0.9139
 8749SOL     OW37708   0.703   4.344   0.319 -0.0174 -0.4532  0.2684
 8749SOL    HW137709   0.733   4.359   0.409  0.4820  0.8543 -0.1090
 8749SOL    HW237710   0.623   4.296   0.338 -0.5845  1.1934  2.1241
 8750SOL     OW37711   2.510   2.391   8.172  0.1997  0.1052 -0.0035
 8750SOL    HW137712   2.480   2.478   8.147  2.8096  0.7344 -0.9162
 8750SOL    HW237713   2.428   2.342   8.170  0.6259 -0.6198  0.1972
 8751SOL     OW37714   1.103   1.189  13.393  0.1921  1.1263 -0.0043
 8751SOL    HW137715   1.100   1.149  13.480  0.6015 -1.5887 -1.2412
 8751SOL    HW237716   1.191   1.167  13.362 -0.3846 -0.4534 -0.5383
 8752SOL     OW37717   0.888   3.839   6.332 -0.9979  0.8132 -0.2097
 8752SOL    HW137718   0.955   3.842   6.400 -1.7236 -0.6187  0.5776
 8752SOL    HW237719   0.845   3.922   6.353 -3.5034 -0.9684  1.5970
 8753SOL     OW37720   1.584   3.039   4.829 -0.4736 -0.6593 -0.2993
 8753SOL    HW137721   1.663   3.042   4.884 -1.1270  0.5027  0.5725
 8753SOL    HW237722   1.619   3.063   4.743 -1.6401  0.6864 -0.3943
 8754SOL     OW37723   1.073   4.319   2.377 -0.3624 -0.2230 -0.3617
 8754SOL    HW137724   0.991   4.271   2.366 -0.5630 -0.3246  1.7378
 8754SOL    HW237725   1.048   4.411   2.381  0.0943 -0.1280  0.2449
 8755SOL     OW37726   4.360   2.861   2.746 -0.0369  0.1831  0.1795
 8755SOL    HW137727   4.375   2.933   2.808  3.3533 -0.8890  0.6045
 8755SOL    HW237728   4.449   2.842   2.716 -0.3661  0.0136 -0.6645
 8756SOL     OW37729   3.530   1.635  15.322  0.2124  0.3802  0.8393
 8756SOL    HW137730   3.443   1.652  15.286  0.6467  3.9206  1.4619
 8756SOL    HW237731   3.580   1.617  15.243 -0.0837  1.4226  0.4188
 8757SOL     OW37732   0.704   3.512  10.743  0.1319  0.0373  0.3295
 8757SOL    HW137733   0.735   3.497  10.832 -0.4425  1.7622  0.8147
 8757SOL    HW237734   0.692   3.606  10.737 -1.5866 -0.2189 -0.2006
 8758SOL     OW37735   3.208   2.814   3.395  0.0510  0.6237 -0.3907
 8758SOL    HW137736   3.144   2.747   3.373 -0.6441  1.1667 -0.0150
 8758SOL    HW237737   3.232   2.795   3.486  2.7900  2.3332 -0.7388
 8759SOL     OW37738   2.689   4.434   5.767 -0.0765 -0.1775  0.3036
 8759SOL    HW137739   2.689   4.479   5.851  0.7420  0.6033 -0.1087
 8759SOL    HW237740   2.597   4.413   5.751 -0.3433  0.0154  1.5999
 8760SOL     OW37741   1.391   3.678   8.868  0.5094  0.7044  0.2326
 8760SOL    HW137742   1.342   3.610   8.914  0.7505 -0.5188 -1.3320
 8760SOL    HW237743   1.390   3.745   8.936 -2.0508 -0.7507  1.6163
 8761SOL     OW37744   2.586   4.262  17.564  0.3691  0.0147 -0.7701
 8761SOL    HW137745   2.506   4.234  17.609 -0.2190  0.8906 -1.2735
 8761SOL    HW237746   2.587   4.346  17.611 -0.6297 -0.7137  0.5609
 8762SOL     OW37747   0.428   0.153  13.847 -0.8356 -0.2276  0.5027
 8762SOL    HW137748   0.412   0.129  13.939 -0.1619 -3.4760 -0.2381
 8762SOL    HW237749   0.350   0.111  13.811  0.1277 -0.6018 -1.1528
 8763SOL     OW37750   2.366   0.999   6.309 -0.7830 -0.2957  0.7570
 8763SOL    HW137751   2.368   0.954   6.394  0.5282 -0.1507  0.8014
 8763SOL    HW237752   2.451   0.988   6.267 -0.8499 -2.5071  1.2051
 8764SOL     OW37753   4.704   0.043  13.977 -0.6328  0.0156  0.6270
 8764SOL    HW137754   4.622   0.036  14.027 -0.6799 -1.2608  0.3733
 8764SOL    HW237755   4.703   0.134  13.950 -0.0837 -0.5840 -1.4351
 8765SOL     OW37756   2.901   3.014  17.307  0.4056  0.0704 -0.2897
 8765SOL    HW137757   2.824   3.067  17.327 -0.6592 -0.9616 -1.6422
 8765SOL    HW237758   2.973   3.057  17.354 -0.2699  0.9536 -0.0487
 8766SOL     OW37759   1.949   0.295   2.614 -0.2610  0.1557  1.0577
 8766SOL    HW137760   1.867   0.311   2.568 -0.1555 -0.5147  0.6414
 8766SOL    HW237761   2.010   0.344   2.558  1.1292 -0.8664  1.6659
 8767SOL     OW37762   0.717   1.115   7.804  0.2325  0.3958  0.1803
 8767SOL    HW137763   0.811   1.136   7.798  0.5571 -0.8427  1.0336
 8767SOL    HW237764   0.670   1.195   7.828  1.1902  0.8373  0.5981
 8768SOL     OW37765   2.068   4.137   7.603  0.0210  0.9633 -0.6473
 8768SOL    HW137766   2.067   4.107   7.512 -0.5793 -0.2012 -0.2563
 8768SOL    HW237767   1.991   4.088   7.631 -0.0725  0.8767 -1.0654
 8769SOL     OW37768   4.623   2.275   2.839  0.1758  0.4195 -0.6530
 8769SOL    HW137769   4.559   2.216   2.879  1.9682 -0.1303  1.3831
 8769SOL    HW237770   4.615   2.256   2.745 -1.0011 -0.9040 -0.2776
 8770SOL     OW37771   3.902   1.191   3.973 -0.1792  0.3343  0.3483
 8770SOL    HW137772   3.965   1.179   3.902 -1.1755  1.9455 -0.8080
 8770SOL    HW237773   3.935   1.124   4.032 -0.3828 -1.2489 -1.3281
 8771SOL     OW37774   3.644   2.599   7.089  0.1018 -0.4229  0.8617
 8771SOL    HW137775   3.656   2.505   7.082 -0.9388 -0.5925  1.4393
 8771SOL    HW237776   3.610   2.624   7.174 -0.2475  0.6000  0.4223
 8772SOL     OW37777   0.458   0.296   3.155 -0.0933  0.3083  0.1459
 8772SOL    HW137778   0.517   0.323   3.225  2.1524 -0.3727 -1.4808
 8772SOL    HW237779   0.522   0.265   3.091 -1.2341  0.6161 -1.1301
 8773SOL     OW37780   3.104   3.384   4.419 -0.2439  0.0151  0.3318
 8773SOL    HW137781   3.104   3.296   4.455  1.1169  0.8459  2.3736
 8773SOL    HW237782   3.105   3.354   4.328 -1.1098 -0.3314  0.4390
 8774SOL     OW37783   0.623   3.506  16.337 -0.1856 -0.4280 -0.1520
 8774SOL    HW137784   0.663   3.485  16.253  0.6713  0.8909 -0.0791
 8774SOL    HW237785   0.652   3.429  16.386 -0.7972 -1.6068 -1.6637
 8775SOL     OW37786   0.926   0.864  13.331 -0.1997  0.2941 -0.2819
 8775SOL    HW137787   0.866   0.891  13.401  2.5900  3.1727  0.9948
 8775SOL    HW237788   1.013   0.899  13.350 -0.3617  2.2477 -3.0784
 8776SOL     OW37789   2.221   1.959   6.684 -0.1920  0.1295  0.5290
 8776SOL    HW137790   2.254   2.048   6.672  1.5050 -0.2128  2.7348
 8776SOL    HW237791   2.176   1.967   6.769  0.3753 -1.1014  0.9377
 8777SOL     OW37792   0.710   4.198   1.569  0.4404 -0.3081  0.5616
 8777SOL    HW137793   0.704   4.140   1.493  0.5507 -1.5719  1.5228
 8777SOL    HW237794   0.803   4.221   1.564  0.4901 -0.4332  0.9120
 8778SOL     OW37795   0.000   4.256   6.949 -0.2939  0.3678  0.2398
 8778SOL    HW137796   0.007   4.348   6.975  1.8573 -0.6204  3.1781
 8778SOL    HW237797   4.665   4.249   6.874  0.5186 -1.9157 -0.2069
 8779SOL     OW37798   2.052   4.141  16.222 -0.4272 -0.2875 -0.0090
 8779SOL    HW137799   2.147   4.147  16.231 -0.6486  2.6112  0.1712
 8779SOL    HW237800   2.014   4.145  16.309 -0.6955 -1.0153 -0.0883
 8780SOL     OW37801   4.699   2.427   0.770 -0.1042  0.6683 -0.4064
 8780SOL    HW137802   0.021   2.433   0.853 -0.3978 -1.3453 -0.1044
 8780SOL    HW237803   0.036   2.389   0.707  0.3101 -1.3541  1.2359
 8781SOL     OW37804   1.620   4.130   2.416  0.1622  0.1714 -0.5706
 8781SOL    HW137805   1.630   4.175   2.333 -1.9520 -1.3324 -1.6350
 8781SOL    HW237806   1.610   4.040   2.385  1.9878  0.7214 -2.6703
 8782SOL     OW37807   2.137   0.850   2.376  0.2310 -0.5737 -0.0092
 8782SOL    HW137808   2.165   0.814   2.460  0.4851  0.6043  0.4178
 8782SOL    HW237809   2.161   0.774   2.323 -0.5439 -1.3671  0.7817
 8783SOL     OW37810   2.960   3.089   6.366 -0.0955  0.3033  0.1036
 8783SOL    HW137811   2.935   3.059   6.279  0.5872  0.6780 -0.2204
 8783SOL    HW237812   2.963   3.183   6.348 -1.8691 -0.0901 -2.2388
 8784SOL     OW37813   2.387   0.429   8.349 -0.2599 -0.3800 -0.5781
 8784SOL    HW137814   2.384   0.335   8.362  0.6397 -0.1448  1.3414
 8784SOL    HW237815   2.384   0.428   8.253  3.7935  1.6858 -0.7135
 8785SOL     OW37816   3.331   4.549   9.709  0.4150 -0.3571 -0.6014
 8785SOL    HW137817   3.244   4.565   9.672 -0.5647 -2.5346  0.7389
 8785SOL    HW237818   3.322   4.568   9.802  0.7048  0.2903 -0.7074
 8786SOL     OW37819   4.672   0.769   2.665  0.4517 -0.2570  0.1979
 8786SOL    HW137820   0.005   0.727   2.601 -2.9822  0.6101 -3.4405
 8786SOL    HW237821   0.009   0.763   2.738  1.0890 -2.4383 -0.5246
 8787SOL     OW37822   1.628   0.436   2.985 -0.7429 -0.0446 -0.6971
 8787SOL    HW137823   1.709   0.439   2.934  0.1189 -1.3858  0.5806
 8787SOL    HW237824   1.563   0.434   2.914 -1.4769 -0.4844 -0.0213
 8788SOL     OW37825   2.749   0.848   5.070 -0.9355 -0.7458 -0.4064
 8788SOL    HW137826   2.716   0.938   5.075  1.6630  0.2813 -1.8051
 8788SOL    HW237827   2.706   0.808   4.994 -3.1288 -0.8012  0.8523
 8789SOL     OW37828   4.723   3.740   5.603 -0.4443 -0.4574 -0.5235
 8789SOL    HW137829   4.676   3.731   5.519  1.1068 -1.8794 -1.2348
 8789SOL    HW237830   4.644   3.737   5.656 -0.9818 -2.4703 -1.4260
 8790SOL     OW37831   0.665   4.347  14.225 -0.6057  0.9053 -1.0891
 8790SOL    HW137832   0.656   4.442  14.217 -0.2510  1.1343  1.2344
 8790SOL    HW237833   0.724   4.319  14.156  0.6249  1.2570 -0.1841
 8791SOL     OW37834   1.247   4.623   1.920  0.9329 -0.0907 -0.1148
 8791SOL    HW137835   1.280   4.690   1.980 -0.1342  0.8297 -0.5459
 8791SOL    HW237836   1.202   4.566   1.983  0.2645  0.2863 -0.2444
 8792SOL     OW37837   0.725   3.160   7.923 -0.0010  0.1606  0.0591
 8792SOL    HW137838   0.692   3.097   7.988 -0.7448  0.1110 -0.3635
 8792SOL    HW237839   0.780   3.219   7.975  0.8196  0.2554 -0.9236
 8793SOL     OW37840   3.530   1.007   8.947 -0.1848  0.0319  0.2556
 8793SOL    HW137841   3.511   1.047   8.862  0.0814 -1.2921 -0.4249
 8793SOL    HW237842   3.440   1.009   8.982 -0.6381  1.7618 -0.9971
 8794SOL     OW37843   3.315   3.985   5.112 -0.3176  0.2648  0.4345
 8794SOL    HW137844   3.222   3.997   5.130  0.0467  1.6125  1.3851
 8794SOL    HW237845   3.322   3.975   5.017  0.8489  0.1646  0.5289
 8795SOL     OW37846   0.092   4.094  15.113 -0.3764  0.3883 -0.2258
 8795SOL    HW137847   0.030   4.021  15.106  1.7006 -1.3187 -0.6918
 8795SOL    HW237848   0.130   4.109  15.027 -1.2020  4.0168  0.0524
 8796SOL     OW37849   4.336   3.933   5.809 -0.0656  0.2653  0.1228
 8796SOL    HW137850   4.274   3.861   5.790  1.8170 -1.6570  1.3255
 8796SOL    HW237851   4.264   3.991   5.835 -0.3626  0.7118 -1.6741
 8797SOL     OW37852   3.306   0.642   9.904 -0.0635  0.0602  0.4600
 8797SOL    HW137853   3.386   0.590   9.902 -1.0286 -1.4027 -0.5935
 8797SOL    HW237854   3.334   0.706   9.838 -3.0567  1.4292  0.4919
 8798SOL     OW37855   3.753   0.381   0.478  0.0279  0.7173 -0.2358
 8798SOL    HW137856   3.826   0.322   0.460 -1.7918 -1.3937 -0.6115
 8798SOL    HW237857   3.705   0.333   0.545 -0.2949 -2.1166 -2.5048
 8799SOL     OW37858   1.116   3.373   7.610 -0.2831  1.0307  0.2030
 8799SOL    HW137859   1.035   3.422   7.598 -1.0355 -0.1763  0.3866
 8799SOL    HW237860   1.073   3.299   7.652 -0.4477  1.3187  0.5396
 8800SOL     OW37861   2.367   4.122   5.436  0.2779  0.1370 -0.0010
 8800SOL    HW137862   2.446   4.085   5.477  0.7574 -1.1742 -2.0882
 8800SOL    HW237863   2.343   4.056   5.370  0.2297 -0.1108  0.2641
 8801SOL     OW37864   1.129   4.128   3.063 -0.0821  0.6136 -0.3559
 8801SOL    HW137865   1.052   4.164   3.108 -2.9619 -3.2747 -2.1752
 8801SOL    HW237866   1.197   4.194   3.077 -1.1379  0.9931  3.0322
 8802SOL     OW37867   4.189   2.641  13.049 -1.0145 -0.0844  0.7429
 8802SOL    HW137868   4.273   2.669  13.014 -0.1054 -3.3923  0.3579
 8802SOL    HW237869   4.179   2.568  12.989 -0.1381 -1.2791  2.0683
 8803SOL     OW37870   0.083   0.620   6.062  0.8164 -0.5690  0.1499
 8803SOL    HW137871   4.724   0.625   6.109  0.4871  0.1430 -0.5174
 8803SOL    HW237872   0.080   0.648   5.971  0.8500 -1.8113 -0.2305
 8804SOL     OW37873   2.828   0.278   2.768 -0.2927  0.7737 -0.1711
 8804SOL    HW137874   2.906   0.239   2.729 -0.4142 -0.2464  0.6120
 8804SOL    HW237875   2.766   0.281   2.695 -1.4834 -2.5117  0.7382
 8805SOL     OW37876   0.773   0.694  13.018  0.0951  0.0574 -0.0923
 8805SOL    HW137877   0.800   0.772  12.969  0.2726  0.0845  0.0456
 8805SOL    HW237878   0.854   0.651  13.046  0.1103 -0.0065 -0.2350
 8806SOL     OW37879   2.224   1.707   3.980  0.2685  0.1971 -0.0474
 8806SOL    HW137880   2.317   1.721   3.999  0.2344  0.3398  0.0114
 8806SOL    HW237881   2.199   1.798   3.995 -2.6351 -0.4952 -0.7189
 8807SOL     OW37882   3.695   2.576   1.557 -0.2869 -0.0559 -0.3873
 8807SOL    HW137883   3.751   2.652   1.573  1.1547 -1.3392  0.6177
 8807SOL    HW237884   3.608   2.607   1.580  0.2160  0.5195  0.7573
 8808SOL     OW37885   4.109   4.102  16.836  0.1382  0.5327  0.1510
 8808SOL    HW137886   4.018   4.077  16.824  0.0985  0.4398  0.6553
 8808SOL    HW237887   4.139   4.092  16.746  0.7799  3.1382  0.0866
 8809SOL     OW37888   2.648   1.080  10.131 -0.3308 -0.0506 -0.0981
 8809SOL    HW137889   2.639   1.030  10.049  1.3120 -0.1207 -0.2290
 8809SOL    HW237890   2.623   1.016  10.197  0.1314  0.8009  0.8987
 8810SOL     OW37891   2.305   3.388   3.672 -0.3837  0.0093  0.2350
 8810SOL    HW137892   2.322   3.357   3.761  1.5711 -2.9200 -1.1533
 8810SOL    HW237893   2.353   3.470   3.684  0.2602 -0.2997 -0.2357
 8811SOL     OW37894   3.965   1.585   2.484 -0.6066 -0.1207 -0.4802
 8811SOL    HW137895   3.940   1.501   2.523  0.6152  0.1640  0.9028
 8811SOL    HW237896   4.035   1.562   2.422  1.1612 -1.9385  2.2120
 8812SOL     OW37897   0.216   1.970   3.153 -0.6805 -0.3268 -0.2980
 8812SOL    HW137898   0.163   2.001   3.081  0.8992  0.7152 -1.0224
 8812SOL    HW237899   0.209   1.875   3.146 -1.1944 -0.3348  0.3561
 8813SOL     OW37900   2.576   3.416   5.074 -0.0127 -0.1762  0.7544
 8813SOL    HW137901   2.502   3.441   5.130 -0.7681  1.1912 -0.8641
 8813SOL    HW237902   2.618   3.501   5.062  0.5017 -0.1965  2.4659
 8814SOL     OW37903   3.559   2.560  16.369  0.0783  0.2401  0.0309
 8814SOL    HW137904   3.522   2.599  16.290  1.4839 -0.9422 -1.2033
 8814SOL    HW237905   3.627   2.503  16.335 -1.2067 -1.1565 -0.1910
 8815SOL     OW37906   0.599   4.649   2.722 -0.0702  0.7569 -0.4998
 8815SOL    HW137907   0.568   4.715   2.660 -0.3849  1.0211 -0.0572
 8815SOL    HW237908   0.519   4.613   2.760  0.7453 -1.0648 -0.5105
 8816SOL     OW37909   0.835   4.440   8.757  0.2518  0.2405  0.1491
 8816SOL    HW137910   0.886   4.518   8.778 -1.9682  2.1602 -1.7175
 8816SOL    HW237911   0.744   4.466   8.749  0.4814  0.2186 -2.5509
 8817SOL     OW37912   1.228   3.196  17.248  0.2955  0.0483 -0.2478
 8817SOL    HW137913   1.280   3.169  17.324  0.5510 -1.6574 -1.0290
 8817SOL    HW237914   1.185   3.273  17.286 -3.5270 -2.8355  1.2768
 8818SOL     OW37915   3.775   2.281  13.233 -0.3319  0.2133 -0.2238
 8818SOL    HW137916   3.744   2.197  13.199 -0.0849 -0.9707  2.5380
 8818SOL    HW237917   3.723   2.297  13.311 -1.2630 -1.0891 -0.5668
 8819SOL     OW37918   1.734   0.328   9.006 -0.0906  0.1177  0.2679
 8819SOL    HW137919   1.693   0.305   8.923 -3.4431  1.7630  1.4933
 8819SOL    HW237920   1.669   0.365   9.066  1.5362  1.5138  1.1803
 8820SOL     OW37921   3.266   1.625  13.652 -0.2024  0.0964 -0.1945
 8820SOL    HW137922   3.203   1.615  13.724  1.8294 -0.2774  1.5396
 8820SOL    HW237923   3.337   1.679  13.687  1.3422 -0.0060 -3.1953
 8821SOL     OW37924   1.749   4.327   2.586 -0.7406 -0.3724  0.4977
 8821SOL    HW137925   1.718   4.246   2.545 -1.7890 -0.8449  2.2627
 8821SOL    HW237926   1.737   4.388   2.513  3.6469 -2.0071 -1.6354
 8822SOL     OW37927   0.543   1.864  12.594  0.1480 -0.1724  0.3403
 8822SOL    HW137928   0.464   1.909  12.625  0.6548  1.7385 -1.1198
 8822SOL    HW237929   0.561   1.809  12.671 -4.0259 -1.4241  0.4069
 8823SOL     OW37930   4.301   2.122   6.966 -0.1478  0.1895  0.3057
 8823SOL    HW137931   4.383   2.098   6.922  0.5899  0.7101  1.3957
 8823SOL    HW237932   4.267   2.036   6.987  0.7380 -0.3976 -0.6606
 8824SOL     OW37933   1.120   4.122   4.263  0.1915  0.5305 -0.5881
 8824SOL    HW137934   1.053   4.145   4.199  0.3620 -1.1690 -1.3524
 8824SOL    HW237935   1.090   4.179   4.334  0.6232 -0.5838  0.4812
 8825SOL     OW37936   3.013   2.347   6.579 -0.6059  0.4311  0.2144
 8825SOL    HW137937   3.075   2.275   6.577 -0.1923  0.7792  0.6357
 8825SOL    HW237938   3.074   2.413   6.546 -0.7205 -0.8524 -2.5838
 8826SOL     OW37939   0.252   2.919   0.027  0.3731 -0.4792  1.1370
 8826SOL    HW137940   0.171   2.941  17.680  1.2529 -2.3066 -1.2270
 8826SOL    HW237941   0.217   2.936   0.114 -0.9442 -1.5325  0.8166
 8827SOL     OW37942   1.189   0.859   7.213 -0.1572 -0.7953 -0.0529
 8827SOL    HW137943   1.215   0.804   7.139 -1.8550 -0.6822 -0.7379
 8827SOL    HW237944   1.236   0.806   7.278  2.6244  2.9252  0.9456
 8828SOL     OW37945   3.305   1.967   6.349 -0.5471 -0.2137 -0.1083
 8828SOL    HW137946   3.304   1.993   6.257  1.7372 -2.0268 -0.6562
 8828SOL    HW237947   3.240   1.897   6.349 -1.3618  0.5510 -0.9391
 8829SOL     OW37948   2.770   4.381   5.302  0.4250  0.3951 -0.1747
 8829SOL    HW137949   2.794   4.425   5.383 -2.2133  1.4950  0.0387
 8829SOL    HW237950   2.745   4.458   5.250 -2.7616 -0.7991 -0.4626
 8830SOL     OW37951   1.128   3.568   5.190 -0.5940  0.7740 -0.9692
 8830SOL    HW137952   1.185   3.627   5.239 -0.1608 -0.5624  0.1271
 8830SOL    HW237953   1.040   3.571   5.229  0.1035  0.9499  0.5912
 8831SOL     OW37954   1.067   1.814   1.080 -0.0500  0.7034 -0.3051
 8831SOL    HW137955   1.090   1.878   1.013  1.5156  0.6445  0.1813
 8831SOL    HW237956   1.094   1.732   1.037  0.1928  0.4255  0.3810
 8832SOL     OW37957   0.083   2.159   0.936  0.3425 -0.0449  0.1397
 8832SOL    HW137958   0.061   2.155   0.843 -3.1790 -0.7322  1.0253
 8832SOL    HW237959   0.176   2.183   0.929  0.1951  1.0206  1.8893
 8833SOL     OW37960   3.909   1.258   5.639 -0.1737 -0.1434 -0.3266
 8833SOL    HW137961   3.917   1.326   5.573  1.4161 -0.1120 -0.0888
 8833SOL    HW237962   3.930   1.319   5.710 -0.3726 -1.8037  1.1898
 8834SOL     OW37963   2.199   2.270   7.942 -0.2425 -0.0202 -0.6354
 8834SOL    HW137964   2.231   2.235   8.026 -2.6587 -1.8275 -0.4474
 8834SOL    HW237965   2.133   2.202   7.926 -0.0643 -0.4591  0.4882
 8835SOL     OW37966   3.024   4.303  12.918 -0.2349  0.5499 -0.1901
 8835SOL    HW137967   2.936   4.338  12.908 -1.1672 -1.7183  0.1663
 8835SOL    HW237968   3.030   4.265  13.005 -0.7081  0.0283 -0.3885
 8836SOL     OW37969   1.599   2.527  14.328  0.6459 -0.3227  0.0301
 8836SOL    HW137970   1.635   2.454  14.378 -3.1291 -1.2531  1.3707
 8836SOL    HW237971   1.676   2.583  14.316 -1.2365  1.5066 -3.6874
 8837SOL     OW37972   1.316   2.627   6.354 -0.0611 -0.0183 -0.0784
 8837SOL    HW137973   1.356   2.590   6.433  1.8115 -1.7707 -1.8784
 8837SOL    HW237974   1.226   2.594   6.360 -0.2465  0.7211  1.4884
 8838SOL     OW37975   0.532   3.936   2.851 -0.2434  0.4436 -0.5754
 8838SOL    HW137976   0.544   3.841   2.847  1.2052  0.5307  1.2997
 8838SOL    HW237977   0.621   3.965   2.870 -1.4909  4.1036 -0.3539
 8839SOL     OW37978   1.877   0.196   4.293  0.5654 -0.2211  0.1269
 8839SOL    HW137979   1.795   0.197   4.246  0.1356  2.5483  0.8899
 8839SOL    HW237980   1.887   0.109   4.331 -0.8555 -0.7853 -0.8367
 8840SOL     OW37981   0.934   1.792  11.301  0.0142 -0.7012  0.8579
 8840SOL    HW137982   0.947   1.704  11.266 -1.2146 -0.3530 -0.4979
 8840SOL    HW237983   0.862   1.818  11.243  0.2849 -2.2153 -0.1647
 8841SOL     OW37984   0.757   0.167   7.989 -0.1512 -0.0967 -0.2357
 8841SOL    HW137985   0.664   0.141   7.990  0.3200 -1.8107 -1.7111
 8841SOL    HW237986   0.767   0.204   8.077 -1.1639  0.6055 -0.4014
 8842SOL     OW37987   4.298   2.394   3.322 -0.1889  0.0897 -0.7051
 8842SOL    HW137988   4.327   2.456   3.256  1.2794  0.8284  0.6508
 8842SOL    HW237989   4.343   2.312   3.303 -0.1978  0.3608 -1.8916
 8843SOL     OW37990   0.601   4.450   8.580 -0.2600 -0.1312  0.5561
 8843SOL    HW137991   0.640   4.524   8.532 -1.0360  0.4164  0.7652
 8843SOL    HW237992   0.625   4.375   8.526  1.4224  0.0263  1.0789
 8844SOL     OW37993   2.886   0.480  11.234 -0.1341  0.4997  0.4952
 8844SOL    HW137994   2.857   0.395  11.203  0.8850  0.7699 -1.1632
 8844SOL    HW237995   2.897   0.467  11.328 -0.1084  1.1842  0.5933
 8845SOL     OW37996   3.210   2.803   8.910 -0.3498  0.4895 -0.4536
 8845SOL    HW137997   3.262   2.882   8.895  0.5898  0.0626  0.6009
 8845SOL    HW237998   3.125   2.848   8.918 -0.8901 -0.3223 -1.6149
 8846SOL     OW37999   1.775   4.242   5.673 -0.3550  0.3103  0.3179
 8846SOL    HW138000   1.756   4.334   5.655  0.5243  0.2536 -0.9116
 8846SOL    HW238001   1.753   4.192   5.595 -0.3001 -0.2017  0.6348
 8847SOL     OW38002   4.671   2.219   4.839  0.0684  0.5950 -0.7672
 8847SOL    HW138003   4.666   2.226   4.744 -1.2293 -1.0896 -0.8344
 8847SOL    HW238004   4.689   2.127   4.858  1.7116  1.1961  0.6236
 8848SOL     OW38005   0.830   4.717   2.852 -0.5012  0.0250  0.1150
 8848SOL    HW138006   0.848   0.063   2.791  0.0898 -0.0761  0.1778
 8848SOL    HW238007   0.763   4.672   2.800 -0.0179  1.6036 -1.8501
 8849SOL     OW38008   2.009   3.491   9.340  0.2292 -0.3933  0.0280
 8849SOL    HW138009   2.048   3.464   9.423  2.3567 -2.1663 -1.5243
 8849SOL    HW238010   1.914   3.489   9.354  0.4244 -2.9964  1.0803
 8850SOL     OW38011   4.491   3.948   4.792  0.1995  0.0177 -0.2722
 8850SOL    HW138012   4.566   3.889   4.784 -0.8230 -1.6270  2.4208
 8850SOL    HW238013   4.540   4.029   4.775  0.6825 -0.5321 -1.5425
 8851SOL     OW38014   3.476   4.418   6.242 -0.0640  0.2189  0.4064
 8851SOL    HW138015   3.502   4.456   6.326  2.9017  1.1130 -0.8870
 8851SOL    HW238016   3.415   4.485   6.212 -0.9880 -0.6809  0.3054
 8852SOL     OW38017   3.845   0.301  14.056  0.1715  0.5193 -0.1679
 8852SOL    HW138018   3.909   0.234  14.032 -0.7554 -0.6772  0.7112
 8852SOL    HW238019   3.785   0.259  14.117  0.1719 -0.0604 -0.5656
 8853SOL     OW38020   0.973   2.858   1.245 -0.9378  0.8408 -0.2178
 8853SOL    HW138021   1.001   2.790   1.306  0.8650  0.9192 -0.9872
 8853SOL    HW238022   0.879   2.863   1.266 -0.8672  0.6950  0.1332
 8854SOL     OW38023   2.040   3.409   5.531  0.1431  0.2144  0.0435
 8854SOL    HW138024   1.986   3.429   5.454  1.7116 -1.2981 -1.4594
 8854SOL    HW238025   2.120   3.384   5.483 -0.2491 -2.8361  0.9729
 8855SOL     OW38026   1.569   3.790   4.410  0.5658 -0.3443 -0.3525
 8855SOL    HW138027   1.505   3.728   4.374  1.2574 -1.7652  0.8527
 8855SOL    HW238028   1.568   3.786   4.506 -0.9319  0.4021 -0.3460
 8856SOL     OW38029   1.950   3.827   8.436 -0.2456  0.3410  0.3224
 8856SOL    HW138030   1.959   3.757   8.372 -1.4819 -0.6307  1.2163
 8856SOL    HW238031   2.030   3.877   8.420 -0.6457  1.4157  1.6479
 8857SOL     OW38032   1.752   4.275   7.897  0.4608  0.3542  0.5862
 8857SOL    HW138033   1.701   4.284   7.978 -0.8030  3.2084 -0.5277
 8857SOL    HW238034   1.810   4.205   7.927 -0.5199 -0.9676 -0.6144
 8858SOL     OW38035   2.511   4.170   4.189 -0.3991  0.2934 -0.2548
 8858SOL    HW138036   2.482   4.196   4.277 -1.5941 -2.7169  0.2742
 8858SOL    HW238037   2.433   4.136   4.145 -2.6395  1.4502  2.8380
 8859SOL     OW38038   3.629   0.284   7.963 -0.1349  0.7911  0.0529
 8859SOL    HW138039   3.576   0.235   7.901 -2.4713  0.6786  2.1223
 8859SOL    HW238040   3.605   0.236   8.042 -0.2376  0.7253 -0.0192
 8860SOL     OW38041   4.693   1.841   2.777  0.5952 -0.1459  0.4604
 8860SOL    HW138042   4.607   1.858   2.740  0.3940 -0.7578  0.6368
 8860SOL    HW238043   4.665   1.784   2.849 -0.3323  2.3670  2.1046
 8861SOL     OW38044   2.501   0.011   9.016  0.1192 -0.3123 -0.0059
 8861SOL    HW138045   2.437   4.698   9.077  0.6069  1.3081  1.5166
 8861SOL    HW238046   2.578   0.004   9.073  0.7045  1.0535 -0.6211
 8862SOL     OW38047   0.713   1.470   2.392 -0.6336 -0.1334  0.1037
 8862SOL    HW138048   0.632   1.450   2.440 -0.2308 -0.8181  0.4895
 8862SOL    HW238049   0.756   1.385   2.387 -2.3727 -0.9425 -1.0954
 8863SOL     OW38050   3.716   2.296   2.799 -0.2105  0.7115 -0.0048
 8863SOL    HW138051   3.739   2.345   2.878 -3.2490  0.4620  1.0584
 8863SOL    HW238052   3.652   2.353   2.756 -0.4252  1.4144  1.2480
 8864SOL     OW38053   4.305   4.634   7.243 -0.5567 -0.4430 -0.4260
 8864SOL    HW138054   4.346   4.692   7.179  1.7050  0.6050  1.9486
 8864SOL    HW238055   4.259   4.576   7.183  1.2009 -2.7933  0.4820
 8865SOL     OW38056   4.640   0.960   6.052 -0.0913 -0.2783  0.1570
 8865SOL    HW138057   4.676   0.969   6.141  0.2327 -0.0153 -0.0025
 8865SOL    HW238058   4.682   1.030   6.003 -1.9959  1.5352  1.1010
 8866SOL     OW38059   2.677   1.184  12.410 -0.0344 -0.0461 -0.2840
 8866SOL    HW138060   2.659   1.111  12.469 -0.1834  0.7937  0.7166
 8866SOL    HW238061   2.592   1.212  12.376  0.8308  3.7936  0.6357
 8867SOL     OW38062   2.286   2.361   3.585 -0.5142  0.4809  0.0969
 8867SOL    HW138063   2.191   2.359   3.573 -0.5067  0.2729  0.0603
 8867SOL    HW238064   2.305   2.268   3.568  0.0947  0.4599  0.8724
 8868SOL     OW38065   2.233   3.698   4.366  0.0752 -0.2287 -0.1067
 8868SOL    HW138066   2.322   3.704   4.399  0.2240 -2.1103 -0.1729
 8868SOL    HW238067   2.182   3.703   4.447  1.0139 -0.9862  0.5272
 8869SOL     OW38068   2.863   1.050  14.760  0.8950  0.6296 -0.7187
 8869SOL    HW138069   2.958   1.047  14.749  0.9191 -2.6840  0.6342
 8869SOL    HW238070   2.836   1.083  14.674 -0.6633 -0.9626 -0.8458
 8870SOL     OW38071   3.004   1.540   5.575 -0.0619  0.2602  0.0587
 8870SOL    HW138072   2.912   1.554   5.555  0.6130  2.1786 -1.7797
 8870SOL    HW238073   3.002   1.474   5.644  0.5024 -0.3638 -0.5260
 8871SOL     OW38074   1.617   4.384   0.744 -0.0183  0.1103 -0.0589
 8871SOL    HW138075   1.525   4.367   0.765 -0.1890  1.0474 -0.0763
 8871SOL    HW238076   1.632   4.466   0.790  1.4098  1.1323 -2.3830
 8872SOL     OW38077   0.409   3.222   9.541  0.4243  0.1745  0.0300
 8872SOL    HW138078   0.425   3.310   9.575 -3.1724  0.7715  0.1535
 8872SOL    HW238079   0.412   3.245   9.448 -2.4970  0.9516  0.1152
 8873SOL     OW38080   1.425   1.893   7.159 -0.2743 -0.3077  0.3391
 8873SOL    HW138081   1.431   1.801   7.135  4.1374  0.3602 -1.1831
 8873SOL    HW238082   1.479   1.933   7.091 -1.4797 -0.7773 -0.8843
 8874SOL     OW38083   0.874   3.291   6.914  0.0611 -0.1310  0.7082
 8874SOL    HW138084   0.966   3.265   6.913  0.2728  0.5786  1.3042
 8874SOL    HW238085   0.825   3.209   6.905 -0.0038 -0.0863  0.6596
 8875SOL     OW38086   0.310   0.405   2.690  0.1962 -0.0887 -0.1795
 8875SOL    HW138087   0.391   0.363   2.720 -0.0886  0.2593  1.0736
 8875SOL    HW238088   0.315   0.387   2.596  3.2107 -0.9776  0.1574
 8876SOL     OW38089   2.840   2.076   2.550  0.1474 -0.4410 -0.3113
 8876SOL    HW138090   2.929   2.110   2.550  0.4010 -1.0982  1.0615
 8876SOL    HW238091   2.854   1.985   2.523 -1.3438 -0.9998  0.7735
 8877SOL     OW38092   2.562   1.384   3.494 -0.4231 -0.0720  0.4669
 8877SOL    HW138093   2.654   1.368   3.473 -0.1421  3.5201 -1.0498
 8877SOL    HW238094   2.581   1.467   3.537 -0.3571 -0.4323  1.1354
 8878SOL     OW38095   2.400   1.427   7.980 -0.8891 -0.0652  0.4874
 8878SOL    HW138096   2.310   1.411   8.009 -0.5874 -1.0757  0.8970
 8878SOL    HW238097   2.390   1.494   7.913  2.0321  0.0925  0.2015
 8879SOL     OW38098   2.325   0.013   5.066  0.7504  0.4169  0.2432
 8879SOL    HW138099   2.335   4.646   5.092  1.2086 -0.0384 -1.5328
 8879SOL    HW238100   2.241   0.037   5.105  1.4901  0.8227  1.5891
 8880SOL     OW38101   0.697   3.743  16.817 -0.1054  0.5282 -0.3665
 8880SOL    HW138102   0.657   3.666  16.777 -0.3585  1.2604 -1.5201
 8880SOL    HW238103   0.789   3.733  16.792  0.9642  1.6278  3.1261
 8881SOL     OW38104   3.530   0.877   2.729  0.0564 -0.0750  0.1414
 8881SOL    HW138105   3.575   0.899   2.648 -0.9164 -1.5562 -0.7986
 8881SOL    HW238106   3.571   0.792   2.746 -0.0427 -0.2049 -0.2915
 8882SOL     OW38107   2.599   3.569   6.400 -0.0842 -0.5761  0.3611
 8882SOL    HW138108   2.525   3.597   6.347  1.1713 -0.5089 -1.3345
 8882SOL    HW238109   2.589   3.474   6.402 -1.0408 -0.5535 -3.0604
 8883SOL     OW38110   0.862   1.752  10.478  0.1431  0.6263  0.6035
 8883SOL    HW138111   0.948   1.761  10.519  0.4927  0.1566 -0.0246
 8883SOL    HW238112   0.802   1.721  10.546  1.6243  0.3195  1.7703
 8884SOL     OW38113   3.124   1.006  13.458 -0.2692  0.1685 -0.5049
 8884SOL    HW138114   3.144   1.089  13.501 -2.6475  0.6291 -0.2669
 8884SOL    HW238115   3.211   0.968  13.446 -0.3955 -0.4900  0.6649
 8885SOL     OW38116   1.821   0.992   4.139  0.1380  0.2829 -0.2437
 8885SOL    HW138117   1.824   0.914   4.193 -1.0750 -2.4090 -4.0716
 8885SOL    HW238118   1.908   1.029   4.127  0.2239  0.2484  0.3013
 8886SOL     OW38119   3.422   2.756  16.597  0.2491 -0.2193 -0.4036
 8886SOL    HW138120   3.415   2.806  16.678 -1.3086 -0.4331 -0.4054
 8886SOL    HW238121   3.473   2.823  16.551 -0.2512  2.0715  2.4588
 8887SOL     OW38122   3.276   4.379   5.638 -0.4735  0.5768 -0.2322
 8887SOL    HW138123   3.278   4.323   5.560  0.2591  0.1702  0.0698
 8887SOL    HW238124   3.201   4.436   5.623 -1.5783 -0.4473  1.4265
 8888SOL     OW38125   1.601   0.663   8.418 -0.2001 -0.0665 -0.2214
 8888SOL    HW138126   1.589   0.756   8.435  0.5278  0.2414 -1.3807
 8888SOL    HW238127   1.660   0.668   8.343  0.8570 -1.9013  0.4733
 8889SOL     OW38128   3.908   4.638  15.763  0.2595  0.2541  0.2033
 8889SOL    HW138129   3.965   4.625  15.839 -1.2923 -3.3915  0.7132
 8889SOL    HW238130   3.963   4.705  15.721 -0.5977 -0.2743 -1.7764
 8890SOL     OW38131   0.445   1.278  12.827  0.5226  0.3849  0.2331
 8890SOL    HW138132   0.505   1.299  12.755  0.5044 -1.8915 -0.4474
 8890SOL    HW238133   0.419   1.368  12.850 -0.5728 -0.3092  1.7126
 8891SOL     OW38134   4.357   4.336  10.128 -0.2654  0.6452 -0.0723
 8891SOL    HW138135   4.393   4.337  10.040 -1.3416  1.8232 -0.4963
 8891SOL    HW238136   4.358   4.244  10.157  0.5091  0.0891 -1.9015
 8892SOL     OW38137   1.802   3.124   7.795  0.6565  0.5410  0.3187
 8892SOL    HW138138   1.728   3.064   7.806 -0.2752  1.7267  0.5212
 8892SOL    HW238139   1.782   3.155   7.707  1.0910 -0.9881 -0.3239
 8893SOL     OW38140   4.105   4.347   6.102 -0.0456 -0.0721  0.4184
 8893SOL    HW138141   4.028   4.298   6.133 -1.7969  0.3171 -3.3410
 8893SOL    HW238142   4.079   4.437   6.086  1.8684  0.1319 -1.5437
 8894SOL     OW38143   0.879   0.833   4.109  0.0231 -0.0344 -0.0210
 8894SOL    HW138144   0.798   0.783   4.113  1.8100 -2.9428 -0.2239
 8894SOL    HW238145   0.853   0.919   4.141  1.2540  0.4076 -0.1855
 8895SOL     OW38146   0.644   2.022  10.609  0.4237 -0.2793  0.0920
 8895SOL    HW138147   0.629   1.955  10.675 -1.2895  0.0887  0.0966
 8895SOL    HW238148   0.663   2.100  10.661  0.8684  0.4978 -1.2259
 8896SOL     OW38149   1.744   2.259  13.604  0.1381  0.4457 -0.0670
 8896SOL    HW138150   1.828   2.291  13.573  0.1180  0.4670 -0.0999
 8896SOL    HW238151   1.732   2.282  13.696 -0.0473 -0.0839  0.0450
 8897SOL     OW38152   0.059   3.108   2.183 -0.5330 -0.6622 -0.1005
 8897SOL    HW138153   0.107   3.043   2.133  0.8724  0.1727  0.1554
 8897SOL    HW238154   0.032   3.172   2.118  0.1338 -2.2503 -1.9332
 8898SOL     OW38155   0.701   2.004  15.786 -0.0806 -0.0142 -0.4278
 8898SOL    HW138156   0.714   2.098  15.781  0.7116 -0.0898  0.2778
 8898SOL    HW238157   0.765   1.974  15.721 -1.8450 -0.3610 -2.0039
 8899SOL     OW38158   2.520   2.557   5.811  0.1513 -0.3769  0.2329
 8899SOL    HW138159   2.566   2.515   5.738  0.9478 -0.1188  0.5951
 8899SOL    HW238160   2.548   2.648   5.800 -1.0944  0.4028  3.6096
 8900SOL     OW38161   3.906   2.764  14.834 -0.0553 -0.0572  0.4993
 8900SOL    HW138162   3.929   2.674  14.853  1.1779 -0.0942 -1.1473
 8900SOL    HW238163   3.859   2.759  14.751  0.1904 -0.7681  0.4064
 8901SOL     OW38164   3.208   4.540   9.305 -0.3112  0.1497 -0.1215
 8901SOL    HW138165   3.260   4.621   9.308  0.4566 -0.4182  1.7188
 8901SOL    HW238166   3.134   4.561   9.362 -1.7553 -1.0787 -1.5249
 8902SOL     OW38167   1.153   1.968   4.525 -0.1618 -0.3139 -0.4928
 8902SOL    HW138168   1.126   2.059   4.532 -2.0340 -0.9009 -0.0303
 8902SOL    HW238169   1.104   1.923   4.457 -3.1391  0.9322  0.8505
 8903SOL     OW38170   4.301   4.162   7.489  0.3196  0.5611  0.1657
 8903SOL    HW138171   4.377   4.104   7.494 -0.0861 -0.1301 -1.9697
 8903SOL    HW238172   4.323   4.200   7.404 -1.2016 -4.6228 -2.5089
 8904SOL     OW38173   3.218   3.559   2.505  0.3454 -0.6155  0.0069
 8904SOL    HW138174   3.306   3.594   2.492  0.6940 -1.8942 -1.0981
 8904SOL    HW238175   3.189   3.530   2.418 -0.0449 -0.3984  0.0637
 8905SOL     OW38176   0.257   0.302   3.795 -0.1337  0.2170  0.2779
 8905SOL    HW138177   0.339   0.350   3.805  1.1864 -2.4520  2.2321
 8905SOL    HW238178   0.199   0.362   3.842 -1.3175 -1.6682  1.2158
 8906SOL     OW38179   0.084   3.512   1.725 -0.1957 -0.0470 -0.1787
 8906SOL    HW138180   0.006   3.567   1.717  0.9072  1.4018 -0.9918
 8906SOL    HW238181   0.053   3.467   1.804 -1.2096 -1.4538 -1.3840
 8907SOL     OW38182   4.388   2.852   9.046 -0.3145 -0.0480  0.7892
 8907SOL    HW138183   4.347   2.770   9.074  0.3178 -1.4133 -2.3020
 8907SOL    HW238184   4.314   2.900   9.009  0.7452 -0.0269 -1.2901
 8908SOL     OW38185   3.074   3.572  14.180  0.6855  0.1207  0.5446
 8908SOL    HW138186   3.062   3.610  14.094  1.2533 -1.8490 -0.4097
 8908SOL    HW238187   3.003   3.605  14.235 -1.9149 -4.6180  0.0372
 8909SOL     OW38188   1.869   0.836   8.297 -0.3372 -0.0716 -0.7535
 8909SOL    HW138189   1.950   0.790   8.275  0.8130  1.0568  1.0918
 8909SOL    HW238190   1.900   0.867   8.382 -0.1090  0.1693 -0.9231
 8910SOL     OW38191   3.390   3.817  12.019  0.3345 -0.1479 -0.5377
 8910SOL    HW138192   3.434   3.819  12.104 -2.2318  0.9821  0.7560
 8910SOL    HW238193   3.376   3.911  12.008  2.1220  0.2255  0.4223
 8911SOL     OW38194   2.478   3.712   5.682  0.0985  0.2977 -0.2050
 8911SOL    HW138195   2.559   3.715   5.734  0.7679  2.3621 -1.3931
 8911SOL    HW238196   2.420   3.647   5.722  1.9508 -0.1390  1.7799
 8912SOL     OW38197   2.341   4.296   3.014 -0.5302 -0.5094  0.5139
 8912SOL    HW138198   2.302   4.218   3.054 -1.9701  0.1103  0.2908
 8912SOL    HW238199   2.406   4.327   3.077 -1.0296 -0.3282  0.9312
 8913SOL     OW38200   4.583   3.919   1.926  0.5794  0.3378 -0.3105
 8913SOL    HW138201   4.512   3.928   1.863  0.7586  0.5388 -0.4842
 8913SOL    HW238202   4.642   3.993   1.909  1.0160 -0.3280 -1.7027
 8914SOL     OW38203   0.489   0.047  12.302  0.0060  0.2021 -0.4820
 8914SOL    HW138204   0.474   4.680  12.281 -0.5106 -0.4100  2.6266
 8914SOL    HW238205   0.545   0.071  12.228  1.5743  0.2536  0.7236
 8915SOL     OW38206   4.714   1.479   2.872 -0.0443 -0.3602  0.1091
 8915SOL    HW138207   4.696   1.555   2.927  0.1652 -0.0395 -0.2624
 8915SOL    HW238208   4.657   1.407   2.899  0.0117 -1.3161 -2.3495
 8916SOL     OW38209   0.664   0.590   4.215  0.0638  0.4414 -0.0146
 8916SOL    HW138210   0.614   0.530   4.269  2.4924 -0.7651  0.8802
 8916SOL    HW238211   0.709   0.526   4.160 -0.7048 -0.2001  0.1068
 8917SOL     OW38212   0.071   2.677   5.489 -0.6177 -0.0871  0.4766
 8917SOL    HW138213   0.071   2.675   5.393 -1.0491  0.5054  0.4594
 8917SOL    HW238214   0.014   2.603   5.506  2.2892 -2.7200 -1.0825
 8918SOL     OW38215   2.182   0.480   8.030  0.1877 -0.4871 -0.2644
 8918SOL    HW138216   2.096   0.516   8.052  0.2992 -1.3188  1.4747
 8918SOL    HW238217   2.208   0.529   7.952  1.2576 -2.8400 -1.3771
 8919SOL     OW38218   3.022   1.437  11.676  0.4861 -0.1187  0.2549
 8919SOL    HW138219   3.029   1.420  11.582  1.0486  3.2375 -0.2782
 8919SOL    HW238220   2.949   1.498  11.681 -0.2742 -0.9431 -0.8162
 8920SOL     OW38221   3.311   0.251   3.634 -0.0843 -0.3319 -0.4708
 8920SOL    HW138222   3.387   0.309   3.631 -0.2256 -0.0647  1.0542
 8920SOL    HW238223   3.255   0.307   3.688 -0.8243 -1.7137  0.1992
 8921SOL     OW38224   1.236   3.791   1.697 -0.1182 -0.0287 -0.7548
 8921SOL    HW138225   1.169   3.860   1.702  0.6731  0.6473  0.5095
 8921SOL    HW238226   1.213   3.750   1.781 -0.7965 -2.5544 -2.1794
 8922SOL     OW38227   0.527   1.362   7.926  0.4422  0.6088  0.1917
 8922SOL    HW138228   0.446   1.413   7.918 -1.0278 -1.7286  0.4368
 8922SOL    HW238229   0.588   1.399   7.862  0.6194  0.4228  0.2560
 8923SOL     OW38230   3.705   3.815   5.283  0.4147  0.8936 -0.4465
 8923SOL    HW138231   3.757   3.854   5.212  0.4609  0.0882 -0.8546
 8923SOL    HW238232   3.648   3.888   5.309 -0.4422  0.4295 -1.0051
 8924SOL     OW38233   2.688   4.358  14.170 -0.4581  0.2907  0.3599
 8924SOL    HW138234   2.705   4.447  14.200 -2.8478  1.0433 -0.5360
 8924SOL    HW238235   2.749   4.312  14.229 -0.5321 -0.5977 -0.2544
 8925SOL     OW38236   4.588   2.483   8.167  0.0745  0.5425  0.3366
 8925SOL    HW138237   4.503   2.513   8.199 -0.6324 -0.1262 -0.8863
 8925SOL    HW238238   4.566   2.390   8.164  0.1549  0.5173  0.5766
 8926SOL     OW38239   3.295   3.680   0.038 -0.5880 -0.3985  0.1809
 8926SOL    HW138240   3.376   3.706   0.082 -0.0411 -0.7005 -0.6649
 8926SOL    HW238241   3.241   3.710   0.111  0.6171  1.6172  0.2577
 8927SOL     OW38242   3.525   0.446   0.837 -0.1660 -0.4627  0.0191
 8927SOL    HW138243   3.556   0.357   0.854 -0.7301 -0.9083 -1.2735
 8927SOL    HW238244   3.479   0.430   0.755  1.2947  0.3279 -0.9623
 8928SOL     OW38245   1.647   1.931   3.237  0.0419  0.0738 -0.5137
 8928SOL    HW138246   1.674   1.975   3.157  0.6995  1.0757  0.2614
 8928SOL    HW238247   1.558   1.966   3.245  0.6630  1.5626 -0.2115
 8929SOL     OW38248   3.477   3.177   2.546 -0.1902  0.1751 -0.2998
 8929SOL    HW138249   3.441   3.094   2.578  0.1665  1.2100  2.8044
 8929SOL    HW238250   3.452   3.176   2.454  1.6469  1.3211 -0.8014
 8930SOL     OW38251   3.854   2.563  17.476 -0.2133 -0.6009 -0.5119
 8930SOL    HW138252   3.907   2.630  17.520 -0.1593 -0.2949 -1.0419
 8930SOL    HW238253   3.921   2.498  17.457  0.3134 -0.4902  0.9606
 8931SOL     OW38254   0.891   1.275   6.650  0.3181  0.0217  0.2251
 8931SOL    HW138255   0.933   1.215   6.712 -1.0639 -1.4125 -0.2281
 8931SOL    HW238256   0.904   1.359   6.694 -1.2992  1.6657 -2.4754
 8932SOL     OW38257   4.411   2.403   3.691  0.5136 -0.6211  0.6697
 8932SOL    HW138258   4.464   2.432   3.617 -0.0554 -0.0055  0.5011
 8932SOL    HW238259   4.434   2.310   3.692  1.6494 -0.3733 -3.0839
 8933SOL     OW38260   2.213   3.245   7.025  0.4774  0.4944 -0.1333
 8933SOL    HW138261   2.293   3.290   7.000  0.3435 -0.5673 -2.5287
 8933SOL    HW238262   2.233   3.159   6.988  1.0065  1.1930 -1.4575
 8934SOL     OW38263   4.060   2.279   4.589 -0.5339 -0.5758 -0.2690
 8934SOL    HW138264   4.122   2.256   4.520 -0.2656 -0.8213  0.0504
 8934SOL    HW238265   4.047   2.372   4.572 -0.3839 -0.6061 -0.5421
 8935SOL     OW38266   0.669   3.505   3.717  0.1510 -0.2254 -0.0738
 8935SOL    HW138267   0.755   3.544   3.730  0.9062 -1.3159 -1.7749
 8935SOL    HW238268   0.622   3.556   3.783  0.2976  0.0265 -0.1632
 8936SOL     OW38269   3.259   2.312   4.103  0.4516  0.9561  0.2943
 8936SOL    HW138270   3.310   2.343   4.028 -1.8767  0.0361 -1.7011
 8936SOL    HW238271   3.334   2.270   4.143  0.8026  2.4131  1.1526
 8937SOL     OW38272   4.103   0.808  15.883 -0.0741  0.0483 -0.5381
 8937SOL    HW138273   4.179   0.778  15.833  1.3867  0.1166  1.6365
 8937SOL    HW238274   4.140   0.815  15.971 -0.4661 -2.7555 -0.1499
 8938SOL     OW38275   2.160   2.857  15.658  0.6940  0.3483 -0.1763
 8938SOL    HW138276   2.162   2.811  15.574 -2.2835 -0.2073  0.0462
 8938SOL    HW238277   2.065   2.856  15.669  1.0967 -1.2844  2.9157
 8939SOL     OW38278   1.873   0.834   9.241  0.4948  0.0015  0.0089
 8939SOL    HW138279   1.865   0.811   9.148 -3.3879  0.0183  0.3366
 8939SOL    HW238280   1.961   0.802   9.259  1.2011  0.5098 -2.5283
 8940SOL     OW38281   0.289   2.740   3.482 -0.2339  0.1424 -0.0822
 8940SOL    HW138282   0.382   2.763   3.488  0.0788 -1.0121 -0.4998
 8940SOL    HW238283   0.305   2.653   3.519  0.5563 -0.3331 -1.5371
 8941SOL     OW38284   1.196   4.229   4.906  0.2069 -0.3237 -0.3123
 8941SOL    HW138285   1.248   4.271   4.974  0.2686  0.2216 -0.7017
 8941SOL    HW238286   1.259   4.172   4.861  1.1085 -0.0814  0.6448
 8942SOL     OW38287   3.676   3.977   4.517  0.2142 -0.6959  0.0344
 8942SOL    HW138288   3.754   3.969   4.462  2.3084  2.8287  2.5396
 8942SOL    HW238289   3.655   4.069   4.505  0.9927 -0.4335  0.6484
 8943SOL     OW38290   0.469   0.768  13.066 -0.0035 -0.0868  0.0688
 8943SOL    HW138291   0.469   0.828  13.141  3.1722  0.3658 -0.3082
 8943SOL    HW238292   0.564   0.764  13.062  0.0127  0.4216 -0.0851
 8944SOL     OW38293   0.573   3.818   6.794 -0.1016  0.3260  0.2802
 8944SOL    HW138294   0.612   3.738   6.829 -0.7624 -0.7593 -1.4180
 8944SOL    HW238295   0.483   3.812   6.826  0.3739 -2.7773  1.0707
 8945SOL     OW38296   3.822   1.791   6.937 -0.2004 -0.1637 -0.1273
 8945SOL    HW138297   3.753   1.736   6.900  2.5089 -2.0665 -2.2561
 8945SOL    HW238298   3.900   1.738   6.923  0.8100  1.1353  0.5200
 8946SOL     OW38299   2.367   1.225  15.423  0.3694  0.2494  0.1071
 8946SOL    HW138300   2.336   1.309  15.387  0.2813  1.1280  2.2402
 8946SOL    HW238301   2.337   1.242  15.512 -0.1572 -2.6505  0.4832
 8947SOL     OW38302   3.582   1.458   5.385 -0.1079 -0.4659  0.2312
 8947SOL    HW138303   3.557   1.538   5.337 -2.4355 -0.0527  2.1194
 8947SOL    HW238304   3.665   1.436   5.343 -0.7997  2.6531 -2.8336
 8948SOL     OW38305   2.686   3.995   0.052 -0.1211  0.6437  0.2966
 8948SOL    HW138306   2.657   3.930  17.687  1.0666 -0.0085  0.4247
 8948SOL    HW238307   2.626   4.068   0.039  1.6419  1.4803 -3.1816
 8949SOL     OW38308   2.892   0.124  11.480  0.2176  0.0223  0.1607
 8949SOL    HW138309   2.959   0.189  11.502  3.0654 -2.6961 -0.4511
 8949SOL    HW238310   2.867   0.110  11.572  1.6401 -0.1680  0.5169
 8950SOL     OW38311   3.640   2.922   6.554 -0.6429 -0.3058  0.0343
 8950SOL    HW138312   3.695   2.872   6.493 -1.1281 -0.6783 -0.0924
 8950SOL    HW238313   3.554   2.901   6.519 -0.1849  1.9614 -2.4208
 8951SOL     OW38314   3.679   0.198   8.611 -0.2894  0.3613 -0.0384
 8951SOL    HW138315   3.752   0.234   8.561  0.7284 -0.5332  0.8054
 8951SOL    HW238316   3.690   0.103   8.612  1.7549  0.5956  1.2555
 8952SOL     OW38317   4.651   0.253   9.823 -0.3844  0.7373 -0.3658
 8952SOL    HW138318   4.725   0.251   9.884 -1.0483 -1.1862  0.3786
 8952SOL    HW238319   4.592   0.192   9.868  1.2839  0.5509  1.5440
 8953SOL     OW38320   1.441   0.591  14.567 -0.1566  0.3114 -0.9584
 8953SOL    HW138321   1.536   0.584  14.564 -0.4464 -3.8854  0.2096
 8953SOL    HW238322   1.425   0.683  14.546 -1.4332  0.7766  1.9783
 8954SOL     OW38323   2.622   0.620  14.094  0.1158  0.5592  0.2773
 8954SOL    HW138324   2.691   0.563  14.059  1.1654  1.7188  0.4324
 8954SOL    HW238325   2.597   0.587  14.180  1.4780 -0.5108  0.2617
 8955SOL     OW38326   4.295   2.009   7.818 -0.1263  0.1654  0.3103
 8955SOL    HW138327   4.350   1.967   7.751 -1.0292  0.7568 -0.8017
 8955SOL    HW238328   4.259   1.937   7.869  0.1405  1.0541  1.7386
 8956SOL     OW38329   4.129   1.398   3.293  0.9322  0.6732 -0.0847
 8956SOL    HW138330   4.205   1.420   3.346 -0.0033 -1.7219  2.3034
 8956SOL    HW238331   4.163   1.345   3.221 -2.6331 -0.9046 -0.6160
 8957SOL     OW38332   1.743   2.236   9.748  0.3508  0.0930 -0.0938
 8957SOL    HW138333   1.820   2.182   9.731 -0.8097 -1.3269 -0.9149
 8957SOL    HW238334   1.766   2.317   9.703  1.3729 -0.2591 -0.1967
 8958SOL     OW38335   4.314   0.683   6.548  0.0940 -0.2290 -0.2553
 8958SOL    HW138336   4.267   0.706   6.468 -2.0944  0.5288  1.2404
 8958SOL    HW238337   4.282   0.753   6.605 -1.2027 -1.0640  0.0434
 8959SOL     OW38338   3.077   0.141  14.314  0.0686 -0.3763  0.0812
 8959SOL    HW138339   3.071   0.147  14.219 -0.7020  1.8883  0.2798
 8959SOL    HW238340   3.148   0.200  14.339  1.9769 -2.0448 -1.4574
 8960SOL     OW38341   1.668   1.534  10.080 -0.5714 -0.2421 -0.4318
 8960SOL    HW138342   1.724   1.462  10.108 -0.2112 -0.0232 -0.5921
 8960SOL    HW238343   1.728   1.608  10.068 -0.2050 -0.6996 -1.4691
 8961SOL     OW38344   3.514   2.622  15.351 -0.1646  0.3334  0.4190
 8961SOL    HW138345   3.523   2.714  15.376 -0.6814  0.9311 -1.6359
 8961SOL    HW238346   3.576   2.617  15.279 -0.2304 -0.0073  0.3865
 8962SOL     OW38347   0.336   2.559   4.404 -0.6157 -0.1122  0.2330
 8962SOL    HW138348   0.343   2.654   4.409  0.1772 -0.2272  1.3766
 8962SOL    HW238349   0.240   2.550   4.402 -0.8837  3.1929 -2.0671
 8963SOL     OW38350   3.472   3.375   7.783 -0.1312 -0.3734  0.5263
 8963SOL    HW138351   3.383   3.395   7.812 -0.3641 -0.2261 -0.3010
 8963SOL    HW238352   3.447   3.305   7.723 -1.2643 -0.9611  1.6820
 8964SOL     OW38353   1.359   2.129   0.705 -0.0056 -0.6154  0.3283
 8964SOL    HW138354   1.360   2.220   0.736 -1.7947 -1.2942  2.3740
 8964SOL    HW238355   1.275   2.129   0.659  0.4117 -2.8183 -0.4156
 8965SOL     OW38356   1.932   3.788   3.743 -0.2486  0.0675 -0.1878
 8965SOL    HW138357   1.991   3.713   3.729  0.9709  0.7770  1.0901
 8965SOL    HW238358   1.849   3.777   3.697 -1.7767  2.4621  2.0112
 8966SOL     OW38359   3.397   3.035   8.970  0.0257  0.2880  0.3162
 8966SOL    HW138360   3.394   3.090   9.048 -0.0983  1.1962 -0.3229
 8966SOL    HW238361   3.470   2.975   8.983  0.2210  0.3388 -0.5821
 8967SOL     OW38362   2.232   0.842  12.524 -0.0961 -0.6797 -0.0626
 8967SOL    HW138363   2.150   0.794  12.532  0.5401 -1.3652  2.3697
 8967SOL    HW238364   2.257   0.865  12.613  0.0049  1.5181 -0.6680
 8968SOL     OW38365   1.874   0.087   7.646 -0.2612 -0.6323  0.1149
 8968SOL    HW138366   1.882   0.018   7.581 -1.6803  0.2572 -0.9921
 8968SOL    HW238367   1.865   0.168   7.596  1.5579 -0.0808  0.6554
 8969SOL     OW38368   4.582   0.242   4.767 -0.2555 -0.2173  0.2025
 8969SOL    HW138369   4.552   0.188   4.694 -0.3330 -0.4981  0.4439
 8969SOL    HW238370   4.633   0.307   4.718  0.7426 -1.0378  0.1581
 8970SOL     OW38371   1.146   4.485   7.905 -0.1868 -0.6513 -0.5810
 8970SOL    HW138372   1.200   4.562   7.924 -0.8200 -0.1737 -0.7128
 8970SOL    HW238373   1.081   4.527   7.850 -2.6691  0.4688  3.2260
 8971SOL     OW38374   0.275   3.979   8.834  0.0590  0.1659 -0.0807
 8971SOL    HW138375   0.332   3.997   8.908  2.1229 -0.6104 -1.4971
 8971SOL    HW238376   0.224   3.906   8.870 -0.7704  1.1613  0.7715
 8972SOL     OW38377   0.745   3.498   7.876 -0.0915  0.1198  0.7790
 8972SOL    HW138378   0.688   3.421   7.867  0.2089  0.1262 -1.0550
 8972SOL    HW238379   0.817   3.450   7.917 -0.2867 -0.4653  0.4336
 8973SOL     OW38380   0.006   1.477   2.588 -0.0798 -0.5910 -0.4515
 8973SOL    HW138381   4.723   1.516   2.675  1.7996  0.1386 -0.6054
 8973SOL    HW238382   0.015   1.557   2.535  0.7163  0.1558  0.8237
 8974SOL     OW38383   2.353   2.293  16.445 -0.7149 -0.3445 -0.5821
 8974SOL    HW138384   2.258   2.297  16.436 -0.8011 -0.7065  0.2348
 8974SOL    HW238385   2.373   2.385  16.428  2.0800 -1.0534 -1.0441
 8975SOL     OW38386   2.480   3.157   8.745  0.4254  0.8351 -0.3730
 8975SOL    HW138387   2.457   3.099   8.672  0.4518  0.7823 -0.3395
 8975SOL    HW238388   2.426   3.126   8.817  0.1503  1.7478 -0.1979
 8976SOL     OW38389   4.240   4.081   2.751  0.6977 -0.5606  0.1950
 8976SOL    HW138390   4.191   4.027   2.689  1.8263 -2.1533  0.6878
 8976SOL    HW238391   4.321   4.097   2.703  0.6873 -0.8996  0.0638
 8977SOL     OW38392   4.379   1.996   9.060 -0.2372 -0.0335  0.2249
 8977SOL    HW138393   4.326   2.069   9.093 -1.5004  0.2190 -2.3090
 8977SOL    HW238394   4.310   1.932   9.044  0.8012 -0.8906 -0.7909
 8978SOL     OW38395   2.370   4.562   4.265  0.0196  0.1016  0.4685
 8978SOL    HW138396   2.422   4.578   4.186 -1.4001 -2.0568 -0.9010
 8978SOL    HW238397   2.424   4.596   4.337  1.6806  0.2717 -0.8463
 8979SOL     OW38398   3.211   2.626   8.014 -0.2085 -0.3309  0.2671
 8979SOL    HW138399   3.189   2.693   8.078  0.9555 -1.4055  1.7749
 8979SOL    HW238400   3.134   2.571   8.023 -1.7820  1.4236 -2.2831
 8980SOL     OW38401   3.084   4.183   4.852  0.3634  0.0280 -0.2701
 8980SOL    HW138402   3.149   4.122   4.887  0.8272 -0.8027 -2.5861
 8980SOL    HW238403   3.050   4.143   4.772 -1.2560 -1.6809  1.2819
 8981SOL     OW38404   3.909   3.160   2.437  0.4279 -0.1462 -0.8946
 8981SOL    HW138405   3.962   3.189   2.511 -2.0674 -1.1164  1.2719
 8981SOL    HW238406   3.875   3.243   2.404  0.5254  1.1525  2.2715
 8982SOL     OW38407   0.240   3.876   2.595  0.2256 -0.1984 -0.4342
 8982SOL    HW138408   0.263   3.787   2.570 -0.4573 -0.3071 -0.6713
 8982SOL    HW238409   0.219   3.920   2.512  1.6067  0.9874 -0.1585
 8983SOL     OW38410   2.036   4.637   2.095 -0.5246  0.2412  0.3718
 8983SOL    HW138411   2.085   4.557   2.114  0.7602  0.5365 -1.6778
 8983SOL    HW238412   1.956   4.592   2.069  0.1855 -1.4837  1.2078
 8984SOL     OW38413   2.831   2.485   3.481 -0.1401  0.1691  0.0294
 8984SOL    HW138414   2.736   2.485   3.486 -0.1621  0.6608 -0.3944
 8984SOL    HW238415   2.859   2.421   3.547 -1.1813 -0.3348 -0.0226
 8985SOL     OW38416   4.476   3.092   5.882  0.0936 -0.1665 -0.2420
 8985SOL    HW138417   4.554   3.115   5.932  1.1349 -1.8834 -1.0740
 8985SOL    HW238418   4.422   3.167   5.906  0.3397 -0.3546  0.9413
 8986SOL     OW38419   3.139   4.275  17.487  0.1758 -0.6057 -1.0256
 8986SOL    HW138420   3.107   4.346  17.431  1.1462  0.0745 -0.7038
 8986SOL    HW238421   3.216   4.254  17.434  1.3467  0.0115  0.4455
 8987SOL     OW38422   1.855   3.100   5.339  0.4195  0.3412  0.3341
 8987SOL    HW138423   1.832   3.007   5.350  0.5483  0.1786 -0.7400
 8987SOL    HW238424   1.866   3.112   5.245 -1.7838  1.2320  0.1821
 8988SOL     OW38425   3.307   3.902   1.841 -0.3820  0.1256 -0.4936
 8988SOL    HW138426   3.246   3.949   1.898 -0.2237  0.1007 -0.3016
 8988SOL    HW238427   3.246   3.863   1.779 -0.0158 -1.1122 -0.0675
 8989SOL     OW38428   0.361   3.895   8.564  0.0136 -0.6260  0.2157
 8989SOL    HW138429   0.430   3.959   8.548 -0.0016 -0.5459  0.4649
 8989SOL    HW238430   0.326   3.939   8.641 -0.0915  0.0858 -0.2389
 8990SOL     OW38431   0.620   1.508   6.876 -0.1023 -0.5818  0.5519
 8990SOL    HW138432   0.629   1.533   6.968 -0.1486 -1.7231  0.8687
 8990SOL    HW238433   0.595   1.417   6.888  2.7945 -1.6785 -1.8830
 8991SOL     OW38434   0.945   1.186  13.147  0.4952  0.2877 -0.3542
 8991SOL    HW138435   0.975   1.206  13.236  0.1985 -0.2533 -0.1309
 8991SOL    HW238436   1.011   1.127  13.109  0.7679  0.2691  0.1515
 8992SOL     OW38437   0.506   1.089   9.011 -0.3943  0.2998  0.0824
 8992SOL    HW138438   0.422   1.120   9.044 -1.0375  0.0540 -1.3298
 8992SOL    HW238439   0.491   1.000   9.040 -0.8403  0.5420  0.5987
 8993SOL     OW38440   0.510   2.879   3.594 -0.0325  0.2628  0.1192
 8993SOL    HW138441   0.568   2.835   3.656 -0.7678  2.9198  2.6944
 8993SOL    HW238442   0.487   2.950   3.654  2.3476  3.0651 -2.2949
 8994SOL     OW38443   3.749   2.864   8.514 -0.1764 -0.0331 -0.2375
 8994SOL    HW138444   3.662   2.855   8.475 -1.0210 -2.2572  2.1552
 8994SOL    HW238445   3.743   2.958   8.532  0.6314 -0.5119  2.6384
 8995SOL     OW38446   1.321   0.131   8.187 -0.1211 -0.4619 -0.0412
 8995SOL    HW138447   1.250   0.142   8.250 -0.1320  0.6140 -0.2418
 8995SOL    HW238448   1.400   0.163   8.231  0.2721  0.1298 -1.1883
 8996SOL     OW38449   4.020   1.575   2.143  0.5026 -0.9239  0.7347
 8996SOL    HW138450   4.057   1.549   2.059  1.1262  1.5055  0.2668
 8996SOL    HW238451   4.097   1.613   2.185  0.5830  1.8041 -1.9189
 8997SOL     OW38452   3.663   3.265   0.094  0.3196  0.2135 -0.1498
 8997SOL    HW138453   3.635   3.288   0.006 -1.5846 -1.2736  0.0669
 8997SOL    HW238454   3.756   3.260   0.073  0.4934  1.9991  0.1638
 8998SOL     OW38455   3.375   1.371  13.705 -0.1179  0.3785 -0.1509
 8998SOL    HW138456   3.409   1.446  13.657  1.2959  0.8157  1.5215
 8998SOL    HW238457   3.291   1.356  13.662  0.5954  1.0789 -1.7859
 8999SOL     OW38458   3.568   3.736   6.544  0.0561  0.0847  0.1603
 8999SOL    HW138459   3.491   3.770   6.499 -0.2242  0.0196  0.5849
 8999SOL    HW238460   3.572   3.797   6.618  2.5629  0.7203 -0.5021
 9000SOL     OW38461   4.330   4.693   6.971  0.1690  0.0718  0.5541
 9000SOL    HW138462   4.236   4.677   6.975  0.1109 -0.0425 -1.1160
 9000SOL    HW238463   4.343   0.034   6.903  2.8269 -1.1739 -0.1359
 9001SOL     OW38464   0.705   1.093  10.808 -0.6590  0.4810 -0.1691
 9001SOL    HW138465   0.661   1.114  10.725 -2.9227 -1.6284  0.4730
 9001SOL    HW238466   0.776   1.156  10.805  0.1257 -0.3264  1.7809
 9002SOL     OW38467   2.182   1.101   1.603 -0.3598  0.4974 -0.1772
 9002SOL    HW138468   2.224   1.060   1.528 -0.9665  0.3342 -0.4279
 9002SOL    HW238469   2.191   1.196   1.598  2.2486  0.2183 -0.5751
 9003SOL     OW38470   1.621   2.267   4.446  0.0272 -0.5683 -0.1024
 9003SOL    HW138471   1.705   2.245   4.406  1.0046  0.5625  1.3649
 9003SOL    HW238472   1.655   2.276   4.535 -2.1672 -0.3889  0.7123
 9004SOL     OW38473   1.399   0.404   9.495  0.4479 -0.0204  0.2437
 9004SOL    HW138474   1.478   0.433   9.448 -0.2564  0.0734 -0.8849
 9004SOL    HW238475   1.406   0.424   9.588 -1.1642 -0.2696  0.4160
 9005SOL     OW38476   2.889   3.791   6.614 -0.2050 -0.1360 -0.2879
 9005SOL    HW138477   2.974   3.778   6.656  0.1512 -0.2696 -1.0578
 9005SOL    HW238478   2.900   3.739   6.534  1.0248  2.5327 -1.8723
 9006SOL     OW38479   1.491   1.005  11.463  0.2583  0.5907 -0.3330
 9006SOL    HW138480   1.482   1.081  11.520 -1.5825 -0.1737  0.3943
 9006SOL    HW238481   1.583   0.988  11.482  0.0834  0.5255  0.4594
 9007SOL     OW38482   3.903   2.512  16.681 -0.2341  0.1702 -0.6725
 9007SOL    HW138483   3.924   2.462  16.602  1.0022 -0.2401 -0.0904
 9007SOL    HW238484   3.902   2.445  16.749  0.5428  0.8158 -0.0273
 9008SOL     OW38485   2.381   3.512   7.861  0.0355 -0.1637 -0.1491
 9008SOL    HW138486   2.351   3.421   7.852  3.3263 -1.2194 -0.5473
 9008SOL    HW238487   2.305   3.555   7.821 -0.9128  0.4032  2.2371
 9009SOL     OW38488   3.843   0.166   8.161  0.5255  0.0594  0.1533
 9009SOL    HW138489   3.803   0.083   8.185 -3.8371  2.8454  2.3892
 9009SOL    HW238490   3.918   0.137   8.108  0.1601  0.2371 -0.4621
 9010SOL     OW38491   4.271   2.475   6.636 -0.0783  0.1083 -0.5568
 9010SOL    HW138492   4.335   2.546   6.641  0.1872 -0.0257 -2.1887
 9010SOL    HW238493   4.280   2.428   6.720  0.9659 -0.7414 -1.1441
 9011SOL     OW38494   3.241   3.131   0.632  0.1371  0.0484  0.1803
 9011SOL    HW138495   3.278   3.217   0.651 -0.9443  0.7463 -0.8596
 9011SOL    HW238496   3.203   3.109   0.717  2.3752  0.5453  1.3052
 9012SOL     OW38497   2.028   0.866   7.984 -0.5857  0.0337 -0.0188
 9012SOL    HW138498   2.033   0.836   8.075 -0.3025  0.5748  0.1424
 9012SOL    HW238499   2.100   0.815   7.949  0.0625 -0.0576  1.4385
 9013SOL     OW38500   0.382   1.558   5.209 -0.2237 -0.1520  0.2763
 9013SOL    HW138501   0.477   1.553   5.212 -0.2983 -1.9879 -0.4080
 9013SOL    HW238502   0.351   1.590   5.294 -1.5489  1.3506 -0.7587
 9014SOL     OW38503   3.524   4.344   2.705  0.0464 -0.4881  0.3553
 9014SOL    HW138504   3.541   4.370   2.614  1.0370  0.3807  0.7925
 9014SOL    HW238505   3.445   4.393   2.727 -0.4575 -0.8760 -0.5950
 9015SOL     OW38506   2.687   3.841   8.661  0.1630  0.3524 -0.4393
 9015SOL    HW138507   2.596   3.860   8.682  0.0134  0.0721 -0.8448
 9015SOL    HW238508   2.705   3.906   8.593 -2.4964 -0.2101 -1.6869
 9016SOL     OW38509   2.460   2.402  10.472 -0.2722  0.1058 -0.0660
 9016SOL    HW138510   2.392   2.469  10.473 -1.1458 -0.8095  1.5823
 9016SOL    HW238511   2.439   2.343  10.400 -0.2707  1.5399 -1.2404
 9017SOL     OW38512   1.918   3.399   5.279 -0.0151  0.1600  0.4423
 9017SOL    HW138513   1.886   3.318   5.238 -1.5002  0.5977  0.7153
 9017SOL    HW238514   1.992   3.417   5.222 -0.3849  0.6326  0.1037
 9018SOL     OW38515   1.032   1.475  14.661 -0.0948  0.2299 -0.2616
 9018SOL    HW138516   0.981   1.531  14.603 -2.1904 -1.4797 -0.0831
 9018SOL    HW238517   1.079   1.426  14.593 -0.4304  1.2059 -1.1876
 9019SOL     OW38518   4.116   1.483   8.160  0.0628  0.1808  0.0407
 9019SOL    HW138519   4.108   1.489   8.065  1.6077 -0.8885 -0.1563
 9019SOL    HW238520   4.109   1.388   8.164  0.1903  0.1494 -0.4344
 9020SOL     OW38521   3.397   3.621  15.700  0.2616  0.4056  0.0011
 9020SOL    HW138522   3.402   3.710  15.667  2.3270  0.2876  0.0153
 9020SOL    HW238523   3.464   3.581  15.646 -0.5542 -0.9774 -0.0026
 9021SOL     OW38524   3.530   4.388  14.598  0.0886  0.0358 -0.4806
 9021SOL    HW138525   3.605   4.430  14.556 -0.8728  0.8760 -1.3412
 9021SOL    HW238526   3.566   4.300  14.587  2.5519  1.3052 -2.6351
 9022SOL     OW38527   3.398   1.317  12.110  0.5647 -0.1292  0.2157
 9022SOL    HW138528   3.336   1.249  12.135 -0.3893  0.3279 -0.9398
 9022SOL    HW238529   3.418   1.340  12.201  2.2767  0.9932 -0.4503
 9023SOL     OW38530   0.809   0.566   5.351 -0.4176 -0.0527 -0.4832
 9023SOL    HW138531   0.860   0.622   5.410 -2.8186 -0.3718  1.9273
 9023SOL    HW238532   0.881   0.562   5.289  0.4949 -1.4396  0.6738
 9024SOL     OW38533   0.120   3.370  15.761  0.1912 -0.5265 -0.3796
 9024SOL    HW138534   0.132   3.277  15.739 -0.5903 -0.8638  0.6077
 9024SOL    HW238535   0.115   3.404  15.672  0.4920  3.9576  1.3173
 9025SOL     OW38536   0.339   1.530  15.825 -0.0921 -0.2130 -0.1328
 9025SOL    HW138537   0.359   1.469  15.754  0.6347  1.1069 -1.0761
 9025SOL    HW238538   0.364   1.492  15.909  2.0801  0.6205 -0.3996
 9026SOL     OW38539   2.512   2.377   0.818 -0.5912  0.1388 -0.1023
 9026SOL    HW138540   2.446   2.438   0.785 -1.1627 -0.7797 -0.6903
 9026SOL    HW238541   2.593   2.413   0.783 -1.0925  3.1080  1.7994
 9027SOL     OW38542   2.565   0.359  15.550 -0.0716  0.3869 -0.4443
 9027SOL    HW138543   2.626   0.398  15.613 -1.3757  0.3067  0.8492
 9027SOL    HW238544   2.625   0.308  15.495 -0.0793  1.8259 -1.8105
 9028SOL     OW38545   3.428   3.768   6.917  0.8685  0.8800 -0.1398
 9028SOL    HW138546   3.452   3.823   6.992 -0.1355 -0.0564  0.8701
 9028SOL    HW238547   3.495   3.793   6.854  1.9263 -0.0718  0.5973
 9029SOL     OW38548   2.348   0.180   2.530  1.0972 -0.2532 -0.0735
 9029SOL    HW138549   2.359   0.196   2.436 -1.2918  1.6450 -0.0215
 9029SOL    HW238550   2.430   0.214   2.565  0.2178  0.2608  1.4726
 9030SOL     OW38551   1.935   1.440   2.058  0.6457 -0.0266  0.2284
 9030SOL    HW138552   1.968   1.469   1.973 -0.1839 -2.9243 -1.0707
 9030SOL    HW238553   1.936   1.523   2.106 -0.7778 -0.7078  1.4420
 9031SOL     OW38554   4.091   0.604  10.603  0.2607 -0.1630  0.1847
 9031SOL    HW138555   4.078   0.511  10.622  1.3391 -0.3215  0.1431
 9031SOL    HW238556   4.095   0.601  10.508 -1.3961  2.0341  0.0385
 9032SOL     OW38557   3.488   1.271   3.075  0.3091  0.0621  0.5752
 9032SOL    HW138558   3.426   1.269   3.003 -0.4329  1.9642  1.1556
 9032SOL    HW238559   3.536   1.188   3.071  0.2746  0.0340  0.7301
 9033SOL     OW38560   1.753   3.781   0.934 -0.4311  0.1738 -0.6628
 9033SOL    HW138561   1.658   3.777   0.945 -0.2994 -0.5557  0.1727
 9033SOL    HW238562   1.780   3.800   1.023  0.8762 -1.4829 -0.6993
 9034SOL     OW38563   1.210   3.741   3.579 -0.2023  0.0329  0.2128
 9034SOL    HW138564   1.266   3.802   3.627  1.4973 -1.0199 -0.4430
 9034SOL    HW238565   1.266   3.727   3.503  0.4551  1.4202  0.4385
 9035SOL     OW38566   0.077   1.626   9.962 -0.3509  0.2993  0.6793
 9035SOL    HW138567   0.010   1.574  10.006 -0.8694 -0.2612 -0.7806
 9035SOL    HW238568   0.032   1.663   9.886  0.7080 -1.5615 -0.8358
 9036SOL     OW38569   1.508   1.476  14.934 -0.2694  0.1533  0.7247
 9036SOL    HW138570   1.571   1.419  14.890 -0.0070 -0.3791  1.7898
 9036SOL    HW238571   1.484   1.530  14.859 -0.4082 -2.1391 -0.8833
 9037SOL     OW38572   1.066   3.988  13.551  0.1535 -0.6095  0.9622
 9037SOL    HW138573   0.977   3.965  13.527  0.1902 -0.5829  0.8030
 9037SOL    HW238574   1.107   4.003  13.466  0.2910 -2.3554  0.7128
 9038SOL     OW38575   0.092   0.408   7.688  0.2752 -0.3144 -0.2246
 9038SOL    HW138576   0.169   0.419   7.744 -1.9483  0.5894  2.6714
 9038SOL    HW238577   0.032   0.358   7.744  3.0754 -2.4354  0.9102
 9039SOL     OW38578   3.505   2.109  12.901  0.1942  0.2087  0.4480
 9039SOL    HW138579   3.459   2.059  12.968 -0.7921  0.7430  0.1576
 9039SOL    HW238580   3.591   2.120  12.943  0.4593  0.5767 -0.1722
 9040SOL     OW38581   0.658   3.008  11.625 -0.4547 -0.3614 -0.5325
 9040SOL    HW138582   0.679   2.997  11.718 -1.2736  0.0084 -0.3055
 9040SOL    HW238583   0.674   2.923  11.583  0.3198 -1.0472  1.1432
 9041SOL     OW38584   0.400   1.421   2.705  0.6890 -0.3045 -0.2501
 9041SOL    HW138585   0.388   1.442   2.798 -2.4352  1.0970 -0.9600
 9041SOL    HW238586   0.394   1.326   2.716 -0.6500 -0.4040 -1.9285
 9042SOL     OW38587   2.166   1.263   2.052 -0.6498 -0.0660  0.1565
 9042SOL    HW138588   2.168   1.237   2.145 -2.6060 -0.7041  0.0181
 9042SOL    HW238589   2.078   1.298   2.048 -0.6991 -0.1881  0.1562
 9043SOL     OW38590   0.207   1.115   5.821  0.1208 -0.4615  0.2676
 9043SOL    HW138591   0.279   1.080   5.875  0.7412 -0.0895 -0.3142
 9043SOL    HW238592   0.218   1.054   5.748 -0.5588  1.3037 -1.2858
 9044SOL     OW38593   3.516   4.415  17.523 -1.1318  0.4352  0.7401
 9044SOL    HW138594   3.558   4.474  17.460 -0.3042 -0.4303  0.4829
 9044SOL    HW238595   3.544   4.437  17.612  0.4360 -0.8760  0.5780
 9045SOL     OW38596   4.243   2.016  15.661 -0.1443 -0.2883  0.8397
 9045SOL    HW138597   4.277   2.104  15.651 -2.2003  0.8169  3.5500
 9045SOL    HW238598   4.179   2.019  15.589 -0.1100  1.5404  0.8938
 9046SOL     OW38599   1.394   4.131  11.677  0.2324 -0.0111 -0.0820
 9046SOL    HW138600   1.417   4.152  11.767 -0.1053  2.0144 -0.4577
 9046SOL    HW238601   1.357   4.044  11.693 -1.2872  0.4997 -0.7456
 9047SOL     OW38602   1.623   0.896   8.602 -0.6554  0.5380 -0.3481
 9047SOL    HW138603   1.543   0.906   8.653 -0.5783 -0.3253 -0.0700
 9047SOL    HW238604   1.676   0.880   8.680 -0.8331  1.6784  0.0204
 9048SOL     OW38605   1.753   1.734  15.602 -0.3709  0.4727 -0.2160
 9048SOL    HW138606   1.743   1.830  15.603  0.1392  0.5473 -1.4797
 9048SOL    HW238607   1.718   1.707  15.686  2.1863  1.9165  1.3288
 9049SOL     OW38608   4.401   1.263   6.573 -0.3878 -0.1787  0.7778
 9049SOL    HW138609   4.368   1.175   6.557 -2.9370  1.0865 -0.9440
 9049SOL    HW238610   4.468   1.269   6.504  0.4127 -0.4749  1.5373
 9050SOL     OW38611   0.445   3.276  10.788 -0.1398  0.4481 -0.4723
 9050SOL    HW138612   0.526   3.236  10.818 -2.0520 -1.7727  1.7799
 9050SOL    HW238613   0.408   3.201  10.742  0.1831 -0.5338  0.8671
 9051SOL     OW38614   0.874   3.140   9.388 -0.4598  0.2379  0.0089
 9051SOL    HW138615   0.945   3.129   9.452 -1.4071  1.5474  1.2820
 9051SOL    HW238616   0.841   3.229   9.397  2.7882  1.2892  1.8942
 9052SOL     OW38617   1.230   0.630   6.477  0.6851  0.3912  0.2321
 9052SOL    HW138618   1.184   0.675   6.547 -0.3916 -0.6078  0.1705
 9052SOL    HW238619   1.194   0.542   6.488 -1.4078  1.0873 -1.0736
 9053SOL     OW38620   3.416   1.689   3.202 -0.1809 -0.0764 -0.5256
 9053SOL    HW138621   3.508   1.664   3.195 -1.2277 -3.4262 -2.6873
 9053SOL    HW238622   3.408   1.674   3.296  1.8650 -0.0733 -0.3536
 9054SOL     OW38623   1.054   4.534   6.236  0.2171  0.6686 -0.0987
 9054SOL    HW138624   1.125   4.512   6.175  1.0245  1.0269  0.7217
 9054SOL    HW238625   1.090   4.503   6.318 -0.3250 -2.5586 -1.0511
 9055SOL     OW38626   1.593   3.109   3.935  0.6142 -0.1484 -0.3044
 9055SOL    HW138627   1.518   3.129   3.880 -1.8542 -2.4403  2.2438
 9055SOL    HW238628   1.635   3.195   3.945 -0.0271  0.1426 -0.0900
 9056SOL     OW38629   4.474   4.131  12.304 -0.0211  0.5008 -0.2220
 9056SOL    HW138630   4.420   4.179  12.367 -2.1558 -1.1249 -0.8365
 9056SOL    HW238631   4.410   4.104  12.238 -0.2912  0.3107  0.1192
 9057SOL     OW38632   3.849   0.278   9.724  0.2574 -0.0336  0.2265
 9057SOL    HW138633   3.804   0.210   9.674  0.9719 -0.7676  0.5655
 9057SOL    HW238634   3.939   0.271   9.691 -0.2704  0.0342 -1.2527
 9058SOL     OW38635   3.520   1.736  10.096  0.1946 -0.0051  0.6180
 9058SOL    HW138636   3.546   1.697  10.012  1.3907 -1.2898  1.5807
 9058SOL    HW238637   3.425   1.734  10.092  0.3229 -3.1112 -0.7269
 9059SOL     OW38638   1.802   4.682   3.615  0.2415 -0.1669 -0.3412
 9059SOL    HW138639   1.720   4.677   3.566 -1.0709 -1.4446  1.9652
 9059SOL    HW238640   1.845   0.040   3.595  2.1249 -1.0418  0.0976
 9060SOL     OW38641   1.351   0.834  13.344 -0.2347 -0.5911  0.1158
 9060SOL    HW138642   1.328   0.923  13.320  2.4121  0.4006  1.2866
 9060SOL    HW238643   1.337   0.795  13.257  1.5822  0.5005 -0.6569
 9061SOL     OW38644   1.725   3.584   9.388 -0.6945 -0.0176 -0.0025
 9061SOL    HW138645   1.645   3.545   9.424 -0.9482 -0.2232 -0.7848
 9061SOL    HW238646   1.781   3.566   9.464 -0.4523 -0.3861 -0.2684
 9062SOL     OW38647   4.644   0.818   5.642  0.0540  0.1932  0.3036
 9062SOL    HW138648   4.555   0.849   5.658 -1.4828 -3.7774 -0.4215
 9062SOL    HW238649   4.666   0.865   5.562 -2.2591 -1.2570 -1.1697
 9063SOL     OW38650   2.474   0.539   6.995 -0.9099 -0.1584 -0.3516
 9063SOL    HW138651   2.538   0.593   7.042 -0.5705 -1.1712  0.3786
 9063SOL    HW238652   2.513   0.455   7.023 -1.4898 -0.6039 -0.8996
 9064SOL     OW38653   3.530   2.050   2.745  0.2468 -0.2638  0.8464
 9064SOL    HW138654   3.519   2.118   2.678 -0.2250 -0.1507  1.0320
 9064SOL    HW238655   3.474   2.078   2.818 -0.1247  0.6951  0.2028
 9065SOL     OW38656   3.931   3.472   3.590 -0.0433  0.3354 -0.5404
 9065SOL    HW138657   3.873   3.537   3.630  3.0038  2.8655 -0.2550
 9065SOL    HW238658   4.006   3.521   3.557  0.9552 -1.1678 -0.5170
 9066SOL     OW38659   1.595   2.118   6.606  0.0105 -0.0394  0.2261
 9066SOL    HW138660   1.502   2.102   6.621 -0.3262  2.2340  0.6741
 9066SOL    HW238661   1.628   2.028   6.612  1.6220  0.5152 -0.1085
 9067SOL     OW38662   3.652   0.977   8.343  0.2670  0.3246 -0.2688
 9067SOL    HW138663   3.654   0.896   8.293  0.3061 -1.1991  2.1979
 9067SOL    HW238664   3.722   0.972   8.408  1.1233 -1.2814 -1.3408
 9068SOL     OW38665   1.272   2.950   2.828 -0.7800  0.6101  0.1047
 9068SOL    HW138666   1.366   2.935   2.813 -0.8672 -1.3159  1.5151
 9068SOL    HW238667   1.274   2.944   2.924  1.0346 -0.4377  0.0138
 9069SOL     OW38668   0.946   1.543  11.145 -0.0506  0.4165  0.2958
 9069SOL    HW138669   1.026   1.547  11.092 -0.9886 -0.3273 -1.1720
 9069SOL    HW238670   0.898   1.478  11.094  0.2369  1.1133 -0.8728
 9070SOL     OW38671   3.550   0.368   2.149 -0.7936  0.4286 -0.0593
 9070SOL    HW138672   3.491   0.372   2.073 -3.1037 -1.9123  1.6327
 9070SOL    HW238673   3.510   0.298   2.200  0.4451 -0.8611 -0.8645
 9071SOL     OW38674   1.915   1.703  10.910  0.0778 -0.1068  0.4912
 9071SOL    HW138675   2.001   1.737  10.937  0.9212 -1.4838 -0.5257
 9071SOL    HW238676   1.900   1.729  10.819  2.0996  1.1245  0.5052
 9072SOL     OW38677   0.746   3.597  15.634 -0.3738 -0.2383 -0.1117
 9072SOL    HW138678   0.757   3.647  15.554  0.9366 -0.3902 -0.0405
 9072SOL    HW238679   0.756   3.667  15.699  3.1613  0.2965 -1.2125
 9073SOL     OW38680   3.457   3.553  13.196  0.0493 -0.1385  0.3919
 9073SOL    HW138681   3.368   3.564  13.230 -0.3556 -0.7805 -0.4658
 9073SOL    HW238682   3.502   3.498  13.259  0.7899  2.4720  2.1471
 9074SOL     OW38683   1.833   1.753  13.906 -0.0426 -0.5364 -0.0859
 9074SOL    HW138684   1.764   1.818  13.913  0.6793  0.2032  0.1421
 9074SOL    HW238685   1.907   1.812  13.889 -0.7040  0.3694  0.2453
 9075SOL     OW38686   4.127   1.899   8.987  0.1734  0.2236 -0.1845
 9075SOL    HW138687   4.156   1.910   8.896  0.1555  2.2619  0.0570
 9075SOL    HW238688   4.073   1.977   8.998 -2.5238 -1.7956  0.7266
 9076SOL     OW38689   3.493   1.452   2.398 -0.3880  0.5609 -0.4277
 9076SOL    HW138690   3.400   1.469   2.385 -0.5111 -0.8933 -1.4778
 9076SOL    HW238691   3.498   1.451   2.494  2.0168 -0.1733 -0.5732
 9077SOL     OW38692   2.573   0.143   8.577  0.7701 -0.3101  0.5707
 9077SOL    HW138693   2.635   0.210   8.607  0.0907  0.0843  1.0780
 9077SOL    HW238694   2.606   0.070   8.630 -2.1117 -1.8106  0.2757
 9078SOL     OW38695   3.259   1.972   5.475 -0.1259 -0.0955  0.0303
 9078SOL    HW138696   3.322   1.946   5.542  1.2624  2.1170 -0.4255
 9078SOL    HW238697   3.187   1.922   5.514  1.1728 -2.3622 -0.4440
 9079SOL     OW38698   0.626   3.257   4.631  0.5899  0.2376  0.6754
 9079SOL    HW138699   0.710   3.302   4.625  0.3601  0.6476  0.5244
 9079SOL    HW238700   0.610   3.229   4.541  0.7948 -0.1769  0.7657
 9080SOL     OW38701   3.958   1.643   3.927 -0.0168 -0.1362  0.4418
 9080SOL    HW138702   3.964   1.604   4.014  0.4711  0.1271  0.5306
 9080SOL    HW238703   4.052   1.664   3.926  0.2071 -1.1712  0.1305
 9081SOL     OW38704   4.302   2.216   8.051 -0.1860 -0.2055 -0.3507
 9081SOL    HW138705   4.269   2.146   8.107  2.6359 -1.5545 -0.3389
 9081SOL    HW238706   4.392   2.185   8.049 -1.0910 -2.9492  3.5748
 9082SOL     OW38707   0.288   0.430   1.356  0.0922 -0.2835 -0.0975
 9082SOL    HW138708   0.253   0.365   1.295 -0.0803  0.2757 -0.5970
 9082SOL    HW238709   0.211   0.463   1.403  1.0312 -1.6070  2.4011
 9083SOL     OW38710   4.020   3.868  10.137 -0.4106  0.5092  0.3612
 9083SOL    HW138711   4.039   3.919  10.059  0.3761 -1.0931 -0.5046
 9083SOL    HW238712   3.982   3.940  10.186  2.9014  1.5830  1.3145
 9084SOL     OW38713   3.137   1.513   0.767  0.2805 -0.0694 -0.0977
 9084SOL    HW138714   3.184   1.583   0.721  0.1462  1.8612  2.7157
 9084SOL    HW238715   3.063   1.559   0.805 -1.1618  0.0799 -3.0524
 9085SOL     OW38716   0.635   0.779   7.664 -0.5993  0.3351 -0.4327
 9085SOL    HW138717   0.545   0.785   7.697  0.9411  0.0429  3.7003
 9085SOL    HW238718   0.685   0.816   7.736 -1.1458  0.8522 -0.3231
 9086SOL     OW38719   0.901   4.136   9.316  0.0370 -1.0874 -0.2341
 9086SOL    HW138720   0.840   4.185   9.261  0.1732 -4.0824 -3.0512
 9086SOL    HW238721   0.876   4.043   9.313 -0.2360 -0.8798 -3.9950
 9087SOL     OW38722   4.389   1.035   9.897  0.0746 -0.6248  0.0262
 9087SOL    HW138723   4.330   0.964   9.921 -1.5070  0.5567 -0.3563
 9087SOL    HW238724   4.421   1.004   9.812 -0.4203 -1.6815  0.2276
 9088SOL     OW38725   2.817   2.886   4.003 -0.5052  0.1811 -0.1848
 9088SOL    HW138726   2.829   2.853   3.913 -0.4607 -0.8314  0.1868
 9088SOL    HW238727   2.906   2.882   4.036 -0.0924 -1.3091 -1.4333
 9089SOL     OW38728   1.232   2.433   1.221 -0.1454  0.2054 -0.6465
 9089SOL    HW138729   1.325   2.426   1.245 -0.2936  0.4008 -0.0109
 9089SOL    HW238730   1.196   2.382   1.294  0.9691 -0.1870 -0.3727
 9090SOL     OW38731   1.897   0.305   7.479  0.3995 -0.8255 -0.2226
 9090SOL    HW138732   1.917   0.342   7.393  1.0828 -2.1156 -0.6232
 9090SOL    HW238733   1.946   0.361   7.539  0.9582 -1.4971 -0.0516
 9091SOL     OW38734   4.349   3.157  10.258 -0.1326 -0.0888 -0.0188
 9091SOL    HW138735   4.394   3.137  10.176 -1.1122 -2.5381  0.0369
 9091SOL    HW238736   4.368   3.075  10.304 -2.2438 -0.2370  0.5869
 9092SOL     OW38737   2.489   0.803   5.334 -0.0826 -0.0001  0.8574
 9092SOL    HW138738   2.579   0.771   5.340 -0.0152 -0.0103 -0.2236
 9092SOL    HW238739   2.440   0.730   5.297 -1.3964  1.8531 -1.0833
 9093SOL     OW38740   3.855   1.017   6.831 -0.2769  0.5675 -0.5938
 9093SOL    HW138741   3.857   1.067   6.749  2.6107  1.0541 -0.2316
 9093SOL    HW238742   3.879   1.092   6.886  0.9791  0.4442 -0.9715
 9094SOL     OW38743   3.269   0.715   1.082  0.0177 -0.2253 -0.0478
 9094SOL    HW138744   3.259   0.800   1.125  0.5431  0.4350 -1.2503
 9094SOL    HW238745   3.240   0.724   0.991 -0.4965 -2.3298 -0.1082
 9095SOL     OW38746   1.987   1.200   2.712  0.2048 -0.1308  0.5008
 9095SOL    HW138747   1.992   1.127   2.774 -0.2538 -0.9391 -0.4105
 9095SOL    HW238748   1.976   1.153   2.629  0.6414  0.7772 -0.0747
 9096SOL     OW38749   0.200   1.611   5.025  0.5936  0.2859 -0.7158
 9096SOL    HW138750   0.264   1.593   5.093 -1.0680  1.5150  1.1583
 9096SOL    HW238751   0.140   1.658   5.082 -3.1138 -1.1400 -3.4133
 9097SOL     OW38752   3.075   2.340   7.784 -0.2893  0.6994  0.1156
 9097SOL    HW138753   3.058   2.410   7.720  0.6961  0.6531 -0.2006
 9097SOL    HW238754   3.146   2.291   7.743  0.7025  1.2563  1.1933
 9098SOL     OW38755   0.997   0.722  10.183 -0.4606 -0.3187 -0.5060
 9098SOL    HW138756   1.056   0.649  10.163 -0.6425 -0.7050  0.3819
 9098SOL    HW238757   0.972   0.743  10.093  0.6385  1.6866 -0.3499
 9099SOL     OW38758   2.894   2.886  15.232  0.5715  0.5121  0.5501
 9099SOL    HW138759   2.806   2.848  15.230  0.3417  0.9800  1.5185
 9099SOL    HW238760   2.914   2.916  15.321 -1.5359  2.1740  0.4711
 9100SOL     OW38761   4.320   1.552   1.289 -0.5485  0.1196 -0.6272
 9100SOL    HW138762   4.378   1.495   1.339 -3.6945 -0.3396  2.4621
 9100SOL    HW238763   4.356   1.637   1.314  1.2493 -0.5171 -1.0418
 9101SOL     OW38764   2.434   3.167   5.646 -0.4897  0.6000  0.2710
 9101SOL    HW138765   2.404   3.097   5.703  1.4000 -0.5932 -0.2076
 9101SOL    HW238766   2.451   3.229   5.717  2.4126  0.8535 -0.6279
 9102SOL     OW38767   0.876   1.427  10.412  0.2027  0.0102 -0.3542
 9102SOL    HW138768   0.887   1.490  10.483  1.7302 -0.5729 -0.0773
 9102SOL    HW238769   0.902   1.470  10.331 -3.2058  0.2949 -1.3060
 9103SOL     OW38770   2.634   0.740  14.578 -0.1019  0.0371  0.2895
 9103SOL    HW138771   2.584   0.683  14.637 -0.8963 -0.5915 -0.9841
 9103SOL    HW238772   2.599   0.826  14.601  0.5239  0.0335  1.2401
 9104SOL     OW38773   1.861   3.754   8.027 -0.2915  0.0186 -0.1410
 9104SOL    HW138774   1.883   3.666   7.997  1.6405 -0.1596  1.7744
 9104SOL    HW238775   1.854   3.727   8.119 -0.1602  0.1883 -0.0812
 9105SOL     OW38776   3.194   2.476  16.051  0.0993 -0.4751  0.4128
 9105SOL    HW138777   3.225   2.565  16.033 -0.6517 -0.5823 -1.4041
 9105SOL    HW238778   3.215   2.462  16.143  2.1285  0.7000  0.1265
 9106SOL     OW38779   3.869   1.375   9.681  0.7145 -0.4229 -0.0616
 9106SOL    HW138780   3.866   1.428   9.761  1.2050 -1.1161  0.4222
 9106SOL    HW238781   3.785   1.330   9.692  0.3449 -0.4379 -2.8907
 9107SOL     OW38782   0.570   1.085   8.354  0.1363 -0.4341 -0.0880
 9107SOL    HW138783   0.609   1.041   8.429  1.0937 -0.5765 -0.6601
 9107SOL    HW238784   0.480   1.093   8.384  0.4236  2.3556  0.0178
 9108SOL     OW38785   4.701   3.018   2.982  0.2826  0.0369 -0.1876
 9108SOL    HW138786   0.060   3.031   2.938  0.3792 -0.7425 -0.2335
 9108SOL    HW238787   4.702   2.927   3.009 -2.3936  0.2637  0.7502
 9109SOL     OW38788   3.726   0.456   4.728 -0.0219  0.0295 -0.1879
 9109SOL    HW138789   3.732   0.506   4.810 -2.9836  2.0532 -1.1749
 9109SOL    HW238790   3.772   0.507   4.661 -2.1936  1.1266 -0.8793
 9110SOL     OW38791   0.079   4.383   4.524  0.0206  0.7452 -0.0083
 9110SOL    HW138792   4.708   4.387   4.525  0.0366 -0.1298  2.3433
 9110SOL    HW238793   0.097   4.377   4.430  2.1590 -2.7024  0.6531
 9111SOL     OW38794   2.408   0.892  10.777  0.4738  0.2321  0.5489
 9111SOL    HW138795   2.363   0.819  10.736  0.5726  0.6463 -0.2892
 9111SOL    HW238796   2.388   0.866  10.867  1.9626  2.5047  1.5313
 9112SOL     OW38797   1.846   2.678  11.832  0.0024  0.3599  0.2677
 9112SOL    HW138798   1.812   2.724  11.908  0.9788  3.4464 -1.1616
 9112SOL    HW238799   1.815   2.734  11.761 -3.7122 -2.0619  0.0226
 9113SOL     OW38800   2.562   0.865   6.979 -0.3403 -0.5650 -0.1260
 9113SOL    HW138801   2.563   0.953   6.940 -0.1125 -0.0821  0.9559
 9113SOL    HW238802   2.646   0.827   6.953  0.0406 -0.3890  0.8750
 9114SOL     OW38803   2.788   1.660   5.283 -0.2256 -0.9815  0.2365
 9114SOL    HW138804   2.778   1.628   5.193  1.2238 -0.8164  0.0021
 9114SOL    HW238805   2.706   1.707   5.297 -0.3119 -0.6500 -1.3837
 9115SOL     OW38806   4.485   1.751   8.645 -0.0857  0.1088  0.0238
 9115SOL    HW138807   4.452   1.841   8.633 -0.9184 -0.0267  1.2309
 9115SOL    HW238808   4.551   1.754   8.576 -1.2861 -3.3087 -1.2769
 9116SOL     OW38809   3.597   2.904  12.895 -0.9457  0.4635  0.2785
 9116SOL    HW138810   3.597   2.891  12.800  1.2283 -1.4682  0.5492
 9116SOL    HW238811   3.656   2.979  12.905  0.4735 -0.7678  1.0938
 9117SOL     OW38812   2.817   0.578   8.717  0.3249 -0.1588 -0.3359
 9117SOL    HW138813   2.819   0.658   8.769  0.7172 -0.6429  0.3958
 9117SOL    HW238814   2.909   0.570   8.690  0.5698  0.7198  0.2241
 9118SOL     OW38815   3.372   0.881   6.250 -0.8324 -0.1289 -0.5374
 9118SOL    HW138816   3.359   0.914   6.161  0.5443  2.9858  0.3939
 9118SOL    HW238817   3.336   0.793   6.243 -1.5016  0.1900 -1.0674
 9119SOL     OW38818   4.606   3.263   4.426  0.0306 -0.2128  0.4451
 9119SOL    HW138819   4.659   3.298   4.354 -0.2835 -1.3066 -0.3106
 9119SOL    HW238820   4.667   3.290   4.494 -0.6710 -1.1754  1.4572
 9120SOL     OW38821   2.080   2.267  11.448 -0.5174 -0.1742 -0.0718
 9120SOL    HW138822   1.985   2.258  11.455 -0.4144  0.1218  1.8511
 9120SOL    HW238823   2.102   2.273  11.541 -0.5394  2.6736 -0.2618
 9121SOL     OW38824   4.053   0.513   4.837  0.1410 -0.4175  0.4952
 9121SOL    HW138825   4.073   0.425   4.869 -0.8690 -0.4557  1.0508
 9121SOL    HW238826   4.066   0.494   4.744 -0.4612 -2.1845  0.7569
 9122SOL     OW38827   3.935   4.139   6.146 -0.2854  0.1593 -0.5348
 9122SOL    HW138828   3.918   4.092   6.065 -2.1705 -2.1605  1.1825
 9122SOL    HW238829   3.881   4.090   6.209  2.0255 -1.2269  0.3517
 9123SOL     OW38830   4.604   1.109   5.419  0.3591  0.3765  0.5115
 9123SOL    HW138831   4.665   1.037   5.402 -0.1551 -0.2781  1.4132
 9123SOL    HW238832   4.556   1.106   5.336  1.1308 -3.0407  0.1622
 9124SOL     OW38833   1.454   0.667   5.800  0.5189 -0.0900 -0.3561
 9124SOL    HW138834   1.408   0.584   5.818 -0.7323  1.4976  3.8911
 9124SOL    HW238835   1.432   0.712   5.882 -1.6372 -1.3731 -0.1958
 9125SOL     OW38836   1.359   2.870  16.774 -0.4500 -0.3794  0.0751
 9125SOL    HW138837   1.275   2.844  16.811 -0.2925  0.8358  1.2738
 9125SOL    HW238838   1.407   2.888  16.855 -1.9732 -0.3641  0.9617
 9126SOL     OW38839   4.606   1.265  15.617 -0.1437 -0.0317 -0.2041
 9126SOL    HW138840   4.651   1.294  15.537 -0.0020 -2.3279 -0.9619
 9126SOL    HW238841   4.647   1.321  15.683  0.7819  1.5727 -2.1535
 9127SOL     OW38842   1.575   2.392  13.444  0.1322  0.0345 -0.5496
 9127SOL    HW138843   1.642   2.358  13.503 -0.2416 -2.4407 -1.5370
 9127SOL    HW238844   1.542   2.306  13.419 -0.0770 -0.3245  0.9260
 9128SOL     OW38845   1.383   1.949   2.940  0.3960  0.3044  0.1314
 9128SOL    HW138846   1.417   1.862   2.921 -0.6116  0.0074 -0.2618
 9128SOL    HW238847   1.413   1.995   2.861 -3.5290  1.5831 -0.5895
 9129SOL     OW38848   3.654   1.369   7.433  0.0495 -0.1828  0.2566
 9129SOL    HW138849   3.735   1.418   7.449 -0.0042  0.0303 -0.1346
 9129SOL    HW238850   3.652   1.297   7.495 -0.3591  0.6083  1.1701
 9130SOL     OW38851   3.848   3.422   8.923 -0.2019  0.5279 -0.0889
 9130SOL    HW138852   3.811   3.464   8.846  1.5582  2.4387  0.0896
 9130SOL    HW238853   3.793   3.344   8.932 -0.6839  1.1632  2.5529
 9131SOL     OW38854   0.080   0.661   7.946  0.1299 -0.2737 -0.1130
 9131SOL    HW138855   0.098   0.746   7.904 -0.5983  0.1804  0.4981
 9131SOL    HW238856   0.166   0.624   7.927  1.0606  1.1173  1.3065
 9132SOL     OW38857   0.729   0.267   1.151  0.5781  0.0974  0.5784
 9132SOL    HW138858   0.665   0.311   1.208 -1.7730 -0.7015 -1.4256
 9132SOL    HW238859   0.786   0.339   1.125 -1.1735  0.6232 -1.7561
 9133SOL     OW38860   2.851   0.203   3.837 -0.0471 -0.1149 -0.4840
 9133SOL    HW138861   2.787   0.273   3.844  0.1579  0.1473 -1.2158
 9133SOL    HW238862   2.800   0.127   3.861 -2.6221  1.2370 -1.6883
 9134SOL     OW38863   4.552   4.022   5.974  0.4118 -0.1805  0.2724
 9134SOL    HW138864   4.530   4.104   6.017 -0.8031 -1.2925  1.7776
 9134SOL    HW238865   4.480   4.013   5.911 -0.9223 -0.5108  1.8619
 9135SOL     OW38866   2.697   0.693   4.862  0.0052  0.6202 -0.7668
 9135SOL    HW138867   2.690   0.755   4.790 -0.5736 -0.4194 -1.5986
 9135SOL    HW238868   2.635   0.622   4.843  0.3593 -0.9301  3.8453
 9136SOL     OW38869   4.347   2.910   7.992  0.0628 -0.0950 -0.0922
 9136SOL    HW138870   4.336   2.929   8.085  0.3954  0.0290 -0.0760
 9136SOL    HW238871   4.416   2.975   7.981  1.1080 -1.6165 -2.4533
 9137SOL     OW38872   4.520   4.110  14.725 -0.6641 -0.6265  0.1772
 9137SOL    HW138873   4.562   4.035  14.682  0.2247  0.0692 -0.1440
 9137SOL    HW238874   4.464   4.151  14.660  1.9577 -2.3134 -3.1301
 9138SOL     OW38875   0.095   2.114   0.669 -0.2283  0.8219  0.1094
 9138SOL    HW138876   0.033   2.047   0.641 -0.1582  2.0538 -2.9531
 9138SOL    HW238877   0.121   2.147   0.583 -2.6034  1.9416 -0.1994
 9139SOL     OW38878   1.466   4.143   2.618  0.0106  0.4094 -0.0853
 9139SOL    HW138879   1.519   4.146   2.539 -0.2318 -2.4915 -0.3570
 9139SOL    HW238880   1.434   4.233   2.619  0.3610  0.5311 -0.1227
 9140SOL     OW38881   0.924   0.189   7.529  0.0782 -0.1777  0.0885
 9140SOL    HW138882   0.932   0.232   7.444  1.2941  1.3267  0.9781
 9140SOL    HW238883   0.829   0.174   7.536 -0.0363  0.9114  0.9569
 9141SOL     OW38884   2.870   2.315   3.683  0.6840 -0.0333 -0.4784
 9141SOL    HW138885   2.910   2.229   3.696  2.0679  1.0383  2.4654
 9141SOL    HW238886   2.800   2.310   3.748  1.4127  2.9278  0.5435
 9142SOL     OW38887   1.943   2.519   7.829  0.2148  0.4329  0.1960
 9142SOL    HW138888   1.877   2.516   7.760  0.0453  1.7597  0.3074
 9142SOL    HW238889   2.015   2.475   7.784  0.9714  0.3936  1.4480
 9143SOL     OW38890   3.268   2.407   3.087 -0.2970  0.2353  0.4188
 9143SOL    HW138891   3.175   2.427   3.095 -0.4240 -1.5074  3.5091
 9143SOL    HW238892   3.293   2.449   3.005  0.3636 -0.3754  0.3001
 9144SOL     OW38893   0.636   1.929  10.862  0.1822 -0.4930  0.1232
 9144SOL    HW138894   0.656   1.986  10.937 -0.1601 -0.4619  0.1916
 9144SOL    HW238895   0.547   1.903  10.882  0.6705 -1.8509  0.5305
 9145SOL     OW38896   0.139   3.126   7.118 -0.0288  0.2285  0.3697
 9145SOL    HW138897   0.067   3.182   7.147  1.6225  2.2256  0.6896
 9145SOL    HW238898   0.125   3.126   7.024  0.7843 -0.2981  0.2509
 9146SOL     OW38899   3.801   0.248   7.091 -0.1334 -0.9570 -0.4929
 9146SOL    HW138900   3.754   0.181   7.042 -0.4450 -1.1228  0.0235
 9146SOL    HW238901   3.886   0.263   7.050  0.2168  0.2649  0.6745
 9147SOL     OW38902   0.244   1.957  11.007  0.3630  0.3733  0.1884
 9147SOL    HW138903   0.237   2.023  10.937  1.7081  1.0514  0.6890
 9147SOL    HW238904   0.223   2.011  11.083  2.2736 -2.8935  3.0195
 9148SOL     OW38905   3.520   4.522   7.526  0.2734  0.3156  0.0727
 9148SOL    HW138906   3.441   4.493   7.482  0.5473 -0.2358 -0.0450
 9148SOL    HW238907   3.544   4.593   7.466  0.2581  2.5225  2.6211
 9149SOL     OW38908   3.056   1.153  10.279 -0.3894 -0.3278  0.6211
 9149SOL    HW138909   2.994   1.111  10.338 -0.9555  1.8545  1.5445
 9149SOL    HW238910   3.011   1.211  10.217  0.5277 -2.1511 -1.7620
 9150SOL     OW38911   2.860   3.617   0.815  0.1245  0.1283  0.2474
 9150SOL    HW138912   2.932   3.622   0.877 -1.0784  0.5787  1.6035
 9150SOL    HW238913   2.835   3.524   0.822  0.7933 -0.1904 -1.4910
 9151SOL     OW38914   3.293   3.931   2.650 -0.5899  0.0599  0.3005
 9151SOL    HW138915   3.213   3.880   2.664 -0.1152  0.0515  3.1115
 9151SOL    HW238916   3.307   3.958   2.741  1.8364  0.8399 -0.3219
 9152SOL     OW38917   0.895   1.609   7.609 -0.4285 -0.1818  0.6380
 9152SOL    HW138918   0.940   1.525   7.619  2.3542  1.0332 -1.5148
 9152SOL    HW238919   0.959   1.670   7.647 -0.9243  1.0237 -0.4511
 9153SOL     OW38920   1.300   1.514  10.691 -0.2997 -0.4458 -0.1194
 9153SOL    HW138921   1.359   1.586  10.665 -1.6764  0.5405 -0.5061
 9153SOL    HW238922   1.250   1.508  10.610  0.5488 -1.6516 -0.5470
 9154SOL     OW38923   3.475   2.671   6.858  0.2041  0.1694  0.4653
 9154SOL    HW138924   3.533   2.666   6.935 -0.3228  0.5500  0.8888
 9154SOL    HW238925   3.538   2.705   6.795 -0.2340  0.3483  0.1231
 9155SOL     OW38926   4.550   3.833   6.162 -0.6348  0.0376  0.5020
 9155SOL    HW138927   4.590   3.881   6.090 -2.6559  0.2482 -0.4894
 9155SOL    HW238928   4.544   3.747   6.119  0.5811 -0.1247  0.6505
 9156SOL     OW38929   2.916   2.188   5.418  0.7208 -0.8207  0.4822
 9156SOL    HW138930   2.859   2.212   5.345 -0.0448 -0.2667  1.2538
 9156SOL    HW238931   2.910   2.093   5.406 -0.2167 -0.7141  0.0380
 9157SOL     OW38932   1.375   2.337   1.611 -0.5028  0.1995 -0.1797
 9157SOL    HW138933   1.370   2.426   1.577  1.9443  1.0076  1.5349
 9157SOL    HW238934   1.372   2.358   1.704 -2.4028 -1.1582  0.0672
 9158SOL     OW38935   2.440   3.043   4.448  0.0885  0.5394 -0.6756
 9158SOL    HW138936   2.469   3.129   4.418 -0.6118  1.6876  1.9270
 9158SOL    HW238937   2.370   3.012   4.390 -2.0459 -0.1225  2.2553
 9159SOL     OW38938   2.575   2.679  10.967 -0.3488  0.2079 -0.3449
 9159SOL    HW138939   2.666   2.709  10.975  0.1581 -1.7758  1.5873
 9159SOL    HW238940   2.577   2.664  10.873 -2.0785 -2.0617 -0.0145
 9160SOL     OW38941   2.101   0.636   3.289 -0.4297 -0.1354 -0.0694
 9160SOL    HW138942   2.169   0.574   3.262  0.6159  0.6932  0.6244
 9160SOL    HW238943   2.029   0.578   3.312  0.8489 -2.0917 -1.0067
 9161SOL     OW38944   0.475   2.005   6.719  0.0589  0.1529 -0.4908
 9161SOL    HW138945   0.544   2.071   6.724  0.3307 -0.2090  0.5453
 9161SOL    HW238946   0.397   2.057   6.738 -1.2291 -2.0307  0.1831
 9162SOL     OW38947   2.535   2.185   6.676  0.1571 -0.2636  0.3257
 9162SOL    HW138948   2.552   2.164   6.584 -0.8048  0.4192 -0.0032
 9162SOL    HW238949   2.594   2.124   6.720  0.9745 -0.5844 -1.1977
 9163SOL     OW38950   0.630   2.786   3.817  0.3795  0.0362 -0.0074
 9163SOL    HW138951   0.577   2.740   3.882 -0.4972 -0.7041 -1.2239
 9163SOL    HW238952   0.670   2.857   3.866  0.2755  0.8014 -1.0335
 9164SOL     OW38953   0.289   0.479   8.692 -0.2590  0.1608 -0.4394
 9164SOL    HW138954   0.274   0.385   8.706 -1.3378  0.8417  2.8353
 9164SOL    HW238955   0.337   0.512   8.768 -1.2143  2.4017 -0.8311
 9165SOL     OW38956   1.674   0.840  16.711  0.4364 -0.3716 -0.1279
 9165SOL    HW138957   1.627   0.756  16.707 -0.6081  0.1590  0.9910
 9165SOL    HW238958   1.754   0.807  16.670  0.4890  2.4214 -2.2365
 9166SOL     OW38959   3.130   3.157  17.414 -0.3534 -0.3841  0.2960
 9166SOL    HW138960   3.210   3.195  17.378 -1.0592  0.1836 -0.6764
 9166SOL    HW238961   3.148   3.158  17.508 -1.7363  0.4344  0.5632
 9167SOL     OW38962   0.176   0.407   6.192  0.3531 -0.0691  0.3029
 9167SOL    HW138963   0.133   0.489   6.169  2.2254  0.4531 -1.3007
 9167SOL    HW238964   0.254   0.412   6.136 -0.2135  2.0541 -0.2554
 9168SOL     OW38965   1.753   0.220   3.778  0.4407  0.5804 -0.4643
 9168SOL    HW138966   1.845   0.243   3.791  0.0087  2.9366 -1.6425
 9168SOL    HW238967   1.742   0.284   3.708 -1.0077  1.7688  0.8435
 9169SOL     OW38968   3.540   1.031   6.731  0.0855  0.1503  0.0247
 9169SOL    HW138969   3.555   0.997   6.819  1.7102  0.4291 -0.1430
 9169SOL    HW238970   3.593   0.975   6.675 -0.3791 -0.0886 -0.1715
 9170SOL     OW38971   1.806   2.848  13.721  0.4202 -0.2075  0.1941
 9170SOL    HW138972   1.734   2.785  13.716  0.0263  0.1189  1.5927
 9170SOL    HW238973   1.798   2.858  13.816 -2.0420 -1.5261  0.1328
 9171SOL     OW38974   3.275   4.279   3.112  0.3704  1.0619 -0.0648
 9171SOL    HW138975   3.260   4.369   3.082  0.8952  1.5258  1.0642
 9171SOL    HW238976   3.272   4.284   3.208  0.3776  0.8947 -0.0562
 9172SOL     OW38977   4.083   3.431  12.514 -0.1072  0.5829 -0.4326
 9172SOL    HW138978   4.127   3.447  12.431  0.4648 -0.7201 -0.3742
 9172SOL    HW238979   3.993   3.432  12.482  0.2549 -1.6293 -1.4648
 9173SOL     OW38980   2.436   1.161   3.362 -0.2470 -0.7576  0.4251
 9173SOL    HW138981   2.457   1.140   3.271 -1.3240  0.2273 -0.0547
 9173SOL    HW238982   2.476   1.247   3.371 -1.1557 -0.0575 -2.0016
 9174SOL     OW38983   2.500   4.021   5.002 -0.3145 -0.4322 -0.1882
 9174SOL    HW138984   2.546   4.015   4.918 -2.8200 -0.9433 -1.5297
 9174SOL    HW238985   2.559   4.084   5.043 -0.7894  0.5712 -1.0576
 9175SOL     OW38986   1.395   1.690   1.113 -0.1276  0.1638 -0.0700
 9175SOL    HW138987   1.376   1.598   1.096 -0.2299  0.0142  0.8362
 9175SOL    HW238988   1.364   1.701   1.203  1.9365  1.6841  0.4654
 9176SOL     OW38989   3.640   0.693   3.675 -0.6063 -0.4055  0.4591
 9176SOL    HW138990   3.621   0.773   3.626  0.5263 -1.2810 -1.4601
 9176SOL    HW238991   3.732   0.688   3.647 -0.7252 -2.7657  0.4905
 9177SOL     OW38992   3.720   3.138   3.180  0.5242  0.0653  0.3512
 9177SOL    HW138993   3.646   3.196   3.163 -1.7544 -2.4903  1.6806
 9177SOL    HW238994   3.688   3.122   3.269  1.6277 -0.5529  0.6367
 9178SOL     OW38995   0.422   0.960   4.642  0.0115  0.4970  0.2888
 9178SOL    HW138996   0.425   1.016   4.720  1.8932  0.1572  0.4416
 9178SOL    HW238997   0.515   0.948   4.626 -0.3997 -0.1675 -1.6415
 9179SOL     OW38998   1.788   4.690   6.394 -0.1090  0.2591  0.0405
 9179SOL    HW138999   1.698   4.705   6.424 -0.2958 -0.3907 -0.1880
 9179SOL    HW239000   1.832   4.707   6.477 -0.3586  2.5999 -0.3115
 9180SOL     OW39001   0.345   4.243  10.425 -0.0386 -0.8023 -0.1098
 9180SOL    HW139002   0.400   4.320  10.415 -2.8804  1.0129 -1.7417
 9180SOL    HW239003   0.263   4.292  10.423  0.7002  0.4083 -0.3875
 9181SOL     OW39004   0.748   2.000   7.584 -0.2816 -0.2983 -0.1931
 9181SOL    HW139005   0.667   2.012   7.632  0.2772  0.6289  0.5103
 9181SOL    HW239006   0.792   1.928   7.630  3.6745 -0.3304 -4.0065
 9182SOL     OW39007   1.082   2.410   6.810 -0.3751  0.6477  0.0259
 9182SOL    HW139008   1.174   2.394   6.789 -0.9963 -0.7597 -1.7140
 9182SOL    HW239009   1.080   2.505   6.811 -0.5715  0.6293  1.4178
 9183SOL     OW39010   0.909   1.095   4.217 -0.5072  0.0248  0.1597
 9183SOL    HW139011   0.994   1.138   4.206 -1.0877  0.5972 -2.1176
 9183SOL    HW239012   0.915   1.065   4.307 -0.3838 -0.5791 -0.0504
 9184SOL     OW39013   0.988   3.514  17.310 -0.7442 -0.7582 -0.3930
 9184SOL    HW139014   0.998   3.427  17.350  0.3962 -0.4691 -0.0328
 9184SOL    HW239015   0.945   3.568  17.377  1.5447 -0.0166  0.4994
 9185SOL     OW39016   4.704   1.595  10.266 -0.3839 -0.3883  0.8918
 9185SOL    HW139017   4.651   1.673  10.251 -2.8173 -2.3478 -0.6798
 9185SOL    HW239018   4.656   1.534  10.211  0.5817  0.3703 -0.8016
 9186SOL     OW39019   4.385   4.379   6.562  0.1420  0.2519 -0.4067
 9186SOL    HW139020   4.321   4.368   6.492 -0.6785 -2.7890  0.8179
 9186SOL    HW239021   4.394   4.474   6.568 -1.6326  0.4743 -1.3736
 9187SOL     OW39022   0.250   2.412   5.326  0.0792  0.0265  0.1646
 9187SOL    HW139023   0.157   2.431   5.313  0.3088  0.7232 -0.4425
 9187SOL    HW239024   0.269   2.337   5.270  0.4171 -0.9274  1.5683
 9188SOL     OW39025   0.840   1.391  16.800  0.0839 -0.3465 -0.1603
 9188SOL    HW139026   0.826   1.446  16.877 -1.6442  0.9436 -1.3861
 9188SOL    HW239027   0.828   1.453  16.728  1.6172 -1.1471 -1.1226
 9189SOL     OW39028   2.604   4.617   7.520  0.0946  0.2373  0.2721
 9189SOL    HW139029   2.685   4.633   7.567  0.3078 -0.7467  0.2254
 9189SOL    HW239030   2.584   4.707   7.492 -1.0274  0.2798  1.2167
 9190SOL     OW39031   2.804   2.532   2.599  0.8257  0.4735  0.4264
 9190SOL    HW139032   2.750   2.456   2.574  1.9312  0.4923 -2.0119
 9190SOL    HW239033   2.741   2.604   2.604  0.3488 -0.0346  1.5579
 9191SOL     OW39034   2.043   2.685   4.280  0.5556 -0.5295 -0.1074
 9191SOL    HW139035   1.996   2.608   4.247  0.0483 -0.7263  1.0780
 9191SOL    HW239036   2.075   2.651   4.364  1.6642  2.7084  0.7893
 9192SOL     OW39037   3.196   0.976   1.164 -0.2296 -0.2498 -0.6963
 9192SOL    HW139038   3.181   1.053   1.110 -1.7069  1.5453  2.2985
 9192SOL    HW239039   3.287   0.990   1.189 -0.1672 -1.7147 -0.0918
 9193SOL     OW39040   1.904   1.588   0.705  0.0892 -0.0179  0.1810
 9193SOL    HW139041   1.834   1.556   0.762  1.7073  0.5032  2.4865
 9193SOL    HW239042   1.858   1.634   0.635  2.1243 -1.8837 -2.3747
 9194SOL     OW39043   3.317   0.936   2.870  0.1226  0.0344  0.0257
 9194SOL    HW139044   3.403   0.904   2.841  0.2026 -0.4600  0.7991
 9194SOL    HW239045   3.265   0.915   2.793 -1.1292  1.3425  0.5093
 9195SOL     OW39046   0.934   1.602   7.994 -0.2261  0.1090 -0.0870
 9195SOL    HW139047   0.967   1.672   8.051 -2.9762  2.5132 -1.4527
 9195SOL    HW239048   0.972   1.629   7.910 -1.8874 -0.4715 -1.0268
 9196SOL     OW39049   0.465   2.626  14.240  0.6067  0.1684 -0.2099
 9196SOL    HW139050   0.515   2.550  14.271  0.7740 -0.6089 -2.4424
 9196SOL    HW239051   0.480   2.596  14.151  1.4839 -0.0350 -0.0043
 9197SOL     OW39052   2.570   2.899   6.429 -0.0008  0.1820 -0.0291
 9197SOL    HW139053   2.497   2.843   6.455  1.1511 -0.9185  0.8099
 9197SOL    HW239054   2.583   2.944   6.513  0.0740  1.4023 -0.7048
 9198SOL     OW39055   2.833   3.254   7.075  0.1209 -0.3868 -0.1187
 9198SOL    HW139056   2.808   3.296   6.992 -0.5976 -1.8409 -0.6330
 9198SOL    HW239057   2.747   3.220   7.101 -0.0253  0.9179  1.1340
 9199SOL     OW39058   1.054   1.018  11.268  0.5351  0.4843 -0.2370
 9199SOL    HW139059   1.025   1.064  11.190 -1.4951  1.4289  1.0749
 9199SOL    HW239060   1.093   0.943  11.223 -0.7268 -1.2338  1.5243
 9200SOL     OW39061   1.752   0.986  16.911 -0.1109  0.3719 -0.4445
 9200SOL    HW139062   1.711   0.946  16.834 -0.8471  1.1274 -0.4445
 9200SOL    HW239063   1.673   1.020  16.955  1.2036  1.0207  1.4090
 9201SOL     OW39064   4.202   1.104   7.221 -0.3275 -0.1218  0.3052
 9201SOL    HW139065   4.296   1.102   7.241 -0.3924  1.3723  0.7823
 9201SOL    HW239066   4.178   1.196   7.230 -1.2833 -0.3607  0.2190
 9202SOL     OW39067   2.270   3.545   5.744 -0.0688 -0.2840  0.1150
 9202SOL    HW139068   2.289   3.470   5.799  0.0515 -2.1261 -2.4383
 9202SOL    HW239069   2.190   3.521   5.697 -0.0460  2.7258 -1.5133
 9203SOL     OW39070   0.336   4.487  16.851 -0.2815  0.3460 -0.2712
 9203SOL    HW139071   0.352   4.580  16.866 -1.7067  0.4739  0.4113
 9203SOL    HW239072   0.370   4.448  16.931  0.7529 -1.5560 -1.6319
 9204SOL     OW39073   1.183   2.913  13.784  0.2093 -0.6168 -0.0152
 9204SOL    HW139074   1.118   2.907  13.854  1.6727 -2.1306  1.2139
 9204SOL    HW239075   1.147   2.994  13.749 -2.0812 -0.8365  1.8260
 9205SOL     OW39076   3.208   1.487   2.935  0.2764 -0.0041 -0.1295
 9205SOL    HW139077   3.290   1.532   2.915 -0.9720  1.4250 -1.9953
 9205SOL    HW239078   3.231   1.396   2.915 -1.8862 -0.7535  0.7576
 9206SOL     OW39079   0.076   1.624   3.720 -0.6601  0.5717 -0.5201
 9206SOL    HW139080   0.026   1.702   3.744 -0.5027  1.1061 -1.9439
 9206SOL    HW239081   0.033   1.551   3.766  2.9856 -0.8156  0.7766
 9207SOL     OW39082   2.259   4.637   5.548  0.2008 -0.3342 -0.2255
 9207SOL    HW139083   2.202   4.666   5.476  2.6274  1.7672 -1.3280
 9207SOL    HW239084   2.205   4.567   5.584  1.7088 -1.3920 -0.0154
 9208SOL     OW39085   1.824   3.249   9.399 -0.1407  0.0541 -0.0445
 9208SOL    HW139086   1.899   3.275   9.451 -0.5758  0.0608  0.5798
 9208SOL    HW239087   1.768   3.215   9.469  0.2506 -3.7122 -1.5827
 9209SOL     OW39088   0.709   0.354   8.759 -0.1943 -0.1888 -0.2654
 9209SOL    HW139089   0.730   0.388   8.672 -1.0132 -1.1039 -0.8117
 9209SOL    HW239090   0.764   0.409   8.815  0.2670  0.3542 -1.2484
 9210SOL     OW39091   1.973   3.839   2.813  0.1527  0.2190 -0.5015
 9210SOL    HW139092   1.882   3.844   2.784  0.1031  1.5691 -0.1163
 9210SOL    HW239093   2.018   3.865   2.733 -0.9166  2.6072 -0.3385
 9211SOL     OW39094   2.117   1.570   5.154 -0.2041 -0.5800 -0.3337
 9211SOL    HW139095   2.157   1.527   5.230 -0.5398 -1.5225 -0.6907
 9211SOL    HW239096   2.092   1.655   5.192 -0.8856  0.3886 -2.9700
 9212SOL     OW39097   0.687   3.392   0.344 -0.0856  0.5027 -0.1659
 9212SOL    HW139098   0.672   3.389   0.439 -0.1103 -0.1581 -0.1856
 9212SOL    HW239099   0.618   3.448   0.310 -0.4923 -1.4239 -2.5300
 9213SOL     OW39100   2.231   4.604   2.763  0.3685 -0.1685  0.0791
 9213SOL    HW139101   2.277   4.521   2.749 -0.0072 -0.1945 -0.9860
 9213SOL    HW239102   2.265   4.634   2.847  2.3796  0.7824 -1.0767
 9214SOL     OW39103   1.971   4.560   3.436 -0.4123 -0.1718  0.6559
 9214SOL    HW139104   1.965   4.588   3.345 -2.7410  3.3745  1.9015
 9214SOL    HW239105   1.895   4.605   3.474 -0.6100 -0.8122  1.0194
 9215SOL     OW39106   1.536   1.033   3.863 -0.2152  0.5895 -0.2227
 9215SOL    HW139107   1.629   1.054   3.853  0.2739 -0.1543  2.7115
 9215SOL    HW239108   1.514   1.103   3.924  0.3544  1.6783 -1.2776
 9216SOL     OW39109   2.459   0.933   3.627  0.7770 -0.1847  0.4369
 9216SOL    HW139110   2.461   1.028   3.635  1.1104 -0.0310 -1.4678
 9216SOL    HW239111   2.537   0.933   3.570  1.1272  0.4449  0.9228
 9217SOL     OW39112   0.060   0.096   8.067 -0.4048 -0.5737  0.9262
 9217SOL    HW139113   0.093   0.185   8.078 -1.5624  0.0327 -0.4360
 9217SOL    HW239114   0.107   0.054   7.996  0.2604  0.2934  0.8591
 9218SOL     OW39115   4.408   4.468   3.626 -0.2415 -0.0118  0.4702
 9218SOL    HW139116   4.413   4.438   3.535  0.1908  2.7599 -0.4022
 9218SOL    HW239117   4.501   4.477   3.646 -0.5394 -1.9231  2.7707
 9219SOL     OW39118   3.621   2.170  13.689 -0.4992  0.1755 -0.1266
 9219SOL    HW139119   3.534   2.150  13.724  0.3518 -1.9122  0.7704
 9219SOL    HW239120   3.603   2.251  13.641 -0.0435  0.8055  0.7511
 9220SOL     OW39121   0.931   2.086   9.010  0.4607 -0.4245 -0.4925
 9220SOL    HW139122   0.836   2.098   9.014  0.4001 -0.1677 -2.3241
 9220SOL    HW239123   0.935   2.006   9.062  2.5983 -0.6307 -0.9663
 9221SOL     OW39124   3.184   4.247  15.890 -0.3474  0.3691  0.3280
 9221SOL    HW139125   3.155   4.234  15.800 -0.7926  0.4387  0.4586
 9221SOL    HW239126   3.097   4.248  15.930 -0.5427  0.0916 -0.0808
 9222SOL     OW39127   4.412   3.985   9.431 -0.5747  0.0163 -1.0178
 9222SOL    HW139128   4.465   3.911   9.402 -0.3939  0.2875 -1.3869
 9222SOL    HW239129   4.371   4.018   9.350  0.9029  1.1782 -1.2895
 9223SOL     OW39130   4.062   0.313   1.301 -0.2139 -0.2764 -0.0786
 9223SOL    HW139131   4.047   0.319   1.395  0.8586 -0.1118  0.0852
 9223SOL    HW239132   4.015   0.233   1.278 -2.1796  0.1533  2.3592
 9224SOL     OW39133   2.363   3.953   9.783  0.4613 -0.3708  0.1996
 9224SOL    HW139134   2.273   3.983   9.768  0.4181 -0.0304  1.1213
 9224SOL    HW239135   2.355   3.886   9.716  0.0186 -0.1103 -0.0072
 9225SOL     OW39136   1.391   3.120  14.959 -0.1489 -0.1810 -0.2870
 9225SOL    HW139137   1.475   3.083  14.931  0.7457  1.3051  0.4293
 9225SOL    HW239138   1.409   3.170  15.039 -0.9947  0.2972 -0.3915
 9226SOL     OW39139   0.018   2.380  16.571 -0.7204  0.0938  0.0256
 9226SOL    HW139140   0.104   2.378  16.613 -0.0921 -0.5161 -1.2769
 9226SOL    HW239141   4.702   2.297  16.594  0.1957 -0.5083 -0.5313
 9227SOL     OW39142   0.400   0.993  11.177 -0.2236  0.2098  0.6397
 9227SOL    HW139143   0.405   0.929  11.248  0.8315 -1.5452 -1.0151
 9227SOL    HW239144   0.311   0.986  11.141  0.3146  0.7939 -0.8071
 9228SOL     OW39145   3.300   3.107   5.990 -0.4867 -0.5560  0.0139
 9228SOL    HW139146   3.289   3.018   6.022 -1.0546  0.0550  1.5267
 9228SOL    HW239147   3.259   3.160   6.059  0.6179  0.9834 -0.5040
 9229SOL     OW39148   3.588   2.369   8.757 -0.0535 -0.3003  0.4552
 9229SOL    HW139149   3.548   2.358   8.671  2.2200  0.4032 -0.6936
 9229SOL    HW239150   3.516   2.349   8.818 -0.2277  0.4489  0.5005
 9230SOL     OW39151   2.636   2.149  14.267 -0.1958  0.4700  0.0787
 9230SOL    HW139152   2.614   2.088  14.196  0.0737 -0.0242  0.4168
 9230SOL    HW239153   2.715   2.110  14.305 -1.2218 -3.5291 -1.8919
 9231SOL     OW39154   1.333   3.274  10.382 -0.5354 -0.0134  0.0385
 9231SOL    HW139155   1.397   3.291  10.313 -1.4301 -0.2102 -0.8488
 9231SOL    HW239156   1.367   3.194  10.422 -0.4166 -0.2981 -0.6344
 9232SOL     OW39157   3.500   0.702   9.623  0.2163 -0.4713 -0.0386
 9232SOL    HW139158   3.494   0.618   9.668  0.6437  0.5041  1.8474
 9232SOL    HW239159   3.563   0.678   9.556 -1.5318 -0.0584 -1.8320
 9233SOL     OW39160   3.625   4.652   8.914  0.1249  0.0135  0.4212
 9233SOL    HW139161   3.554   4.716   8.907 -0.3137 -0.4743  0.4071
 9233SOL    HW239162   3.615   4.615   9.002 -1.1730  1.6792  0.9848
 9234SOL     OW39163   0.748   0.933   8.180  0.3855  0.4158 -0.4965
 9234SOL    HW139164   0.691   0.997   8.224 -0.4433  0.5496 -1.7696
 9234SOL    HW239165   0.813   0.909   8.245 -1.1625 -3.1680 -0.2768
 9235SOL     OW39166   0.039   2.082  13.365  0.1696 -0.3778  0.1799
 9235SOL    HW139167   0.008   2.002  13.322 -0.9805  0.8641 -1.2835
 9235SOL    HW239168   0.126   2.093  13.327  0.0767 -1.7743 -0.4260
 9236SOL     OW39169   2.012   4.072   2.953 -0.1546  0.0688  0.4845
 9236SOL    HW139170   1.951   4.049   2.883 -0.4337  0.7076  0.5194
 9236SOL    HW239171   2.092   4.045   2.908 -0.5165  2.5666 -1.6605
 9237SOL     OW39172   0.948   3.989   7.869 -0.0642  0.0722 -0.2046
 9237SOL    HW139173   1.037   4.004   7.838 -0.7646  1.7421 -1.4437
 9237SOL    HW239174   0.955   3.917   7.931 -1.7568 -0.6368 -0.8125
 9238SOL     OW39175   3.741   3.975   9.425 -0.1351 -0.3829 -0.3020
 9238SOL    HW139176   3.664   4.018   9.465 -0.1418 -0.4605 -0.2311
 9238SOL    HW239177   3.758   3.894   9.472  0.8555  0.7434  1.2984
 9239SOL     OW39178   0.434   2.978   5.631 -0.2920 -0.7202  0.3107
 9239SOL    HW139179   0.436   2.963   5.536  1.0921  1.5218 -0.0013
 9239SOL    HW239180   0.379   2.904   5.656 -2.0770  1.1449  1.8443
 9240SOL     OW39181   0.289   1.752  15.994 -0.1731  0.3203 -0.0170
 9240SOL    HW139182   0.312   1.666  15.961 -2.9112 -0.5426  0.3036
 9240SOL    HW239183   0.357   1.803  15.950 -1.5103 -0.5925 -3.1408
 9241SOL     OW39184   0.315   1.165   2.400 -0.4890  0.7839  0.7204
 9241SOL    HW139185   0.252   1.160   2.472 -0.4253 -0.3590  0.7040
 9241SOL    HW239186   0.254   1.136   2.333  0.0840  2.2124 -0.4083
 9242SOL     OW39187   3.267   0.860   3.134  0.3097  0.0137 -0.2811
 9242SOL    HW139188   3.276   0.767   3.118  0.9691 -0.4126  2.5430
 9242SOL    HW239189   3.258   0.894   3.045  0.0970 -0.8541 -0.5889
 9243SOL     OW39190   3.505   1.146   8.714 -0.1894 -0.2271  0.1425
 9243SOL    HW139191   3.437   1.213   8.704 -0.0355 -0.3576 -1.7515
 9243SOL    HW239192   3.494   1.090   8.637  2.7098  0.8721 -1.0294
 9244SOL     OW39193   2.569   0.924   7.494 -0.5368  0.2956  0.4401
 9244SOL    HW139194   2.586   1.016   7.517  1.0920  0.2323 -0.4861
 9244SOL    HW239195   2.513   0.933   7.417  0.0246 -2.5624 -0.2916
 9245SOL     OW39196   0.881   3.017  12.446 -0.3475  0.2013 -0.1729
 9245SOL    HW139197   0.843   3.103  12.462  1.0809  0.8333 -0.1399
 9245SOL    HW239198   0.814   2.959  12.480  1.6291 -2.1631 -0.2604
 9246SOL     OW39199   0.604   4.417  16.689  0.3723 -0.2342 -0.4965
 9246SOL    HW139200   0.586   4.500  16.644 -0.8175  0.6808  1.7096
 9246SOL    HW239201   0.697   4.423  16.711  0.2856  0.1435 -0.2242
 9247SOL     OW39202   0.006   2.177   2.283  0.0542  0.0216  0.0912
 9247SOL    HW139203   0.013   2.260   2.234 -0.9884 -1.0364 -1.8424
 9247SOL    HW239204   0.089   2.193   2.328 -0.5493  2.0578  0.4974
 9248SOL     OW39205   0.700   1.401   6.373 -0.0766 -0.4171 -0.2418
 9248SOL    HW139206   0.761   1.335   6.338  0.5452 -0.3350  0.6765
 9248SOL    HW239207   0.737   1.405   6.461  2.9054 -1.8448 -1.4151
 9249SOL     OW39208   1.987   1.720   2.972  0.2719  0.3733 -0.1656
 9249SOL    HW139209   1.979   1.814   2.983  2.8909  0.5091  0.6199
 9249SOL    HW239210   2.033   1.705   3.055  0.9053 -0.9666 -0.7544
 9250SOL     OW39211   4.334   1.093  11.648 -0.5798 -0.4983 -0.3024
 9250SOL    HW139212   4.400   1.078  11.715 -0.9569 -3.3065 -0.5673
 9250SOL    HW239213   4.273   1.146  11.700 -2.1948 -2.0284 -0.6649
 9251SOL     OW39214   1.128   2.492   3.916  0.0605  0.6694  0.1714
 9251SOL    HW139215   1.151   2.517   3.827  1.0353  0.4823  0.3701
 9251SOL    HW239216   1.042   2.534   3.924 -0.3363 -0.0246 -0.4331
 9252SOL     OW39217   2.481   2.899  14.548 -0.4097  0.3863 -0.8954
 9252SOL    HW139218   2.542   2.851  14.605  1.3908  2.4993 -1.0278
 9252SOL    HW239219   2.463   2.833  14.481  0.7323 -0.2786 -0.5674
 9253SOL     OW39220   1.111   1.281   1.018  0.3160 -0.3553  0.2301
 9253SOL    HW139221   1.132   1.198   0.976  0.6915  0.6820 -1.6048
 9253SOL    HW239222   1.151   1.274   1.105 -0.7266  1.6156  0.8782
 9254SOL     OW39223   2.780   3.131   1.950  0.2383  0.0873  0.7812
 9254SOL    HW139224   2.717   3.204   1.949 -0.7171 -0.7553  0.0885
 9254SOL    HW239225   2.852   3.168   1.898 -1.1972  1.9439  0.1109
 9255SOL     OW39226   3.228   4.698   7.793 -0.3403  0.0476  0.7813
 9255SOL    HW139227   3.314   4.719   7.830 -0.5591  0.9868  0.7585
 9255SOL    HW239228   3.209   4.610   7.824  3.1015 -1.0422 -0.2275
 9256SOL     OW39229   3.428   3.703   5.468  0.0866 -0.5815  0.8653
 9256SOL    HW139230   3.371   3.717   5.544  4.2347 -1.8875  4.2351
 9256SOL    HW239231   3.444   3.609   5.475 -2.2354 -0.8838  1.9462
 9257SOL     OW39232   1.429   1.418   6.904  0.7130 -0.2428  0.0053
 9257SOL    HW139233   1.495   1.485   6.921 -1.0518  1.1444  1.3007
 9257SOL    HW239234   1.346   1.454   6.934 -0.3442 -2.3389 -0.3679
 9258SOL     OW39235   3.778   1.952   2.684 -0.0215  0.4791 -0.2273
 9258SOL    HW139236   3.699   2.006   2.682  0.1802  0.8470  1.5043
 9258SOL    HW239237   3.785   1.965   2.779  0.8223  0.2219 -0.2562
 9259SOL     OW39238   0.376   1.524   2.997 -0.3316 -0.2631 -0.0350
 9259SOL    HW139239   0.438   1.595   2.980 -0.9068  0.5393  1.2388
 9259SOL    HW239240   0.413   1.479   3.072 -0.4865  1.7707  1.2689
 9260SOL     OW39241   3.904   2.832   0.977 -0.0565 -0.0894  0.3774
 9260SOL    HW139242   3.845   2.773   1.024  0.7773  0.9083  2.6662
 9260SOL    HW239243   3.977   2.773   0.956 -1.0380 -0.4782 -1.8830
 9261SOL     OW39244   2.881   3.452   3.377  0.2331  0.0838 -0.0117
 9261SOL    HW139245   2.944   3.507   3.331 -1.7980  2.0223 -0.4617
 9261SOL    HW239246   2.937   3.374   3.379 -0.1027 -0.1134  1.7148
 9262SOL     OW39247   2.457   0.937  14.527  0.0127 -0.0670  0.3817
 9262SOL    HW139248   2.492   0.990  14.455  0.4228 -0.2261  0.4631
 9262SOL    HW239249   2.428   0.857  14.481 -1.6527  0.3934  0.6420
 9263SOL     OW39250   1.972   0.111   9.260  0.2440 -0.0213  0.3460
 9263SOL    HW139251   2.033   0.179   9.290 -0.2484  0.0355  1.1978
 9263SOL    HW239252   2.031   0.036   9.261  1.0596  0.5450 -3.2198
 9264SOL     OW39253   2.790   3.234  14.045 -0.3426 -0.0370 -0.4883
 9264SOL    HW139254   2.727   3.272  14.106  0.0976  0.2176 -0.1895
 9264SOL    HW239255   2.732   3.166  14.010 -1.6597  1.3166 -0.9186
 9265SOL     OW39256   4.226   3.523   4.711 -0.0341  0.7945  0.0935
 9265SOL    HW139257   4.277   3.536   4.632 -1.1213 -0.6917 -0.8407
 9265SOL    HW239258   4.245   3.605   4.757 -0.6070  1.8288 -1.5273
 9266SOL     OW39259   3.949   0.309   6.179 -0.3768 -0.0241  0.5832
 9266SOL    HW139260   4.031   0.303   6.129  0.9127  2.3315  2.4303
 9266SOL    HW239261   3.973   0.375   6.244 -1.4750  0.3964  0.5544
 9267SOL     OW39262   1.532   4.610   7.006  0.3346 -0.3604 -0.5202
 9267SOL    HW139263   1.499   4.602   7.095  0.2476 -2.3947 -0.7399
 9267SOL    HW239264   1.559   4.519   6.998  1.1372  0.1528 -3.7117
 9268SOL     OW39265   0.744   1.567  14.552 -0.6355 -0.2936 -0.0253
 9268SOL    HW139266   0.809   1.557  14.483 -0.2690 -0.5546  0.3630
 9268SOL    HW239267   0.736   1.662  14.561 -0.3923 -0.3818  1.2039
 9269SOL     OW39268   1.916   3.077  11.534 -0.3206 -0.1327  0.0502
 9269SOL    HW139269   1.897   3.098  11.443 -1.5591  0.5682  0.4668
 9269SOL    HW239270   2.007   3.051  11.525 -0.0655  0.3571  1.2180
 9270SOL     OW39271   0.712   3.079   6.269  0.2572 -0.0457  0.1774
 9270SOL    HW139272   0.742   3.027   6.195 -0.2644  0.2946 -0.2706
 9270SOL    HW239273   0.693   3.158   6.218 -3.0690 -0.6198  0.4988
 9271SOL     OW39274   0.460   3.261   5.052 -0.1333 -0.5714 -0.0906
 9271SOL    HW139275   0.392   3.209   5.095 -0.9328  0.3989 -0.1743
 9271SOL    HW239276   0.503   3.192   5.001  1.4246  0.3956 -0.0867
 9272SOL     OW39277   3.914   1.800   5.038  0.2709  0.1866  0.1413
 9272SOL    HW139278   4.010   1.807   5.043  0.2605  0.7236 -0.3351
 9272SOL    HW239279   3.901   1.807   4.943 -1.4514  0.9106  0.4315
 9273SOL     OW39280   3.033   1.517   8.381  0.5932 -0.4501 -0.1621
 9273SOL    HW139281   3.015   1.592   8.438 -0.7535 -1.0248  0.1718
 9273SOL    HW239282   3.054   1.561   8.299 -2.1044 -0.2407 -0.7631
 9274SOL     OW39283   1.592   1.261  15.230  0.0835  0.4212 -0.3335
 9274SOL    HW139284   1.555   1.174  15.216 -0.1844  0.1232  2.3966
 9274SOL    HW239285   1.656   1.263  15.158  0.2956 -0.9964 -0.1753
 9275SOL     OW39286   1.393   3.897  10.291 -0.9049 -0.5714  0.1493
 9275SOL    HW139287   1.455   3.939  10.350  0.3605 -2.4062  0.1103
 9275SOL    HW239288   1.417   3.935  10.206 -0.1273 -2.5629 -0.5186
 9276SOL     OW39289   0.832   3.697   1.637 -0.9205 -0.1719 -0.0550
 9276SOL    HW139290   0.896   3.626   1.643 -3.1861 -2.4072 -2.5520
 9276SOL    HW239291   0.871   3.740   1.561  0.4380 -0.1099  0.6665
 9277SOL     OW39292   2.870   1.977  16.978 -0.0424 -0.0692 -0.3257
 9277SOL    HW139293   2.898   1.894  16.939 -0.5258 -0.0332 -0.7581
 9277SOL    HW239294   2.797   1.937  17.026 -0.9403  0.2023 -1.4538
 9278SOL     OW39295   2.658   0.313   4.515  0.1801  0.1695  0.6624
 9278SOL    HW139296   2.585   0.324   4.454  1.6854  1.4296 -0.8965
 9278SOL    HW239297   2.731   0.353   4.468  0.2773 -0.3699  0.3556
 9279SOL     OW39298   0.107   0.682   5.783  0.2294  0.7617 -0.4294
 9279SOL    HW139299   0.039   0.731   5.737 -0.3066 -1.3816 -1.8941
 9279SOL    HW239300   0.129   0.617   5.716 -1.3673 -0.4114  0.1830
 9280SOL     OW39301   1.758   0.992   0.117 -0.0394 -0.5255 -0.0661
 9280SOL    HW139302   1.847   1.003   0.151  0.0649 -0.0140 -0.5074
 9280SOL    HW239303   1.754   1.084   0.090 -0.4990  0.3603  2.9872
 9281SOL     OW39304   1.026   0.886   8.176 -0.2567 -0.3114  0.1730
 9281SOL    HW139305   1.014   0.959   8.115 -2.4974 -0.3976  0.4970
 9281SOL    HW239306   1.025   0.936   8.258 -2.7043  0.7662 -0.5176
 9282SOL     OW39307   1.642   0.945  14.370 -0.3823 -0.4452 -0.3789
 9282SOL    HW139308   1.730   0.911  14.360 -0.5853 -0.8346 -0.8729
 9282SOL    HW239309   1.643   0.985  14.282  1.2169 -0.3485 -0.3047
 9283SOL     OW39310   3.791   1.236   8.737  0.1946 -0.7918  0.2407
 9283SOL    HW139311   3.801   1.292   8.814 -2.9956  0.1004  0.0336
 9283SOL    HW239312   3.696   1.219   8.740 -0.1957  1.8038  2.4918
 9284SOL     OW39313   4.168   4.445   7.729  0.2797 -0.3987 -0.4206
 9284SOL    HW139314   4.228   4.438   7.803  1.4312 -0.7477 -1.3809
 9284SOL    HW239315   4.219   4.395   7.665  2.1393 -0.3733  1.0586
 9285SOL     OW39316   3.418   0.474   8.679 -0.1474  0.0858 -0.0653
 9285SOL    HW139317   3.334   0.510   8.707 -0.3707  0.1134 -0.7690
 9285SOL    HW239318   3.434   0.523   8.598 -0.5519  1.0752  0.4601
 9286SOL     OW39319   0.078   3.159   7.837 -0.3730 -0.1227  0.1559
 9286SOL    HW139320   0.126   3.102   7.897 -0.0676 -2.7180 -2.5441
 9286SOL    HW239321   0.135   3.156   7.761  0.5278 -0.2701  0.8364
 9287SOL     OW39322   0.269   2.281   2.763  0.2979 -0.0111 -0.1728
 9287SOL    HW139323   0.350   2.326   2.740  1.1051  0.2664  3.1820
 9287SOL    HW239324   0.217   2.349   2.805  0.9354  0.3347  0.0614
 9288SOL     OW39325   3.216   2.708   2.682 -0.3741  0.2945  0.0677
 9288SOL    HW139326   3.147   2.766   2.713 -0.6972 -0.0476 -0.0130
 9288SOL    HW239327   3.259   2.751   2.608  1.2026 -0.5003  0.5191
 9289SOL     OW39328   2.611   1.971   3.699 -0.4142 -0.4119  0.6632
 9289SOL    HW139329   2.654   1.968   3.613 -0.6598 -3.1961  0.6527
 9289SOL    HW239330   2.547   1.900   3.702 -0.8275  0.0215  2.1872
 9290SOL     OW39331   3.653   1.309   5.913  0.0144  0.5533 -0.1176
 9290SOL    HW139332   3.616   1.224   5.938 -0.3032 -0.1326 -2.8250
 9290SOL    HW239333   3.625   1.364   5.986  0.6731 -0.9497  1.2809
 9291SOL     OW39334   4.634   0.669   7.705 -0.2931  0.4182 -0.0269
 9291SOL    HW139335   4.614   0.625   7.622 -1.5400  0.0577  0.4647
 9291SOL    HW239336   4.658   0.595   7.762  3.0186  1.7738  0.3339
 9292SOL     OW39337   2.366   2.334   5.620 -0.4838  0.7703 -0.3797
 9292SOL    HW139338   2.373   2.326   5.715 -0.8461  0.0984 -0.4156
 9292SOL    HW239339   2.445   2.288   5.592  0.6224  1.9770  0.7189
 9293SOL     OW39340   2.964   1.909  12.099 -0.1844  0.9427  0.0683
 9293SOL    HW139341   2.963   1.859  12.181 -1.2836  0.6203 -0.1385
 9293SOL    HW239342   3.048   1.953  12.111  0.9680 -0.9881 -0.8461
 9294SOL     OW39343   2.737   2.580   1.740  0.1139  0.0140 -0.0469
 9294SOL    HW139344   2.697   2.551   1.822  0.0870  0.1672 -0.0057
 9294SOL    HW239345   2.753   2.673   1.755 -0.6948 -0.0167  1.0121
 9295SOL     OW39346   3.806   4.622   5.505  0.1822  0.4625 -0.5669
 9295SOL    HW139347   3.811   4.531   5.476  3.0329  0.2177  0.6627
 9295SOL    HW239348   3.719   4.614   5.544 -0.3709  1.0791 -1.6795
 9296SOL     OW39349   0.758   0.119  13.458  0.0245  0.1178  0.1081
 9296SOL    HW139350   0.835   0.124  13.402  0.6855 -1.1650  0.9083
 9296SOL    HW239351   0.768   0.204  13.502 -1.8619  0.1738  0.4559
 9297SOL     OW39352   4.602   1.580   7.092  0.9565 -0.1684  0.2671
 9297SOL    HW139353   4.679   1.597   7.146  2.7179  1.4122 -2.7616
 9297SOL    HW239354   4.639   1.561   7.005 -1.6459  1.3074 -1.1687
 9298SOL     OW39355   1.908   2.538  11.628 -0.6863 -0.4052  0.1271
 9298SOL    HW139356   1.884   2.562  11.717  1.6867  0.5638  0.4973
 9298SOL    HW239357   1.936   2.623  11.594  0.3790 -1.4991 -1.7242
 9299SOL     OW39358   1.017   4.390   4.667 -0.6660 -0.2644 -0.5954
 9299SOL    HW139359   0.932   4.433   4.670 -0.6731 -0.2716 -0.7190
 9299SOL    HW239360   1.052   4.395   4.756  1.5311  0.1702 -1.4936
 9300SOL     OW39361   1.735   3.215  10.567  1.1064  0.3257  0.1577
 9300SOL    HW139362   1.747   3.218  10.662  0.9246 -0.3368  0.2050
 9300SOL    HW239363   1.783   3.295  10.547  2.3552 -0.0849  1.5118
 9301SOL     OW39364   4.270   3.981  13.029  0.2702  0.1571 -0.2779
 9301SOL    HW139365   4.290   3.897  12.989 -1.2507 -0.4623  0.2567
 9301SOL    HW239366   4.175   3.988  13.016  0.1985 -0.9446 -0.3066
 9302SOL     OW39367   0.008   4.301   5.629  0.3677 -0.3612  0.3710
 9302SOL    HW139368   0.069   4.238   5.668  1.0145  0.0734  0.0783
 9302SOL    HW239369   4.648   4.264   5.651 -0.2181 -0.9971 -2.9771
 9303SOL     OW39370   3.400   1.031   5.311  0.1747  0.0289  0.6347
 9303SOL    HW139371   3.356   1.095   5.366  1.7640 -0.7292  2.7773
 9303SOL    HW239372   3.336   1.002   5.246  0.8648  1.2107 -0.5527
 9304SOL     OW39373   0.475   2.838  14.419 -0.3501  0.2392  0.1897
 9304SOL    HW139374   0.523   2.902  14.366 -0.6723  0.1334 -0.2321
 9304SOL    HW239375   0.464   2.763  14.362  0.2507  0.8320 -0.6958
 9305SOL     OW39376   2.122   0.865  17.173 -0.0227 -0.0532 -0.1399
 9305SOL    HW139377   2.187   0.896  17.237 -1.6666 -0.5446  1.7528
 9305SOL    HW239378   2.042   0.900  17.212  1.1459  1.9692  0.4781
 9306SOL     OW39379   3.764   2.474  11.448  0.2760 -0.2300  0.5313
 9306SOL    HW139380   3.675   2.442  11.435  0.1601 -0.1318  1.0628
 9306SOL    HW239381   3.791   2.418  11.521 -1.3906 -1.3953  0.2360
 9307SOL     OW39382   0.463   1.385   9.363  0.0676  0.2284 -0.1613
 9307SOL    HW139383   0.494   1.378   9.272  1.3512  0.5499  0.2479
 9307SOL    HW239384   0.460   1.480   9.371 -1.3752  0.3370 -1.9367
 9308SOL     OW39385   2.542   0.416   6.755 -0.1593 -0.2581 -0.1965
 9308SOL    HW139386   2.628   0.380   6.774  0.8203  2.9212  1.4319
 9308SOL    HW239387   2.517   0.457   6.838  2.0899  1.0085 -0.1505
 9309SOL     OW39388   3.899   1.828   9.328 -0.3459 -0.2740 -0.4466
 9309SOL    HW139389   3.984   1.810   9.287  0.7616  0.9384  1.3299
 9309SOL    HW239390   3.928   1.855   9.415 -0.5769 -1.6969  0.0719
 9310SOL     OW39391   4.176   3.788  11.749  0.8899  0.1184  0.3313
 9310SOL    HW139392   4.212   3.876  11.741  0.9575  0.2431  2.0336
 9310SOL    HW239393   4.095   3.799  11.700  0.7221 -0.7587  0.4080
 9311SOL     OW39394   3.162   4.305   2.377  0.4160 -0.8854 -0.2670
 9311SOL    HW139395   3.085   4.248   2.384  0.6230 -1.3489 -1.6151
 9311SOL    HW239396   3.169   4.338   2.466 -0.6038  0.2555 -0.6007
 9312SOL     OW39397   2.151   3.824   8.165  0.2776  0.3109  0.3397
 9312SOL    HW139398   2.143   3.843   8.071  1.5415 -1.7646 -0.1873
 9312SOL    HW239399   2.160   3.729   8.170  0.4608  0.3113  0.0356
 9313SOL     OW39400   2.560   4.656   8.759 -0.5356  0.3704  1.0208
 9313SOL    HW139401   2.531   4.695   8.842  1.9733  3.2976  0.4807
 9313SOL    HW239402   2.477   4.623   8.725 -0.1910  1.8633 -1.2709
 9314SOL     OW39403   0.978   0.353   6.068 -0.4534  0.0545 -0.3900
 9314SOL    HW139404   0.895   0.305   6.068 -0.8148  0.6828 -0.3042
 9314SOL    HW239405   0.947   0.443   6.075 -0.3860 -0.0044  0.5986
 9315SOL     OW39406   0.728   0.523   8.049  0.0487  0.1943  0.4704
 9315SOL    HW139407   0.671   0.580   8.101 -0.1842 -0.5471  1.0212
 9315SOL    HW239408   0.818   0.544   8.074  0.3256  2.3463 -2.2778
 9316SOL     OW39409   0.155   0.978  11.064 -0.5919  0.0323  0.1608
 9316SOL    HW139410   0.073   0.972  11.113 -0.8764 -1.9718 -0.5575
 9316SOL    HW239411   0.168   0.888  11.033  1.4431  0.1107  0.8150
 9317SOL     OW39412   0.763   0.275   9.903  1.3088  0.1564  0.1873
 9317SOL    HW139413   0.845   0.318   9.926  1.3865 -0.5686  1.2675
 9317SOL    HW239414   0.725   0.266   9.990 -1.5558  2.1991 -0.8582
 9318SOL     OW39415   0.604   2.529   7.595  0.2573 -0.1973  0.2405
 9318SOL    HW139416   0.672   2.500   7.534  0.1623  0.2502 -0.0768
 9318SOL    HW239417   0.563   2.602   7.548  0.1431 -1.6398 -1.9190
 9319SOL     OW39418   3.191   1.215   3.975 -0.0835 -0.4188 -0.2127
 9319SOL    HW139419   3.272   1.255   3.945 -0.6102 -1.0093 -2.4217
 9319SOL    HW239420   3.155   1.169   3.900  1.7417 -1.5369 -0.3877
 9320SOL     OW39421   1.047   0.783   6.938 -0.2535  0.9965  0.2712
 9320SOL    HW139422   1.064   0.809   6.848 -1.1472  0.2449 -0.1194
 9320SOL    HW239423   1.135   0.759   6.969 -1.3601 -2.4453  0.7725
 9321SOL     OW39424   4.187   3.474   5.990  0.2526  0.3552  0.7961
 9321SOL    HW139425   4.119   3.448   6.052 -1.7074  2.0668 -0.6503
 9321SOL    HW239426   4.161   3.447   5.902 -0.9331 -0.7418  1.4878
 9322SOL     OW39427   3.644   0.178   9.095  0.4263  0.4461 -0.3172
 9322SOL    HW139428   3.652   0.164   9.001  3.4469 -0.1033  0.0381
 9322SOL    HW239429   3.725   0.136   9.125  0.0262  1.1900  1.8585
 9323SOL     OW39430   4.005   3.814   4.517 -0.0625  0.3849 -0.1341
 9323SOL    HW139431   3.978   3.875   4.448 -4.6624 -0.0088  1.3046
 9323SOL    HW239432   3.993   3.864   4.598 -3.2535  1.5027 -1.2850
 9324SOL     OW39433   0.914   2.432  14.439 -0.0955 -0.2495 -0.1277
 9324SOL    HW139434   0.922   2.522  14.469  1.5411 -0.4559  0.0609
 9324SOL    HW239435   0.989   2.421  14.380 -1.3001  0.2022 -1.7469
 9325SOL     OW39436   1.933   1.817   9.164  0.3646 -0.0516  0.1898
 9325SOL    HW139437   1.849   1.824   9.210 -1.3934 -3.7466 -2.4946
 9325SOL    HW239438   1.990   1.814   9.241 -0.1868 -2.4904  0.4952
 9326SOL     OW39439   4.359   1.240  16.329  0.2996  0.2618  0.3773
 9326SOL    HW139440   4.368   1.180  16.255 -1.1822  0.2600  0.1928
 9326SOL    HW239441   4.446   1.240  16.369 -0.4261 -1.9285  2.0066
 9327SOL     OW39442   3.307   1.747   4.065  0.1321  0.1279 -0.8503
 9327SOL    HW139443   3.314   1.803   3.988 -1.5643 -0.9452 -1.7922
 9327SOL    HW239444   3.227   1.696   4.049  2.3064 -2.9670 -1.7731
 9328SOL     OW39445   0.569   3.172  15.908  0.2629  0.0073  0.1723
 9328SOL    HW139446   0.507   3.242  15.930 -0.9744 -0.0366 -3.0447
 9328SOL    HW239447   0.621   3.217  15.841 -1.0593 -0.7562 -1.3685
 9329SOL     OW39448   4.419   0.594   2.320 -0.4208  0.8274  0.2571
 9329SOL    HW139449   4.360   0.605   2.245 -0.7586  0.1745  0.4228
 9329SOL    HW239450   4.491   0.541   2.285  1.1956  1.7609  2.1367
 9330SOL     OW39451   1.433   2.732   7.092  0.4277 -0.2242 -0.1959
 9330SOL    HW139452   1.510   2.718   7.148  1.1786  1.5932 -0.7891
 9330SOL    HW239453   1.364   2.695   7.148  1.6150  0.4331  1.7333
 9331SOL     OW39454   2.030   0.064   5.083 -0.1917  0.0345  0.0948
 9331SOL    HW139455   2.053   0.040   4.993  0.2469  1.0542 -0.0632
 9331SOL    HW239456   1.935   0.062   5.079 -0.0517 -0.3846 -2.7051
 9332SOL     OW39457   3.708   1.148   6.241 -0.1565  0.0622 -0.2532
 9332SOL    HW139458   3.623   1.162   6.198  0.3081 -0.6989 -1.4321
 9332SOL    HW239459   3.719   1.056   6.217  0.7281  0.5370 -1.6549
 9333SOL     OW39460   3.322   0.295   2.457 -0.2531  0.8434  0.1748
 9333SOL    HW139461   3.230   0.306   2.436 -0.1548  1.1158 -0.1008
 9333SOL    HW239462   3.315   0.293   2.553 -0.2020  0.6422  0.1750
 9334SOL     OW39463   4.181   1.660   3.440 -0.0610 -0.0206 -0.0352
 9334SOL    HW139464   4.142   1.716   3.372 -1.9444 -0.9298  0.2846
 9334SOL    HW239465   4.104   1.649   3.496 -1.2212  0.0389 -1.6343
 9335SOL     OW39466   2.962   0.037   5.945 -0.1082 -0.6199  0.1609
 9335SOL    HW139467   3.029   0.101   5.968 -2.5770  1.9731  0.1675
 9335SOL    HW239468   2.900   0.091   5.896 -1.4088  0.5518  3.1287
 9336SOL     OW39469   2.256   2.710  15.432 -0.2239  0.2511  0.1050
 9336SOL    HW139470   2.290   2.769  15.364 -3.6339  1.9243 -0.1537
 9336SOL    HW239471   2.306   2.630  15.417 -1.7672 -0.4328 -1.4131
 9337SOL     OW39472   2.983   2.666   2.414 -0.3340 -0.0812 -0.1902
 9337SOL    HW139473   2.920   2.642   2.347  4.9947 -0.4811 -5.0373
 9337SOL    HW239474   2.948   2.633   2.497 -0.0789  1.6164  0.6035
 9338SOL     OW39475   4.683   4.098   5.035  0.5893 -0.8011 -0.5296
 9338SOL    HW139476   4.699   4.032   4.967  1.0881 -0.9254 -0.2946
 9338SOL    HW239477   0.025   4.077   5.101  0.9928 -0.3720 -0.8033
 9339SOL     OW39478   1.807   0.007  10.365  0.0140 -0.2619  0.5477
 9339SOL    HW139479   1.724   0.023  10.319  1.0329 -0.1430 -1.2505
 9339SOL    HW239480   1.780   0.051  10.446  0.2613  1.3725 -0.2532
 9340SOL     OW39481   2.570   2.437  15.412 -0.1481 -0.3881 -0.5737
 9340SOL    HW139482   2.532   2.413  15.496  0.5655  1.9100  0.3996
 9340SOL    HW239483   2.492   2.473  15.371  0.2769 -0.8324 -1.7771
 9341SOL     OW39484   4.437   0.199   2.188 -0.0440  0.1673 -0.4304
 9341SOL    HW139485   4.360   0.145   2.170  0.0389  0.2910 -1.1597
 9341SOL    HW239486   4.422   0.282   2.143 -0.0580  1.9721  2.9407
 9342SOL     OW39487   0.337   1.199   0.722  0.6343  0.0784  0.1266
 9342SOL    HW139488   0.429   1.183   0.701  0.8548  1.0620  0.3470
 9342SOL    HW239489   0.333   1.277   0.777  0.6735 -0.9899  1.6613
 9343SOL     OW39490   1.149   3.903  14.766 -0.1255 -0.4209  0.0622
 9343SOL    HW139491   1.166   3.861  14.850 -0.8095  0.9566  0.8828
 9343SOL    HW239492   1.055   3.913  14.778 -0.5172 -1.8957 -1.7182
 9344SOL     OW39493   0.218   1.782   2.278  0.2709  0.1657 -0.0422
 9344SOL    HW139494   0.170   1.790   2.360 -0.8615  0.0030 -0.6887
 9344SOL    HW239495   0.202   1.859   2.223  2.9366  1.5164  1.0405
 9345SOL     OW39496   0.653   3.645   6.336 -0.0807 -0.2382  0.0821
 9345SOL    HW139497   0.681   3.558   6.365 -3.4095 -1.5242 -0.6018
 9345SOL    HW239498   0.718   3.703   6.377  0.4835  0.7191 -2.1855
 9346SOL     OW39499   2.201   1.491   7.198 -0.2039 -0.2353 -0.0010
 9346SOL    HW139500   2.205   1.586   7.204  0.0507 -0.1469 -1.6218
 9346SOL    HW239501   2.240   1.466   7.114  0.8091  0.3394  0.2984
 9347SOL     OW39502   1.620   1.180   4.709 -0.0787 -0.5747  0.4312
 9347SOL    HW139503   1.712   1.183   4.684 -0.1846  0.3830  0.1745
 9347SOL    HW239504   1.577   1.218   4.632 -1.0886 -0.0665  1.2483
 9348SOL     OW39505   2.305   1.902   3.432  0.4518 -0.7097 -0.0628
 9348SOL    HW139506   2.218   1.892   3.392  0.3160 -2.9820  0.7692
 9348SOL    HW239507   2.357   1.913   3.353 -0.8156  0.2862 -0.7476
 9349SOL     OW39508   2.464   2.581  11.785  0.1104 -0.2954 -0.3621
 9349SOL    HW139509   2.393   2.601  11.724  1.7491  1.1423 -1.7633
 9349SOL    HW239510   2.461   2.487  11.803  1.8247 -0.2544  0.0935
 9350SOL     OW39511   4.359   2.969   2.996 -0.0443 -0.5329  0.3431
 9350SOL    HW139512   4.300   2.933   3.062  0.1406 -1.1806  0.1528
 9350SOL    HW239513   4.428   3.011   3.048 -0.4948  1.0287 -0.3355
 9351SOL     OW39514   1.054   2.039   7.973 -0.1023  0.1448  0.0801
 9351SOL    HW139515   1.013   2.062   8.056  0.8015 -0.8360  0.7841
 9351SOL    HW239516   0.984   2.066   7.912  0.4792 -0.9740 -1.0793
 9352SOL     OW39517   1.037   1.974   2.634  0.3870 -0.8562  0.1540
 9352SOL    HW139518   1.008   1.917   2.563 -0.3943 -0.7098  0.3480
 9352SOL    HW239519   1.072   1.917   2.702 -1.7795 -0.2442  1.7691
 9353SOL     OW39520   2.634   4.498  15.189  0.4195 -1.1131  0.1148
 9353SOL    HW139521   2.624   4.521  15.097 -1.5112  1.5265  0.9730
 9353SOL    HW239522   2.701   4.561  15.217 -0.5659 -0.8686  1.9281
 9354SOL     OW39523   0.220   2.772  14.207 -0.0363  0.0546 -0.2577
 9354SOL    HW139524   0.157   2.719  14.159 -0.4549 -0.6214  1.0263
 9354SOL    HW239525   0.289   2.708  14.224  0.6346  1.3822  2.0270
 9355SOL     OW39526   3.099   1.786   5.598 -0.0672 -0.3901 -0.3708
 9355SOL    HW139527   3.063   1.700   5.574  1.8834 -1.9984  2.4683
 9355SOL    HW239528   3.139   1.766   5.683  1.3386  0.7518 -0.7724
 9356SOL     OW39529   4.237   0.437  15.765  0.1303 -0.2518  1.0973
 9356SOL    HW139530   4.174   0.496  15.723 -0.7751 -2.7221 -1.0245
 9356SOL    HW239531   4.178   0.410  15.836  1.6768 -2.3476  1.5906
 9357SOL     OW39532   2.105   4.589   7.735  0.1163  0.1153 -0.8455
 9357SOL    HW139533   2.140   4.500   7.741 -0.2542  0.0498  0.3656
 9357SOL    HW239534   2.010   4.581   7.743  0.0284  1.8738 -0.1617
 9358SOL     OW39535   0.613   0.237   4.273  0.0024  0.0004 -0.3924
 9358SOL    HW139536   0.677   0.270   4.210 -1.2669 -1.0690 -2.2082
 9358SOL    HW239537   0.617   0.142   4.266 -0.0911  0.0027 -0.4743
 9359SOL     OW39538   4.528   1.254   2.114 -0.0159 -0.2062 -0.1901
 9359SOL    HW139539   4.548   1.179   2.059  2.5861  1.0149 -0.8982
 9359SOL    HW239540   4.437   1.245   2.144 -0.0030 -1.5477 -0.5624
 9360SOL     OW39541   4.284   2.726   7.309  0.3235 -0.0984  0.5700
 9360SOL    HW139542   4.237   2.810   7.310 -0.3666 -0.4916  1.5417
 9360SOL    HW239543   4.350   2.743   7.243  0.4672  3.0861  1.5336
 9361SOL     OW39544   3.188   2.137   4.417  0.5757 -0.1501  0.0641
 9361SOL    HW139545   3.220   2.226   4.400 -0.4667  0.0585 -0.8015
 9361SOL    HW239546   3.266   2.087   4.392  0.4578  0.0682 -0.7553
 9362SOL     OW39547   2.723   1.285  13.448  0.0599 -0.0601 -0.4433
 9362SOL    HW139548   2.728   1.376  13.417 -0.3404 -0.0308 -0.4248
 9362SOL    HW239549   2.763   1.236  13.376  0.2529 -1.4599  0.6205
 9363SOL     OW39550   4.680   3.796  12.522  0.2546 -0.5491  0.5628
 9363SOL    HW139551   0.001   3.794  12.607  1.3787  3.7678  0.0951
 9363SOL    HW239552   4.594   3.825  12.552  0.2323 -1.3754  1.2978
 9364SOL     OW39553   2.110   1.996   2.501  0.2572 -0.1319 -0.0385
 9364SOL    HW139554   2.037   2.004   2.440 -0.9269 -2.5228  1.0745
 9364SOL    HW239555   2.143   2.086   2.497 -0.1048 -0.0420 -1.0316
 9365SOL     OW39556   1.083   2.471   1.015  0.1096  0.1464  0.1049
 9365SOL    HW139557   1.126   2.465   1.100 -1.4082  0.5010  0.8775
 9365SOL    HW239558   1.094   2.562   0.988 -0.6832  0.3145  0.3789
 9366SOL     OW39559   0.718   3.389   3.109 -0.3759  0.6279  0.3485
 9366SOL    HW139560   0.686   3.321   3.049  0.9477 -0.4847  0.8973
 9366SOL    HW239561   0.724   3.341   3.192  2.7891  1.0999  0.3846
 9367SOL     OW39562   4.567   0.350  11.802 -0.0513 -0.4582 -0.7762
 9367SOL    HW139563   4.531   0.438  11.788  1.6393  0.5325  1.0516
 9367SOL    HW239564   4.572   0.335  11.896  1.3242  0.7603 -0.6391
 9368SOL     OW39565   0.717   0.006  15.103  0.0256  0.0025 -0.1827
 9368SOL    HW139566   0.701   4.638  15.084  2.4669 -0.4886  0.2317
 9368SOL    HW239567   0.757   4.716  15.189 -0.3567 -0.5485 -0.1011
 9369SOL     OW39568   1.883   3.004   8.633 -0.2873 -0.2720 -0.2536
 9369SOL    HW139569   1.824   2.967   8.699 -0.3795  1.0968  0.4508
 9369SOL    HW239570   1.974   2.985   8.654 -0.0582  1.4002  0.3499
 9370SOL     OW39571   4.355   4.439   5.713  0.2164 -0.0765  0.1599
 9370SOL    HW139572   4.314   4.393   5.640 -3.0547  0.8482  1.3913
 9370SOL    HW239573   4.394   4.358   5.746  0.2145 -0.1888 -0.1150
 9371SOL     OW39574   3.090   0.428   3.689  0.6131  0.3718  0.0974
 9371SOL    HW139575   3.118   0.506   3.640 -0.3749  0.2738 -0.6255
 9371SOL    HW239576   3.056   0.473   3.766 -0.6695 -1.9018  0.8512
 9372SOL     OW39577   2.387   2.050   8.640  0.0745  0.1835 -0.0819
 9372SOL    HW139578   2.432   2.131   8.616  0.1540  0.7106  1.8672
 9372SOL    HW239579   2.295   2.073   8.655  0.0203  1.0294 -1.6939
 9373SOL     OW39580   0.572   3.768   5.456 -0.3665  0.7970 -0.2427
 9373SOL    HW139581   0.611   3.691   5.496  0.1924  0.7318 -0.9147
 9373SOL    HW239582   0.501   3.794   5.515 -1.2531  2.7055 -2.1315
 9374SOL     OW39583   2.479   0.552  16.988 -0.0252 -0.0205  0.1461
 9374SOL    HW139584   2.431   0.493  16.929 -0.6932  1.8031 -1.1641
 9374SOL    HW239585   2.413   0.620  16.996  1.3680  0.9912  2.9882
 9375SOL     OW39586   0.700   4.605   3.131  0.0194  0.2177  0.4318
 9375SOL    HW139587   0.777   4.604   3.188  0.5348  1.4807 -0.2506
 9375SOL    HW239588   0.705   4.526   3.077 -0.4089  0.9800 -0.7244
 9376SOL     OW39589   3.630   1.322  16.936 -0.1467  0.4915 -0.0103
 9376SOL    HW139590   3.548   1.335  16.890  0.3947 -2.6877 -1.8828
 9376SOL    HW239591   3.612   1.254  17.001 -1.1869 -0.2593 -1.1093
 9377SOL     OW39592   2.430   4.610   6.705 -0.0942  0.1541  0.2100
 9377SOL    HW139593   2.445   4.594   6.612  0.4889  0.4245  0.2598
 9377SOL    HW239594   2.505   4.565   6.743 -0.3279 -1.6775 -1.4982
 9378SOL     OW39595   0.923   3.347  10.609  0.3990  0.3244 -0.4305
 9378SOL    HW139596   0.869   3.413  10.566 -1.2601  1.3725  3.1860
 9378SOL    HW239597   0.939   3.404  10.685 -0.6866  0.4372 -0.2774
 9379SOL     OW39598   0.297   4.081   5.018  0.2770 -0.2259  0.3956
 9379SOL    HW139599   0.352   4.159   5.009  0.5375 -0.3333  1.0706
 9379SOL    HW239600   0.331   4.020   4.953 -0.8779  0.1557 -0.5554
 9380SOL     OW39601   2.229   0.473   0.114  0.2284  0.5033 -0.0128
 9380SOL    HW139602   2.197   0.481   0.024 -0.5783  0.2296  0.2539
 9380SOL    HW239603   2.307   0.528   0.108  0.8925 -0.5866 -1.3897
 9381SOL     OW39604   0.485   3.203   7.771 -0.5945  0.1644 -0.9395
 9381SOL    HW139605   0.562   3.178   7.822 -0.9602  1.8797  0.4322
 9381SOL    HW239606   0.485   3.135   7.703  2.3681 -0.6745 -0.0697
 9382SOL     OW39607   2.342   0.688  14.424 -0.9459 -0.6855 -0.2186
 9382SOL    HW139608   2.306   0.676  14.336  0.3801 -0.1177 -0.8560
 9382SOL    HW239609   2.267   0.688  14.483  0.3029 -1.6722  1.3785
 9383SOL     OW39610   1.407   1.486   1.792  0.4274 -0.5051  0.0866
 9383SOL    HW139611   1.468   1.437   1.738 -0.5957 -1.5769 -0.1120
 9383SOL    HW239612   1.330   1.503   1.737 -0.6763  0.1138  1.8196
 9384SOL     OW39613   1.766   1.746  15.319  0.1361 -0.1207  0.0632
 9384SOL    HW139614   1.677   1.749  15.284  0.6317 -0.0210 -1.1721
 9384SOL    HW239615   1.753   1.741  15.414 -1.7241  2.3334 -0.0630
 9385SOL     OW39616   2.544   2.459   3.420 -0.3252  0.3448 -0.5603
 9385SOL    HW139617   2.547   2.480   3.326 -0.5744  0.7553 -0.4788
 9385SOL    HW239618   2.533   2.365   3.410  1.0733 -0.0514  1.7103
 9386SOL     OW39619   1.064   2.712   6.790  1.2063 -0.1470  0.0389
 9386SOL    HW139620   1.037   2.771   6.719 -0.7587  3.3048  3.6842
 9386SOL    HW239621   0.981   2.692   6.834  0.9008  0.6208 -0.1818
 9387SOL     OW39622   0.760   1.612   9.103 -0.4533  0.1684  0.2279
 9387SOL    HW139623   0.758   1.523   9.069  0.6671  0.0381  0.5148
 9387SOL    HW239624   0.852   1.611   9.129 -0.0503 -0.3858 -1.2264
 9388SOL     OW39625   1.316   3.852   7.624 -0.6264 -0.2550  0.8116
 9388SOL    HW139626   1.297   3.770   7.670 -1.2376 -1.8579 -2.2915
 9388SOL    HW239627   1.304   3.821   7.534  0.1535  1.9774 -0.0616
 9389SOL     OW39628   1.263   1.270  10.825  0.3174 -0.2645  0.1351
 9389SOL    HW139629   1.288   1.353  10.784 -0.9609 -0.8604 -1.8453
 9389SOL    HW239630   1.294   1.284  10.914  1.0903 -2.2209  0.1711
 9390SOL     OW39631   2.052   3.971   1.076 -0.2649  0.0145  0.2324
 9390SOL    HW139632   2.024   4.058   1.104  0.7898 -0.6674  3.4115
 9390SOL    HW239633   2.121   3.987   1.013 -0.9401  2.2347  0.0646
 9391SOL     OW39634   0.245   3.599  12.533  0.2273  0.1944 -0.6409
 9391SOL    HW139635   0.214   3.676  12.582 -1.7337 -0.8336 -0.2485
 9391SOL    HW239636   0.326   3.634  12.496  0.7928  0.7887  1.1310
 9392SOL     OW39637   3.359   0.261   3.955  0.2158 -0.5990 -0.0677
 9392SOL    HW139638   3.311   0.195   3.905  0.5291 -0.8760 -0.0045
 9392SOL    HW239639   3.301   0.255   4.031 -1.0175  2.5200 -0.7687
 9393SOL     OW39640   4.282   4.431  14.996  0.5742  0.3717 -0.1555
 9393SOL    HW139641   4.369   4.465  14.973  0.7004  0.3886  0.3553
 9393SOL    HW239642   4.302   4.340  14.975 -2.1008  0.1044 -1.5807
 9394SOL     OW39643   3.561   1.741  11.921 -0.6122 -0.8333 -0.3124
 9394SOL    HW139644   3.653   1.721  11.907 -0.0940  0.5187  1.1002
 9394SOL    HW239645   3.528   1.652  11.923 -1.5198 -0.5350 -1.7226
 9395SOL     OW39646   3.052   1.748  17.073  1.2631  0.2783  0.2084
 9395SOL    HW139647   3.071   1.685  17.004  0.5155  0.7107 -0.3993
 9395SOL    HW239648   3.062   1.700  17.154  0.7676 -1.3048 -0.6723
 9396SOL     OW39649   2.125   4.084   3.433  0.0264  0.3865 -0.2775
 9396SOL    HW139650   2.163   4.170   3.455  1.6026 -0.3636 -0.1092
 9396SOL    HW239651   2.068   4.076   3.510  0.4452  1.3995  0.1420
 9397SOL     OW39652   1.403   1.933  17.543  0.1689  0.1297  0.4241
 9397SOL    HW139653   1.359   2.000  17.491  0.7528 -0.3240 -0.6416
 9397SOL    HW239654   1.471   1.982  17.589 -0.9670  0.3083  1.9049
 9398SOL     OW39655   3.094   4.657   9.594 -0.6872  0.4142  0.0057
 9398SOL    HW139656   3.018   4.602   9.611  0.2287 -0.5325  1.0269
 9398SOL    HW239657   3.054   0.018   9.584  0.7801  1.0979 -0.0954
 9399SOL     OW39658   3.104   3.267  16.496 -0.1108  0.4054 -0.6054
 9399SOL    HW139659   3.079   3.232  16.411 -0.9160 -0.0858 -0.1641
 9399SOL    HW239660   3.085   3.191  16.551 -1.2492  1.4674  0.4568
 9400SOL     OW39661   4.487   2.980   6.682  0.3902 -0.5156 -0.0131
 9400SOL    HW139662   4.574   2.991   6.642  0.1684  1.1652 -0.0376
 9400SOL    HW239663   4.447   3.061   6.652 -0.6152 -0.4846  1.4373
 9401SOL     OW39664   4.546   2.333   3.143  0.3085  0.4015 -0.6666
 9401SOL    HW139665   4.553   2.417   3.097  1.0820  1.2976  1.0700
 9401SOL    HW239666   4.548   2.269   3.072 -1.4910 -0.7211  0.2906
 9402SOL     OW39667   0.663   1.163   9.951 -0.3838 -0.4990  0.4637
 9402SOL    HW139668   0.657   1.249   9.910  0.6503 -0.8505 -0.4290
 9402SOL    HW239669   0.749   1.174   9.992 -1.2553 -0.3297  2.2586
 9403SOL     OW39670   3.128   0.586  14.653 -0.3099 -0.3338  0.5399
 9403SOL    HW139671   3.219   0.562  14.634 -0.3056  0.3454 -0.3412
 9403SOL    HW239672   3.085   0.540  14.581  0.5689  0.7002 -0.6586
 9404SOL     OW39673   3.149   0.497   2.079  0.3634 -0.5567  0.1743
 9404SOL    HW139674   3.153   0.452   2.163  1.3793  2.0080  1.5176
 9404SOL    HW239675   3.227   0.470   2.032  0.9423 -0.7559  1.2611
 9405SOL     OW39676   3.980   3.863   6.400 -0.2967  0.8343  0.1428
 9405SOL    HW139677   3.922   3.789   6.382 -0.1092  0.8703 -0.5993
 9405SOL    HW239678   3.907   3.926   6.401  0.8668  2.1964 -0.7270
 9406SOL     OW39679   0.338   1.919   3.524 -0.0378 -0.2217  0.5939
 9406SOL    HW139680   0.261   1.973   3.505  0.0678 -0.4103 -0.3586
 9406SOL    HW239681   0.378   1.952   3.605  0.7869 -1.3305  0.6345
 9407SOL     OW39682   0.842   0.757   9.524 -0.6626 -0.3086 -0.2702
 9407SOL    HW139683   0.837   0.680   9.581 -1.0778  1.0059  1.4710
 9407SOL    HW239684   0.936   0.757   9.505 -1.1089  3.9963 -2.2697
 9408SOL     OW39685   3.279   0.093   4.755 -0.2886  0.7495  0.2592
 9408SOL    HW139686   3.333   0.127   4.685 -0.3104  0.5982  0.1684
 9408SOL    HW239687   3.339   0.108   4.828  2.1625 -2.3280 -1.1418
 9409SOL     OW39688   4.627   1.620  10.670 -0.0776  0.2449  0.5493
 9409SOL    HW139689   4.710   1.656  10.702 -1.7337  0.7660  4.2392
 9409SOL    HW239690   4.577   1.625  10.751 -0.7382 -0.3627  0.1692
 9410SOL     OW39691   3.340   1.975  17.375 -0.1507 -0.1207 -0.4499
 9410SOL    HW139692   3.301   1.996  17.460  0.5164 -0.5712 -0.0332
 9410SOL    HW239693   3.278   2.023  17.320  0.9668  1.2138 -0.5606
 9411SOL     OW39694   3.691   2.343   7.692  0.3169  0.1556  0.4911
 9411SOL    HW139695   3.771   2.331   7.641  1.8545  0.9197  2.6936
 9411SOL    HW239696   3.724   2.328   7.781 -0.7270 -0.7779  0.7194
 9412SOL     OW39697   1.048   1.847   5.326  0.2612  0.5902  0.2381
 9412SOL    HW139698   0.977   1.824   5.385 -0.7491  1.7857 -0.5053
 9412SOL    HW239699   1.109   1.904   5.374 -0.4033  0.1070  1.6474
 9413SOL     OW39700   3.460   4.495   4.085  0.1427  0.3562  0.7960
 9413SOL    HW139701   3.496   4.440   4.015  0.6476  0.6663  0.8101
 9413SOL    HW239702   3.367   4.485   4.065  0.2296  0.4749  0.3214
 9414SOL     OW39703   3.754   3.426  13.309 -0.0765  0.4383 -0.3982
 9414SOL    HW139704   3.754   3.383  13.223  1.7241 -2.6585  1.1478
 9414SOL    HW239705   3.755   3.353  13.370 -0.4823  0.5487 -0.2616
 9415SOL     OW39706   3.905   1.816  15.270  0.5623 -0.0581  0.7782
 9415SOL    HW139707   3.954   1.748  15.224  0.6545  1.5288 -1.4277
 9415SOL    HW239708   3.857   1.851  15.195  0.8744 -1.6711 -0.1755
 9416SOL     OW39709   4.248   0.202  16.731 -0.2121 -0.8012 -0.7132
 9416SOL    HW139710   4.204   0.240  16.808  0.6543  0.6990 -0.9508
 9416SOL    HW239711   4.241   0.276  16.671  1.6024 -1.2190 -1.4300
 9417SOL     OW39712   0.703   4.019   6.921  0.4897 -0.3007  0.0159
 9417SOL    HW139713   0.682   3.935   6.881 -0.3468 -0.6690  1.2398
 9417SOL    HW239714   0.656   4.086   6.871 -0.8910  0.3620  2.2024
 9418SOL     OW39715   3.197   2.838   8.240 -0.7117  0.1787  0.4019
 9418SOL    HW139716   3.287   2.866   8.259 -1.0098  0.4460  1.4025
 9418SOL    HW239717   3.155   2.822   8.324 -0.3097  0.5276  0.6752
 9419SOL     OW39718   0.047   1.209  16.701  0.0660  0.2043  0.1239
 9419SOL    HW139719   0.085   1.193  16.787  0.3135 -2.2338 -0.4189
 9419SOL    HW239720   0.089   1.289  16.671 -2.0629  1.2491 -0.1072
 9420SOL     OW39721   2.577   0.404   2.348  0.1344  0.3113 -0.4209
 9420SOL    HW139722   2.563   0.498   2.356  3.2865  0.9866 -3.0120
 9420SOL    HW239723   2.646   0.386   2.285 -0.2239  1.1015 -1.0354
 9421SOL     OW39724   3.598   4.129  14.576  0.5132 -0.2429 -0.4790
 9421SOL    HW139725   3.562   4.040  14.571 -1.6346  0.6258  0.0594
 9421SOL    HW239726   3.656   4.111  14.650 -1.4963 -0.2968  1.0777
 9422SOL     OW39727   2.384   1.579   6.244  0.4517 -0.0009  0.0110
 9422SOL    HW139728   2.368   1.643   6.175 -0.7236 -1.5939 -1.1535
 9422SOL    HW239729   2.467   1.539   6.219 -0.3758 -1.9886  0.4858
 9423SOL     OW39730   1.173   1.908   4.096  0.2546 -0.7717  0.3815
 9423SOL    HW139731   1.154   1.917   4.003  1.6718  0.2711  0.1913
 9423SOL    HW239732   1.225   1.985   4.119 -0.5681  0.0113 -0.3797
 9424SOL     OW39733   2.057   0.455   4.287 -0.4111  0.6769  0.1386
 9424SOL    HW139734   1.990   0.481   4.351 -0.9717  1.7716 -0.8886
 9424SOL    HW239735   2.031   0.363   4.280 -0.3012  0.4446  2.7155
 9425SOL     OW39736   0.831   3.510   6.542 -0.5223  0.7835 -0.8840
 9425SOL    HW139737   0.918   3.471   6.553 -0.7501  0.8429  1.0616
 9425SOL    HW239738   0.812   3.461   6.462  1.4314 -1.3925 -0.0140
 9426SOL     OW39739   2.408   2.886  14.929  0.4476 -0.2670 -0.0459
 9426SOL    HW139740   2.346   2.843  14.869 -1.6038 -1.0693  2.6584
 9426SOL    HW239741   2.429   2.969  14.886  2.1048 -0.5785  0.1629
 9427SOL     OW39742   1.664   2.606   0.478  0.5021  0.3026  0.3459
 9427SOL    HW139743   1.655   2.636   0.387 -0.1552  2.3380  1.0896
 9427SOL    HW239744   1.682   2.680   0.536 -1.4124  0.1484  1.1410
 9428SOL     OW39745   3.206   3.598   7.246  0.1524 -0.1073 -0.0461
 9428SOL    HW139746   3.292   3.562   7.225  1.1532  2.4243 -0.2862
 9428SOL    HW239747   3.152   3.537   7.195 -1.0188  1.6448 -0.9043
 9429SOL     OW39748   1.265   0.894   7.982  0.0495  0.1789  0.1113
 9429SOL    HW139749   1.354   0.862   7.997 -0.9174 -2.4700  0.1429
 9429SOL    HW239750   1.238   0.885   8.073 -0.3661 -0.1201 -0.0418
 9430SOL     OW39751   2.441   0.445  13.464  0.1696 -1.1370 -0.0335
 9430SOL    HW139752   2.532   0.434  13.436  0.5899 -0.4453  1.1030
 9430SOL    HW239753   2.403   0.360  13.485 -0.7689 -1.6124 -3.5366
 9431SOL     OW39754   1.151   4.702  15.462 -0.4854  0.0783 -0.0667
 9431SOL    HW139755   1.213   4.650  15.411  0.0979 -1.1028  1.8614
 9431SOL    HW239756   1.174   0.068  15.442  1.7426 -0.1746  1.3828
 9432SOL     OW39757   3.559   2.769   3.039  0.1468 -0.3201 -0.2613
 9432SOL    HW139758   3.559   2.699   3.104 -0.6803 -1.7427 -1.7939
 9432SOL    HW239759   3.651   2.794   3.032  0.7126 -2.7285 -1.2019
 9433SOL     OW39760   1.851   0.543   6.394  0.7266 -0.2073  0.2078
 9433SOL    HW139761   1.926   0.548   6.453 -0.5209 -0.8711  1.8629
 9433SOL    HW239762   1.779   0.570   6.450  0.5105  1.4630 -0.8916
 9434SOL     OW39763   0.388   0.522   5.248 -0.1436 -0.0814  0.0777
 9434SOL    HW139764   0.406   0.437   5.207 -0.8942  1.0931 -2.6136
 9434SOL    HW239765   0.452   0.575   5.201  0.3589 -1.0943 -0.3872
 9435SOL     OW39766   4.643   0.794   1.303 -0.1630 -0.3538  0.2498
 9435SOL    HW139767   4.574   0.822   1.363  0.5356  0.0313  0.8781
 9435SOL    HW239768   4.609   0.807   1.215  3.0655  1.4392 -0.7130
 9436SOL     OW39769   4.635   1.943   2.376  0.2729 -0.1508 -0.3778
 9436SOL    HW139770   4.700   1.929   2.444  1.4099  2.0344 -1.0132
 9436SOL    HW239771   4.658   2.035   2.357  1.9283  0.1382  3.1692
 9437SOL     OW39772   2.714   0.661  17.034 -0.2841  0.2710 -1.0397
 9437SOL    HW139773   2.635   0.610  17.019  1.1921 -1.8399 -1.5155
 9437SOL    HW239774   2.692   0.691  17.123 -0.3436 -0.3544 -0.8480
 9438SOL     OW39775   1.463   3.627   6.699 -0.9954  0.0490 -0.4756
 9438SOL    HW139776   1.439   3.690   6.630  2.1027  1.1099 -0.5653
 9438SOL    HW239777   1.540   3.671   6.735 -0.9012  0.4081 -1.1248
 9439SOL     OW39778   2.196   1.009   4.702 -0.6299 -0.3077 -0.4273
 9439SOL    HW139779   2.266   1.074   4.696 -0.2759 -0.7740 -1.4370
 9439SOL    HW239780   2.222   0.950   4.631  0.4410  0.0558 -0.3417
 9440SOL     OW39781   3.969   3.609   8.674 -0.2169 -0.4000  0.1897
 9440SOL    HW139782   3.882   3.646   8.686  0.0078  0.5867 -1.3289
 9440SOL    HW239783   3.968   3.622   8.580  0.8235  1.4391  0.4369
 9441SOL     OW39784   4.189   0.459   3.956  0.9522  0.2208  0.7566
 9441SOL    HW139785   4.172   0.502   4.040 -1.9658 -2.2658  1.4395
 9441SOL    HW239786   4.277   0.429   3.979  1.0061  0.2141  0.5363
 9442SOL     OW39787   4.457   2.263   5.020  0.1211 -0.0606 -0.2172
 9442SOL    HW139788   4.406   2.274   4.940  1.3649 -1.6180 -1.2277
 9442SOL    HW239789   4.542   2.260   4.975 -0.0130 -0.8264 -0.4121
 9443SOL     OW39790   1.262   4.592  15.230 -0.3761 -0.1972 -0.1061
 9443SOL    HW139791   1.276   4.526  15.162 -0.6789  0.0901 -0.4460
 9443SOL    HW239792   1.250   4.673  15.180  1.2642  0.4135  0.4698
 9444SOL     OW39793   3.511   3.457   6.653 -0.2704  0.4318  0.2923
 9444SOL    HW139794   3.587   3.453   6.712  1.2231  0.1225 -1.6635
 9444SOL    HW239795   3.533   3.537   6.605 -1.0874  0.8542  0.6382
 9445SOL     OW39796   0.114   1.863   2.539  0.0940 -0.3782 -0.1336
 9445SOL    HW139797   0.199   1.908   2.547 -0.4946  0.3794  1.7622
 9445SOL    HW239798   0.081   1.865   2.629  0.6007 -0.3276  0.0536
 9446SOL     OW39799   2.820   0.179   9.360  0.0445  0.0925  0.9682
 9446SOL    HW139800   2.865   0.172   9.444  0.2261 -1.3124  0.7422
 9446SOL    HW239801   2.889   0.213   9.303 -0.9783  0.4633 -0.0615
 9447SOL     OW39802   3.757   4.719   4.179  0.0087  0.5124  0.0691
 9447SOL    HW139803   3.728   4.628   4.185 -3.4180  1.4617 -1.9932
 9447SOL    HW239804   3.851   4.715   4.199 -0.0530 -0.5072  0.1785
 9448SOL     OW39805   2.620   1.001   8.033 -0.0087 -0.2485  0.2523
 9448SOL    HW139806   2.552   1.055   7.993  0.4613  0.1508 -0.0067
 9448SOL    HW239807   2.578   0.944   8.097  3.3112 -2.5374  0.4135
 9449SOL     OW39808   1.730   0.977  13.217  0.0859  0.1658  0.1192
 9449SOL    HW139809   1.656   1.022  13.258 -1.5553 -1.2391 -1.3320
 9449SOL    HW239810   1.800   1.039  13.238 -1.8164  1.8420  1.4915
 9450SOL     OW39811   1.846   1.337   6.562 -0.2247 -0.0050  0.1381
 9450SOL    HW139812   1.851   1.377   6.475  0.8995 -0.6719 -0.1067
 9450SOL    HW239813   1.906   1.391   6.613 -0.2903 -0.1563  0.3768
 9451SOL     OW39814   3.887   0.355   6.622  0.2602  0.5381  0.0930
 9451SOL    HW139815   3.870   0.302   6.544 -0.3523 -0.2930  0.8054
 9451SOL    HW239816   3.946   0.301   6.675 -0.1536 -0.4467 -0.4467
 9452SOL     OW39817   2.990   0.583   0.011 -0.5651 -0.4287  0.8521
 9452SOL    HW139818   3.011   0.504  17.663 -1.6848  0.1947 -0.6532
 9452SOL    HW239819   2.952   0.550   0.092 -1.9250 -2.1542 -0.4852
 9453SOL     OW39820   1.634   2.977   2.201  0.2113  0.5797  0.0160
 9453SOL    HW139821   1.578   2.993   2.125  1.4865  0.0646 -1.0341
 9453SOL    HW239822   1.571   2.966   2.272 -0.3582  1.2012 -0.3850
 9454SOL     OW39823   2.385   4.287   6.264  0.2928 -0.8280  0.4287
 9454SOL    HW139824   2.312   4.338   6.300 -0.0662 -1.9364  1.2867
 9454SOL    HW239825   2.367   4.203   6.307  2.0911 -1.7854 -0.6941
 9455SOL     OW39826   2.834   1.002   4.423 -0.4204  0.5006  0.7063
 9455SOL    HW139827   2.858   1.048   4.343 -0.6445 -0.5126  0.0608
 9455SOL    HW239828   2.876   1.049   4.495  0.3086 -0.1111  0.6836
 9456SOL     OW39829   1.604   3.815  11.485 -0.3909  0.0037  1.1443
 9456SOL    HW139830   1.530   3.761  11.456 -0.2927  1.7693 -2.3775
 9456SOL    HW239831   1.670   3.746  11.478 -0.2469  0.4770 -2.6092
 9457SOL     OW39832   3.655   4.553   5.121  0.0523  0.0103  0.1885
 9457SOL    HW139833   3.687   4.633   5.163  0.4779  0.3283 -0.7369
 9457SOL    HW239834   3.631   4.506   5.201 -0.9598  0.7669  0.3277
 9458SOL     OW39835   1.469   3.945   5.502 -0.3996 -0.2864  0.4739
 9458SOL    HW139836   1.521   3.939   5.421  0.3694 -0.5147  0.9813
 9458SOL    HW239837   1.537   3.918   5.564 -0.7532  0.1203  1.0390
 9459SOL     OW39838   3.500   2.455   4.379 -0.4539  0.0989  0.4655
 9459SOL    HW139839   3.549   2.533   4.406  2.2971 -0.4359 -3.0349
 9459SOL    HW239840   3.555   2.429   4.305 -0.6745 -0.6788  0.5818
 9460SOL     OW39841   3.797   4.645   9.898  0.2176  0.2184 -0.2941
 9460SOL    HW139842   3.822   4.610   9.813  1.1093 -0.9738  0.4727
 9460SOL    HW239843   3.720   4.596   9.926  0.3386  0.5473  0.6294
 9461SOL     OW39844   0.573   0.700  10.505  0.2440  0.1606 -1.1679
 9461SOL    HW139845   0.566   0.630  10.570 -1.8961  1.5037  0.0303
 9461SOL    HW239846   0.615   0.654  10.432  1.4500 -0.1932 -0.2538
 9462SOL     OW39847   1.800   3.033   8.946 -0.4161  0.3963  0.0047
 9462SOL    HW139848   1.839   2.947   8.965 -2.5405 -0.8517 -1.2572
 9462SOL    HW239849   1.843   3.084   9.014 -1.1907  1.8049 -0.5768
 9463SOL     OW39850   0.123   3.841  10.481 -0.2607  0.1072 -0.0017
 9463SOL    HW139851   0.133   3.911  10.417 -1.5542  2.4350  2.3198
 9463SOL    HW239852   0.190   3.774  10.468  0.1981  0.7896 -1.0528
 9464SOL     OW39853   1.845   1.179   5.495  0.1569 -0.1775 -0.3272
 9464SOL    HW139854   1.888   1.095   5.508  0.2483  0.1338  1.3938
 9464SOL    HW239855   1.911   1.238   5.459  0.0642 -0.1478 -0.4496
 9465SOL     OW39856   0.712   1.538  10.883 -0.1600  0.0431 -0.1745
 9465SOL    HW139857   0.762   1.471  10.929 -1.2617  0.2697  1.3486
 9465SOL    HW239858   0.672   1.585  10.956  3.6907  2.2530  0.4780
 9466SOL     OW39859   2.932   3.564   2.512  0.5464  0.5266 -0.0460
 9466SOL    HW139860   3.024   3.540   2.502  0.0844 -0.2154 -2.7494
 9466SOL    HW239861   2.905   3.503   2.581  0.6276  0.6262  0.0737
 9467SOL     OW39862   3.927   0.007   8.508  0.3116  0.2639  1.0806
 9467SOL    HW139863   3.936   4.637   8.524 -1.4658  0.0905  1.0290
 9467SOL    HW239864   4.017   0.030   8.484  0.2979 -1.2180 -0.4087
 9468SOL     OW39865   1.302   3.777   5.804  0.2613  0.4119 -0.4227
 9468SOL    HW139866   1.277   3.868   5.789  0.0168  0.5236  0.6195
 9468SOL    HW239867   1.242   3.731   5.746  1.6315  0.3434 -1.7672
 9469SOL     OW39868   2.845   1.891   7.659  0.1026  0.2875  0.0356
 9469SOL    HW139869   2.828   1.984   7.668  0.5850  0.4172 -0.4009
 9469SOL    HW239870   2.913   1.891   7.592  0.5439 -1.8484  0.4828
 9470SOL     OW39871   0.588   1.714   3.020  0.3860  0.6986  0.4592
 9470SOL    HW139872   0.678   1.714   3.052  0.9136 -2.2457 -1.0033
 9470SOL    HW239873   0.556   1.801   3.045 -2.8317 -0.1837 -0.6138
 9471SOL     OW39874   4.652   2.178   1.185 -0.0721 -0.0516  0.2810
 9471SOL    HW139875   0.001   2.156   1.242 -0.8865 -1.1573  0.8991
 9471SOL    HW239876   4.696   2.192   1.101  0.0113  0.3706  0.3945
 9472SOL     OW39877   1.189   3.673  13.815 -0.2536 -0.2024  0.1982
 9472SOL    HW139878   1.248   3.610  13.858  0.3493 -0.4393 -0.9813
 9472SOL    HW239879   1.117   3.673  13.878 -0.0066  1.8132  0.4853
 9473SOL     OW39880   1.228   3.261   2.890 -0.2067  0.4248  0.1289
 9473SOL    HW139881   1.146   3.244   2.936 -0.4310  0.6452 -0.1932
 9473SOL    HW239882   1.256   3.170   2.876  1.9463  0.7885  1.9943
 9474SOL     OW39883   3.242   1.422   9.166  0.0315 -0.6031 -0.0848
 9474SOL    HW139884   3.298   1.374   9.227 -0.2372  0.7023  1.1814
 9474SOL    HW239885   3.305   1.458   9.103  0.0716  0.4891  0.5824
 9475SOL     OW39886   2.964   3.636   5.838  0.4629 -0.1198 -0.3981
 9475SOL    HW139887   3.036   3.677   5.791 -0.2187  0.7731 -0.6547
 9475SOL    HW239888   2.947   3.550   5.800 -0.7185 -0.1753  0.2678
 9476SOL     OW39889   4.429   2.468   0.872  0.7083  0.1048 -0.1278
 9476SOL    HW139890   4.435   2.407   0.946  2.5934 -0.5418 -0.7980
 9476SOL    HW239891   4.521   2.463   0.844  0.0335 -0.1814 -2.2545
 9477SOL     OW39892   2.209   2.438   8.905 -0.2929  0.2992  0.2508
 9477SOL    HW139893   2.281   2.494   8.931 -0.1026  0.2082 -0.0763
 9477SOL    HW239894   2.247   2.359   8.944 -0.7320  0.3086  0.6999
 9478SOL     OW39895   2.321   0.199   6.392  0.3427  0.2796 -0.0034
 9478SOL    HW139896   2.233   0.205   6.429 -0.1448 -1.0906 -0.9516
 9478SOL    HW239897   2.332   0.110   6.358 -4.3954 -1.7627  3.8052
 9479SOL     OW39898   2.341   3.926   3.487  0.4382 -0.1152 -0.1069
 9479SOL    HW139899   2.320   3.832   3.495  0.8045  0.0312  2.7706
 9479SOL    HW239900   2.251   3.958   3.480  0.2347 -0.7599 -0.4488
 9480SOL     OW39901   1.880   1.307   7.794 -0.5376  0.5197  0.1145
 9480SOL    HW139902   1.969   1.308   7.759 -1.0624 -1.5566 -1.2536
 9480SOL    HW239903   1.874   1.245   7.866 -0.5584 -0.4697 -0.7438
 9481SOL     OW39904   0.285   2.189   5.128 -0.4879  0.0991 -0.5084
 9481SOL    HW139905   0.286   2.095   5.112  0.5931 -0.3281  2.1289
 9481SOL    HW239906   0.379   2.201   5.133 -0.8400  2.7107 -0.2189
 9482SOL     OW39907   1.810   1.686   2.462  0.8160  0.4663 -0.0073
 9482SOL    HW139908   1.763   1.611   2.497  0.6765  1.0440  1.0567
 9482SOL    HW239909   1.762   1.755   2.507  1.6057  1.3378 -0.4882
 9483SOL     OW39910   1.726   3.185  16.722  0.5873 -0.2487 -0.5691
 9483SOL    HW139911   1.794   3.242  16.686  2.0361 -1.0078  0.9395
 9483SOL    HW239912   1.743   3.176  16.816 -1.6352 -1.6075 -0.3060
 9484SOL     OW39913   1.713   1.336   7.492 -0.0752 -0.2820 -0.1859
 9484SOL    HW139914   1.649   1.403   7.515  1.4872  1.1789 -0.1574
 9484SOL    HW239915   1.737   1.302   7.579  1.6191 -0.0974 -0.5897
 9485SOL     OW39916   0.625   4.320   3.432  0.2159 -0.4662 -0.0329
 9485SOL    HW139917   0.588   4.311   3.344 -3.1271 -0.9958  1.4313
 9485SOL    HW239918   0.669   4.236   3.427  0.7116 -0.2113  0.0296
 9486SOL     OW39919   2.124   4.043  13.502 -0.1559 -0.1485  0.3349
 9486SOL    HW139920   2.046   4.039  13.447  0.5729 -1.9483 -0.5751
 9486SOL    HW239921   2.078   4.072  13.581  3.1650  0.3374  2.1156
 9487SOL     OW39922   1.836   1.701   1.670 -0.2883 -0.5269 -0.6243
 9487SOL    HW139923   1.875   1.782   1.637 -1.6627  0.6942  0.7242
 9487SOL    HW239924   1.742   1.707   1.655 -0.1360 -2.3412 -2.1657
 9488SOL     OW39925   0.132   3.042   7.367  0.6094 -0.0004  0.0545
 9488SOL    HW139926   0.128   3.072   7.276  3.4771 -0.2719 -0.1671
 9488SOL    HW239927   0.187   3.112   7.402  2.5951 -0.6021 -1.8820
 9489SOL     OW39928   3.607   2.204  16.973 -0.0432 -0.2120 -0.7576
 9489SOL    HW139929   3.568   2.149  17.041 -1.1373 -0.6447 -1.7240
 9489SOL    HW239930   3.660   2.268  17.020  1.7392 -1.9351 -0.4024
 9490SOL     OW39931   4.543   2.255   3.924  0.2862 -0.0814 -0.1664
 9490SOL    HW139932   4.593   2.175   3.904 -1.4683 -1.9073  2.8007
 9490SOL    HW239933   4.592   2.312   3.864  1.2255 -2.1211 -1.3575
 9491SOL     OW39934   1.045   4.516   4.950 -0.3767 -0.2745  0.0215
 9491SOL    HW139935   1.058   4.556   5.036  0.2581 -0.1572 -0.1264
 9491SOL    HW239936   1.136   4.528   4.923 -0.6239 -1.9765 -1.5853
 9492SOL     OW39937   0.481   1.226  10.986  0.0798  0.0855 -0.0105
 9492SOL    HW139938   0.508   1.286  10.916 -2.5459  2.3238  0.9216
 9492SOL    HW239939   0.388   1.224  10.966  0.7597 -0.7386 -3.0855
 9493SOL     OW39940   3.839   3.596   4.641  0.0640 -0.2038  0.3427
 9493SOL    HW139941   3.886   3.639   4.569  0.6080  0.1244  0.8972
 9493SOL    HW239942   3.747   3.620   4.625 -0.3431 -0.7559  1.9320
 9494SOL     OW39943   1.478   4.449  12.607 -0.0111  0.2467  0.0740
 9494SOL    HW139944   1.502   4.539  12.585 -1.1467  0.1451 -1.5757
 9494SOL    HW239945   1.481   4.452  12.703  1.5028  0.0356  0.0357
 9495SOL     OW39946   4.543   1.191  16.556  0.0150 -0.3948 -0.1598
 9495SOL    HW139947   4.476   1.129  16.586 -0.1437 -0.3394 -0.3991
 9495SOL    HW239948   4.606   1.192  16.627  1.2890 -0.3746 -1.2888
 9496SOL     OW39949   1.582   3.386  10.207 -0.0075  0.4024  1.0143
 9496SOL    HW139950   1.588   3.296  10.174  2.1918  1.1553 -0.5734
 9496SOL    HW239951   1.663   3.387  10.258  1.0464  0.3747 -0.6691
 9497SOL     OW39952   2.974   1.920  10.005  0.0992  0.0632 -0.0976
 9497SOL    HW139953   2.995   1.909   9.913  1.1946 -3.8591  0.5972
 9497SOL    HW239954   2.943   1.836  10.039  0.4372  0.2651  0.7101
 9498SOL     OW39955   0.159   0.876   6.888 -0.0147 -0.1446 -0.0828
 9498SOL    HW139956   0.239   0.874   6.941  0.3404 -1.5615 -0.6803
 9498SOL    HW239957   0.158   0.787   6.855  1.9576  0.7146 -2.5131
 9499SOL     OW39958   2.076   1.824   5.345 -0.5471 -0.2913 -0.2742
 9499SOL    HW139959   2.069   1.858   5.255 -0.8678  2.2481  0.6895
 9499SOL    HW239960   1.983   1.830   5.366 -0.3903 -1.5115  0.7394
 9500SOL     OW39961   4.279   3.140   3.248 -0.0245  0.0840  0.3340
 9500SOL    HW139962   4.262   3.113   3.338  1.0239  2.3187  1.1942
 9500SOL    HW239963   4.357   3.086   3.234  0.1657  0.2398  0.7875
 9501SOL     OW39964   1.615   4.666   5.690  0.0880  0.5569 -0.3511
 9501SOL    HW139965   1.638   4.615   5.768 -2.7008 -1.7256 -0.9862
 9501SOL    HW239966   1.701   4.702   5.669  1.4880 -1.0086  2.7050
 9502SOL     OW39967   1.290   0.502  12.309  0.0791  0.0109  0.0597
 9502SOL    HW139968   1.293   0.408  12.293  0.0626  0.5816 -3.4429
 9502SOL    HW239969   1.222   0.511  12.376 -0.8199  1.9945 -1.1070
 9503SOL     OW39970   4.490   2.879  17.071 -0.4397 -0.0310 -0.1519
 9503SOL    HW139971   4.575   2.850  17.104  0.0137  0.2393 -1.0619
 9503SOL    HW239972   4.493   2.974  17.080 -0.7846 -0.0032 -0.3107
 9504SOL     OW39973   4.078   1.037   5.656 -0.4519  0.2277  0.8266
 9504SOL    HW139974   4.015   1.108   5.655 -1.1431 -0.3861  1.0426
 9504SOL    HW239975   4.141   1.068   5.590  1.8671 -2.9686  1.5338
 9505SOL     OW39976   0.420   0.970   6.337  0.5785  0.2630 -0.2515
 9505SOL    HW139977   0.412   1.064   6.354 -3.2272  0.4154 -3.0861
 9505SOL    HW239978   0.335   0.954   6.297  0.7820 -1.8188  0.1559
 9506SOL     OW39979   1.607   2.775   1.951 -0.0730 -0.4289  0.0718
 9506SOL    HW139980   1.661   2.855   1.955  0.0853 -0.5761  1.0437
 9506SOL    HW239981   1.662   2.730   1.887 -0.0697 -1.0165  0.4845
 9507SOL     OW39982   2.432   3.592  12.109  0.4117 -0.0945 -0.0279
 9507SOL    HW139983   2.489   3.515  12.104 -1.6757 -1.4630 -2.6862
 9507SOL    HW239984   2.420   3.596  12.204  0.9398 -1.1419  0.0774
 9508SOL     OW39985   0.621   2.342   9.385 -0.1500  0.8154 -0.0388
 9508SOL    HW139986   0.541   2.377   9.345 -0.3537 -0.6326 -0.8979
 9508SOL    HW239987   0.651   2.416   9.438  0.5614  0.5270 -0.0341
 9509SOL     OW39988   3.518   1.730   2.030  0.3646  0.6312  0.4638
 9509SOL    HW139989   3.524   1.750   1.937 -1.0542  0.9905  0.4389
 9509SOL    HW239990   3.611   1.717   2.046  0.5506  1.5497  0.1431
 9510SOL     OW39991   2.317   0.235   7.280  0.1535  0.6413 -0.0580
 9510SOL    HW139992   2.276   0.319   7.299 -2.4021 -0.3359 -1.1803
 9510SOL    HW239993   2.381   0.265   7.216  0.8982 -1.0823 -0.1272
 9511SOL     OW39994   3.888   2.139   4.398  0.5713 -0.7725 -0.6362
 9511SOL    HW139995   3.915   2.224   4.433 -1.2979 -0.7161  0.6858
 9511SOL    HW239996   3.846   2.090   4.470 -0.3936 -0.8771 -1.2713
 9512SOL     OW39997   3.959   2.609  16.323 -0.3934 -0.3968 -0.6222
 9512SOL    HW139998   3.916   2.657  16.394 -0.2797  1.0063 -1.5236
 9512SOL    HW239999   4.028   2.670  16.299 -0.6573  1.0440  2.3728
 9513SOL     OW40000   4.067   2.189   2.204 -0.5757 -0.4356 -0.4580
 9513SOL    HW140001   4.157   2.174   2.175 -1.3304 -1.7426 -2.1075
 9513SOL    HW240002   4.064   2.137   2.285  0.9362 -1.6495 -1.1766
 9514SOL     OW40003   1.507   0.629   3.165 -0.6579  0.0966  0.9995
 9514SOL    HW140004   1.602   0.640   3.162 -0.7418  0.8735  1.1361
 9514SOL    HW240005   1.491   0.539   3.136  0.3616 -0.5434  2.4003
 9515SOL     OW40006   1.927   1.350   0.348  0.1075  0.0597  0.4848
 9515SOL    HW140007   1.842   1.350   0.392 -0.1611  0.0991 -0.0359
 9515SOL    HW240008   1.983   1.389   0.415 -0.2240 -1.2852  1.5553
 9516SOL     OW40009   4.286   4.661   3.267 -0.2974 -0.4100 -0.4072
 9516SOL    HW140010   4.266   4.697   3.353 -0.2247 -0.5873 -0.3189
 9516SOL    HW240011   4.195   4.639   3.247  0.9427 -2.6188 -3.6920
 9517SOL     OW40012   2.226   2.068   0.388 -0.2021  0.0771 -0.1922
 9517SOL    HW140013   2.145   2.119   0.384 -0.2733  0.0445  0.7070
 9517SOL    HW240014   2.284   2.115   0.447 -1.5885  2.7185 -0.9538
 9518SOL     OW40015   1.151   4.344   8.159  0.0477  0.6187 -1.0900
 9518SOL    HW140016   1.220   4.409   8.148  0.6738 -0.0140 -0.9553
 9518SOL    HW240017   1.099   4.361   8.080 -1.9872 -1.0602 -0.1133
 9519SOL     OW40018   1.080   1.781   7.809  0.0005  0.5984 -0.0185
 9519SOL    HW140019   1.085   1.841   7.883  2.4531  1.3223 -0.7890
 9519SOL    HW240020   1.172   1.776   7.784 -0.0874 -0.4611 -0.1493
 9520SOL     OW40021   0.152   4.576   5.804  0.0681 -0.8272  0.3786
 9520SOL    HW140022   0.229   4.632   5.813  0.5965 -1.5099  0.0890
 9520SOL    HW240023   0.178   4.507   5.865 -0.5105 -1.0042  0.4330
 9521SOL     OW40024   1.110   1.115   4.853  0.4112  0.1114  0.6738
 9521SOL    HW140025   1.201   1.145   4.852  0.7491 -0.8510  1.3268
 9521SOL    HW240026   1.079   1.158   4.774  4.6166  1.1062 -0.4626
 9522SOL     OW40027   3.767   4.058   6.347 -0.2567  0.5810 -0.1418
 9522SOL    HW140028   3.694   4.096   6.299  0.6205  1.8114 -0.4910
 9522SOL    HW240029   3.777   4.128   6.411  1.9499  0.5408 -0.4288
 9523SOL     OW40030   1.465   2.342  10.163 -0.2416 -0.8223  0.3981
 9523SOL    HW140031   1.549   2.324  10.121 -0.8133  0.1069 -1.1545
 9523SOL    HW240032   1.424   2.256  10.161 -0.1690 -0.8448 -0.0478
 9524SOL     OW40033   4.636   2.648  16.755 -0.0297 -0.1937 -0.1336
 9524SOL    HW140034   4.652   2.596  16.676  1.1669  1.2762 -0.8507
 9524SOL    HW240035   4.565   2.598  16.795 -0.9909  0.9032 -0.4452
 9525SOL     OW40036   3.337   1.173   9.298  0.0008  0.0565  0.0297
 9525SOL    HW140037   3.330   1.184   9.393 -0.9110  0.8525 -0.1285
 9525SOL    HW240038   3.428   1.144   9.293 -0.2434 -0.7364  0.1776
 9526SOL     OW40039   1.277   1.267   6.102  0.2687  0.9083  0.0603
 9526SOL    HW140040   1.276   1.180   6.061 -1.4335  0.8044  0.2967
 9526SOL    HW240041   1.259   1.330   6.033  0.2117  0.4770 -0.3230
 9527SOL     OW40042   1.525   1.703  12.331 -0.1297 -0.0409 -0.0965
 9527SOL    HW140043   1.557   1.739  12.414  1.4884  1.3733 -1.3404
 9527SOL    HW240044   1.594   1.637  12.325  0.6467  0.9083 -1.5258
 9528SOL     OW40045   3.123   1.362   7.282 -0.4471  0.7315 -0.1139
 9528SOL    HW140046   3.204   1.411   7.269  0.1297  0.1523  1.3448
 9528SOL    HW240047   3.054   1.423   7.305 -0.3186  0.9806 -0.3859
 9529SOL     OW40048   1.681   2.325   0.047 -0.3797  0.1967  0.2874
 9529SOL    HW140049   1.676   2.235   0.017  0.5255  0.2967 -0.1863
 9529SOL    HW240050   1.676   2.381  17.670 -1.8191  0.7884  0.8121
 9530SOL     OW40051   2.138   2.088  11.959  0.5907 -0.4469  0.4298
 9530SOL    HW140052   2.094   2.007  11.983  1.0261 -0.5389  0.9242
 9530SOL    HW240053   2.078   2.157  11.987 -0.2920 -1.2519  0.4966
 9531SOL     OW40054   1.725   2.592   2.211  0.2942  0.4955 -0.4719
 9531SOL    HW140055   1.721   2.555   2.123 -1.8510 -3.3522  1.2447
 9531SOL    HW240056   1.776   2.672   2.195  1.0302  0.1095 -0.0587
 9532SOL     OW40057   0.923   3.843   2.898  0.2055 -0.4633  0.0048
 9532SOL    HW140058   0.889   3.771   2.845  0.5643 -1.1527  0.7232
 9532SOL    HW240059   0.870   3.827   2.976  2.7949 -2.5557  1.3244
 9533SOL     OW40060   2.829   1.837   8.522 -0.2167  0.3600 -0.6591
 9533SOL    HW140061   2.800   1.763   8.576  0.0148  1.0996  0.4766
 9533SOL    HW240062   2.828   1.788   8.440 -1.0839 -1.0486  0.1891
 9534SOL     OW40063   1.955   0.055   6.565 -0.0805 -0.1727 -0.1816
 9534SOL    HW140064   2.002   0.125   6.520  2.8296 -1.3244  1.1016
 9534SOL    HW240065   2.030   0.026   6.616 -0.8368 -2.8701 -0.6028
 9535SOL     OW40066   3.443   2.610  12.770  0.3848 -0.5060  0.3127
 9535SOL    HW140067   3.506   2.599  12.698  0.7069 -1.3027  0.7183
 9535SOL    HW240068   3.418   2.521  12.793  0.1282 -0.4528  0.2409
 9536SOL     OW40069   0.446   2.200   3.929 -0.5151 -0.1265 -0.3427
 9536SOL    HW140070   0.494   2.261   3.873  0.6074 -1.0722 -0.4199
 9536SOL    HW240071   0.518   2.190   3.992  1.2594 -0.8428 -2.4949
 9537SOL     OW40072   3.639   0.950   4.502 -0.7007  0.6793  0.0799
 9537SOL    HW140073   3.581   0.935   4.428  1.3624 -0.9173 -1.1940
 9537SOL    HW240074   3.641   1.046   4.505 -1.3905  0.6846  0.2864
 9538SOL     OW40075   2.810   1.063   8.939 -0.4613 -0.1829 -0.2193
 9538SOL    HW140076   2.762   1.143   8.956  0.4617  0.0699  1.2523
 9538SOL    HW240077   2.836   1.047   9.030 -1.7519  1.8219  0.5070
 9539SOL     OW40078   0.537   3.680  15.353  0.0567  0.1670  0.0087
 9539SOL    HW140079   0.484   3.739  15.406 -2.6876 -2.4610  0.2053
 9539SOL    HW240080   0.552   3.737  15.278 -1.0093  0.6095  0.1236
 9540SOL     OW40081   1.803   2.597   5.264 -0.4523 -0.2243  0.0316
 9540SOL    HW140082   1.764   2.511   5.246  2.7250 -1.5251 -0.5815
 9540SOL    HW240083   1.897   2.579   5.262 -0.5145 -0.4973 -0.3535
 9541SOL     OW40084   2.691   2.782   8.403  0.7134  0.0646  0.2429
 9541SOL    HW140085   2.638   2.771   8.482 -0.4284 -2.1253 -0.8135
 9541SOL    HW240086   2.766   2.729   8.433 -0.7767 -1.3276  1.5134
 9542SOL     OW40087   1.992   2.147   0.940 -0.1321  0.0407  0.7380
 9542SOL    HW140088   1.941   2.123   1.017 -0.5806 -0.4425  0.2932
 9542SOL    HW240089   1.961   2.237   0.927  0.4582  0.2144  0.5094
 9543SOL     OW40090   1.352   4.480   2.796  0.6671  0.4053 -0.2382
 9543SOL    HW140091   1.264   4.519   2.803  1.4018  1.7056  1.5382
 9543SOL    HW240092   1.407   4.554   2.771  0.3173  0.0726 -2.0081
 9544SOL     OW40093   3.041   4.048   5.169  0.4170  0.3044  0.7045
 9544SOL    HW140094   3.006   4.133   5.142 -1.6147 -1.6649 -2.7860
 9544SOL    HW240095   2.960   4.009   5.203 -1.1992  0.3937 -3.1117
 9545SOL     OW40096   3.622   3.791   7.371  0.4683 -0.2965 -0.2435
 9545SOL    HW140097   3.683   3.863   7.381  1.6495 -1.2438 -0.5513
 9545SOL    HW240098   3.609   3.767   7.463  1.4021 -3.3142 -0.8690
 9546SOL     OW40099   0.342   2.146   9.440  0.5010  0.2561  0.0027
 9546SOL    HW140100   0.366   2.151   9.348 -0.0208  0.1842 -0.1420
 9546SOL    HW240101   0.249   2.147   9.414  0.5177  2.6977  0.0325
 9547SOL     OW40102   4.536   2.307  16.386  0.1187 -0.2170  0.7098
 9547SOL    HW140103   4.447   2.337  16.363  0.3312  0.5633  0.8882
 9547SOL    HW240104   4.527   2.212  16.386 -0.2635 -0.1941 -2.4175
 9548SOL     OW40105   4.542   2.583   8.611 -0.7639  0.8850  0.1329
 9548SOL    HW140106   4.494   2.592   8.694 -2.8502  0.5848 -1.0504
 9548SOL    HW240107   4.469   2.587   8.550  1.6661  0.6327 -2.7557
 9549SOL     OW40108   1.976   2.534   6.245 -0.4289 -0.0762 -0.7679
 9549SOL    HW140109   2.071   2.534   6.234 -0.2884  3.0882  0.5094
 9549SOL    HW240110   1.966   2.567   6.334 -0.0858 -0.5618 -0.5456
 9550SOL     OW40111   4.503   0.628  11.817 -0.0850  0.0749 -0.4894
 9550SOL    HW140112   4.549   0.642  11.900  2.5313  1.8690 -2.2505
 9550SOL    HW240113   4.567   0.658  11.753  1.6467 -0.5227  0.9445
 9551SOL     OW40114   3.332   2.852   5.292  0.1844  0.1497  0.0111
 9551SOL    HW140115   3.427   2.846   5.301  0.0592 -0.0053  1.3240
 9551SOL    HW240116   3.327   2.936   5.339  1.9358 -0.9620  2.1891
 9552SOL     OW40117   2.573   3.373   8.097  0.1844 -0.1970  0.2672
 9552SOL    HW140118   2.632   3.423   8.153  0.9936  0.2945 -0.9994
 9552SOL    HW240119   2.593   3.413   8.012 -2.5664  1.4498  0.4019
 9553SOL     OW40120   3.066   3.225   2.099 -0.8641  0.3958  0.2390
 9553SOL    HW140121   3.146   3.266   2.067  0.4714 -3.5603 -1.4776
 9553SOL    HW240122   3.103   3.141   2.128  1.2980  1.3810  0.3438
 9554SOL     OW40123   1.418   0.105   1.770 -0.6978  0.0084  0.0175
 9554SOL    HW140124   1.384   0.034   1.824 -2.9009  1.8552  1.0221
 9554SOL    HW240125   1.404   0.066   1.683  1.7421  0.7338 -0.7060
 9555SOL     OW40126   2.018   0.321   3.791 -0.4672  0.5629 -0.6978
 9555SOL    HW140127   2.051   0.239   3.827  0.9910  1.5281  0.1766
 9555SOL    HW240128   2.017   0.374   3.871 -1.0984 -0.3809 -0.0836
 9556SOL     OW40129   4.685   4.609   7.232  0.5418 -0.0475 -0.2360
 9556SOL    HW140130   4.641   4.601   7.316  0.6791  0.5540 -0.1085
 9556SOL    HW240131   4.714   4.700   7.234 -0.9803  0.4808 -2.2606
 9557SOL     OW40132   4.491   1.878   4.771  0.6901  0.5036  0.6850
 9557SOL    HW140133   4.415   1.820   4.761  0.9711 -0.0067  1.5332
 9557SOL    HW240134   4.481   1.904   4.862 -0.4876  2.2319  0.0641
 9558SOL     OW40135   0.331   1.770   6.170 -0.1139  0.1396 -0.3288
 9558SOL    HW140136   0.343   1.865   6.169  1.1505 -0.0153  1.8822
 9558SOL    HW240137   0.421   1.743   6.184  0.1346  1.8008  1.2823
 9559SOL     OW40138   2.198   4.688   3.623  0.0193 -0.1499  0.0448
 9559SOL    HW140139   2.251   4.704   3.544  0.1959 -0.0416  0.1836
 9559SOL    HW240140   2.160   4.602   3.608  0.9341 -0.3599 -1.0645
 9560SOL     OW40141   2.376   1.065   1.404  0.6085  0.3061 -0.1399
 9560SOL    HW140142   2.367   1.155   1.371  0.0874  0.6372  0.8677
 9560SOL    HW240143   2.469   1.069   1.426  0.3030  1.3160  1.0076
 9561SOL     OW40144   2.275   1.810  16.738 -0.2401 -1.0121 -0.3996
 9561SOL    HW140145   2.254   1.750  16.666  0.6648 -0.8102 -0.8359
 9561SOL    HW240146   2.266   1.898  16.702 -2.8401 -1.0569  0.1116
 9562SOL     OW40147   0.784   0.980   2.329  0.4760  0.3492 -0.0868
 9562SOL    HW140148   0.714   1.034   2.366  2.0587  1.4631  1.3116
 9562SOL    HW240149   0.739   0.918   2.273 -2.2249  1.4309  0.8603
 9563SOL     OW40150   2.515   2.049   1.393 -0.6064 -0.1085  0.0729
 9563SOL    HW140151   2.512   1.959   1.359  1.0356 -0.3346  0.5111
 9563SOL    HW240152   2.583   2.039   1.460  1.0188  1.5213 -1.3304
 9564SOL     OW40153   3.586   3.589  15.910 -0.1959 -0.5898 -0.4695
 9564SOL    HW140154   3.655   3.653  15.894 -1.2620  1.4814  3.3883
 9564SOL    HW240155   3.525   3.611  15.839  0.8905  0.9233 -0.9265
 9565SOL     OW40156   1.349   1.778  12.837  0.0338  0.0770 -0.2112
 9565SOL    HW140157   1.301   1.795  12.918 -1.2768  0.1518 -0.9920
 9565SOL    HW240158   1.441   1.785  12.863  0.4504  1.2556 -1.9650
 9566SOL     OW40159   4.687   3.145   0.448 -0.2975  0.1935  0.2673
 9566SOL    HW140160   4.690   3.182   0.536  0.2183  0.5033  0.1149
 9566SOL    HW240161   4.614   3.082   0.447 -0.0278 -0.0902 -1.2923
 9567SOL     OW40162   4.695   0.018   3.617 -0.0937 -0.7938 -0.2971
 9567SOL    HW140163   0.055   0.011   3.571 -0.0115 -2.3738  0.1119
 9567SOL    HW240164   4.640   0.033   3.541  1.2819 -0.4435 -1.2390
 9568SOL     OW40165   0.547   0.656   8.210  0.2413 -0.1229 -0.0907
 9568SOL    HW140166   0.478   0.723   8.219  0.4804  0.0624  0.3441
 9568SOL    HW240167   0.593   0.671   8.293  0.2398  0.5123 -0.1987
   4.72463   4.72463  17.70003
