Membrane in water
40167
    1TCq1    O1    1   1.991   0.310  11.901  0.2606  0.0671 -0.2635
    1TCq1    C1    2   2.045   0.391  11.803  0.1256  0.1317  0.3070
    1TCq1    O2    3   2.036   0.514  11.793 -0.4743 -0.5738 -0.9221
    1TCq1    C2    4   2.135   0.307  11.724 -0.5143  0.6846  0.1839
    1TCq1    C3    5   2.249   0.376  11.682  0.6367  0.0629 -0.0238
    1TCq1    C4    6   2.355   0.308  11.639  0.4544 -0.0790 -0.3882
    1TCq1    C5    7   2.352   0.169  11.634  0.0752 -0.1207 -0.7092
    1TCq1    C6    8   2.229   0.106  11.667  0.1842  0.3949 -0.3353
    1TCq1    C7    9   2.120   0.177  11.707 -0.0841 -0.2588 -0.2005
    1TCq1    C8   10   2.230   4.688  11.693 -0.0577 -0.4596  0.0965
    1TCq1    O4   11   2.128   4.638  11.737  0.4270  0.1735  0.0654
    1TCq1    C9   12   2.482   0.370  11.598 -0.6554 -0.1641  0.9872
    1TCq1    O5   13   2.563   0.293  11.556 -0.2953 -0.5015 -0.7178
    1TCq1    O6   14   2.491   0.492  11.616  0.4130 -0.2242 -0.1562
    1TCq1    H1   15   2.046   0.230  11.915  0.7293  0.6786  1.4229
    1TCq1    H2   16   2.259   0.482  11.701  2.3016 -0.1787  0.4099
    1TCq1    H3   17   2.441   0.110  11.621 -0.0096 -0.1439 -1.1940
    1TCq1    H4   18   2.029   0.124  11.737  0.2699  0.2463  1.7850
    2MPD2     C   19   2.401   4.195  11.588 -0.4284  0.0567  0.2755
    2MPD2    C1   20   2.275   4.242  11.628  0.5787  0.1733  0.3526
    2MPD2    C2   21   2.255   4.381  11.651  0.2439 -0.1840  0.0798
    2MPD2    C3   22   2.357   4.475  11.636  0.1567 -0.0520 -1.2634
    2MPD2    C4   23   2.484   4.425  11.587  0.0374 -0.1117 -0.1660
    2MPD2    C5   24   2.500   4.287  11.575 -0.6551 -0.3126 -0.3476
    2MPD2     H   25   2.154   4.411  11.676 -0.0264 -0.6460 -0.4519
    2MPD2    H1   26   2.560   4.501  11.576 -0.2242  0.1865  0.0599
    2MPD2    H2   27   2.426   4.092  11.567 -0.4028  0.2715 -0.7689
    2MPD2    H3   28   2.597   4.253  11.541 -1.1812  0.9819 -3.1551
    2MPD2     N   29   2.340   4.618  11.647 -0.3999 -0.2252 -0.8166
    2MPD2    H5   30   2.423   4.675  11.631 -0.1777 -0.3635 -0.1390
    2MPD2    N1   31   2.167   4.158  11.657 -0.4837 -0.5285  0.4434
    2MPD2    H7   32   2.072   4.189  11.676 -0.2241 -1.6967  3.5598
    3TCq1    O1   33   1.821   4.625  11.206 -1.0968 -0.2145  0.1788
    3TCq1    C1   34   1.775   4.625  11.083 -0.2372 -0.0751 -0.2206
    3TCq1    O2   35   1.839   4.595  10.985  0.6498  0.1728 -0.3267
    3TCq1    C2   36   1.634   4.659  11.088 -0.3970  0.3820  0.0073
    3TCq1    C3   37   1.558   4.619  11.193  0.4057 -0.1596  0.1948
    3TCq1    C4   38   1.428   4.663  11.202  0.1059 -0.1006 -0.2188
    3TCq1    C5   39   1.388   0.027  11.107  0.5682 -0.0032 -0.0506
    3TCq1    C6   40   1.468   0.071  11.004  0.1410 -0.2999  0.2626
    3TCq1    C7   41   1.596   0.013  10.982 -0.4281 -0.4742 -0.5108
    3TCq1    C8   42   1.445   0.203  10.943  0.1745  0.0385  0.4147
    3TCq1    O4   43   1.513   0.239  10.850  0.2685  0.1426  0.1247
    3TCq1    C9   44   1.347   4.633  11.317  0.0936  0.3929  0.1427
    3TCq1    O5   45   1.225   4.657  11.303 -0.1813 -0.2083  0.3265
    3TCq1    O6   46   1.405   4.609  11.423  0.4684  0.1482  0.0266
    3TCq1    H1   47   1.755   4.676  11.258 -0.4516 -1.2856  2.0350
    3TCq1    H2   48   1.597   4.558  11.274  1.4756  2.5119  1.6640
    3TCq1    H3   49   1.292   0.076  11.118  1.1007  0.7355  1.2530
    3TCq1    H4   50   1.662   0.055  10.907 -2.0658  2.6257 -0.2071
    4MPD2     C   51   1.243   0.667  10.988  0.0383  0.5915 -0.2088
    4MPD2    C1   52   1.197   0.595  11.094 -0.7669 -0.4295  0.4632
    4MPD2    C2   53   1.231   0.460  11.102  0.3803  0.8249 -1.1573
    4MPD2    C3   54   1.319   0.405  11.005  0.0683  0.3389 -0.8228
    4MPD2    C4   55   1.355   0.485  10.892 -0.3121 -0.3165  0.0999
    4MPD2    C5   56   1.316   0.616  10.891  0.5101  0.1949  0.5704
    4MPD2     H   57   1.195   0.407  11.190  0.6967 -1.0389 -2.1585
    4MPD2    H1   58   1.411   0.444  10.810 -1.0919 -0.0693 -0.5553
    4MPD2    H2   59   1.212   0.771  10.978  0.7356  1.0045  2.0287
    4MPD2    H3   60   1.364   0.682  10.820  1.2802  0.7746  1.6324
    4MPD2     N   61   1.362   0.273  11.021 -0.0849 -0.2245  0.2440
    4MPD2    H5   62   1.333   0.228  11.108  1.6244  2.7058  2.3405
    4MPD2    N1   63   1.116   0.648  11.195 -0.9622  1.0608 -1.0298
    4MPD2    H7   64   1.091   0.588  11.273 -0.5796  0.8168 -1.0979
    5TCq1    O1   65   1.461   1.991  10.540  0.3392  0.0040  0.1609
    5TCq1    C1   66   1.443   2.050  10.660  0.0109 -0.2934  0.6142
    5TCq1    O2   67   1.341   2.098  10.705 -0.5622  0.0632 -0.1120
    5TCq1    C2   68   1.543   2.006  10.758 -0.3737 -0.5891  0.3186
    5TCq1    C3   69   1.497   1.996  10.885 -0.3622  0.0937  0.7658
    5TCq1    C4   70   1.569   1.934  10.982  1.1199 -0.4543  0.3790
    5TCq1    C5   71   1.698   1.901  10.958  0.1729  0.1456  0.3209
    5TCq1    C6   72   1.749   1.923  10.836  0.1330 -1.0738 -0.0976
    5TCq1    C7   73   1.674   1.975  10.731  0.0412  1.1686  0.1496
    5TCq1    C8   74   1.889   1.889  10.811 -0.4772  0.1616  0.7640
    5TCq1    O4   75   1.944   1.842  10.914  0.3614  0.4698 -0.0984
    5TCq1    C9   76   1.518   1.894  11.108  0.3498 -0.0508 -0.1433
    5TCq1    O5   77   1.591   1.895  11.209 -0.3194 -0.1398  0.4723
    5TCq1    O6   78   1.395   1.899  11.125  0.1791  0.1368 -0.1397
    5TCq1    H1   79   1.545   1.939  10.538  0.0832 -0.5513  2.8012
    5TCq1    H2   80   1.401   2.040  10.911  0.0927  1.3712  0.3125
    5TCq1    H3   81   1.755   1.849  11.034  0.3854 -2.2005 -1.4389
    5TCq1    H4   82   1.716   1.990  10.632 -0.7483 -2.0992 -0.6747
    6MPD2     C   83   2.140   2.004  10.562  0.1088  0.6303 -0.8376
    6MPD2    C1   84   2.078   1.922  10.664 -0.1660  0.3782  0.0639
    6MPD2    C2   85   2.146   1.809  10.715 -0.2236 -1.1471  0.0507
    6MPD2    C3   86   2.281   1.788  10.670  0.6219 -0.1340 -0.3441
    6MPD2    C4   87   2.340   1.877  10.587 -0.6784 -0.2642 -0.1701
    6MPD2    C5   88   2.268   1.977  10.525 -0.4669  0.2784  1.5330
    6MPD2     H   89   2.112   1.741  10.793  1.7704  0.0275  1.9292
    6MPD2    H1   90   2.437   1.856  10.544  0.0271  1.1307  0.7269
    6MPD2    H2   91   2.083   2.078  10.508 -1.1634 -0.4195 -0.9309
    6MPD2    H3   92   2.316   2.035  10.447  2.1849 -1.3107  1.9726
    6MPD2     N   93   2.346   1.675  10.720  0.1027  0.9019  0.3456
    6MPD2    H5   94   2.299   1.610  10.783  0.0032 -0.0861 -0.7589
    6MPD2    N1   95   1.948   1.948  10.698 -0.8836  0.3939  0.2942
    6MPD2    H7   96   1.902   2.019  10.642 -1.0461 -1.1387 -1.5105
    7TCq1    O1   97   2.847   1.530  13.116 -0.3408  0.1847  0.1662
    7TCq1    C1   98   2.917   1.608  13.033 -0.3640 -0.5406  0.1020
    7TCq1    O2   99   2.877   1.674  12.937  0.1401 -0.3265  0.1473
    7TCq1    C2  100   3.057   1.613  13.073  0.2490  0.0421  0.2802
    7TCq1    C3  101   3.117   1.736  13.077 -0.0087  0.2782  0.2279
    7TCq1    C4  102   3.252   1.739  13.079  0.0431  0.4889 -0.4380
    7TCq1    C5  103   3.328   1.624  13.078  0.2029  0.0012 -0.1866
    7TCq1    C6  104   3.258   1.504  13.099 -0.0767  0.0514 -0.3146
    7TCq1    C7  105   3.127   1.494  13.075  0.6748 -0.3225 -0.1865
    7TCq1    C8  106   3.330   1.377  13.120 -0.7246  0.3415 -0.9275
    7TCq1    O4  107   3.261   1.277  13.140  0.4170  0.4387 -0.3587
    7TCq1    C9  108   3.319   1.863  13.066  0.4503 -0.3717 -0.2863
    7TCq1    O5  109   3.440   1.865  13.089  0.1366 -0.1515  0.1725
    7TCq1    O6  110   3.248   1.966  13.056 -0.5365  0.0125 -0.1992
    7TCq1    H1  111   2.899   1.501  13.194 -0.8086  0.4661  0.5834
    7TCq1    H2  112   3.072   1.834  13.085  0.8544  0.6285  0.7612
    7TCq1    H3  113   3.436   1.631  13.079  0.3613 -2.4162 -0.0728
    7TCq1    H4  114   3.069   1.404  13.090 -0.6023 -0.1221 -3.7751
    8MPD2     C  115   3.757   1.115  13.208 -0.6643 -0.2645 -0.5181
    8MPD2    C1  116   3.630   1.067  13.183  0.1554  0.6107 -0.4661
    8MPD2    C2  117   3.531   1.158  13.151  0.2039 -0.0148 -0.7218
    8MPD2    C3  118   3.563   1.294  13.140  0.3774  1.2756 -0.1262
    8MPD2    C4  119   3.693   1.335  13.172 -0.7675 -0.5283 -0.0962
    8MPD2    C5  120   3.789   1.244  13.205 -0.3127  0.0973  0.0932
    8MPD2     H  121   3.429   1.123  13.138  0.2619 -0.7463  0.7301
    8MPD2    H1  122   3.721   1.439  13.170  0.6718 -0.9249 -0.5519
    8MPD2    H2  123   3.840   1.058  13.248 -0.1601 -0.1776 -1.4459
    8MPD2    H3  124   3.886   1.285  13.227 -0.8661 -0.0017  2.6891
    8MPD2     N  125   3.466   1.401  13.117 -0.3392  0.2248 -0.5084
    8MPD2    H5  126   3.501   1.496  13.114  1.7377 -0.4578  1.3500
    8MPD2    N1  127   3.600   0.930  13.214 -0.5434 -0.0428 -0.4712
    8MPD2    H7  128   3.668   0.885  13.274 -1.4316  0.0017  0.5548
    9TCq1    O1  129   2.378   4.662  11.317  0.3587 -0.6819  0.3999
    9TCq1    C1  130   2.279   0.009  11.258  0.1078 -0.6824 -0.2597
    9TCq1    O2  131   2.172   4.689  11.218  0.9045  0.2863  0.1041
    9TCq1    C2  132   2.292   0.148  11.282  0.3642 -0.1819  0.1165
    9TCq1    C3  133   2.411   0.208  11.246 -0.1154 -0.6215 -0.4100
    9TCq1    C4  134   2.408   0.341  11.240 -0.4336  0.6447 -0.2345
    9TCq1    C5  135   2.300   0.419  11.269  0.8679  0.3296  0.3160
    9TCq1    C6  136   2.181   0.355  11.296  0.3346  0.1725  0.3701
    9TCq1    C7  137   2.172   0.216  11.304 -0.3247  0.1669  0.0809
    9TCq1    C8  138   2.069   0.441  11.335 -0.8116 -0.3112 -0.3797
    9TCq1    O4  139   2.083   0.554  11.293 -0.1973 -0.2785  0.2769
    9TCq1    C9  140   2.522   0.411  11.177 -0.4544 -0.7674 -0.0648
    9TCq1    O5  141   2.508   0.528  11.140 -0.8197 -0.3619 -0.1443
    9TCq1    O6  142   2.627   0.342  11.172 -0.1922  0.0192  0.0169
    9TCq1    H1  143   2.448   0.001  11.342  1.6115 -1.1917 -1.8408
    9TCq1    H2  144   2.496   0.153  11.208 -0.8218  0.2898 -3.3217
    9TCq1    H3  145   2.316   0.526  11.260 -2.2681  0.6786 -0.9462
    9TCq1    H4  146   2.078   0.163  11.312  0.1248 -0.7680 -0.7418
   10MPD2     C  147   1.845   0.586  11.457 -0.5877 -0.3068  0.0567
   10MPD2    C1  148   1.867   0.453  11.477 -0.5465 -0.0241  0.4819
   10MPD2    C2  149   1.800   0.383  11.575 -0.2875  0.5667  0.5009
   10MPD2    C3  150   1.716   0.454  11.655 -0.9719  0.0397  0.4743
   10MPD2    C4  151   1.691   0.592  11.646 -0.1755 -0.7709 -0.2538
   10MPD2    C5  152   1.759   0.655  11.546  0.0178  1.1184  0.1085
   10MPD2     H  153   1.810   0.276  11.591  0.5395  0.5080 -0.4279
   10MPD2    H1  154   1.619   0.637  11.713  1.0928  0.1537  0.4741
   10MPD2    H2  155   1.900   0.639  11.380 -0.0446 -1.1831 -0.1543
   10MPD2    H3  156   1.737   0.758  11.523  3.3994  1.9082  0.4232
   10MPD2     N  157   1.654   0.390  11.762 -0.2289 -0.2577 -0.1538
   10MPD2    H5  158   1.607   0.448  11.830  0.4799  1.0181 -0.7475
   10MPD2    N1  159   1.974   0.387  11.417  0.2001 -0.2691  0.1247
   10MPD2    H7  160   1.986   0.293  11.452  1.1830 -0.2690 -0.2083
   11TCq1    O1  161   2.885   0.106  14.199  0.7640 -0.1481 -0.2536
   11TCq1    C1  162   2.836   4.721  14.251  0.7131  1.0989  0.4766
   11TCq1    O2  163   2.857   4.607  14.209  0.0537  0.2750  0.3817
   11TCq1    C2  164   2.774   0.037  14.375 -0.6201  0.5633 -0.5427
   11TCq1    C3  165   2.829   0.131  14.452 -0.0668  0.3589 -0.6170
   11TCq1    C4  166   2.784   0.141  14.578 -0.7367 -0.4564  0.5876
   11TCq1    C5  167   2.680   0.065  14.621  0.2901  0.0184 -0.4245
   11TCq1    C6  168   2.621   4.702  14.535 -0.0455  0.7718 -0.1613
   11TCq1    C7  169   2.666   4.688  14.407 -0.2045  0.5638 -0.8701
   11TCq1    C8  170   2.498   4.642  14.584 -0.3103 -0.1466  0.2232
   11TCq1    O4  171   2.463   4.665  14.698 -0.4872  0.1327 -0.8258
   11TCq1    C9  172   2.838   0.247  14.660 -0.9267 -0.0734 -0.3283
   11TCq1    O5  173   2.893   0.338  14.591 -0.0415 -0.4486  0.4350
   11TCq1    O6  174   2.805   0.255  14.781 -0.2418  0.2211  0.3140
   11TCq1    H1  175   2.874   0.179  14.263 -0.0932  2.0106 -2.8438
   11TCq1    H2  176   2.919   0.186  14.430 -1.6681  3.0741 -0.4543
   11TCq1    H3  177   2.644   0.088  14.721 -1.6494  0.7538 -1.2889
   11TCq1    H4  178   2.620   4.621  14.334  2.7934 -0.8446 -1.4486
   12MPD2     C  179   2.224   4.561  14.629  0.0220  0.2674  0.3726
   12MPD2    C1  180   2.295   4.545  14.510 -0.1019  0.1749 -0.1446
   12MPD2    C2  181   2.236   4.471  14.403  0.6313  0.1672  0.7198
   12MPD2    C3  182   2.105   4.422  14.428 -0.3356 -0.3748  0.2318
   12MPD2    C4  183   2.041   4.430  14.554  0.0036 -0.8507  0.1624
   12MPD2    C5  184   2.104   4.501  14.654 -0.4326 -0.3325  0.8921
   12MPD2     H  185   2.275   4.472  14.302  1.0854  0.1936  0.8951
   12MPD2    H1  186   1.940   4.396  14.572 -0.2512 -0.4352 -0.4818
   12MPD2    H2  187   2.260   4.624  14.709  2.0373 -0.7939  0.2779
   12MPD2    H3  188   2.050   4.519  14.746 -0.9460 -0.5584  0.6306
   12MPD2     N  189   2.052   4.367  14.310 -0.1959  0.1263 -0.0054
   12MPD2    H5  190   2.118   4.371  14.233  3.0279 -1.0367  2.7051
   12MPD2    N1  191   2.423   4.591  14.484  0.2218  0.3876  0.3495
   12MPD2    H7  192   2.461   4.575  14.392 -0.9563  1.0393 -0.2478
   13TCq1    O1  193   2.056   4.146  10.979 -0.0435  0.3295  0.0561
   13TCq1    C1  194   2.039   4.251  10.900 -0.1770  0.0109 -0.0077
   13TCq1    O2  195   2.119   4.277  10.812 -0.5860  0.1377  0.4554
   13TCq1    C2  196   1.899   4.276  10.887 -0.5237 -0.3593 -0.2067
   13TCq1    C3  197   1.839   4.289  10.761 -0.1483  0.7588 -0.7742
   13TCq1    C4  198   1.701   4.311  10.767 -0.2916  1.1980 -1.5431
   13TCq1    C5  199   1.625   4.302  10.879  0.2792  0.8495  0.7588
   13TCq1    C6  200   1.687   4.285  10.998  0.0438 -0.3786  0.2214
   13TCq1    C7  201   1.827   4.273  11.006  0.1374  0.1538  0.1193
   13TCq1    C8  202   1.609   4.291  11.117  0.9209 -0.2152  0.0391
   13TCq1    O4  203   1.493   4.322  11.111  0.5795  0.3021  0.0246
   13TCq1    C9  204   1.635   4.363  10.652 -0.2118  0.1184 -0.5634
   13TCq1    O5  205   1.706   4.362  10.547 -0.2428 -0.5325  0.6345
   13TCq1    O6  206   1.527   4.428  10.675 -0.1414 -0.2868 -0.5371
   13TCq1    H1  207   1.973   4.114  11.021 -0.2686 -1.3849 -1.6734
   13TCq1    H2  208   1.890   4.285  10.665 -0.6373 -0.1186 -0.9995
   13TCq1    H3  209   1.518   4.318  10.871  0.1431  0.4462  1.8023
   13TCq1    H4  210   1.874   4.274  11.104 -1.3252  0.5362  0.8161
   14MPD2     C  211   1.664   4.109  11.426  0.8256 -0.1230  0.8215
   14MPD2    C1  212   1.615   4.205  11.346  0.0283  0.6573 -0.1902
   14MPD2    C2  213   1.528   4.295  11.402 -0.7343 -0.4839 -0.1896
   14MPD2    C3  214   1.492   4.285  11.536 -0.0558 -0.6735  0.0973
   14MPD2    C4  215   1.529   4.174  11.609 -0.6013  0.6020 -0.6073
   14MPD2    C5  216   1.609   4.082  11.552 -1.1953  0.8861  0.1629
   14MPD2     H  217   1.482   4.382  11.356 -2.1407 -1.9212 -1.5317
   14MPD2    H1  218   1.506   4.166  11.714 -0.8132 -1.5714 -0.8324
   14MPD2    H2  219   1.739   4.039  11.391 -0.7529  0.4446 -3.6872
   14MPD2    H3  220   1.641   4.002  11.617  0.9780  0.9910 -0.8150
   14MPD2     N  221   1.411   4.388  11.595  0.5962  0.6611 -0.1355
   14MPD2    H5  222   1.399   4.473  11.542  0.9044  1.2966  0.8158
   14MPD2    N1  223   1.669   4.218  11.219 -0.5829 -0.3571 -0.1107
   14MPD2    H7  224   1.742   4.153  11.189  0.4335  1.1815 -0.9523
   15TCq1    O1  225   2.621   3.560   1.703  0.0556 -0.1679 -0.1934
   15TCq1    C1  226   2.735   3.622   1.663  0.2251  0.3960 -0.5257
   15TCq1    O2  227   2.764   3.667   1.553 -0.3723  0.2456  0.0045
   15TCq1    C2  228   2.839   3.549   1.730  0.6384 -1.3833  0.4230
   15TCq1    C3  229   2.818   3.528   1.860  0.1196  0.3373 -0.2310
   15TCq1    C4  230   2.908   3.450   1.929  0.0939 -0.1106  0.8903
   15TCq1    C5  231   3.013   3.387   1.862 -0.2924  0.3412  0.2381
   15TCq1    C6  232   3.029   3.410   1.732  0.3629  0.0378  0.1289
   15TCq1    C7  233   2.944   3.496   1.661 -0.4462 -0.5426  0.0713
   15TCq1    C8  234   3.068   3.293   1.652  0.2783  0.2995 -0.0072
   15TCq1    O4  235   3.169   3.245   1.701  0.0530  0.2769  0.1440
   15TCq1    C9  236   2.881   3.421   2.067  0.0443 -0.0635  0.4247
   15TCq1    O5  237   2.789   3.485   2.129  0.3837  0.3718 -0.0503
   15TCq1    O6  238   2.970   3.352   2.122  0.5741 -0.6952 -0.0935
   15TCq1    H1  239   2.629   3.517   1.791 -0.6737  2.1324  1.0104
   15TCq1    H2  240   2.740   3.582   1.911  0.2078  1.1138 -0.9055
   15TCq1    H3  241   3.069   3.309   1.912  1.5938  1.4462 -0.1691
   15TCq1    H4  242   2.953   3.504   1.554  0.7114  2.8998  0.4462
   16MPD2     C  243   2.960   3.128   1.333  0.1229 -0.1886 -0.2710
   16MPD2    C1  244   3.028   3.143   1.451 -0.2596 -0.5105 -0.3243
   16MPD2    C2  245   3.122   3.049   1.485 -0.3844  0.2916  0.0748
   16MPD2    C3  246   3.145   2.933   1.409 -0.0867  0.2304  0.2591
   16MPD2    C4  247   3.082   2.924   1.290  0.2840 -0.3884  0.7540
   16MPD2    C5  248   2.996   3.027   1.247  0.1337  0.2572 -0.1973
   16MPD2     H  249   3.180   3.064   1.575 -0.9972  1.7602  0.2165
   16MPD2    H1  250   3.096   2.844   1.219  1.4456  1.2711 -0.8866
   16MPD2    H2  251   2.888   3.198   1.294 -0.8155 -1.1253 -0.2032
   16MPD2    H3  252   2.948   3.008   1.151 -1.3493 -1.7572  0.9361
   16MPD2     N  253   3.251   2.845   1.446  0.1124 -0.4833 -0.1520
   16MPD2    H5  254   3.300   2.863   1.533 -1.6709  0.1739  0.7191
   16MPD2    N1  255   3.000   3.253   1.533  0.5441  0.6560  0.6067
   16MPD2    H7  256   2.924   3.303   1.488  1.4010 -1.9373 -3.7680
   17TCq1    O1  257   1.191   4.197  11.507 -0.4738  0.5685 -0.3104
   17TCq1    C1  258   1.182   4.192  11.369 -0.0414 -0.2177 -0.5813
   17TCq1    O2  259   1.082   4.235  11.313  0.5824 -0.0662 -0.0381
   17TCq1    C2  260   1.255   4.076  11.327  0.3379  0.6332  0.0100
   17TCq1    C3  261   1.315   3.983  11.410 -0.0746  0.1108 -0.6036
   17TCq1    C4  262   1.398   3.886  11.356  0.2324 -0.1823  0.2646
   17TCq1    C5  263   1.421   3.891  11.222  0.4235  0.8640 -0.1657
   17TCq1    C6  264   1.370   3.989  11.149 -0.0926  0.1722 -0.2750
   17TCq1    C7  265   1.275   4.077  11.195 -0.3764  0.5460 -0.1532
   17TCq1    C8  266   1.412   3.997  11.011 -0.2544  0.3662 -0.5263
   17TCq1    O4  267   1.344   4.081  10.950  0.1455 -0.2317  0.4423
   17TCq1    C9  268   1.460   3.776  11.426 -0.2205  0.5918  0.3162
   17TCq1    O5  269   1.412   3.749  11.539  0.9939 -0.3431  0.3114
   17TCq1    O6  270   1.553   3.707  11.371  0.1528  0.0801  0.2264
   17TCq1    H1  271   1.279   4.160  11.529 -1.1424  0.0079  1.4119
   17TCq1    H2  272   1.288   3.979  11.515 -1.1211  1.1481 -0.8238
   17TCq1    H3  273   1.470   3.805  11.178 -0.2743  0.6457 -0.5157
   17TCq1    H4  274   1.234   4.161  11.142 -1.2492 -0.0681 -0.4502
   18MPD2     C  275   1.525   3.976  10.732 -0.7441 -0.3848 -0.6123
   18MPD2    C1  276   1.589   3.936  10.845  0.2015  0.4359 -0.0002
   18MPD2    C2  277   1.727   3.898  10.836  0.6622  0.1039 -1.0169
   18MPD2    C3  278   1.786   3.898  10.710  0.0009 -0.7715  0.0436
   18MPD2    C4  279   1.709   3.928  10.600 -0.6368 -0.5828  0.2883
   18MPD2    C5  280   1.575   3.958  10.608 -0.3484  0.3574  0.6364
   18MPD2     H  281   1.784   3.866  10.922 -0.1808 -1.3105 -0.9773
   18MPD2    H1  282   1.754   3.932  10.501 -0.4771  2.2176  0.4599
   18MPD2    H2  283   1.420   4.002  10.741 -0.4308 -0.3491  3.1008
   18MPD2    H3  284   1.525   3.973  10.513  0.5409 -1.7267 -0.1609
   18MPD2     N  285   1.914   3.865  10.684  0.2299  0.2359 -0.5109
   18MPD2    H5  286   1.951   3.900  10.596 -0.9317  0.5637 -0.8573
   18MPD2    N1  287   1.524   3.924  10.970 -0.5899  0.0762 -0.5345
   18MPD2    H7  288   1.584   3.886  11.042 -0.9937  0.7780  0.1758
   19TMC2    C1  289   3.121   4.282  14.246 -0.5427 -0.4189  0.1154
   19TMC2    C2  290   3.040   4.348  14.150  0.1690  0.1859  0.4577
   19TMC2    C3  291   2.911   4.303  14.136  0.2326  0.4718  0.9727
   19TMC2    C4  292   3.079   4.173  14.318 -0.3163 -0.1909 -0.5974
   19TMC2    C5  293   2.951   4.129  14.286  0.5305 -0.1479  0.1218
   19TMC2    C6  294   2.869   4.190  14.201  0.6266 -0.0564  0.6678
   19TMC2     C  295   3.246   4.347  14.274  0.6167  0.0285 -0.0191
   19TMC2     O  296   3.253   4.460  14.234  0.3501  0.2757 -0.2392
   19TMC2     H  297   3.081   4.424  14.084  1.2640 -1.8956 -1.2779
   19TMC2    H1  298   3.136   4.125  14.396  1.3312  1.3692 -0.8469
   19TMC2    H2  299   2.763   4.167  14.197  1.1947 -2.3784 -0.7346
   19TMC2    C7  300   2.915   3.999  14.331 -0.0023  0.4303 -0.6392
   19TMC2    C8  301   2.822   4.355  14.031 -0.3766 -0.7250 -0.3819
   19TMC2    O1  302   2.796   3.987  14.336  0.0494 -0.3818  0.0203
   19TMC2    O2  303   2.737   4.284  13.977 -0.1721  0.2669 -0.4515
   19TMC2    O5  304   2.874   4.458  13.964 -0.1008 -0.0988  0.0082
   19TMC2    H5  305   2.940   4.507  14.018  1.4013 -1.1115 -0.9188
   20MPD2     C  306   3.521   4.418  14.349  0.2174 -0.4078 -0.1715
   20MPD2    C1  307   3.458   4.309  14.398  0.4652  0.3613  0.2556
   20MPD2    C2  308   3.532   4.220  14.472 -0.9619 -0.8355 -0.0215
   20MPD2    C3  309   3.665   4.242  14.498  0.1055 -0.8682  0.1830
   20MPD2    C4  310   3.731   4.352  14.449 -0.0927 -0.2014 -0.3046
   20MPD2    C5  311   3.657   4.438  14.376  0.1692  0.2221 -0.0024
   20MPD2     H  312   3.481   4.127  14.494  0.8793 -1.6497  0.8515
   20MPD2    H1  313   3.839   4.361  14.445  0.0402 -1.6352 -0.1990
   20MPD2    H2  314   3.472   4.491  14.285 -0.9853 -2.1985 -1.2745
   20MPD2    H3  315   3.713   4.525  14.342  1.1011  0.2207  1.5720
   20MPD2     N  316   3.734   4.144  14.573  0.0014  0.1376 -0.2442
   20MPD2    H5  317   3.829   4.164  14.603  0.0806 -0.7734  0.0890
   20MPD2    N1  318   3.325   4.270  14.357 -0.4259 -0.1344  0.0527
   20MPD2    H7  319   3.283   4.185  14.394 -1.9512  0.1505 -1.0221
   21MPD2     C  320   0.835   4.523  14.531 -0.3000  0.1928  0.7722
   21MPD2    C1  321   0.939   4.501  14.618 -0.4579 -1.1102  0.3433
   21MPD2    C2  322   0.930   4.542  14.749 -0.6008  0.1734  0.2774
   21MPD2    C3  323   0.808   4.593  14.791  0.1414 -0.2157  0.6285
   21MPD2    C4  324   0.701   4.610  14.707 -0.2964  0.0439 -0.5318
   21MPD2    C5  325   0.716   4.573  14.577 -0.1751 -0.3452  0.3470
   21MPD2     H  326   1.016   4.540  14.815 -0.3898 -0.5046 -0.0145
   21MPD2    H1  327   0.605   4.629  14.754 -0.1914  1.3849 -0.8542
   21MPD2    H2  328   0.837   4.503  14.424 -0.1081 -1.6957  1.1316
   21MPD2    H3  329   0.644   4.578  14.497  0.5058 -2.5955 -0.4012
   21MPD2     N  330   0.789   4.621  14.932  0.0149 -0.2318  0.1559
   21MPD2    H5  331   0.705   4.668  14.966 -0.5435  0.3536 -2.0135
   21MPD2    N1  332   1.058   4.450  14.574 -0.1364  0.1034  0.0752
   21MPD2    H7  333   1.135   4.433  14.637  0.4665  1.2851 -0.3544
   22TCq2    C1  334   0.869   4.561  15.031 -1.1124 -0.0805 -0.1071
   22TCq2    O2  335   0.947   4.464  15.018  0.0788  0.1931  0.1028
   22TCq2    C2  336   0.843   4.602  15.170 -0.4752  0.2223 -0.0652
   22TCq2    C3  337   0.911   4.527  15.269  0.1127  0.1554  0.1074
   22TCq2    C4  338   0.893   4.567  15.394 -0.0479  1.1525 -0.2229
   22TCq2    C5  339   0.833   4.687  15.423  0.5993 -0.2144  0.4698
   22TCq2    C6  340   0.780   0.040  15.324  0.1041 -0.3046 -0.2474
   22TCq2    C7  341   0.783   4.720  15.196  0.1577  0.4440  0.0525
   22TCq2    C8  342   0.755   0.175  15.351  0.4485 -0.5466  0.1410
   22TCq2    O4  343   0.801   0.213  15.459  0.0749 -0.7362  0.1351
   22TCq2    C9  344   0.967   4.501  15.496 -0.0481  0.3004 -0.0150
   22TCq2    O5  345   1.036   4.402  15.473 -0.0743 -0.2109 -0.0401
   22TCq2    O6  346   0.970   4.553  15.609 -0.1723 -0.3449 -0.3499
   22TCq2    H2  347   0.978   4.447  15.241  2.8340  2.3384  0.3973
   22TCq2    H3  348   0.839   4.723  15.525  1.9244  1.5294 -0.2277
   22TCq2    H4  349   0.751   0.059  15.114  0.8730  1.1323  0.3100
   23MPD2     C  350   2.585   0.793  15.059  0.4146  0.3157  0.3457
   23MPD2    C1  351   2.477   0.773  15.141  0.2327  0.0682  0.1612
   23MPD2    C2  352   2.375   0.869  15.130  0.1987  0.1573  0.2590
   23MPD2    C3  353   2.379   0.973  15.032  0.1973 -0.4362  0.5581
   23MPD2    C4  354   2.496   0.984  14.966 -0.1969  0.6278  0.2783
   23MPD2    C5  355   2.599   0.895  14.972  0.6102 -0.7425  0.1381
   23MPD2     H  356   2.289   0.863  15.195 -0.4554  1.7472 -0.4649
   23MPD2    H1  357   2.509   1.057  14.887 -2.2395  0.3745 -0.2714
   23MPD2    H2  358   2.667   0.723  15.071  0.8746  0.8452  0.2583
   23MPD2    H3  359   2.688   0.896  14.912  0.2538 -1.6624 -0.4010
   23MPD2     N  360   2.284   1.073  15.010  0.0328  0.2086 -0.8497
   23MPD2    H5  361   2.303   1.146  14.942  0.2242  1.1394  0.2057
   23MPD2    N1  362   2.468   0.660  15.221 -0.2094 -0.6307 -0.0175
   23MPD2    H7  363   2.389   0.663  15.284  1.3382 -2.7880  2.0670
   24TCq2    C1  364   2.157   1.071  15.063  0.4081  0.0116  0.7258
   24TCq2    O2  365   2.104   0.987  15.136  0.1079  0.0559 -0.0746
   24TCq2    C2  366   2.061   1.153  14.989 -0.3712  0.9186  0.4930
   24TCq2    C3  367   2.107   1.233  14.894 -0.2539  0.1878 -0.0058
   24TCq2    C4  368   2.018   1.289  14.806  0.0105 -0.2243 -0.4297
   24TCq2    C5  369   1.887   1.249  14.809 -0.4060 -0.2510  0.0794
   24TCq2    C6  370   1.842   1.171  14.911  0.1672  0.9718 -0.2314
   24TCq2    C7  371   1.929   1.128  15.007  1.0091 -0.2760 -0.0596
   24TCq2    C8  372   1.704   1.126  14.928 -0.4948 -0.5515 -0.6734
   24TCq2    O4  373   1.678   1.070  15.032 -0.0769  0.2686 -0.0107
   24TCq2    C9  374   2.060   1.385  14.710 -0.0126  1.2198  0.2880
   24TCq2    O5  375   2.183   1.409  14.708  0.5736  0.3156  0.2143
   24TCq2    O6  376   1.976   1.429  14.626 -0.1209  0.3763 -0.3013
   24TCq2    H2  377   2.207   1.275  14.891 -0.6362  0.9522 -2.5201
   24TCq2    H3  378   1.825   1.284  14.727 -0.1656 -0.6188 -0.2597
   24TCq2    H4  379   1.898   1.073  15.095  0.0757  0.8822  0.3400
   25TMC2    C1  380   1.347   2.843  11.123 -0.0873 -0.0342 -0.2625
   25TMC2    C2  381   1.405   2.928  11.038  0.0691  0.4160  0.2338
   25TMC2    C3  382   1.431   3.053  11.080 -0.6962  0.0456  0.1108
   25TMC2    C4  383   1.307   2.875  11.251 -0.5537  0.5582 -0.2198
   25TMC2    C5  384   1.347   3.000  11.288  0.6390 -0.0557  0.2965
   25TMC2    C6  385   1.409   3.092  11.212 -0.2259  0.4865 -0.5064
   25TMC2     C  386   1.354   2.696  11.100 -0.2113  0.0602 -0.0491
   25TMC2     O  387   1.442   2.645  11.033 -0.2835 -0.0954 -0.5966
   25TMC2     H  388   1.448   2.884  10.949  3.8984  0.8379  1.8981
   25TMC2    H1  389   1.256   2.802  11.313 -0.8480  1.1380  0.2229
   25TMC2    H2  390   1.447   3.188  11.246 -1.4722  1.2334 -1.2421
   25TMC2    C7  391   1.346   3.034  11.433 -0.3857  0.0965  0.1317
   25TMC2    C8  392   1.510   3.127  10.988  0.0704 -0.5121  0.6795
   25TMC2    O1  393   1.257   2.981  11.500  0.6427 -0.3733 -0.0395
   25TMC2    O2  394   1.568   3.072  10.896 -0.4408 -0.4639 -0.4138
   25TMC2    O5  395   1.439   3.245  10.989  0.2545 -0.4528  0.4060
   25TMC2    H5  396   1.367   3.246  11.056 -1.3710 -2.4634 -1.3093
   26MPD2     C  397   1.156   2.234  11.103 -0.2528  0.2961  0.2493
   26MPD2    C1  398   1.053   2.319  11.114 -0.0369 -0.1425 -0.3281
   26MPD2    C2  399   1.089   2.452  11.125  0.5426 -0.5276  0.3319
   26MPD2    C3  400   1.215   2.495  11.122  0.5463  0.5739  0.0819
   26MPD2    C4  401   1.317   2.408  11.111  0.3817 -1.0600 -1.0651
   26MPD2    C5  402   1.283   2.273  11.097  0.3092 -0.4990 -0.3204
   26MPD2     H  403   1.009   2.525  11.128 -0.3085 -1.5081  1.5091
   26MPD2    H1  404   1.421   2.437  11.117 -0.6494  1.7917  2.7214
   26MPD2    H2  405   1.148   2.126  11.105 -0.9752  0.2952 -2.9494
   26MPD2    H3  406   1.362   2.201  11.081 -1.0614 -1.1322 -4.2276
   26MPD2     N  407   1.235   2.633  11.134  0.9093 -0.2132 -0.1090
   26MPD2    H5  408   1.151   2.690  11.136  1.7598  0.9446  2.3228
   26MPD2    N1  409   0.922   2.283  11.097 -0.2010  0.1159 -0.5362
   26MPD2    H7  410   0.902   2.184  11.111  0.3112 -0.0724 -1.1577
   27TMC2    C1  411   4.621   0.721  12.165 -0.6162 -0.5814 -0.0747
   27TMC2    C2  412   4.576   0.772  12.047 -0.1272 -0.3375  1.1721
   27TMC2    C3  413   4.580   0.907  12.038  0.3929  0.1925  0.4184
   27TMC2    C4  414   4.687   0.790  12.266  0.7294  0.8006  0.6628
   27TMC2    C5  415   4.690   0.928  12.254 -0.3849 -0.5075 -0.2738
   27TMC2    C6  416   4.638   0.984  12.133 -0.0327 -0.4007 -0.1060
   27TMC2     C  417   4.540   0.616  12.215  0.0900  0.6732  0.3516
   27TMC2     O  418   4.510   0.533  12.128  0.2903 -0.1641 -0.5017
   27TMC2     H  419   4.536   0.703  11.973 -2.0578  1.5537  0.4756
   27TMC2    H1  420   0.007   0.746  12.354  0.0256 -0.0423  0.6031
   27TMC2    H2  421   4.655   1.090  12.118 -1.1966 -0.3492 -1.0331
   27TMC2    C7  422   4.647   0.986  12.378  0.7707 -0.3537  0.3038
   27TMC2    C8  423   4.531   0.988  11.929  0.6697 -0.7748  0.0023
   27TMC2    O1  424   4.636   0.898  12.462  0.6573  0.3545 -0.0539
   27TMC2    O2  425   4.575   1.100  11.900  0.3031 -0.0693  0.4907
   27TMC2    O5  426   4.462   0.907  11.848 -0.0036 -0.0874  0.0144
   27TMC2    H5  427   4.426   0.830  11.897 -0.3991 -0.9179 -1.5731
   28MPD2     C  428   4.237   0.420  12.584  0.7266 -0.3202 -0.3014
   28MPD2    C1  429   4.265   0.558  12.617  0.1642 -0.0108 -0.0839
   28MPD2    C2  430   4.354   0.630  12.537 -0.6310  0.2789 -0.5720
   28MPD2    C3  431   4.398   0.573  12.418  0.6491 -0.3278  0.5674
   28MPD2    C4  432   4.369   0.444  12.382  0.3860  0.7037  0.0077
   28MPD2    C5  433   4.300   0.367  12.472  0.7542  0.4188 -0.1150
   28MPD2     H  434   4.386   0.727  12.573 -0.9434 -0.3281  1.3444
   28MPD2    H1  435   4.410   0.397  12.293  0.4136 -1.1130  0.9648
   28MPD2    H2  436   4.169   0.352  12.633  1.8289 -1.0935  0.1515
   28MPD2    H3  437   4.279   0.269  12.431  1.1016 -0.2180  1.2293
   28MPD2     N  438   4.494   0.652  12.339  0.2980 -0.6707 -0.0723
   28MPD2    H5  439   4.527   0.741  12.375 -2.6339  1.1992 -2.0030
   28MPD2    N1  440   4.194   0.609  12.730  0.7656  0.7045  0.1736
   28MPD2    H7  441   4.140   0.545  12.789  1.7450  0.0768  0.3931
   29MPD2     C  442   4.187   2.918  14.033 -0.5246 -0.2550 -0.4905
   29MPD2    C1  443   4.233   2.871  14.156  0.6882  0.8427  0.1169
   29MPD2    C2  444   4.241   2.957  14.264  0.4760  0.6482 -0.0509
   29MPD2    C3  445   4.199   3.091  14.263 -0.8467  0.6048  0.3460
   29MPD2    C4  446   4.164   3.136  14.133  0.2550  0.2267  0.0327
   29MPD2    C5  447   4.147   3.050  14.028  0.2655  0.5779 -0.4476
   29MPD2     H  448   4.278   2.918  14.358 -2.8524 -0.9166  0.6206
   29MPD2    H1  449   4.110   3.228  14.114  0.4272  0.4670  0.6868
   29MPD2    H2  450   4.173   2.844  13.956 -0.2560  0.0076 -0.7908
   29MPD2    H3  451   4.100   3.092  13.940 -0.5039  4.3964  1.8242
   29MPD2     N  452   4.189   3.173  14.381 -1.1326  0.4109 -0.5371
   29MPD2    H5  453   4.197   3.273  14.370 -0.1456  0.6817  2.6597
   29MPD2    N1  454   4.257   2.735  14.188 -0.4159 -0.1865 -0.3314
   29MPD2    H7  455   4.295   2.703  14.276 -0.3653  0.8159  0.0170
   30TCq2    C1  456   4.196   3.123  14.510 -0.3832 -0.1368 -0.3375
   30TCq2    O2  457   4.166   3.008  14.545  0.2366  0.1313  0.0018
   30TCq2    C2  458   4.215   3.229  14.602 -0.2949 -0.1527 -0.8398
   30TCq2    C3  459   4.182   3.211  14.733 -0.5676  0.0903  0.1940
   30TCq2    C4  460   4.178   3.324  14.812 -0.8420 -0.0425  0.5408
   30TCq2    C5  461   4.230   3.444  14.767  0.2624  0.3717  0.0964
   30TCq2    C6  462   4.281   3.445  14.640  0.5498  0.0314  0.3998
   30TCq2    C7  463   4.264   3.347  14.552 -0.2161  0.3726  0.1355
   30TCq2    C8  464   4.350   3.561  14.588  0.0063  0.4445  0.4541
   30TCq2    O4  465   4.392   3.545  14.473  0.2999 -0.2392  0.0525
   30TCq2    C9  466   4.150   3.321  14.954 -0.5139  0.1320 -0.8063
   30TCq2    O5  467   4.121   3.210  15.003 -0.2915 -0.3820  0.1593
   30TCq2    O6  468   4.158   3.428  15.018 -0.1445  0.1882  0.5293
   30TCq2    H2  469   4.148   3.114  14.767 -0.8025  0.0220 -0.2337
   30TCq2    H3  470   4.231   3.536  14.825 -2.0226  0.9497 -0.7830
   30TCq2    H4  471   4.289   3.357  14.447 -0.7616  1.2021  0.0824
   31MPD2     C  472   2.022   1.995  14.735 -0.2439  0.2080  0.2119
   31MPD2    C1  473   1.895   2.027  14.677 -0.2172  0.3326 -0.8551
   31MPD2    C2  474   1.781   1.997  14.755  0.4030 -0.3428  0.1512
   31MPD2    C3  475   1.779   1.919  14.871  0.7795 -0.2485  0.3884
   31MPD2    C4  476   1.909   1.899  14.922  0.0510  0.2774 -0.1611
   31MPD2    C5  477   2.019   1.933  14.854 -0.7496  0.3899 -0.1743
   31MPD2     H  478   1.689   2.017  14.701 -0.2788  0.7741  1.7482
   31MPD2    H1  479   1.931   1.847  15.014  1.9147 -0.7342 -1.1732
   31MPD2    H2  480   2.120   2.020  14.696 -1.1384  2.4144 -0.6145
   31MPD2    H3  481   2.111   1.923  14.911 -1.2135  0.7971  0.6474
   31MPD2     N  482   1.656   1.876  14.938  0.0427  0.0062  0.5370
   31MPD2    H5  483   1.669   1.811  15.016 -2.1676  0.0589  0.9506
   31MPD2    N1  484   1.889   2.088  14.549 -1.1773  0.0054 -0.3883
   31MPD2    H7  485   1.975   2.119  14.505 -1.2585  1.9637  0.8426
   32TCq2    C1  486   1.527   1.913  14.915 -0.6306  0.5371 -0.1393
   32TCq2    O2  487   1.485   1.978  14.823 -0.3553  0.1820  0.4660
   32TCq2    C2  488   1.439   1.828  14.994 -0.1051 -0.1653  0.2057
   32TCq2    C3  489   1.305   1.819  14.955 -0.0337 -0.1173 -0.3838
   32TCq2    C4  490   1.214   1.766  15.037 -0.3915 -0.4242 -0.6230
   32TCq2    C5  491   1.262   1.710  15.156 -0.3218  0.3469  1.3096
   32TCq2    C6  492   1.397   1.714  15.184  0.0778  0.3284  0.1262
   32TCq2    C7  493   1.494   1.771  15.109  0.3995  0.0641 -0.0739
   32TCq2    C8  494   1.432   1.702  15.321 -0.5130 -0.1491  0.5798
   32TCq2    O4  495   1.543   1.653  15.346 -0.1289  0.3477 -0.7788
   32TCq2    C9  496   1.078   1.736  14.994 -0.7599 -0.0133  1.1138
   32TCq2    O5  497   1.006   1.691  15.086  0.2142 -1.0663  0.0760
   32TCq2    O6  498   1.045   1.737  14.874  0.6906 -0.7502 -0.2431
   32TCq2    H2  499   1.288   1.837  14.850  0.4166 -0.4754 -0.5158
   32TCq2    H3  500   1.199   1.645  15.216  3.0422  0.3814  4.9180
   32TCq2    H4  501   1.593   1.781  15.151  0.0195 -0.1198  0.8545
   33MPD2     C  502   2.242   3.638  10.193 -0.5750  0.6349 -0.4222
   33MPD2    C1  503   2.326   3.732  10.237  0.0130 -0.0543  0.5205
   33MPD2    C2  504   2.449   3.758  10.171  0.6717  0.5159  0.0902
   33MPD2    C3  505   2.466   3.708  10.040  0.3027  0.6685  0.3505
   33MPD2    C4  506   2.383   3.615   9.996  0.3571 -0.1201  0.1975
   33MPD2    C5  507   2.270   3.579  10.074 -0.0818 -0.2362  0.1273
   33MPD2     H  508   2.528   3.814  10.219  1.9439 -1.5471  0.3692
   33MPD2    H1  509   2.391   3.576   9.895 -0.2520  0.7034 -0.1652
   33MPD2    H2  510   2.145   3.619  10.238  0.3410 -0.6859  1.0227
   33MPD2    H3  511   2.203   3.503  10.033  0.7761 -1.8778  1.7816
   33MPD2     N  512   2.577   3.728   9.958  1.0964 -0.1428  0.0436
   33MPD2    H5  513   2.572   3.698   9.861 -0.4776 -1.0135  0.3925
   33MPD2    N1  514   2.298   3.777  10.374  0.2003  0.0449 -0.3391
   33MPD2    H7  515   2.225   3.739  10.433  0.6273 -1.1410 -0.5528
   34TCq2    C1  516   2.679   3.812   9.989 -0.2811  0.0741 -0.3997
   34TCq2    O2  517   2.700   3.865  10.098 -0.5001 -0.1709  0.0694
   34TCq2    C2  518   2.760   3.860   9.880 -0.5854  0.0367  0.1746
   34TCq2    C3  519   2.687   3.907   9.769 -0.0519  0.9194  0.3627
   34TCq2    C4  520   2.746   4.004   9.684 -0.3506 -0.1614 -0.4880
   34TCq2    C5  521   2.860   4.061   9.712  0.4004  0.6116 -0.5967
   34TCq2    C6  522   2.912   4.041   9.844  1.2628 -1.1226  0.2187
   34TCq2    C7  523   2.870   3.933   9.919 -0.1505  0.1014  0.0225
   34TCq2    C8  524   2.970   4.150   9.918  0.0325  0.2090  0.2796
   34TCq2    O4  525   2.993   4.253   9.854 -0.4051 -0.3687  0.2293
   34TCq2    C9  526   2.687   4.030   9.551 -0.6202 -0.4345  0.6714
   34TCq2    O5  527   2.767   4.082   9.464 -0.0609 -0.0566 -0.0002
   34TCq2    O6  528   2.579   3.975   9.528 -0.5302 -0.2686  0.1539
   34TCq2    H2  529   2.590   3.865   9.748 -0.4585  1.8138  0.4314
   34TCq2    H3  530   2.900   4.142   9.652 -0.2389  2.0367  0.9161
   34TCq2    H4  531   2.908   3.914  10.019  2.4691 -0.4471 -1.0539
   35MPD2     C  532   4.304   1.088  12.147  0.5242  0.7372 -0.0131
   35MPD2    C1  533   4.225   0.980  12.116  0.1178 -0.4502 -0.2890
   35MPD2    C2  534   4.156   0.978  11.997 -0.1752 -0.1958 -0.4694
   35MPD2    C3  535   4.148   1.090  11.915 -0.1622  0.1115  0.0497
   35MPD2    C4  536   4.226   1.205  11.949 -0.3287 -0.2179 -0.8607
   35MPD2    C5  537   4.300   1.195  12.063 -0.2652  0.3428 -1.0043
   35MPD2     H  538   4.105   0.884  11.976  2.5498 -1.6735 -0.4320
   35MPD2    H1  539   4.222   1.300  11.897 -3.7443 -0.8947 -1.8420
   35MPD2    H2  540   4.366   1.101  12.235  0.4042  0.8952  0.0484
   35MPD2    H3  541   4.352   1.282  12.102 -0.9785 -0.6548  2.1549
   35MPD2     N  542   4.046   1.087  11.815  0.3453 -0.1383  0.3697
   35MPD2    H5  543   4.007   0.996  11.794 -0.7770  0.6030 -0.8433
   35MPD2    N1  544   4.225   0.877  12.208  0.0217 -0.0570 -0.2936
   35MPD2    H7  545   4.260   0.914  12.296  0.2377 -1.0757  0.0446
   36TCq2    C1  546   4.011   1.204  11.740 -0.2938  0.2446  0.2413
   36TCq2    O2  547   4.045   1.320  11.769  0.3357  0.5056 -0.0895
   36TCq2    C2  548   3.928   1.183  11.614  0.3150  0.9086  0.2047
   36TCq2    C3  549   3.929   1.278  11.516 -1.0295  0.4521  0.3844
   36TCq2    C4  550   3.878   1.242  11.393  0.4351 -0.0317  0.3791
   36TCq2    C5  551   3.801   1.120  11.379 -0.0968  0.4962 -0.3788
   36TCq2    C6  552   3.805   1.036  11.475  0.6656  0.2593  0.1964
   36TCq2    C7  553   3.865   1.059  11.592 -0.1664  0.0295 -0.3334
   36TCq2    C8  554   3.736   0.909  11.461  0.5522  0.6118  0.0801
   36TCq2    O4  555   3.748   0.827  11.551 -0.2808 -0.4990 -0.4788
   36TCq2    C9  556   3.881   1.333  11.287 -0.7828 -0.3153 -0.2888
   36TCq2    O5  557   3.916   1.451  11.322  0.4702  0.1581 -0.5994
   36TCq2    O6  558   3.827   1.298  11.171  0.3891  0.5531 -0.8294
   36TCq2    H2  559   3.982   1.372  11.532  0.3889 -0.7273  2.5897
   36TCq2    H3  560   3.757   1.100  11.282 -2.7963  1.3950  0.6718
   36TCq2    H4  561   3.871   0.985  11.671  0.6993 -0.6274 -1.0157
   37TMC2    C1  562   0.891   0.502  12.118 -0.1276 -0.3611 -0.0887
   37TMC2    C2  563   0.878   0.402  12.027 -0.0489 -0.9152 -0.0971
   37TMC2    C3  564   0.962   0.401  11.917  0.8275 -0.1567  0.7265
   37TMC2    C4  565   0.992   0.594  12.111 -0.3022  0.3471 -0.2796
   37TMC2    C5  566   1.073   0.590  12.006  1.1017 -0.5168 -0.2139
   37TMC2    C6  567   1.064   0.490  11.910  0.0924 -0.5321 -0.6150
   37TMC2     C  568   0.797   0.493  12.237 -0.3024  0.1384  0.0376
   37TMC2     O  569   0.753   0.382  12.272  0.2117  0.0268  0.4676
   37TMC2     H  570   0.790   0.339  12.028  0.5263 -1.6646  2.2248
   37TMC2    H1  571   1.014   0.669  12.186 -0.2752 -0.8782  0.9275
   37TMC2    H2  572   1.141   0.476  11.835 -0.4909 -0.2638 -1.2582
   37TMC2    C7  573   1.163   0.693  11.993  0.3647 -0.3393  0.1644
   37TMC2    C8  574   0.947   0.285  11.830  0.8382  0.0038 -0.0581
   37TMC2    O1  575   1.186   0.765  12.086 -0.8381  0.1086 -0.4378
   37TMC2    O2  576   0.900   0.188  11.882 -0.8256 -0.1611  0.1129
   37TMC2    O5  577   0.923   0.329  11.702 -0.0040  0.0974  0.3858
   37TMC2    H5  578   0.959   0.419  11.687  0.7850  0.1703  2.8801
   38MPD2     C  579   0.640   0.690  12.685  1.0371  0.2898  0.5465
   38MPD2    C1  580   0.684   0.792  12.607 -0.1075 -0.3316  0.7141
   38MPD2    C2  581   0.731   0.759  12.483  0.4710  0.0365 -0.3045
   38MPD2    C3  582   0.733   0.628  12.434  1.0474  0.1318  0.0867
   38MPD2    C4  583   0.685   0.530  12.517  0.0640  0.2993  0.3548
   38MPD2    C5  584   0.638   0.559  12.643 -0.1464  0.6749  0.1278
   38MPD2     H  585   0.793   0.825  12.423  0.6634 -0.1633 -0.3250
   38MPD2    H1  586   0.699   0.425  12.498  1.6941  0.7347 -0.8344
   38MPD2    H2  587   0.598   0.704  12.784  1.0768  2.5741  0.2523
   38MPD2    H3  588   0.601   0.481  12.708 -0.3113 -0.1371 -0.9517
   38MPD2     N  589   0.796   0.607  12.310 -0.5215  0.0396 -0.2062
   38MPD2    H5  590   0.846   0.679  12.259 -0.6341  0.5986  0.4753
   38MPD2    N1  591   0.713   0.921  12.657 -0.4041  0.6203 -0.3536
   38MPD2    H7  592   0.769   0.990  12.608 -0.1531  0.2850 -0.5372
   39MPD2     C  593   3.889   2.249   1.744 -0.2092 -0.5226  0.2861
   39MPD2    C1  594   3.827   2.366   1.782 -0.5532 -0.1861 -0.7765
   39MPD2    C2  595   3.697   2.388   1.746 -0.3795  0.7371 -0.0765
   39MPD2    C3  596   3.631   2.293   1.668  0.3391  0.5778 -0.0518
   39MPD2    C4  597   3.696   2.181   1.615 -0.3018  0.6894  0.0242
   39MPD2    C5  598   3.830   2.160   1.658 -0.0548 -0.0362  0.1208
   39MPD2     H  599   3.654   2.476   1.793  1.3120  1.5249 -0.0046
   39MPD2    H1  600   3.642   2.105   1.560  1.7965 -0.9646  0.2312
   39MPD2    H2  601   3.991   2.242   1.780 -0.6527 -2.2070  1.1827
   39MPD2    H3  602   3.889   2.073   1.632  1.3229  0.6508  0.9187
   39MPD2     N  603   3.495   2.292   1.629 -0.0137  0.0422 -0.1103
   39MPD2    H5  604   3.461   2.219   1.566 -0.8807  0.4734 -0.1393
   39MPD2    N1  605   3.912   2.450   1.863  0.4857 -0.0340 -0.3456
   39MPD2    H7  606   4.008   2.422   1.879  0.1092 -0.4978  1.1704
   40TCq2    C1  607   3.882   2.580   1.908  0.0766 -0.1752  0.4704
   40TCq2    O2  608   3.778   2.641   1.891  0.2191  0.4488 -0.2998
   40TCq2    C2  609   3.991   2.654   1.974 -0.0921 -0.2865 -0.2555
   40TCq2    C3  610   3.985   2.792   1.981  0.2093 -0.0624 -0.4701
   40TCq2    C4  611   4.090   2.860   2.031  0.3142 -0.0486 -0.0683
   40TCq2    C5  612   4.201   2.797   2.087  0.5657 -0.9443  0.2022
   40TCq2    C6  613   4.197   2.661   2.093  0.6183 -0.1588  0.3573
   40TCq2    C7  614   4.096   2.589   2.036  0.2984 -0.0453  0.3267
   40TCq2    C8  615   4.327   2.607   2.122  0.2049  0.5384 -0.4740
   40TCq2    O4  616   4.326   2.485   2.131 -0.4568  0.2541 -0.4505
   40TCq2    C9  617   4.078   3.003   2.060  0.3584 -0.4054  0.6221
   40TCq2    O5  618   4.184   3.070   2.052 -0.4179 -0.3000 -0.3438
   40TCq2    O6  619   3.958   3.048   2.049  0.1650  0.4881 -0.0320
   40TCq2    H2  620   3.895   2.839   1.942  0.9460  0.9326 -0.9645
   40TCq2    H3  621   4.268   2.854   2.151 -0.6531 -1.0949  1.6167
   40TCq2    H4  622   4.092   2.481   2.031  0.8408 -0.1007  1.0602
   41TMC2    C1  623   3.208   1.115  13.439 -0.4431  0.1577  0.0748
   41TMC2    C2  624   3.134   1.210  13.504 -0.5687  0.8283 -0.6371
   41TMC2    C3  625   3.020   1.252  13.444 -0.1089 -0.6602  0.0813
   41TMC2    C4  626   3.175   1.068  13.314 -0.3594 -0.1690 -0.1651
   41TMC2    C5  627   3.061   1.116  13.258  0.2649 -0.3146  0.3062
   41TMC2    C6  628   2.974   1.207  13.325 -0.3140  0.3845 -0.1614
   41TMC2     C  629   3.292   1.025  13.522  0.2683  0.1211  0.9897
   41TMC2     O  630   3.397   0.979  13.467  0.0206 -0.3044 -0.5544
   41TMC2     H  631   3.165   1.266  13.592 -0.4699  0.4703 -0.4424
   41TMC2    H1  632   3.233   0.988  13.271  0.3547  1.3660 -2.0540
   41TMC2    H2  633   2.881   1.234  13.276 -0.0398  1.9981  0.1860
   41TMC2    C7  634   3.020   1.066  13.124 -0.0190 -0.5445 -0.2610
   41TMC2    C8  635   2.981   1.390  13.446  0.3020 -0.7654  0.3749
   41TMC2    O1  636   2.901   1.091  13.093 -0.3717 -0.9755  0.7704
   41TMC2    O2  637   2.981   1.465  13.349  0.0100  0.2879 -0.1820
   41TMC2    O5  638   2.927   1.419  13.563 -0.4020  0.0221  0.1435
   41TMC2    H5  639   2.918   1.346  13.627 -0.9318  0.7051  0.8430
   42MPD2     C  640   3.370   0.827  13.721  0.8150  0.1752 -0.9575
   42MPD2    C1  641   3.268   0.925  13.744  0.0489  0.0744  0.2456
   42MPD2    C2  642   3.206   0.936  13.866  0.1303  0.2493 -0.1562
   42MPD2    C3  643   3.242   0.844  13.969  0.2675  0.1378 -0.2397
   42MPD2    C4  644   3.329   0.743  13.945  0.5606 -0.3449  0.0386
   42MPD2    C5  645   3.391   0.740  13.825 -0.2149  0.7217 -0.0651
   42MPD2     H  646   3.135   1.016  13.880  0.1792  0.3379 -0.4058
   42MPD2    H1  647   3.353   0.668  14.020 -1.0074 -1.4174 -0.5388
   42MPD2    H2  648   3.415   0.817  13.623  0.2083  0.7875 -1.2981
   42MPD2    H3  649   3.461   0.661  13.799  0.2732  0.4775  2.0271
   42MPD2     N  650   3.179   0.852  14.095  0.2789 -0.2877  0.3242
   42MPD2    H5  651   3.219   0.786  14.162 -1.7207  0.7792  2.5579
   42MPD2    N1  652   3.232   1.020  13.646 -0.3356 -0.3364  0.5075
   42MPD2    H7  653   3.152   1.083  13.653 -0.3796 -0.6777  3.0249
   43MPD2     C  654   0.185   3.668   1.337 -0.4969 -0.2505  0.3262
   43MPD2    C1  655   0.155   3.540   1.368  0.0013 -0.5106 -0.0544
   43MPD2    C2  656   0.090   3.522   1.486  0.1918  0.2926  0.0263
   43MPD2    C3  657   0.077   3.622   1.583 -0.6174  0.3637 -0.0317
   43MPD2    C4  658   0.117   3.747   1.546  0.2798 -0.4496  0.3720
   43MPD2    C5  659   0.173   3.773   1.424  0.6223 -0.2710  0.1036
   43MPD2     H  660   0.065   3.419   1.511 -0.3199  0.2666 -0.6018
   43MPD2    H1  661   0.127   3.831   1.613  0.1200  0.7028 -1.0437
   43MPD2    H2  662   0.227   3.695   1.241  0.9777 -0.7708  0.8287
   43MPD2    H3  663   0.217   3.871   1.415  0.5309 -0.2204  0.2206
   43MPD2     N  664   0.018   3.599   1.716  0.2706 -0.0501 -0.1243
   43MPD2    H5  665   0.015   3.687   1.767 -2.3392 -0.5998  0.6671
   43MPD2    N1  666   0.175   3.433   1.281 -0.2563 -0.2894  0.0697
   43MPD2    H7  667   0.145   3.341   1.309  0.4579 -0.4127  0.4346
   44TCq2    C1  668   4.586   3.744   2.160 -0.4985  0.1550  0.1852
   44TCq2    O2  669   4.674   3.824   2.139 -0.2276  0.5183  0.1673
   44TCq2    C2  670   4.588   3.615   2.094  0.6016 -0.2998  0.2451
   44TCq2    C3  671   4.543   3.500   2.154  0.9437  0.8191  0.4227
   44TCq2    C4  672   4.542   3.382   2.085 -0.1698  0.6492 -0.3836
   44TCq2    C5  673   4.587   3.377   1.956  0.1939 -0.2927 -0.0503
   44TCq2    C6  674   4.612   3.497   1.894 -0.3227 -0.5176 -0.0417
   44TCq2    C7  675   4.627   3.613   1.962  0.5196  0.0889  0.5721
   44TCq2    C8  676   4.668   3.490   1.756 -0.6083 -0.2412 -0.1601
   44TCq2    O4  677   4.640   3.387   1.696  0.0425 -0.1401  0.8100
   44TCq2    C9  678   4.524   3.257   2.154 -0.1482 -0.0758 -0.0876
   44TCq2    O5  679   4.465   3.253   2.266  0.1438 -0.4449 -0.2693
   44TCq2    O6  680   4.579   3.159   2.094 -0.4100 -0.3816  0.2533
   44TCq2    H2  681   4.507   3.501   2.256  1.0506 -0.7324  0.4795
   44TCq2    H3  682   4.591   3.281   1.904 -0.0299  0.0624 -0.7263
   44TCq2    H4  683   4.639   3.713   1.923  0.1647 -1.6195 -3.9465
   45TMC2    C1  684   0.579   0.982   9.154  0.1972  0.4656 -0.4886
   45TMC2    C2  685   0.716   0.984   9.122  0.7724 -0.3210  0.2114
   45TMC2    C3  686   0.783   1.094   9.174  0.0099 -0.4412  1.3444
   45TMC2    C4  687   0.526   1.070   9.248  0.8641  0.0495  0.6345
   45TMC2    C5  688   0.603   1.168   9.311 -0.0287 -0.6548  0.0809
   45TMC2    C6  689   0.730   1.189   9.260 -0.4336 -0.2727 -0.4800
   45TMC2     C  690   0.511   0.858   9.119 -0.3876  0.2182  0.1623
   45TMC2     O  691   0.577   0.768   9.067 -0.3881  0.0419  0.1798
   45TMC2     H  692   0.763   0.915   9.053  0.8519  0.5123 -0.5632
   45TMC2    H1  693   0.429   1.047   9.292  1.2005 -0.5752  1.0531
   45TMC2    H2  694   0.788   1.270   9.302  0.0112 -0.3473 -0.9495
   45TMC2    C7  695   0.558   1.249   9.426  0.3800  0.3080  0.7779
   45TMC2    C8  696   0.918   1.114   9.129 -0.4942 -0.1844  0.1181
   45TMC2    O1  697   0.642   1.321   9.478 -0.5686  0.4839 -0.3064
   45TMC2    O2  698   1.017   1.103   9.199 -0.0414  0.1769 -0.2940
   45TMC2    O5  699   0.890   1.224   9.061 -0.1366 -0.6342 -0.3207
   45TMC2    H5  700   0.799   1.245   9.031  0.5164 -0.0506 -1.8998
   46MPD2     C  701   0.318   0.640   9.075 -0.2327 -0.7536  0.2789
   46MPD2    C1  702   0.281   0.767   9.104  0.4576  0.6846  0.3495
   46MPD2    C2  703   0.148   0.795   9.089  0.0100  0.1626  0.4354
   46MPD2    C3  704   0.052   0.698   9.070  0.5410  0.4578  0.0719
   46MPD2    C4  705   0.088   0.566   9.056 -0.4629 -0.6722 -0.2889
   46MPD2    C5  706   0.219   0.542   9.065  0.0882 -0.1700  0.8206
   46MPD2     H  707   0.118   0.897   9.105 -1.7233 -0.0285 -1.6105
   46MPD2    H1  708   0.019   0.482   9.062 -2.2534  0.8743  1.0657
   46MPD2    H2  709   0.422   0.607   9.073 -0.7870 -2.4190 -0.5029
   46MPD2    H3  710   0.245   0.437   9.071  3.0268  0.5126 -0.4804
   46MPD2     N  711   4.640   0.736   9.081 -0.0000 -0.0977  0.7169
   46MPD2    H5  712   4.626   0.830   9.116  0.1857  0.8991 -1.8731
   46MPD2    N1  713   0.378   0.873   9.118 -0.1053 -0.2642 -0.4902
   46MPD2    H7  714   0.345   0.969   9.111 -2.9949 -1.1058  1.7146
   47TMC2    C1  715   1.922   0.876  10.019 -0.4327  0.1479  0.1382
   47TMC2    C2  716   1.943   0.757   9.959  0.0636 -0.8981  0.6719
   47TMC2    C3  717   1.844   0.660   9.962 -0.2292 -0.5000  0.2146
   47TMC2    C4  718   1.804   0.905  10.082  0.4008 -0.4171  0.6275
   47TMC2    C5  719   1.718   0.800  10.103 -0.1518  1.3724  0.7060
   47TMC2    C6  720   1.743   0.675  10.050 -0.1519 -0.1015  0.3252
   47TMC2     C  721   2.017   0.978   9.995 -0.5796 -0.2554 -0.3310
   47TMC2     O  722   1.984   1.087  10.034 -0.5425 -0.1346 -0.2349
   47TMC2     H  723   2.037   0.729   9.914  0.3390  0.2811  0.5281
   47TMC2    H1  724   1.787   1.008  10.114 -1.9020 -0.9631  1.1539
   47TMC2    H2  725   1.673   0.593  10.065  1.2544 -1.8825 -2.7136
   47TMC2    C7  726   1.578   0.830  10.138  0.3256  0.0744 -0.2296
   47TMC2    C8  727   1.868   0.524   9.909  0.6623  0.0667 -0.6874
   47TMC2    O1  728   1.500   0.745  10.111 -0.2264 -0.4410  1.0164
   47TMC2    O2  729   1.856   0.425   9.982 -0.0313 -0.5223  0.2373
   47TMC2    O5  730   1.796   0.534   9.803  0.1487  0.2337  0.0554
   47TMC2    H5  731   1.796   0.624   9.763  1.7160  0.0688 -0.3355
   48MPD2     C  732   2.211   1.174   9.898  0.1167  0.0131  0.6243
   48MPD2    C1  733   2.227   1.040   9.886  0.1994  0.0801  0.1841
   48MPD2    C2  734   2.349   0.993   9.825 -0.0371  0.0411  0.0715
   48MPD2    C3  735   2.450   1.078   9.792  0.6197  0.7124  1.5039
   48MPD2    C4  736   2.432   1.214   9.814 -0.0737 -0.6657  0.2353
   48MPD2    C5  737   2.312   1.260   9.857  0.1658 -0.3911 -0.1954
   48MPD2     H  738   2.355   0.894   9.782 -0.1727 -1.4919  3.5348
   48MPD2    H1  739   2.507   1.289   9.791 -2.0364  1.5508  1.0349
   48MPD2    H2  740   2.120   1.221   9.935  0.3444  3.0526 -2.6264
   48MPD2    H3  741   2.303   1.367   9.871 -2.1394 -0.4774 -1.1230
   48MPD2     N  742   2.569   1.012   9.736  0.5455  0.8804 -0.0302
   48MPD2    H5  743   2.566   0.911   9.727 -1.5426  0.8742  0.6969
   48MPD2    N1  744   2.118   0.947   9.909 -0.5393  0.0115 -0.2839
   48MPD2    H7  745   2.133   0.851   9.880 -0.5165 -0.2231  0.5028
   49MPD2     C  746   0.788   3.529  10.406  0.2418 -0.3034 -0.6386
   49MPD2    C1  747   0.868   3.638  10.440 -0.6333  0.0297 -0.4807
   49MPD2    C2  748   0.928   3.655  10.563 -0.4263  0.0122 -0.1649
   49MPD2    C3  749   0.914   3.561  10.656  0.3536 -0.9251 -0.0942
   49MPD2    C4  750   0.842   3.444  10.616 -0.1997 -0.1652  0.0417
   49MPD2    C5  751   0.783   3.427  10.493  0.4159 -0.8033 -0.2357
   49MPD2     H  752   0.993   3.741  10.581  0.5865 -0.4934 -1.3925
   49MPD2    H1  753   0.819   3.372  10.694 -0.9706  0.5014  0.4332
   49MPD2    H2  754   0.760   3.518  10.302  2.4208  1.8310 -1.4548
   49MPD2    H3  755   0.739   3.332  10.465 -0.3450 -0.6209  0.3328
   49MPD2     N  756   0.963   3.571  10.786 -0.2277 -0.4337 -0.0599
   49MPD2    H5  757   0.947   3.486  10.839 -0.0769  1.0762  2.4023
   49MPD2    N1  758   0.900   3.740  10.352  0.2994 -0.7021 -0.8629
   49MPD2    H7  759   0.968   3.811  10.375 -1.3112  1.4725 -2.7946
   50TCq2    C1  760   0.838   3.767  10.231 -0.3313 -0.1811  0.1112
   50TCq2    O2  761   0.746   3.712  10.173  0.2118  0.8948 -0.1223
   50TCq2    C2  762   0.913   3.872  10.163 -0.3204  0.5807 -0.5180
   50TCq2    C3  763   1.047   3.873  10.167 -0.7754  0.1211 -0.2643
   50TCq2    C4  764   1.118   3.934  10.072  0.2447 -0.7746 -0.0662
   50TCq2    C5  765   1.052   3.985   9.964  0.3902  0.1833  0.0809
   50TCq2    C6  766   0.913   3.977   9.954 -0.2072  0.4036  0.1301
   50TCq2    C7  767   0.839   3.920  10.060 -0.2588 -0.1271 -0.5596
   50TCq2    C8  768   0.836   4.028   9.840  0.9403  0.0590 -0.2499
   50TCq2    O4  769   0.720   3.991   9.832 -0.1401  0.1638 -0.2565
   50TCq2    C9  770   1.266   3.937  10.077 -0.2469  1.0835  0.5378
   50TCq2    O5  771   1.325   3.902  10.178 -0.4763  0.5528  0.9687
   50TCq2    O6  772   1.324   3.941   9.968  0.1451  0.2061 -0.3037
   50TCq2    H2  773   1.098   3.830  10.252  0.4585  1.1839 -0.4757
   50TCq2    H3  774   1.109   4.014   9.877 -1.2242  0.6966 -0.8108
   50TCq2    H4  775   0.731   3.927  10.059 -0.0959  2.6309  1.6263
   51MPD2     C  776   1.144   1.205   1.065 -0.1120 -0.2486  0.1419
   51MPD2    C1  777   1.097   1.308   1.142 -0.8711  0.2572  0.2345
   51MPD2    C2  778   1.181   1.372   1.230  0.3346 -0.5060 -0.1773
   51MPD2    C3  779   1.311   1.333   1.241  0.7814 -0.1544  0.6095
   51MPD2    C4  780   1.356   1.221   1.173 -0.0939 -0.2724 -0.2135
   51MPD2    C5  781   1.270   1.155   1.090 -0.0009  0.8028  0.6089
   51MPD2     H  782   1.137   1.450   1.290  1.1796 -0.8711  0.9180
   51MPD2    H1  783   1.459   1.187   1.174 -0.1175 -0.2766  1.9450
   51MPD2    H2  784   1.073   1.137   1.019 -1.0237  2.6801 -2.7282
   51MPD2    H3  785   1.296   1.069   1.029 -2.8974  0.0934  0.3462
   51MPD2     N  786   1.404   1.398   1.319 -0.0720  0.0509  0.1324
   51MPD2    H5  787   1.492   1.346   1.321 -0.1833 -0.1063  0.7482
   51MPD2    N1  788   0.969   1.364   1.134  0.2231  0.4909 -0.1075
   51MPD2    H7  789   0.953   1.433   1.206  0.3852  0.3781  0.0381
   52TCq2    C1  790   1.386   1.517   1.392 -0.4238 -0.5544  1.1069
   52TCq2    O2  791   1.278   1.555   1.439 -0.1802  0.3615  0.1394
   52TCq2    C2  792   1.508   1.586   1.426 -0.2500  0.5467 -0.9012
   52TCq2    C3  793   1.609   1.581   1.332  0.3310  0.6628 -0.4325
   52TCq2    C4  794   1.683   1.693   1.311  0.3594  1.1363 -0.2010
   52TCq2    C5  795   1.668   1.803   1.389  0.2603 -0.3525 -0.1796
   52TCq2    C6  796   1.573   1.798   1.487 -0.2057  0.1560 -0.1302
   52TCq2    C7  797   1.496   1.691   1.514  0.6462 -0.1364 -0.3512
   52TCq2    C8  798   1.571   1.901   1.586 -0.2007 -0.1296 -0.4027
   52TCq2    O4  799   1.602   2.014   1.551  0.2321 -0.8171 -0.0726
   52TCq2    C9  800   1.787   1.689   1.213 -0.1976 -0.2836  0.8003
   52TCq2    O5  801   1.774   1.602   1.119  0.6508 -0.7763 -0.1221
   52TCq2    O6  802   1.851   1.797   1.189 -0.5551 -0.6804  0.2120
   52TCq2    H2  803   1.621   1.501   1.261 -1.5761 -0.7410  0.8431
   52TCq2    H3  804   1.731   1.884   1.355 -1.4914 -0.9484 -4.7622
   52TCq2    H4  805   1.407   1.686   1.574  0.2999 -0.4389 -0.8875
   53TMC2    C1  806   1.652   1.267  11.949  0.4800 -0.4159 -1.0747
   53TMC2    C2  807   1.779   1.315  11.960  0.3379  0.0719  0.0869
   53TMC2    C3  808   1.805   1.380  12.073  0.2327 -0.1632 -0.0276
   53TMC2    C4  809   1.554   1.278  12.048  0.2913 -0.0539 -0.2767
   53TMC2    C5  810   1.591   1.343  12.158 -0.1477  0.6689  0.5037
   53TMC2    C6  811   1.715   1.404  12.178  0.3112  0.4626 -0.3880
   53TMC2     C  812   1.632   1.150  11.865 -0.0910  0.0174 -0.7759
   53TMC2     O  813   1.698   1.143  11.761  0.2366  0.6745  0.4749
   53TMC2     H  814   1.852   1.286  11.885 -1.9187 -2.2118 -1.2418
   53TMC2    H1  815   1.453   1.241  12.036  0.4870 -0.5197 -0.4922
   53TMC2    H2  816   1.744   1.457  12.267 -0.3692 -0.4761  0.3983
   53TMC2    C7  817   1.478   1.366  12.248 -0.1379 -0.1544 -0.1522
   53TMC2    C8  818   1.947   1.400  12.103 -0.1692  0.0461  0.3154
   53TMC2    O1  819   1.368   1.354  12.200  0.5091 -0.4877  0.0212
   53TMC2    O2  820   1.981   1.490  12.182 -0.3082  0.1239 -0.3124
   53TMC2    O5  821   2.004   1.273  12.099  0.5912  0.3442 -0.1307
   53TMC2    H5  822   1.952   1.198  12.061  0.5695  0.4688 -0.3500
   54MPD2     C  823   1.517   0.918  11.708  0.5471 -0.2295 -0.2134
   54MPD2    C1  824   1.485   0.950  11.835  0.1258  0.2068 -0.2380
   54MPD2    C2  825   1.394   0.861  11.893  0.1801  0.2626  0.8597
   54MPD2    C3  826   1.329   0.766  11.823  0.4073  0.0151  0.1169
   54MPD2    C4  827   1.355   0.750  11.684 -0.0230 -0.1289 -0.0093
   54MPD2    C5  828   1.456   0.824  11.634 -0.1425 -0.5899 -0.8224
   54MPD2     H  829   1.372   0.875  11.998  0.1098  0.3667  0.8310
   54MPD2    H1  830   1.298   0.680  11.624  0.4225  0.2501 -0.8717
   54MPD2    H2  831   1.578   0.990  11.654  0.1160 -0.7495 -1.3938
   54MPD2    H3  832   1.486   0.812  11.530  0.2663  1.7863 -0.9859
   54MPD2     N  833   1.221   0.695  11.869 -0.3321  0.1149  0.0805
   54MPD2    H5  834   1.185   0.628  11.802 -2.2713  0.7193  0.4924
   54MPD2    N1  835   1.539   1.059  11.910 -0.0676 -0.0941 -0.5071
   54MPD2    H7  836   1.493   1.083  11.997  1.1094 -2.0257  0.6411
   55MPD2     C  837   2.288   3.539   0.026  0.6205  0.9726  0.0702
   55MPD2    C1  838   2.250   3.432   0.101 -0.4063 -0.2785  0.4261
   55MPD2    C2  839   2.222   3.451   0.234  0.2521 -0.4220 -0.2160
   55MPD2    C3  840   2.244   3.578   0.294 -0.1822  0.9013 -0.5546
   55MPD2    C4  841   2.281   3.687   0.217 -0.4076  0.1606  0.1373
   55MPD2    C5  842   2.316   3.658   0.086  0.2280  0.4723  0.7077
   55MPD2     H  843   2.185   3.369   0.294 -1.7125  0.0295 -0.7952
   55MPD2    H1  844   2.313   3.781   0.262  0.4388  0.6515 -1.5121
   55MPD2    H2  845   2.290   3.541  17.619 -1.7158 -3.3152 -0.0469
   55MPD2    H3  846   2.369   3.734   0.030  0.2931 -0.9373 -1.1391
   55MPD2     N  847   2.197   3.581   0.429 -0.0673 -0.4281 -0.0796
   55MPD2    H5  848   2.158   3.494   0.463 -0.9619 -1.1718 -2.9836
   55MPD2    N1  849   2.225   3.311   0.030 -0.1628 -0.3071 -0.3551
   55MPD2    H7  850   2.242   3.315  17.632 -0.3033  0.2730 -0.3582
   56TCq2    C1  851   2.187   3.190   0.086  0.1060  0.3927  0.7479
   56TCq2    O2  852   2.146   3.161   0.199  0.3276  0.0995 -0.1324
   56TCq2    C2  853   2.191   3.079  17.689  0.5020 -0.3683 -0.5095
   56TCq2    C3  854   2.167   3.096  17.556 -0.2113 -0.1264 -0.3294
   56TCq2    C4  855   2.174   2.981  17.478 -0.1139  0.6136 -0.2550
   56TCq2    C5  856   2.186   2.852  17.528 -0.0643  0.3715 -0.4782
   56TCq2    C6  857   2.204   2.839  17.663  0.1080  0.1978 -0.2185
   56TCq2    C7  858   2.206   2.950   0.044  0.3007 -0.4481  0.3209
   56TCq2    C8  859   2.265   2.715   0.001 -0.1744 -0.7503  0.7838
   56TCq2    O4  860   2.329   2.660  17.612  1.0792 -0.4664 -0.1130
   56TCq2    C9  861   2.165   2.999  17.336  0.0625  0.2727 -0.0583
   56TCq2    O5  862   2.146   2.890  17.269  0.1083 -0.3157 -0.6769
   56TCq2    O6  863   2.153   3.119  17.293 -0.0569  0.4497  0.0331
   56TCq2    H2  864   2.155   3.195  17.512  2.6695  1.4932  2.5007
   56TCq2    H3  865   2.204   2.775  17.454  1.2640 -0.3772  0.6180
   56TCq2    H4  866   2.229   2.946   0.149 -0.7063 -0.4184  0.5366
   57TMC2    C1  867   1.932   4.633  14.116 -0.6066 -0.0994  0.0921
   57TMC2    C2  868   2.034   4.684  14.194  0.4876  0.2779 -0.6769
   57TMC2    C3  869   2.152   0.005  14.136 -1.2464  0.3076  0.1136
   57TMC2    C4  870   1.943   4.620  13.978 -0.0339 -0.2978  0.1041
   57TMC2    C5  871   2.058   4.671  13.925  0.6454  0.0836  0.2294
   57TMC2    C6  872   2.157   0.009  13.996  0.4853 -0.6301 -0.0734
   57TMC2     C  873   1.804   4.660  14.173 -0.2022  0.4715  0.0255
   57TMC2     O  874   1.789   0.002  14.272  0.0706 -0.0191  0.3663
   57TMC2     H  875   2.035   4.690  14.302 -0.4667 -1.3459 -0.5859
   57TMC2    H1  876   1.856   4.598  13.916  0.5411  1.0596 -1.1883
   57TMC2    H2  877   2.249   0.036  13.945  0.0656  0.4163 -0.2559
   57TMC2    C7  878   2.044   4.720  13.791 -0.9131  0.4784 -0.0843
   57TMC2    C8  879   2.230   0.096  14.216  0.5431 -0.2906 -0.1567
   57TMC2    O1  880   2.066   0.115  13.781 -0.1737 -0.7186 -0.7613
   57TMC2    O2  881   2.199   0.117  14.330  0.2348 -0.7259 -0.3407
   57TMC2    O5  882   2.266   0.198  14.139  0.1456  0.7072 -0.0761
   57TMC2    H5  883   2.319   0.176  14.060  2.3993 -2.2373  2.2405
   58MPD2     C  884   1.282   4.627  14.191  0.5860  0.8313  0.0751
   58MPD2    C1  885   1.370   4.683  14.276 -0.0112 -0.6407  0.4666
   58MPD2    C2  886   1.508   4.684  14.243  0.1524  0.6149 -0.5294
   58MPD2    C3  887   1.562   4.616  14.137  0.2331 -0.2193 -0.0218
   58MPD2    C4  888   1.468   4.559  14.058  0.4614  1.0767  0.1771
   58MPD2    C5  889   1.332   4.559  14.088 -0.5038 -0.0575 -0.2218
   58MPD2     H  890   1.572   0.014  14.311 -0.1159 -1.6833  1.5968
   58MPD2    H1  891   1.492   4.502  13.969 -1.4575 -0.2244  0.5054
   58MPD2    H2  892   1.176   4.615  14.208  0.5246  0.6654 -0.4096
   58MPD2    H3  893   1.260   4.512  14.023  0.2766  0.2107 -1.2850
   58MPD2     N  894   1.705   4.599  14.104  0.3592 -0.3153 -0.3044
   58MPD2    H5  895   1.729   4.536  14.029 -1.9587 -0.9754 -0.4994
   58MPD2    N1  896   1.320   0.008  14.398 -0.3785 -0.0272 -0.2064
   58MPD2    H7  897   1.392   0.031  14.466  0.1906 -0.4484 -0.6678
   59MPD2     C  898   4.071   0.571  13.478  0.0659  1.2225 -0.3799
   59MPD2    C1  899   4.054   0.436  13.512  0.4433 -0.0073  0.3783
   59MPD2    C2  900   4.140   0.388  13.618  0.0088 -0.0833 -0.3104
   59MPD2    C3  901   4.227   0.465  13.682 -0.1014  0.3187  0.1583
   59MPD2    C4  902   4.239   0.597  13.649  0.8410 -0.0110  0.2413
   59MPD2    C5  903   4.167   0.651  13.542 -0.0084  0.7126 -0.0994
   59MPD2     H  904   4.130   0.283  13.642  0.3216  0.8984  4.1529
   59MPD2    H1  905   4.312   0.661  13.697  0.4214  0.4330  0.2765
   59MPD2    H2  906   4.007   0.629  13.412  0.0363 -0.1970 -1.5980
   59MPD2    H3  907   4.190   0.754  13.514  3.8633 -0.3644 -0.8753
   59MPD2     N  908   4.315   0.418  13.784 -0.3250 -0.1475  0.1752
   59MPD2    H5  909   4.362   0.495  13.830 -0.0782 -0.4300  0.3946
   59MPD2    N1  910   3.955   0.350  13.461 -0.0777 -0.2437  0.6243
   59MPD2    H7  911   3.947   0.258  13.503  1.0374  0.1360  1.6674
   60TCq2    C1  912   3.882   0.391  13.357  0.2176 -0.2921 -0.3004
   60TCq2    O2  913   3.909   0.479  13.278  1.0503 -0.0564  0.0972
   60TCq2    C2  914   3.791   0.293  13.307  0.0621  0.1853  0.6906
   60TCq2    C3  915   3.727   0.219  13.399 -0.1365 -0.5747  0.9173
   60TCq2    C4  916   3.668   0.100  13.353 -1.0770 -0.3077  0.4608
   60TCq2    C5  917   3.682   0.058  13.225 -0.1631  0.7361  0.1784
   60TCq2    C6  918   3.744   0.146  13.132 -0.3700  0.5396  0.4200
   60TCq2    C7  919   3.795   0.260  13.175 -0.5069  0.1911  0.0183
   60TCq2    C8  920   3.782   0.089  13.007  0.3107  0.6866 -0.1953
   60TCq2    O4  921   3.768   4.692  12.993 -0.6143  0.3181 -0.6886
   60TCq2    C9  922   3.592   0.013  13.444  0.3611 -1.4989 -0.7891
   60TCq2    O5  923   3.501   4.678  13.384  0.2876 -0.9952  0.1277
   60TCq2    O6  924   3.612   0.030  13.567  0.3653 -0.1996  0.7420
   60TCq2    H2  925   3.728   0.248  13.503 -0.8190  0.6303  0.5913
   60TCq2    H3  926   3.636   4.691  13.193  0.6354 -0.5114  2.6724
   60TCq2    H4  927   3.872   0.313  13.119 -0.1025 -0.9167 -0.4636
   61MPD2     C  928   3.360   1.085  14.568  0.5459 -0.4508  0.0205
   61MPD2    C1  929   3.395   1.195  14.639 -0.3701 -1.5177  0.4104
   61MPD2    C2  930   3.465   1.290  14.570  0.3841 -0.1304 -0.7279
   61MPD2    C3  931   3.496   1.278  14.437 -0.4379  0.3870 -0.0914
   61MPD2    C4  932   3.438   1.176  14.365  0.6997  0.4847 -0.5472
   61MPD2    C5  933   3.388   1.072  14.435 -0.8000  0.3287  0.1124
   61MPD2     H  934   3.499   1.371  14.634 -0.8643  0.8740 -1.3258
   61MPD2    H1  935   3.458   1.162  14.259  0.4316  2.2763 -0.8380
   61MPD2    H2  936   3.308   1.003  14.614 -0.5261  0.4320  0.3687
   61MPD2    H3  937   3.356   0.981  14.385 -1.0270  0.0686  0.7355
   61MPD2     N  938   3.560   1.387  14.369 -0.0012 -0.2780  0.2962
   61MPD2    H5  939   3.548   1.399  14.269  1.0088  2.0069  0.4621
   61MPD2    N1  940   3.353   1.228  14.771  0.1934  0.3078  0.2281
   61MPD2    H7  941   3.384   1.317  14.810  0.1877  0.9681 -1.3041
   62TCq2    C1  942   3.266   1.151  14.844 -0.0627 -0.3298  0.3264
   62TCq2    O2  943   3.226   1.036  14.826 -0.6318  0.4870 -0.3349
   62TCq2    C2  944   3.235   1.226  14.967 -0.0305  0.2405 -0.0874
   62TCq2    C3  945   3.197   1.158  15.076  0.0571 -0.1309 -0.1251
   62TCq2    C4  946   3.165   1.226  15.190  1.1610 -0.7921 -0.7135
   62TCq2    C5  947   3.181   1.363  15.199  0.1953  0.4414  0.2184
   62TCq2    C6  948   3.227   1.431  15.085 -0.1264  0.4455 -0.9252
   62TCq2    C7  949   3.253   1.360  14.970 -0.6167 -0.8916  0.4122
   62TCq2    C8  950   3.234   1.574  15.081  0.3028 -0.3961  0.3312
   62TCq2    O4  951   3.315   1.628  15.006  0.4743  0.0939  0.6396
   62TCq2    C9  952   3.101   1.164  15.301 -0.1459  0.3864  0.1459
   62TCq2    O5  953   3.072   1.042  15.291 -0.2130  0.0889 -0.0067
   62TCq2    O6  954   3.079   1.223  15.412  0.3999  0.2073  0.6039
   62TCq2    H2  955   3.166   1.055  15.069  2.6278 -1.0134  1.5611
   62TCq2    H3  956   3.158   1.407  15.296  2.1777 -0.4890  1.0949
   62TCq2    H4  957   3.266   1.420  14.881 -1.5491 -2.1593 -0.5733
   63TMC2    C1  958   3.002   1.604  10.554 -0.4591 -0.1661 -0.0609
   63TMC2    C2  959   3.117   1.533  10.547  0.2260  0.0744  0.9931
   63TMC2    C3  960   3.232   1.593  10.492  0.5142  0.0377 -0.0428
   63TMC2    C4  961   3.005   1.732  10.503  0.0363 -0.5405  0.2632
   63TMC2    C5  962   3.112   1.788  10.434 -0.7879 -0.1324  0.0865
   63TMC2    C6  963   3.233   1.716  10.437  0.3037  0.0728 -0.3482
   63TMC2     C  964   2.880   1.536  10.559 -0.3123  0.0985 -0.1633
   63TMC2     O  965   2.777   1.590  10.532 -0.5117 -0.9237  0.3526
   63TMC2     H  966   3.131   1.439  10.598  1.9161  0.0118  0.4215
   63TMC2    H1  967   2.917   1.796  10.508  0.6837  0.2047  1.9356
   63TMC2    H2  968   3.324   1.769  10.409 -0.3865  1.6850  0.4081
   63TMC2    C7  969   3.096   1.930  10.396  0.0208  0.0232  0.1256
   63TMC2    C8  970   3.348   1.513  10.475 -0.0365  0.2241  0.0786
   63TMC2    O1  971   2.977   1.961  10.388  0.1978 -0.7414 -0.4992
   63TMC2    O2  972   3.350   1.396  10.518 -0.1593  0.1886  0.3550
   63TMC2    O5  973   3.402   1.555  10.359 -0.5553 -0.7154 -0.0464
   63TMC2    H5  974   3.352   1.612  10.297 -0.7626  0.1941  0.9735
   64MPD2     C  975   2.677   1.070  10.508 -0.0021  0.1038  0.7757
   64MPD2    C1  976   2.797   1.050  10.568  0.6903  0.2368  0.3241
   64MPD2    C2  977   2.876   1.163  10.583  0.0764 -0.4264  0.3216
   64MPD2    C3  978   2.838   1.288  10.543  0.2417 -0.5625 -0.1480
   64MPD2    C4  979   2.717   1.303  10.482  0.8591  0.3863  0.3890
   64MPD2    C5  980   2.638   1.194  10.467 -0.5002  0.1792 -0.0281
   64MPD2     H  981   2.969   1.143  10.635  1.0373 -1.4166 -1.7612
   64MPD2    H1  982   2.671   1.396  10.451 -1.4609 -0.4378  1.3222
   64MPD2    H2  983   2.607   0.990  10.487  0.1515  0.4930 -1.2324
   64MPD2    H3  984   2.533   1.196  10.443 -0.2581 -2.7963 -1.2395
   64MPD2     N  985   2.917   1.404  10.565  0.0747 -0.1824 -0.0503
   64MPD2    H5  986   2.996   1.376  10.624 -0.3288  1.3656  1.2286
   64MPD2    N1  987   2.843   0.923  10.618  0.4591  0.3116  0.2645
   64MPD2    H7  988   2.936   0.929  10.659  0.4981 -0.5615  0.2943
   65MPD2     C  989   3.678   0.832  15.785  0.5852 -0.4528  0.2596
   65MPD2    C1  990   3.638   0.778  15.668  0.0291  0.3218  0.0912
   65MPD2    C2  991   3.619   0.636  15.661 -0.1231  0.5920 -1.0063
   65MPD2    C3  992   3.660   0.557  15.769  0.0927  0.3090 -0.3407
   65MPD2    C4  993   3.701   0.621  15.883  0.3876 -0.4077 -0.4500
   65MPD2    C5  994   3.709   0.755  15.897  0.9425  0.1589 -0.0876
   65MPD2     H  995   3.594   0.592  15.565 -1.4192  0.6401 -0.6907
   65MPD2    H1  996   3.727   0.565  15.972  5.0212 -0.7209 -2.0158
   65MPD2    H2  997   3.680   0.941  15.784  2.0672 -0.4908 -0.2913
   65MPD2    H3  998   3.741   0.812  15.983  0.1849 -1.2303  1.1055
   65MPD2     N  999   3.656   0.417  15.776 -0.1717 -0.4430 -0.3121
   65MPD2    H5 1000   3.699   0.375  15.858 -0.5116  0.0737  0.1290
   65MPD2    N1 1001   3.606   0.858  15.555  0.4116  0.2365 -0.1034
   65MPD2    H7 1002   3.597   0.819  15.462 -0.4777  0.0873  0.0497
   66TCq2    C1 1003   3.598   0.992  15.549 -0.6941 -0.0394 -0.0159
   66TCq2    O2 1004   3.595   1.077  15.635 -0.2265 -0.1188  0.1344
   66TCq2    C2 1005   3.582   1.044  15.414 -0.0963  0.6435  0.1160
   66TCq2    C3 1006   3.615   0.964  15.310 -0.3555 -0.2524  0.1531
   66TCq2    C4 1007   3.619   1.021  15.185 -0.4445  0.1059 -0.4710
   66TCq2    C5 1008   3.560   1.143  15.162  0.5156  0.4528  0.2123
   66TCq2    C6 1009   3.519   1.215  15.274  0.7123  0.8427  0.3750
   66TCq2    C7 1010   3.534   1.169  15.403 -0.1823  1.0537 -0.3039
   66TCq2    C8 1011   3.527   1.359  15.259  0.9888 -0.4466 -0.0695
   66TCq2    O4 1012   3.576   1.403  15.155  0.0057 -0.1369 -0.1469
   66TCq2    C9 1013   3.656   0.953  15.067 -0.0829  0.1921 -0.5645
   66TCq2    O5 1014   3.613   0.988  14.954 -0.1256 -0.3269 -0.2986
   66TCq2    O6 1015   3.705   0.838  15.093 -0.0525  0.0427  0.1032
   66TCq2    H2 1016   3.658   0.865  15.319 -1.3625 -0.7350 -0.3394
   66TCq2    H3 1017   3.551   1.188  15.064  3.3936 -0.1348 -0.2978
   66TCq2    H4 1018   3.518   1.234  15.489  0.2666 -2.8413  2.7259
   67MPD2     C 1019   3.930   0.266  14.014 -0.2241  0.0739 -0.1325
   67MPD2    C1 1020   3.869   0.364  14.086 -0.5678 -0.0256  0.3047
   67MPD2    C2 1021   3.738   0.384  14.075 -0.3786 -0.0908 -0.2402
   67MPD2    C3 1022   3.666   0.308  13.984  0.4069 -0.3997 -0.4161
   67MPD2    C4 1023   3.733   0.221  13.904  0.4105 -0.1204  0.8511
   67MPD2    C5 1024   3.866   0.198  13.919 -0.1803 -0.0424  0.3461
   67MPD2     H 1025   3.690   0.452  14.145 -0.0314  0.9315 -0.9999
   67MPD2    H1 1026   3.685   0.160  13.829 -0.3152  0.5318  0.7816
   67MPD2    H2 1027   4.032   0.236  14.035 -0.5420 -0.9223 -0.0105
   67MPD2    H3 1028   3.915   0.119  13.863  0.5865 -0.6256  1.8683
   67MPD2     N 1029   3.524   0.314  13.973  0.4849  0.3457 -0.0942
   67MPD2    H5 1030   3.477   0.275  13.892  1.5109 -0.0128 -0.5157
   67MPD2    N1 1031   3.935   0.440  14.183  0.1516 -0.5921  0.0957
   67MPD2    H7 1032   3.875   0.508  14.229  0.5995  0.6760 -1.1954
   68TCq2    C1 1033   4.070   0.423  14.222 -0.2876  0.4082 -0.0320
   68TCq2    O2 1034   4.141   0.327  14.200  0.0157 -0.2866  0.0957
   68TCq2    C2 1035   4.109   0.501  14.332  0.8892  0.2295 -0.5656
   68TCq2    C3 1036   4.067   0.633  14.354 -0.7541  0.4831 -0.9024
   68TCq2    C4 1037   4.133   0.714  14.446 -0.3280 -0.4294  0.1178
   68TCq2    C5 1038   4.220   0.656  14.536  0.6161  0.2347 -0.2330
   68TCq2    C6 1039   4.261   0.531  14.515  0.4600  0.4588  0.2895
   68TCq2    C7 1040   4.203   0.454  14.416 -0.6855 -0.3082 -0.5171
   68TCq2    C8 1041   4.339   0.455  14.614 -0.0301  0.1672 -0.6178
   68TCq2    O4 1042   4.395   0.353  14.580  0.3700 -0.0158  0.0514
   68TCq2    C9 1043   4.093   0.848  14.464  0.3460  0.0170  0.1165
   68TCq2    O5 1044   4.057   0.922  14.368  0.0711  0.5032  0.0991
   68TCq2    O6 1045   4.096   0.884  14.586 -0.0510  0.1300  0.1378
   68TCq2    H2 1046   4.005   0.687  14.283 -1.3858  0.3315 -0.4718
   68TCq2    H3 1047   4.266   0.710  14.618  1.4808  0.4863 -0.8871
   68TCq2    H4 1048   4.248   0.359  14.392 -0.6598 -1.1318  2.7748
   69TMC2    C1 1049   1.419   1.763  12.533 -0.4799  0.0858 -0.4520
   69TMC2    C2 1050   1.289   1.760  12.486  0.0172 -0.0323  0.0200
   69TMC2    C3 1051   1.282   1.762  12.348  0.3509 -0.1837 -0.1687
   69TMC2    C4 1052   1.530   1.753  12.453  0.6838  0.0149  0.1597
   69TMC2    C5 1053   1.513   1.744  12.321 -1.1049 -0.3117  0.4393
   69TMC2    C6 1054   1.391   1.758  12.263 -0.0425  0.6067  0.4354
   69TMC2     C 1055   1.444   1.763  12.677  0.4880 -0.3086  0.8847
   69TMC2     O 1056   1.350   1.735  12.754  0.2387 -0.0747 -0.0351
   69TMC2     H 1057   1.203   1.767  12.550 -0.4136 -1.1001 -0.4451
   69TMC2    H1 1058   1.621   1.716  12.498  0.9608 -0.4349 -0.7635
   69TMC2    H2 1059   1.382   1.784  12.158  1.5868 -1.5310 -0.2303
   69TMC2    C7 1060   1.630   1.741  12.233 -0.0123 -0.0640  0.2400
   69TMC2    C8 1061   1.156   1.810  12.285 -0.3749  0.0533  0.1017
   69TMC2    O1 1062   1.744   1.737  12.278 -0.0742 -0.0867 -0.7332
   69TMC2    O2 1063   1.058   1.829  12.355 -0.1708  0.3799 -0.0774
   69TMC2    O5 1064   1.147   1.750  12.163  0.2993 -0.2309 -0.0732
   69TMC2    H5 1065   1.225   1.692  12.150 -0.0762 -0.6550 -0.4146
   70MPD2     C 1066   1.741   1.869  12.866 -0.1820 -0.4402 -0.2770
   70MPD2    C1 1067   1.638   1.779  12.843 -0.4376  0.1708 -0.6779
   70MPD2    C2 1068   1.605   1.677  12.930 -0.6741  0.3551 -0.5995
   70MPD2    C3 1069   1.681   1.668  13.050  0.2349 -0.7501 -0.2248
   70MPD2    C4 1070   1.779   1.761  13.076  0.2538  0.1204  0.9696
   70MPD2    C5 1071   1.808   1.864  12.986  0.8875  0.1037  0.2302
   70MPD2     H 1072   1.535   1.601  12.898 -1.8378  1.5050 -0.7779
   70MPD2    H1 1073   1.831   1.761  13.172 -1.6399 -2.3632  1.9997
   70MPD2    H2 1074   1.776   1.939  12.792 -0.5561  0.1211  0.0717
   70MPD2    H3 1075   1.875   1.946  13.012 -1.3644  1.7927  0.7196
   70MPD2     N 1076   1.655   1.569  13.148  0.1424  0.7031  0.3308
   70MPD2    H5 1077   1.723   1.556  13.222 -0.1890 -3.2946 -0.1095
   70MPD2    N1 1078   1.575   1.800  12.713  0.0478  0.3707  0.2530
   70MPD2    H7 1079   1.624   1.856  12.643 -1.2314  3.2618  1.6857
   71TMC2    C1 1080   3.032   0.775   1.652 -0.8813  0.2769 -0.3101
   71TMC2    C2 1081   3.106   0.659   1.645 -0.7049  0.3047 -0.0858
   71TMC2    C3 1082   3.027   0.545   1.661  0.4985  0.4046  0.2106
   71TMC2    C4 1083   2.898   0.776   1.668  0.6403  0.3617 -0.2569
   71TMC2    C5 1084   2.824   0.664   1.663 -0.0974 -0.1384  0.0052
   71TMC2    C6 1085   2.889   0.546   1.664  0.3930  0.6441 -0.3438
   71TMC2     C 1086   3.095   0.903   1.639 -0.0149 -0.1246 -0.7460
   71TMC2     O 1087   3.032   0.994   1.587 -0.3645 -0.3599 -0.4460
   71TMC2     H 1088   3.211   0.648   1.620 -1.1367  1.6708 -2.5770
   71TMC2    H1 1089   2.852   0.873   1.684  0.3390 -0.1472  1.9553
   71TMC2    H2 1090   2.843   0.451   1.643 -0.1486  0.6589  0.8079
   71TMC2    C7 1091   2.680   0.671   1.678  0.0954  0.1491 -0.6412
   71TMC2    C8 1092   3.070   0.412   1.621  0.1385  0.3716  0.5878
   71TMC2    O1 1093   2.622   0.565   1.696 -0.6037 -0.1158 -0.8179
   71TMC2    O2 1094   3.006   0.328   1.558  1.0012 -0.2004  0.3401
   71TMC2    O5 1095   3.198   0.400   1.663 -0.1187 -0.0155  0.0301
   71TMC2    H5 1096   3.205   0.468   1.733 -0.4561 -0.3649  0.4083
   72MPD2     C 1097   3.481   1.217   1.689 -0.0501 -1.2558 -0.2111
   72MPD2    C1 1098   3.382   1.217   1.594 -0.2514  0.1179 -0.1448
   72MPD2    C2 1099   3.298   1.111   1.591 -0.4445  0.1238  0.3684
   72MPD2    C3 1100   3.314   1.000   1.670  0.5898 -0.0214 -0.4998
   72MPD2    C4 1101   3.419   1.004   1.756  0.0308 -1.2059 -0.5286
   72MPD2    C5 1102   3.497   1.113   1.766 -0.0290  0.2682  0.8881
   72MPD2     H 1103   3.227   1.115   1.509 -0.5187 -0.4942  0.4034
   72MPD2    H1 1104   3.445   0.911   1.807  0.7412 -1.0748 -0.6448
   72MPD2    H2 1105   3.558   1.294   1.690 -1.5738  0.3157 -2.1076
   72MPD2    H3 1106   3.575   1.121   1.840  1.3361  0.0240 -0.5060
   72MPD2     N 1107   3.226   0.892   1.681 -0.0062 -0.6560 -0.5111
   72MPD2    H5 1108   3.252   0.825   1.752  1.3623  0.2954 -0.1174
   72MPD2    N1 1109   3.371   1.325   1.494  0.0099  0.7680  0.1098
   72MPD2    H7 1110   3.300   1.324   1.422  0.2216  1.1662 -0.1057
   73TMC2    C1 1111   3.186   3.538  14.103 -0.4586  0.4982 -0.1855
   73TMC2    C2 1112   3.106   3.470  14.194  0.0118  0.1198  1.0350
   73TMC2    C3 1113   3.173   3.393  14.285  0.0512 -0.1995  0.3863
   73TMC2    C4 1114   3.324   3.508  14.094  0.0380 -0.1304  0.4244
   73TMC2    C5 1115   3.379   3.435  14.193 -0.0217 -0.2794 -0.0786
   73TMC2    C6 1116   3.307   3.372  14.289  0.1400  0.3087 -0.2044
   73TMC2     C 1117   3.173   3.680  14.104 -0.1519  0.3923 -0.2975
   73TMC2     O 1118   3.277   3.741  14.125 -0.0425  0.5859  0.0615
   73TMC2     H 1119   3.004   3.496  14.220  0.2255  1.5367  0.4077
   73TMC2    H1 1120   3.382   3.566  14.023  3.2156 -1.9891  1.4943
   73TMC2    H2 1121   3.357   3.327  14.375  0.9813 -0.8233 -1.2750
   73TMC2    C7 1122   3.495   3.510  14.239 -0.4518  0.5424 -0.3668
   73TMC2    C8 1123   3.096   3.300  14.361 -0.7674  0.6550 -0.2990
   73TMC2    O1 1124   3.572   3.450  14.317  0.7849  0.2139 -0.1027
   73TMC2    O2 1125   3.123   3.262  14.475  0.2654 -0.2256  0.1953
   73TMC2    O5 1126   2.988   3.261  14.285  0.8688  0.1373 -0.4921
   73TMC2    H5 1127   2.993   3.289  14.191 -0.8336 -1.8579 -1.1810
   74MPD2     C 1128   2.987   4.097  13.861 -0.0735  0.2223 -0.1380
   74MPD2    C1 1129   3.110   4.073  13.910 -0.1790 -0.0499 -0.1316
   74MPD2    C2 1130   3.129   3.956  13.974  0.6518 -0.0948 -0.4538
   74MPD2    C3 1131   3.037   3.850  13.985 -0.0169  0.5619 -0.2290
   74MPD2    C4 1132   2.918   3.875  13.928  0.8791  0.1265 -0.4991
   74MPD2    C5 1133   2.893   4.002  13.874  0.2872 -0.4581  0.4022
   74MPD2     H 1134   3.220   3.944  14.031  0.3168 -0.9778 -0.1079
   74MPD2    H1 1135   2.839   3.801  13.927 -0.4937  1.5774 -0.1400
   74MPD2    H2 1136   2.965   4.188  13.806 -0.1319 -2.0450 -3.8681
   74MPD2    H3 1137   2.792   4.018  13.838  0.3367  2.1097  1.3978
   74MPD2     N 1138   3.057   3.721  14.043 -0.2139  0.2488  1.0503
   74MPD2    H5 1139   2.978   3.659  14.029  0.4788  0.1015 -2.3265
   74MPD2    N1 1140   3.203   4.177  13.904 -0.4242 -0.8417 -0.1785
   74MPD2    H7 1141   3.187   4.259  13.847  0.7117  0.0986  0.8614
   75TCq2    C1 1142   3.438   0.367  14.064 -0.5143 -0.0683  0.4599
   75TCq2    O2 1143   3.451   0.406  14.178 -0.2356  0.2143 -0.2630
   75TCq2    C2 1144   3.302   0.381  14.016 -0.7511  0.1384  0.7228
   75TCq2    C3 1145   3.204   0.385  14.113  0.3946  0.1831  0.2971
   75TCq2    C4 1146   3.079   0.423  14.079  0.0774  0.0846  0.3229
   75TCq2    C5 1147   3.052   0.478  13.957 -0.3512 -0.5589  0.9347
   75TCq2    C6 1148   3.151   0.466  13.863 -0.9081  1.2347  0.4188
   75TCq2    C7 1149   3.285   0.430  13.889  0.7498  0.4593  0.8316
   75TCq2    C8 1150   3.126   0.541  13.735  0.1616  0.4546 -0.0975
   75TCq2    O4 1151   3.178   0.508  13.631 -0.0243  0.0723  0.0611
   75TCq2    C9 1152   2.976   0.412  14.174  0.7539 -1.1137  0.0824
   75TCq2    O5 1153   2.863   0.456  14.146 -0.1577  0.5750 -0.2339
   75TCq2    O6 1154   3.004   0.351  14.282 -0.1183 -0.7365  0.6248
   75TCq2    H2 1155   3.231   0.358  14.214 -0.0169 -0.6099  0.1963
   75TCq2    H3 1156   2.953   0.511  13.928  0.2866  0.3071 -0.2634
   75TCq2    H4 1157   3.362   0.432  13.813 -0.5276  3.3410 -0.3841
   76MPD2     C 1158   2.772   1.587  12.207  0.3972 -0.7322  0.1854
   76MPD2    C1 1159   2.642   1.560  12.169  0.0024 -0.2216  1.0804
   76MPD2    C2 1160   2.592   1.430  12.187  0.6902  0.4339  0.0809
   76MPD2    C3 1161   2.673   1.326  12.242  0.8067  0.0744 -0.4132
   76MPD2    C4 1162   2.800   1.361  12.276  0.7333 -0.2562 -0.6158
   76MPD2    C5 1163   2.847   1.488  12.263 -0.2538  0.4234  0.0486
   76MPD2     H 1164   2.489   1.407  12.163  1.5410 -2.3085 -0.8996
   76MPD2    H1 1165   2.865   1.284  12.317  0.7458 -0.3312 -0.7768
   76MPD2    H2 1166   2.815   1.684  12.190  3.0912 -1.8436  0.6560
   76MPD2    H3 1167   2.953   1.509  12.277  0.0104 -0.3709 -0.7393
   76MPD2     N 1168   2.641   1.188  12.245  0.3704  0.2246  0.2204
   76MPD2    H5 1169   2.712   1.122  12.276  1.9801  1.2084 -1.3693
   76MPD2    N1 1170   2.540   1.653  12.111  0.3875  0.0346  0.0561
   76MPD2    H7 1171   2.447   1.614  12.098  0.1782  0.5722 -0.0652
   77TCq2    C1 1172   2.524   1.135  12.208 -0.6497  0.3682  0.3043
   77TCq2    O2 1173   2.415   1.197  12.215 -0.2886  0.4103  0.6273
   77TCq2    C2 1174   2.515   0.991  12.193 -0.1028 -0.1085 -0.1926
   77TCq2    C3 1175   2.385   0.937  12.169 -0.5693 -0.1601  0.6414
   77TCq2    C4 1176   2.378   0.811  12.115 -0.4487 -0.2040  0.2220
   77TCq2    C5 1177   2.488   0.733  12.108  0.5662  0.2106 -0.2261
   77TCq2    C6 1178   2.611   0.784  12.134 -0.0495  0.2728 -0.2939
   77TCq2    C7 1179   2.629   0.917  12.171  0.0099 -0.0320  0.1555
   77TCq2    C8 1180   2.715   0.711  12.065 -0.0330  0.3535 -0.5305
   77TCq2    O4 1181   2.675   0.656  11.961  0.3704  0.0442  0.2521
   77TCq2    C9 1182   2.250   0.754  12.078 -0.1242 -0.7421  0.0315
   77TCq2    O5 1183   2.153   0.834  12.065 -0.2326 -0.0504 -0.1698
   77TCq2    O6 1184   2.266   0.650  12.008 -0.3997  0.0232  0.1303
   77TCq2    H2 1185   2.301   1.006  12.175  0.3831  1.1861 -1.4219
   77TCq2    H3 1186   2.469   0.626  12.103  1.4912 -0.0085  1.0086
   77TCq2    H4 1187   2.729   0.954  12.191  0.0408 -0.2611  0.4274
   78MPD1     C 1188   3.915   4.711   1.986  0.4985  0.3013 -0.0112
   78MPD1    C1 1189   3.948   0.066   2.098  0.1336 -0.2564  0.2201
   78MPD1    C2 1190   3.866   0.173   2.123  0.0637 -0.3662 -0.2747
   78MPD1    C3 1191   3.764   0.213   2.038  0.2081  1.4052  0.6109
   78MPD1    C4 1192   3.740   0.139   1.927 -0.3577  0.6079 -0.1598
   78MPD1    C5 1193   3.823   0.031   1.899 -0.6742 -0.0579 -0.3781
   78MPD1     H 1194   3.896   0.227   2.213 -0.6335  1.4354 -1.1100
   78MPD1    H1 1195   3.665   0.167   1.854  0.0381  0.3823 -0.6556
   78MPD1    H2 1196   3.984   4.634   1.955  0.3293  0.3917 -0.6069
   78MPD1    H3 1197   3.816   4.712   1.800  2.1270  0.6128 -0.8559
   78MPD1     N 1198   3.685   0.329   2.055 -0.3464 -0.2905  0.4157
   78MPD1    H5 1199   3.608   0.334   1.989  0.4172  0.3577 -0.4346
   78MPD1    N1 1200   4.020   0.009   2.202 -0.2330  0.0540 -0.7834
   78MPD1    H6 1201   4.093   4.673   2.166  0.6198  1.5208 -1.4987
   78MPD1    H7 1202   4.051   0.075   2.272 -0.0899  0.2324 -1.0169
   79TCq2    C1 1203   3.695   0.419   2.166 -0.4900  0.2413 -0.8471
   79TCq2    O2 1204   3.780   0.440   2.248 -0.6146 -0.4328  0.4032
   79TCq2    C2 1205   3.583   0.517   2.170 -0.1524  0.2786  0.8077
   79TCq2    C3 1206   3.477   0.504   2.078 -0.7389  0.7520  0.6947
   79TCq2    C4 1207   3.408   0.622   2.042  0.7709  0.5249 -0.0783
   79TCq2    C5 1208   3.443   0.748   2.073 -1.1064 -0.1267  0.3971
   79TCq2    C6 1209   3.545   0.757   2.169 -0.3133 -0.3035  0.1689
   79TCq2    C7 1210   3.606   0.644   2.221 -0.3429 -0.2998 -0.4376
   79TCq2    C8 1211   3.612   0.883   2.193 -0.1516  0.5769 -0.2267
   79TCq2    O4 1212   3.709   0.879   2.264 -0.6543  0.7273 -0.0903
   79TCq2    C9 1213   3.307   0.612   1.936 -0.0492 -0.0429 -0.8622
   79TCq2    O5 1214   3.268   0.721   1.878 -0.3019 -0.2330  0.4379
   79TCq2    O6 1215   3.267   0.497   1.906  0.4055 -0.3458 -0.5722
   79TCq2    H2 1216   3.437   0.413   2.036 -1.3689  1.7941 -0.9712
   79TCq2    H3 1217   3.381   0.832   2.041 -1.4669 -0.4231  0.3178
   79TCq2    H4 1218   3.691   0.650   2.288 -0.0007 -1.6331 -0.7433
   80MPD2     C 1219   1.612   1.057  12.709 -0.2690 -0.1851  0.3456
   80MPD2    C1 1220   1.511   1.031  12.623  0.3338 -0.1232  0.2511
   80MPD2    C2 1221   1.376   1.033  12.665  0.1648  0.2313  0.3144
   80MPD2    C3 1222   1.343   1.076  12.787  0.0181  0.0370 -0.3282
   80MPD2    C4 1223   1.446   1.108  12.874 -0.2621  0.1477 -0.0465
   80MPD2    C5 1224   1.582   1.099  12.837 -0.2655 -0.4001 -0.1118
   80MPD2     H 1225   1.295   1.009  12.597  0.6475  0.5748 -0.3794
   80MPD2    H1 1226   1.431   1.143  12.975  3.2625 -2.0351  1.2076
   80MPD2    H2 1227   1.715   1.058  12.677  0.4833 -0.4031  2.7676
   80MPD2    H3 1228   1.660   1.123  12.908  0.2337 -0.5422 -0.6213
   80MPD2     N 1229   1.211   1.089  12.835  0.4535 -1.0382  0.0145
   80MPD2    H5 1230   1.195   1.113  12.933 -0.6914  0.9461 -0.6593
   80MPD2    N1 1231   1.538   0.987  12.490  0.0519  0.3106  0.3199
   80MPD2    H7 1232   1.457   0.954  12.438 -0.4495  0.3530  1.0701
   81TCq2    C1 1233   1.654   0.973  12.431  0.2725 -0.3353 -0.0005
   81TCq2    O2 1234   1.756   1.028  12.461 -0.5282  0.5261  0.0395
   81TCq2    C2 1235   1.650   0.914  12.299 -0.0410  0.4628 -0.0260
   81TCq2    C3 1236   1.750   0.956  12.217 -0.0845 -0.2653 -0.3296
   81TCq2    C4 1237   1.763   0.895  12.100 -0.6607 -0.7630 -0.0802
   81TCq2    C5 1238   1.689   0.784  12.073  0.6673 -0.5167 -0.1152
   81TCq2    C6 1239   1.586   0.743  12.156 -0.2042  0.6365 -0.0505
   81TCq2    C7 1240   1.564   0.813  12.269 -0.4211 -0.8826 -0.3872
   81TCq2    C8 1241   1.530   0.611  12.121 -0.1034  0.4119  0.5358
   81TCq2    O4 1242   1.564   0.558  12.019  0.1350 -0.0391  0.2110
   81TCq2    C9 1243   1.860   0.937  12.005 -0.4793 -1.0537  0.4317
   81TCq2    O5 1244   1.905   0.851  11.925  0.2500  0.0479 -0.3622
   81TCq2    O6 1245   1.902   1.054  12.009  0.5205  0.6249 -0.1300
   81TCq2    H2 1246   1.806   1.046  12.237 -0.2908  0.0695 -1.2605
   81TCq2    H3 1247   1.712   0.730  11.982  2.6829  1.4844 -0.7679
   81TCq2    H4 1248   1.487   0.781  12.339  0.0330 -0.1990  0.4229
   82MPD2     C 1249   0.435   0.280  10.942 -0.2491 -0.5502  0.6249
   82MPD2    C1 1250   0.335   0.186  10.971  0.4067 -0.0228 -0.0260
   82MPD2    C2 1251   0.358   0.099  11.073  0.5682 -0.0066  0.1558
   82MPD2    C3 1252   0.466   0.108  11.154 -0.4262 -0.2717 -0.0384
   82MPD2    C4 1253   0.559   0.210  11.127  0.0656  0.2300  0.4526
   82MPD2    C5 1254   0.543   0.293  11.022 -0.0795 -0.7290 -0.2209
   82MPD2     H 1255   0.288   0.017  11.083  0.4955 -0.1751 -1.8552
   82MPD2    H1 1256   0.645   0.223  11.191  1.0837  0.1020 -0.8888
   82MPD2    H2 1257   0.423   0.345  10.856  0.7497  0.2010  1.0611
   82MPD2    H3 1258   0.614   0.373  11.006 -0.8207 -0.1351 -0.5288
   82MPD2     N 1259   0.502   0.008  11.252 -0.1770  0.2662 -0.0105
   82MPD2    H5 1260   0.599   0.010  11.282 -0.6026  1.5507  1.2995
   82MPD2    N1 1261   0.224   0.184  10.886  0.1658 -0.5275  0.0965
   82MPD2    H7 1262   0.226   0.249  10.808  0.7758 -2.6220 -1.6280
   83TCq2    C1 1263   0.403   4.649  11.309 -0.3615  0.3301  0.1808
   83TCq2    O2 1264   0.284   4.655  11.298 -0.5199  0.1991  0.5572
   83TCq2    C2 1265   0.471   4.543  11.387 -0.1609  0.2415 -0.0713
   83TCq2    C3 1266   0.591   4.490  11.345 -0.0549 -0.2255  0.5866
   83TCq2    C4 1267   0.634   4.383  11.416 -0.4484 -0.6430  0.4200
   83TCq2    C5 1268   0.569   4.329  11.522  0.7509  0.0340  0.0438
   83TCq2    C6 1269   0.449   4.383  11.556 -0.4381  0.2349  0.2696
   83TCq2    C7 1270   0.402   4.492  11.493 -0.5007  0.3219  0.1746
   83TCq2    C8 1271   0.365   4.307  11.653 -0.1593 -0.0076  0.5006
   83TCq2    O4 1272   0.271   4.366  11.697  0.1682  0.6629  0.2017
   83TCq2    C9 1273   0.756   4.313  11.373 -0.7376 -0.6404  0.0354
   83TCq2    O5 1274   0.784   4.197  11.420 -0.2169 -0.1347 -0.1141
   83TCq2    O6 1275   0.793   4.359  11.258 -0.7832 -0.0393 -0.7628
   83TCq2    H2 1276   0.633   4.520  11.250  0.0926  0.8337  0.9912
   83TCq2    H3 1277   0.619   4.256  11.583 -1.6086 -0.1674  1.7281
   83TCq2    H4 1278   0.315   4.548  11.527 -0.5605  0.4394 -0.1666
   84TCq2    C1 1279   1.024   3.679  10.844 -0.1514 -0.1648  0.3047
   84TCq2    O2 1280   1.026   3.795  10.805  0.1598 -0.0435 -0.2149
   84TCq2    C2 1281   1.061   3.656  10.982 -0.1926 -0.4642 -0.4591
   84TCq2    C3 1282   1.102   3.532  11.021 -0.1811 -1.0471 -0.4675
   84TCq2    C4 1283   1.143   3.515  11.152  0.4507 -0.6679 -1.5628
   84TCq2    C5 1284   1.120   3.611  11.250 -0.3479  0.1478  0.0112
   84TCq2    C6 1285   1.061   3.730  11.209  0.7830 -0.4661 -0.4444
   84TCq2    C7 1286   1.032   3.755  11.077  0.1892  0.4408  0.0041
   84TCq2    C8 1287   1.016   3.829  11.306  0.4024  0.0122  0.5329
   84TCq2    O4 1288   1.003   3.950  11.270  0.3187 -0.3294 -0.5458
   84TCq2    C9 1289   1.197   3.389  11.195  0.0194  0.3247  0.2518
   84TCq2    O5 1290   1.198   3.295  11.113 -0.3959  0.2478  0.0144
   84TCq2    O6 1291   1.233   3.381  11.317  0.1947 -0.4788 -0.1771
   84TCq2    H2 1292   1.114   3.450  10.951 -1.2181 -1.7065  0.1386
   84TCq2    H3 1293   1.161   3.597  11.349  2.2679 -1.4405 -1.3014
   84TCq2    H4 1294   1.001   3.854  11.045  2.0554  1.8434  2.4471
   85MPD2     C 1295   1.243   1.631  16.651  0.8366 -0.4128  0.5509
   85MPD2    C1 1296   1.175   1.589  16.537 -0.6603  0.7181 -0.1430
   85MPD2    C2 1297   1.167   1.673  16.428  0.0173  0.4243  0.0672
   85MPD2    C3 1298   1.235   1.792  16.435 -0.0555  0.4915 -0.0552
   85MPD2    C4 1299   1.318   1.821  16.541  0.4059 -0.6130 -0.1630
   85MPD2    C5 1300   1.319   1.742  16.649  0.2651  0.1616 -0.3524
   85MPD2     H 1301   1.101   1.657  16.344  0.9253  0.8911 -0.7252
   85MPD2    H1 1302   1.378   1.910  16.560 -2.1727  1.4665 -1.7445
   85MPD2    H2 1303   1.257   1.571  16.740  2.0635 -0.9249  0.0240
   85MPD2    H3 1304   1.376   1.769  16.737 -2.1671  1.5587  0.7974
   85MPD2     N 1305   1.221   1.882  16.327  0.1027 -0.0869  0.3772
   85MPD2    H5 1306   1.160   1.862  16.248 -0.8250  0.2819  0.9900
   85MPD2    N1 1307   1.100   1.472  16.529  0.8470  0.4595  0.3300
   85MPD2    H7 1308   1.064   1.444  16.438 -1.5204  1.1337  1.0627
   86TCq2    C1 1309   1.286   2.002  16.325  0.6443 -0.0023 -0.6004
   86TCq2    O2 1310   1.377   2.053  16.386  0.3249 -0.1725 -0.2618
   86TCq2    C2 1311   1.252   2.084  16.210 -0.1151 -0.2921 -0.0315
   86TCq2    C3 1312   1.118   2.118  16.194 -0.0143 -0.4426 -0.0146
   86TCq2    C4 1313   1.081   2.228  16.122 -0.5629 -0.0226 -0.3580
   86TCq2    C5 1314   1.172   2.312  16.072 -0.2954  0.4795  0.1025
   86TCq2    C6 1315   1.307   2.279  16.087  0.3792  0.7420 -0.2094
   86TCq2    C7 1316   1.348   2.168  16.157 -0.3505 -0.8178  0.2466
   86TCq2    C8 1317   1.393   2.309  15.977  0.6096  0.1828 -0.0209
   86TCq2    O4 1318   1.510   2.283  15.988  0.1722  0.4170  0.5361
   86TCq2    C9 1319   0.938   2.260  16.119  0.0584 -0.5832  0.3797
   86TCq2    O5 1320   0.867   2.195  16.204 -0.3655 -0.4282 -0.0894
   86TCq2    O6 1321   0.903   2.367  16.056 -0.2724  0.0422 -0.5169
   86TCq2    H2 1322   1.048   2.057  16.251 -2.9362  1.2233 -1.8501
   86TCq2    H3 1323   1.135   2.400  16.020 -2.9887  0.2703  1.7165
   86TCq2    H4 1324   1.451   2.134  16.153  0.8034  2.3739  3.1917
   87MPD2     C 1325   3.900   0.704   1.948 -0.0269  0.3542 -0.1565
   87MPD2    C1 1326   3.875   0.621   1.839 -0.8431 -0.4934 -0.0922
   87MPD2    C2 1327   3.792   0.670   1.734 -0.4297 -0.0801  0.3262
   87MPD2    C3 1328   3.744   0.796   1.732 -0.2142 -0.1176 -0.0959
   87MPD2    C4 1329   3.779   0.880   1.840 -0.2708  0.2974 -0.0968
   87MPD2    C5 1330   3.865   0.835   1.933  0.2385 -0.0568 -0.5188
   87MPD2     H 1331   3.759   0.606   1.653  0.5652 -0.4653  0.2280
   87MPD2    H1 1332   3.745   0.983   1.836  0.4635  0.5249 -0.4878
   87MPD2    H2 1333   3.965   0.670   2.026  0.1388 -1.8291 -1.2393
   87MPD2    H3 1334   3.898   0.912   2.002 -3.5310  0.6240  0.4826
   87MPD2     N 1335   3.672   0.858   1.630  0.5947  0.6176  0.3582
   87MPD2    H5 1336   3.664   0.958   1.623 -2.1953  0.5370  2.4465
   87MPD2    N1 1337   3.939   0.488   1.839 -0.0803  0.3048 -0.1240
   87MPD2    H7 1338   4.001   0.465   1.916  1.6949  2.6915 -0.8283
   88TCq2    C1 1339   3.920   0.399   1.741  0.0470  0.0289  0.4291
   88TCq2    O2 1340   3.847   0.404   1.638 -0.1046 -0.2270 -0.2137
   88TCq2    C2 1341   4.016   0.292   1.748 -0.1863  0.0570 -0.4291
   88TCq2    C3 1342   4.098   0.281   1.857 -0.5686 -0.2269  0.1597
   88TCq2    C4 1343   4.187   0.175   1.864 -0.6684  0.0319 -0.7541
   88TCq2    C5 1344   4.167   0.070   1.779  0.0083 -0.2592 -0.5698
   88TCq2    C6 1345   4.081   0.077   1.678 -0.0735  0.2570  0.8683
   88TCq2    C7 1346   3.999   0.187   1.658 -0.0308  0.8766  0.4644
   88TCq2    C8 1347   4.098   4.710   1.567 -0.5715  0.0865 -0.6213
   88TCq2    O4 1348   4.056   0.035   1.463  0.3248  0.1467  0.0040
   88TCq2    C9 1349   4.279   0.161   1.974  0.3555  0.1111  0.5546
   88TCq2    O5 1350   4.289   0.258   2.052  0.5926  0.1806  0.5071
   88TCq2    O6 1351   4.353   0.063   1.966 -0.0670  0.2348 -0.0822
   88TCq2    H2 1352   4.113   0.358   1.932  0.4105 -0.4287  0.1715
   88TCq2    H3 1353   4.230   4.708   1.793  1.1286  0.5005 -0.8607
   88TCq2    H4 1354   3.931   0.199   1.574  1.2023 -1.3736 -0.8548
   89MPD2     C 1355   4.604   2.525   2.091 -0.0049  0.4584  0.3872
   89MPD2    C1 1356   4.566   2.650   2.072 -0.7989 -0.0641  0.0791
   89MPD2    C2 1357   4.659   2.740   2.015 -0.1604 -0.1223  0.6844
   89MPD2    C3 1358   0.055   2.694   1.962 -0.1953  0.0689 -0.0592
   89MPD2    C4 1359   0.090   2.565   1.982 -0.0156  0.1402 -0.0010
   89MPD2    C5 1360   0.002   2.484   2.052  0.2242 -0.0358  0.8516
   89MPD2     H 1361   4.641   2.846   2.007 -0.7166 -0.1307  1.7337
   89MPD2    H1 1362   0.188   2.524   1.961  1.4181  3.2600  0.6821
   89MPD2    H2 1363   4.544   2.453   2.146 -1.6513  1.3055 -0.3005
   89MPD2    H3 1364   0.036   2.389   2.092 -1.5559  0.1297  2.7887
   89MPD2     N 1365   0.145   2.777   1.893  0.4148 -0.4005 -0.2385
   89MPD2    H5 1366   0.130   2.878   1.890  1.1754 -0.2550  0.8626
   89MPD2    N1 1367   4.430   2.693   2.092 -0.3267  0.6112  0.2728
   89MPD2    H7 1368   4.414   2.791   2.074  2.5600  0.7799 -1.4460
   90TCq2    C1 1369   0.245   2.728   1.810 -0.0245 -0.2590  0.0856
   90TCq2    O2 1370   0.268   2.616   1.763 -0.0390  0.2735  0.1947
   90TCq2    C2 1371   0.333   2.840   1.760 -0.1719 -0.3169  0.3155
   90TCq2    C3 1372   0.367   2.944   1.839 -0.1152 -0.1811 -0.3995
   90TCq2    C4 1373   0.444   3.046   1.790 -0.2413  0.3562 -0.3239
   90TCq2    C5 1374   0.488   3.042   1.664 -0.4497 -0.5896 -0.9056
   90TCq2    C6 1375   0.449   2.939   1.582  0.3755 -0.3713 -0.1334
   90TCq2    C7 1376   0.378   2.831   1.625  0.0154 -0.2413  0.4553
   90TCq2    C8 1377   0.483   2.944   1.443  0.3073  0.8444  0.3196
   90TCq2    O4 1378   0.475   2.838   1.387  0.1062  0.3050  0.4658
   90TCq2    C9 1379   0.485   3.153   1.879  0.1562 -0.2057 -0.6074
   90TCq2    O5 1380   0.541   3.247   1.819  0.0180 -0.0485  0.3497
   90TCq2    O6 1381   0.431   3.160   1.996  0.4327  0.1017  0.0323
   90TCq2    H2 1382   0.355   2.954   1.946 -0.4103  3.8938 -0.8035
   90TCq2    H3 1383   0.552   3.123   1.629 -1.5118 -0.1898 -1.8956
   90TCq2    H4 1384   0.333   2.760   1.557  1.8099  1.7629 -2.8068
   91TMC2    C1 1385   1.314   2.779  16.625  0.1670 -0.2246  0.8153
   91TMC2    C2 1386   1.350   2.828  16.749  0.2931  0.3211  0.2303
   91TMC2    C3 1387   1.250   2.872  16.830  0.4137 -0.4851  0.2554
   91TMC2    C4 1388   1.183   2.768  16.580 -0.6390  0.5558 -0.6993
   91TMC2    C5 1389   1.084   2.792  16.675  0.1929 -0.2674 -0.0085
   91TMC2    C6 1390   1.117   2.846  16.791  0.1993  0.0343  0.2582
   91TMC2     C 1391   1.418   2.745  16.527  0.2553 -0.6081 -0.1072
   91TMC2     O 1392   1.376   2.660  16.454 -0.1652  0.4185 -0.4603
   91TMC2     H 1393   1.454   2.836  16.778 -0.0647  1.9375  1.0509
   91TMC2    H1 1394   1.170   2.756  16.473 -1.6928  3.0327 -0.8659
   91TMC2    H2 1395   1.037   2.873  16.859 -0.2252 -0.0988 -0.1924
   91TMC2    C7 1396   0.947   2.798  16.641 -0.4898  0.1491 -0.0327
   91TMC2    C8 1397   1.281   2.907  16.965 -0.2414  0.7090  0.3053
   91TMC2    O1 1398   0.868   2.863  16.710 -0.1378 -0.1779 -0.3492
   91TMC2    O2 1399   1.196   2.915  17.056  0.0227 -0.4212 -0.1299
   91TMC2    O5 1400   1.382   2.988  16.944 -0.3640  0.0095 -0.1428
   91TMC2    H5 1401   1.434   2.969  16.864  2.6608  1.9630  1.3418
   92MPD2     C 1402   1.649   2.739  16.343  0.0014 -0.1565  0.5998
   92MPD2    C1 1403   1.649   2.803  16.465 -0.3501  0.2894 -0.4252
   92MPD2    C2 1404   1.760   2.867  16.518 -0.1103  0.4476  0.5026
   92MPD2    C3 1405   1.877   2.867  16.442 -0.3195 -0.2379  0.1048
   92MPD2    C4 1406   1.873   2.795  16.319  0.4696  0.0859 -0.0559
   92MPD2    C5 1407   1.763   2.731  16.274 -0.1402  0.3256  0.2370
   92MPD2     H 1408   1.743   2.916  16.613  0.7080  1.3781  0.1752
   92MPD2    H1 1409   1.965   2.794  16.262  0.7338  1.5061  0.3554
   92MPD2    H2 1410   1.559   2.701  16.296 -1.0426  1.0097  1.6562
   92MPD2    H3 1411   1.767   2.679  16.179 -0.1664  0.4584  0.1624
   92MPD2     N 1412   1.996   2.931  16.473 -0.3946  0.4090  0.1626
   92MPD2    H5 1413   2.066   2.926  16.399  1.4633 -1.8037  2.0930
   92MPD2    N1 1414   1.536   2.819  16.547  0.7434 -0.6459  0.2294
   92MPD2    H7 1415   1.538   2.891  16.618  2.3127 -0.3959 -0.0702
   93MPD2     C 1416   2.715   3.209  14.086 -0.2748 -0.0525  0.2463
   93MPD2    C1 1417   2.677   3.225  13.954  0.4295  0.0165 -0.0169
   93MPD2    C2 1418   2.550   3.188  13.912 -0.1999 -0.2034  0.0176
   93MPD2    C3 1419   2.462   3.137  14.003  0.0572  0.2662  0.2378
   93MPD2    C4 1420   2.503   3.113  14.134  0.0271  0.1932  0.3854
   93MPD2    C5 1421   2.627   3.150  14.172  0.3245 -0.1314 -0.7223
   93MPD2     H 1422   2.522   3.204  13.809  2.1576  0.7080 -0.4582
   93MPD2    H1 1423   2.440   3.071  14.211  1.0022 -1.0931  0.4751
   93MPD2    H2 1424   2.806   3.244  14.133 -0.8978  1.0224  0.6483
   93MPD2    H3 1425   2.641   3.130  14.278  0.4667  1.9838 -0.3502
   93MPD2     N 1426   2.326   3.105  13.966  0.5691 -0.2160  0.6078
   93MPD2    H5 1427   2.268   3.087  14.047  1.1218  4.0636  1.9493
   93MPD2    N1 1428   2.769   3.281  13.860  0.9582 -0.1659 -0.0689
   93MPD2    H7 1429   2.742   3.296  13.764  2.3330  0.4595 -0.3473
   94TCq2    C1 1430   2.904   3.312  13.893  0.2939  0.1559 -0.1741
   94TCq2    O2 1431   2.979   3.275  13.984  0.1124  0.0993  0.1485
   94TCq2    C2 1432   2.963   3.409  13.803  0.3945  0.0451  0.7862
   94TCq2    C3 1433   2.877   3.482  13.722  0.1239 -0.0989  0.1378
   94TCq2    C4 1434   2.931   3.593  13.665 -0.0188  0.0005  0.1722
   94TCq2    C5 1435   3.065   3.627  13.688 -0.2294 -0.5749  0.0026
   94TCq2    C6 1436   3.146   3.546  13.757  0.0657  1.0812  0.2361
   94TCq2    C7 1437   3.097   3.438  13.817 -0.5131 -0.0041  0.1360
   94TCq2    C8 1438   3.290   3.568  13.756  0.4595 -0.9251  0.0875
   94TCq2    O4 1439   3.364   3.475  13.729  0.1452 -0.3251  0.1090
   94TCq2    C9 1440   2.859   3.679  13.579 -0.6014 -0.2268  1.0984
   94TCq2    O5 1441   2.928   3.767  13.521 -0.1419  0.7049  0.0060
   94TCq2    O6 1442   2.736   3.672  13.576  0.0148  0.0572 -0.7180
   94TCq2    H2 1443   2.773   3.462  13.699  0.2963  0.8464 -1.4803
   94TCq2    H3 1444   3.113   3.713  13.644 -1.3743 -0.2494 -0.6021
   94TCq2    H4 1445   3.154   3.367  13.876  0.2056  0.4503 -0.0191
   95TMC2    C1 1446   3.249   4.318  16.459  0.0491 -0.7210  0.4950
   95TMC2    C2 1447   3.234   4.202  16.388 -0.1645  0.5268  0.1811
   95TMC2    C3 1448   3.181   4.096  16.463 -0.4149  0.4013  0.0385
   95TMC2    C4 1449   3.230   4.330  16.592 -0.2968 -0.0367 -0.3151
   95TMC2    C5 1450   3.163   4.233  16.649 -0.1081  0.7194 -0.6802
   95TMC2    C6 1451   3.133   4.114  16.589  0.1103  0.3726 -0.0058
   95TMC2     C 1452   3.308   4.427  16.389 -0.0518 -1.1223 -0.1044
   95TMC2     O 1453   3.381   4.396  16.297  0.0589  0.5436  0.4004
   95TMC2     H 1454   3.251   4.183  16.283 -2.5711  0.4070 -0.1849
   95TMC2    H1 1455   3.274   4.413  16.645 -0.7994  0.3246 -0.4626
   95TMC2    H2 1456   3.081   4.032  16.638  0.0108 -0.8123 -2.1212
   95TMC2    C7 1457   3.135   4.247  16.789  0.5577 -0.5655  0.2691
   95TMC2    C8 1458   3.149   3.966  16.403  0.3779 -0.0453 -0.1033
   95TMC2    O1 1459   3.092   4.150  16.848  0.0988 -0.0257  0.2977
   95TMC2    O2 1460   3.108   3.955  16.290 -0.5397  0.0723  0.7646
   95TMC2    O5 1461   3.212   3.870  16.472  0.0545 -0.4629  0.1497
   95TMC2    H5 1462   3.236   3.910  16.559  1.4899 -2.9539  0.8997
   96MPD2     C 1463   3.443   0.185  16.288  0.6867  0.4532 -0.2013
   96MPD2    C1 1464   3.466   0.068  16.221  0.9253  0.2395 -0.5223
   96MPD2    C2 1465   3.420   4.674  16.271  0.0218 -0.1364  0.0011
   96MPD2    C3 1466   3.341   4.665  16.389  0.5782 -0.4597 -0.2999
   96MPD2    C4 1467   3.322   0.059  16.455 -0.2193 -0.7128  0.5988
   96MPD2    C5 1468   3.378   0.173  16.407 -0.1801 -0.3628 -0.1654
   96MPD2     H 1469   3.437   4.584  16.213  1.3187 -0.3968  0.7949
   96MPD2    H1 1470   3.256   0.064  16.541 -0.4344 -2.5875  0.5423
   96MPD2    H2 1471   3.505   0.272  16.270 -0.4143  1.0753 -0.9316
   96MPD2    H3 1472   3.357   0.269  16.453 -2.5047 -0.6326 -0.6704
   96MPD2     N 1473   3.286   4.550  16.447 -0.1887  0.7282 -0.1196
   96MPD2    H5 1474   3.225   4.558  16.528  1.6510 -3.0488  1.6254
   96MPD2    N1 1475   3.529   0.079  16.094 -0.1358  0.6920 -0.8584
   96MPD2    H7 1476   3.543   0.176  16.067  0.1761  0.8173 -0.2407
   97MPD2     C 1477   0.989   1.738   1.859  0.1484 -0.6738 -0.0948
   97MPD2    C1 1478   0.866   1.782   1.819  0.8433 -0.0794  0.1256
   97MPD2    C2 1479   0.843   1.817   1.686 -0.2441 -0.2664 -0.0993
   97MPD2    C3 1480   0.943   1.807   1.592 -0.7591  0.0900 -0.2288
   97MPD2    C4 1481   1.063   1.763   1.632 -0.1712 -0.4129  0.7636
   97MPD2    C5 1482   1.089   1.726   1.766  0.1400 -0.9590  0.5506
   97MPD2     H 1483   0.744   1.847   1.653  0.9434  3.6318 -0.0858
   97MPD2    H1 1484   1.145   1.751   1.562  0.6797 -0.9591  1.8529
   97MPD2    H2 1485   1.015   1.717   1.962 -1.5549  1.1074  0.6928
   97MPD2    H3 1486   1.185   1.687   1.796  2.2010  3.8742  0.2268
   97MPD2     N 1487   0.922   1.846   1.456  0.2842 -0.1921 -0.0445
   97MPD2    H5 1488   0.995   1.829   1.387 -0.9196 -0.4089 -1.2646
   97MPD2    N1 1489   0.768   1.787   1.919  0.4711 -0.0063  0.4181
   97MPD2    H7 1490   0.798   1.755   2.010  2.8886  1.8475  0.2776
   98TCq2    C1 1491   0.811   1.917   1.404 -0.7517 -0.6291  0.0278
   98TCq2    O2 1492   0.694   1.933   1.443 -0.4697  0.1711 -0.1407
   98TCq2    C2 1493   0.832   1.959   1.267  0.3811  0.2210 -0.3383
   98TCq2    C3 1494   0.718   1.981   1.195 -0.1132 -0.2438  0.8278
   98TCq2    C4 1495   0.731   2.024   1.068  0.6636 -0.4251 -0.3035
   98TCq2    C5 1496   0.854   2.058   1.024  0.0461  0.8273  0.3400
   98TCq2    C6 1497   0.970   2.039   1.098 -0.9317  0.6082 -1.3300
   98TCq2    C7 1498   0.960   1.992   1.226  0.0690  0.8542  0.2370
   98TCq2    C8 1499   1.090   2.113   1.058 -0.6767  0.2333 -0.0737
   98TCq2    O4 1500   1.083   2.207   0.974  0.2480  0.0968 -0.3666
   98TCq2    C9 1501   0.624   2.083   0.995  0.8361 -0.4415  0.5428
   98TCq2    O5 1502   0.502   2.058   1.029 -0.2103  0.4674  0.2145
   98TCq2    O6 1503   0.652   2.194   0.939  0.2664 -0.1188  0.7761
   98TCq2    H2 1504   0.620   1.960   1.235 -0.5439  1.2246  0.5584
   98TCq2    H3 1505   0.864   2.105   0.927  0.6627 -0.5330 -0.2597
   98TCq2    H4 1506   1.043   1.988   1.295  0.3707  0.2355 -0.1620
   99MPD2     C 1507   4.466   4.082   2.523  0.7561  0.1320  0.2312
   99MPD2    C1 1508   4.364   3.992   2.519 -0.1773  0.2548  0.0511
   99MPD2    C2 1509   4.378   3.879   2.435 -1.0977  0.7373  0.3644
   99MPD2    C3 1510   4.490   3.863   2.356  0.6216  0.1113 -0.5564
   99MPD2    C4 1511   4.589   3.960   2.365  0.7672  1.0248 -0.2469
   99MPD2    C5 1512   4.575   4.065   2.448 -0.4008  0.1055  0.8064
   99MPD2     H 1513   4.299   3.805   2.433 -0.7321  0.4420 -2.4908
   99MPD2    H1 1514   4.679   3.966   2.305  0.1256 -0.7836 -1.4057
   99MPD2    H2 1515   4.460   4.169   2.587 -0.6047 -0.2450  0.6132
   99MPD2    H3 1516   4.650   4.143   2.439 -0.9208  0.4621 -0.3648
   99MPD2     N 1517   4.499   3.751   2.265  0.0108  0.1354  1.1424
   99MPD2    H5 1518   4.431   3.679   2.288 -1.0109  0.4964 -0.7929
   99MPD2    N1 1519   4.247   4.016   2.592  0.3608  0.7272 -0.1929
   99MPD2    H7 1520   4.164   3.958   2.584  0.2068  0.8855  0.2257
  100TCq2    C1 1521   4.228   4.123   2.682 -0.6949  0.1267 -0.5308
  100TCq2    O2 1522   4.308   4.201   2.736  0.7318 -0.1332  0.2579
  100TCq2    C2 1523   4.106   4.111   2.750 -0.0998  1.1672  0.0944
  100TCq2    C3 1524   4.117   4.139   2.885  0.2139  0.4194 -0.6310
  100TCq2    C4 1525   4.010   4.107   2.961 -0.0328  1.0967  0.0301
  100TCq2    C5 1526   3.890   4.058   2.913 -0.1467 -0.1665 -0.2900
  100TCq2    C6 1527   3.880   4.042   2.775  0.7249  0.0016 -0.2520
  100TCq2    C7 1528   3.986   4.070   2.692  0.2446 -0.4910 -0.3390
  100TCq2    C8 1529   3.750   4.007   2.732 -0.3052  0.2812  0.2430
  100TCq2    O4 1530   3.656   4.029   2.808 -0.3544  0.0473  0.4092
  100TCq2    C9 1531   4.017   4.157   3.092 -0.9109  1.0368 -0.1196
  100TCq2    O5 1532   3.911   4.191   3.151  0.2443  0.5137 -0.2934
  100TCq2    O6 1533   4.126   4.183   3.142 -0.0647  0.0517 -0.1165
  100TCq2    H2 1534   4.201   4.190   2.931  1.6522 -1.6293 -0.9820
  100TCq2    H3 1535   3.809   4.044   2.983  0.6279 -0.1544  0.6123
  100TCq2    H4 1536   3.982   4.054   2.585 -1.3590  0.3267 -0.4017
  101MPD2     C 1537   0.276   0.632  13.434 -0.4580 -0.3673  0.3654
  101MPD2    C1 1538   0.179   0.696  13.506  0.1613 -0.4118  0.9634
  101MPD2    C2 1539   0.113   0.629  13.607 -0.0379  0.2931  0.2295
  101MPD2    C3 1540   0.136   0.494  13.628  0.2082 -0.5722  0.3637
  101MPD2    C4 1541   0.238   0.430  13.561 -0.1311  0.0602 -0.0353
  101MPD2    C5 1542   0.304   0.500  13.464  0.0565  0.9747 -0.3811
  101MPD2     H 1543   0.041   0.683  13.669 -1.5276 -0.0477 -1.1976
  101MPD2    H1 1544   0.275   0.332  13.588  1.0311  0.3243 -0.6614
  101MPD2    H2 1545   0.334   0.695  13.366 -1.6028  1.0133  0.6712
  101MPD2    H3 1546   0.395   0.453  13.427 -0.7236 -1.9118  1.3593
  101MPD2     N 1547   0.053   0.428  13.726  0.4220  0.4651 -0.5755
  101MPD2    H5 1548   4.713   0.488  13.775  0.9803 -0.3234  1.1220
  101MPD2    N1 1549   0.154   0.833  13.477 -0.7850  0.5368  0.6864
  101MPD2    H7 1550   0.204   0.863  13.394  1.6808 -2.0999  1.2149
  102TCq2    C1 1551   0.142   1.189  13.135  0.2209  0.2945  0.1779
  102TCq2    O2 1552   0.253   1.137  13.131  0.4433 -0.3440 -0.3388
  102TCq2    C2 1553   0.065   1.167  13.261  0.0281  0.1431 -0.9443
  102TCq2    C3 1554   4.666   1.218  13.278  0.2509  0.1194 -0.1117
  102TCq2    C4 1555   4.582   1.174  13.384 -0.3193  0.0617 -0.3411
  102TCq2    C5 1556   4.636   1.094  13.480 -0.4424  0.0273 -0.3337
  102TCq2    C6 1557   0.032   1.040  13.458  0.2822 -0.6924 -0.0890
  102TCq2    C7 1558   0.111   1.078  13.349 -0.0755 -0.0368  0.5550
  102TCq2    C8 1559   0.063   0.919  13.536  0.6248  0.9341 -0.0419
  102TCq2    O4 1560   0.016   0.908  13.650 -0.2210 -0.3692 -0.2293
  102TCq2    C9 1561   4.452   1.233  13.412 -0.1666  0.0319  0.2737
  102TCq2    O5 1562   4.398   1.303  13.325  0.2398 -0.5362 -0.0804
  102TCq2    O6 1563   4.398   1.186  13.518 -0.6311  0.3801  0.3409
  102TCq2    H2 1564   4.616   1.295  13.220  1.5423  0.7673 -0.3753
  102TCq2    H3 1565   4.580   1.077  13.571 -0.3550 -1.2339 -0.5171
  102TCq2    H4 1566   0.208   1.033  13.332  0.3589  1.3427 -0.6775
  103TMC2    C1 1567   3.445   0.703  12.349 -0.1204 -0.1568 -0.0154
  103TMC2    C2 1568   3.468   0.570  12.375  0.4838  0.5491 -0.2407
  103TMC2    C3 1569   3.515   0.538  12.497  0.6528 -0.1371  0.0437
  103TMC2    C4 1570   3.473   0.797  12.446  0.5279 -0.5752  0.3919
  103TMC2    C5 1571   3.513   0.761  12.568  0.1373 -0.1003  0.0973
  103TMC2    C6 1572   3.532   0.629  12.598  0.3188 -0.7486  0.4417
  103TMC2     C 1573   3.327   0.734  12.280  0.3238  1.2685  0.2636
  103TMC2     O 1574   3.238   0.786  12.347  0.2518  0.0625  0.0443
  103TMC2     H 1575   3.450   0.490  12.305 -1.2037  0.7402 -0.0091
  103TMC2    H1 1576   3.439   0.899  12.432  2.2137 -0.2348 -1.2549
  103TMC2    H2 1577   3.546   0.606  12.703  2.3356 -0.0211  0.3381
  103TMC2    C7 1578   3.440   0.811  12.681  0.1133 -0.1491 -0.0471
  103TMC2    C8 1579   3.509   0.404  12.539  0.3995 -1.0732 -0.5815
  103TMC2    O1 1580   3.498   0.815  12.789  0.6367 -0.2079  0.3728
  103TMC2    O2 1581   3.434   0.323  12.483 -0.4327  0.1281  0.1097
  103TMC2    O5 1582   3.606   0.381  12.630 -0.2668 -0.0356  0.2227
  103TMC2    H5 1583   3.675   0.449  12.644 -0.1332 -0.6992  2.7865
  104MPD2     C 1584   3.192   0.572  11.970  0.7359  0.5055 -0.2555
  104MPD2    C1 1585   3.190   0.642  12.090 -0.3028  0.1328 -0.4618
  104MPD2    C2 1586   3.070   0.673  12.144 -0.5373 -0.5035  0.7511
  104MPD2    C3 1587   2.953   0.648  12.073 -0.3199 -1.2500 -0.8350
  104MPD2    C4 1588   2.960   0.586  11.951 -0.3345 -0.5991  0.2031
  104MPD2    C5 1589   3.075   0.539  11.896  0.1999  0.3808  0.4917
  104MPD2     H 1590   3.057   0.734  12.232  1.5257 -0.2447  0.8679
  104MPD2    H1 1591   2.869   0.562  11.897  0.6647 -1.5927 -1.0503
  104MPD2    H2 1592   3.281   0.526  11.928  0.3550  0.9095 -1.4892
  104MPD2    H3 1593   3.087   0.479  11.807 -1.5536 -0.9767  1.1800
  104MPD2     N 1594   2.835   0.711  12.128 -0.3011 -0.1840 -0.5156
  104MPD2    H5 1595   2.843   0.753  12.220  1.5338  0.3102 -0.9086
  104MPD2    N1 1596   3.313   0.667  12.161 -0.8095 -0.4286 -0.0136
  104MPD2    H7 1597   3.392   0.610  12.131 -2.4808 -1.9328 -1.5313
  105MPD2     C 1598   4.510   4.314   0.241  0.5050  0.1203 -0.3304
  105MPD2    C1 1599   4.436   4.423   0.237  0.1522 -0.7605  0.2940
  105MPD2    C2 1600   4.326   4.421   0.322 -0.3948 -0.4260  0.6393
  105MPD2    C3 1601   4.297   4.317   0.410 -0.5108 -0.8145  0.3189
  105MPD2    C4 1602   4.376   4.206   0.410  0.4039  1.0934 -0.1237
  105MPD2    C5 1603   4.470   4.202   0.311  0.5464 -0.0035 -0.3067
  105MPD2     H 1604   4.253   4.502   0.323 -0.3406 -0.3801  1.0490
  105MPD2    H1 1605   4.385   4.128   0.485  0.0087  0.0873 -1.1246
  105MPD2    H2 1606   4.595   4.294   0.176  2.1910  0.3172  1.8028
  105MPD2    H3 1607   4.538   4.118   0.303 -0.9349 -1.0484 -1.8134
  105MPD2     N 1608   4.198   4.348   0.508  0.2896  0.0489  0.3144
  105MPD2    H5 1609   4.157   4.441   0.498 -0.1051 -0.2547 -0.9784
  105MPD2    N1 1610   4.453   4.531   0.146  0.1244 -0.4960 -0.0318
  105MPD2    H7 1611   4.392   4.613   0.141 -1.3401 -1.7423 -2.7748
  106TCq2    C1 1612   4.163   4.250   0.605  0.0061 -1.3239 -0.5336
  106TCq2    O2 1613   4.189   4.132   0.617  0.2071  0.0305  0.4777
  106TCq2    C2 1614   4.081   4.305   0.708  0.3261 -0.0931 -0.6537
  106TCq2    C3 1615   4.023   4.430   0.698 -0.0984 -0.0942 -0.7704
  106TCq2    C4 1616   3.992   4.501   0.807 -0.6402  0.1670  0.4010
  106TCq2    C5 1617   3.997   4.446   0.935 -0.0443 -0.0290 -0.3817
  106TCq2    C6 1618   4.053   4.321   0.938  0.0584 -0.5145 -0.0064
  106TCq2    C7 1619   4.094   4.244   0.829 -0.4938 -0.7163  0.5413
  106TCq2    C8 1620   4.115   4.286   1.069  0.9734  0.0901  0.2485
  106TCq2    O4 1621   4.160   4.174   1.081  0.3258 -0.4766  0.2373
  106TCq2    C9 1622   3.952   4.637   0.784 -0.6140 -0.2924 -0.6054
  106TCq2    O5 1623   3.942   4.681   0.667  0.1205  0.3870  0.1378
  106TCq2    O6 1624   3.921   4.704   0.890 -0.0971 -0.0894  0.0987
  106TCq2    H2 1625   4.005   4.477   0.602 -2.4238 -3.1289 -1.8390
  106TCq2    H3 1626   3.972   4.504   1.022 -0.4099  2.7470 -2.3562
  106TCq2    H4 1627   4.171   4.170   0.845 -0.1731 -1.1706 -2.9679
  107TMC2    C1 1628   0.737   4.575  11.813 -0.4170 -0.8005 -0.6394
  107TMC2    C2 1629   0.813   4.642  11.716 -0.6080 -0.3795  0.0016
  107TMC2    C3 1630   0.904   4.559  11.651 -0.1066 -0.9071 -0.8791
  107TMC2    C4 1631   0.728   4.441  11.825  0.0896  0.3834 -0.3903
  107TMC2    C5 1632   0.811   4.361  11.751  0.2329  1.2176 -0.1656
  107TMC2    C6 1633   0.898   4.419  11.661 -0.1345 -0.0763 -0.4925
  107TMC2     C 1634   0.627   4.644  11.874 -0.4395 -0.3874 -0.1528
  107TMC2     O 1635   0.537   4.565  11.909  0.1172  0.5325 -0.0386
  107TMC2     H 1636   0.816   0.024  11.703  0.6768 -0.4546 -0.3671
  107TMC2    H1 1637   0.665   4.400  11.903  1.5663  0.9496  1.1052
  107TMC2    H2 1638   0.983   4.369  11.616 -0.3424  1.7658 -2.9534
  107TMC2    C7 1639   0.805   4.221  11.772 -0.2088  0.4273 -0.2761
  107TMC2    C8 1640   0.985   4.636  11.562  0.1624 -0.0444 -0.7307
  107TMC2    O1 1641   0.727   4.184  11.855  0.1956  0.5290  0.4418
  107TMC2    O2 1642   0.990   0.031  11.563 -0.0046  0.0463 -0.1701
  107TMC2    O5 1643   1.071   4.552  11.495 -0.7013 -0.1458  0.2528
  107TMC2    H5 1644   1.125   4.603  11.430 -1.4595 -0.7112 -0.8146
  108MPD2     C 1645   0.546   0.279  11.892 -0.2072 -0.3989  0.7628
  108MPD2    C1 1646   0.541   0.141  11.928 -0.0033  0.5792 -0.2361
  108MPD2    C2 1647   0.453   0.104  12.019 -0.0014  0.1148  0.1028
  108MPD2    C3 1648   0.357   0.182  12.066  0.6207  0.2595 -0.1418
  108MPD2    C4 1649   0.354   0.307  12.029 -0.9887 -0.4715 -0.2440
  108MPD2    C5 1650   0.441   0.358  11.934 -0.2942 -0.1557  0.1206
  108MPD2     H 1651   0.459   0.002  12.055  0.6179  0.7174  1.7271
  108MPD2    H1 1652   0.273   0.374  12.056  0.4330  0.4154  1.7807
  108MPD2    H2 1653   0.605   0.307  11.806  1.7450  0.0802  2.2609
  108MPD2    H3 1654   0.449   0.460  11.897  2.1544 -0.3244  0.1823
  108MPD2     N 1655   0.254   0.140  12.150  0.1882 -0.3382 -0.4171
  108MPD2    H5 1656   0.183   0.207  12.178  2.2923  1.8157 -0.2096
  108MPD2    N1 1657   0.636   0.055  11.877  0.7374  0.4093 -0.3378
  108MPD2    H7 1658   0.717   0.101  11.835  0.8509 -1.6271 -2.3596
  109MPD2     C 1659   4.382   0.845   2.620  0.4089 -0.1842 -0.4653
  109MPD2    C1 1660   4.443   0.935   2.535  0.3647  0.4737 -0.5808
  109MPD2    C2 1661   4.576   0.910   2.501  0.3156  0.2722 -0.4564
  109MPD2    C3 1662   4.651   0.813   2.569 -0.3985 -0.5337 -0.0729
  109MPD2    C4 1663   4.583   0.720   2.644  0.0393 -0.1007 -0.0395
  109MPD2    C5 1664   4.447   0.733   2.667 -0.0241 -0.2423  0.3680
  109MPD2     H 1665   4.625   0.959   2.418  0.7336  0.6915  0.0328
  109MPD2    H1 1666   4.642   0.653   2.705 -0.0670  1.9578  2.3220
  109MPD2    H2 1667   4.279   0.848   2.653  0.9789  1.2157  1.1591
  109MPD2    H3 1668   4.404   0.662   2.736  2.5728 -0.4949  1.7064
  109MPD2     N 1669   0.067   0.805   2.552 -0.1390 -0.5630  0.0591
  109MPD2    H5 1670   0.102   0.864   2.477  0.3275 -0.2941  0.4923
  109MPD2    N1 1671   4.365   1.039   2.474  0.0316  0.0450  0.1806
  109MPD2    H7 1672   4.267   1.041   2.498  0.0808 -0.7946  0.4486
  110TCq2    C1 1673   0.156   0.736   2.634 -0.2087 -0.3812 -0.4326
  110TCq2    O2 1674   0.139   0.642   2.710  0.8426 -0.4284 -0.0783
  110TCq2    C2 1675   0.293   0.761   2.591 -0.3734  0.4818  0.3195
  110TCq2    C3 1676   0.391   0.664   2.614  0.1120  0.3702  0.1085
  110TCq2    C4 1677   0.518   0.708   2.598 -0.7399 -0.3136 -0.6754
  110TCq2    C5 1678   0.550   0.830   2.543  0.5555  0.1090 -0.0015
  110TCq2    C6 1679   0.443   0.915   2.518  0.1050 -0.2067 -0.4086
  110TCq2    C7 1680   0.314   0.889   2.547  0.0089  0.9515  1.1036
  110TCq2    C8 1681   0.472   1.049   2.480 -0.0443 -0.0664 -0.5034
  110TCq2    O4 1682   0.382   1.131   2.465  0.2565 -0.1635 -0.3626
  110TCq2    C9 1683   0.626   0.614   2.615  0.2630 -0.3598 -0.0539
  110TCq2    O5 1684   0.727   0.633   2.545  0.1495  0.0018  0.5471
  110TCq2    O6 1685   0.613   0.524   2.706  0.1096 -0.0867 -0.4181
  110TCq2    H2 1686   0.357   0.570   2.654  0.4491 -0.3271 -1.2481
  110TCq2    H3 1687   0.653   0.847   2.514  0.8566  0.0794  1.0636
  110TCq2    H4 1688   0.237   0.964   2.531  0.1960  1.2946  1.8341
  111TMC2    C1 1689   0.092   1.868  11.761 -0.0850 -0.1763  0.0575
  111TMC2    C2 1690   4.704   1.861  11.835  0.7158 -0.9797 -0.3645
  111TMC2    C3 1691   4.701   1.789  11.955  0.0068 -0.4157 -1.1610
  111TMC2    C4 1692   0.203   1.796  11.785 -0.3646  0.2274  0.2954
  111TMC2    C5 1693   0.201   1.722  11.897  0.2449 -0.1977  0.5528
  111TMC2    C6 1694   0.092   1.712  11.977 -0.1903 -0.0739  0.1739
  111TMC2     C 1695   0.098   1.933  11.635  1.0204  0.1298 -0.5589
  111TMC2     O 1696   0.169   1.897  11.542 -0.2867 -0.6233  1.3380
  111TMC2     H 1697   4.627   1.935  11.816  0.2893 -1.0652  1.0133
  111TMC2    H1 1698   0.289   1.807  11.719 -0.8186 -2.3314 -0.7384
  111TMC2    H2 1699   0.083   1.642  12.059 -0.8985 -0.5414 -0.3014
  111TMC2    C7 1700   0.313   1.641  11.947 -0.1890 -0.2937  0.2640
  111TMC2    C8 1701   4.589   1.783  12.053  0.3752  0.9325  0.2076
  111TMC2    O1 1702   0.289   1.569  12.043  0.1045  0.0559 -0.3181
  111TMC2    O2 1703   4.606   1.746  12.169  0.4914 -0.0362 -0.1536
  111TMC2    O5 1704   4.488   1.863  12.009 -0.0819 -0.4030 -0.2443
  111TMC2    H5 1705   4.491   1.884  11.914 -0.0535  1.6859  0.2247
  112MPD2     C 1706   4.688   2.339  11.343  0.0498 -0.2725  0.2554
  112MPD2    C1 1707   0.019   2.218  11.309  0.5385  0.4592  0.5324
  112MPD2    C2 1708   0.048   2.126  11.409 -0.3600 -1.0320  0.7038
  112MPD2    C3 1709   0.014   2.155  11.539  1.0592 -0.1605 -0.0189
  112MPD2    C4 1710   4.689   2.277  11.568 -0.4104  0.4109  0.1998
  112MPD2    C5 1711   4.666   2.370  11.471 -0.0103  0.6113 -0.2116
  112MPD2     H 1712   0.076   2.028  11.372 -1.0512 -1.2817  0.8543
  112MPD2    H1 1713   4.672   2.320  11.666  1.2578  2.4028 -0.3844
  112MPD2    H2 1714   4.667   2.416  11.269  0.4441 -1.0758 -0.6959
  112MPD2    H3 1715   4.642   2.473  11.496 -1.3874 -0.0166  1.0582
  112MPD2     N 1716   0.031   2.058  11.645 -0.8221  0.6140 -0.4164
  112MPD2    H5 1717   0.008   2.090  11.739  1.2120 -1.6325  0.8375
  112MPD2    N1 1718   0.047   2.179  11.174  0.2029  0.3797  0.1796
  112MPD2    H7 1719   0.092   2.088  11.167  1.2300  1.1851 -3.8129
  113MPD2     C 1720   3.527   4.066   1.506  0.0950 -0.1121 -0.2850
  113MPD2    C1 1721   3.392   4.046   1.528 -0.2698  0.2450  0.7256
  113MPD2    C2 1722   3.308   4.003   1.427  0.0397  0.1513  1.1000
  113MPD2    C3 1723   3.354   3.986   1.301 -0.2946 -0.5629 -0.0024
  113MPD2    C4 1724   3.488   4.006   1.273 -0.3367  0.3347 -0.4014
  113MPD2    C5 1725   3.570   4.052   1.378 -0.1898  0.2520 -0.1501
  113MPD2     H 1726   3.204   3.991   1.457 -0.7315  2.1207 -0.7632
  113MPD2    H1 1727   3.533   4.003   1.174 -3.5839  0.4532 -1.9006
  113MPD2    H2 1728   3.591   4.098   1.588 -1.2593 -0.9560  1.0790
  113MPD2    H3 1729   3.676   4.067   1.364  0.0539 -0.1601  1.2494
  113MPD2     N 1730   3.272   3.950   1.192  0.4013  0.6000  0.3534
  113MPD2    H5 1731   3.320   3.953   1.103  1.6363 -3.0024  0.8972
  113MPD2    N1 1732   3.337   4.047   1.657 -0.4851  0.1639  0.2116
  113MPD2    H7 1733   3.243   4.010   1.669 -0.7257  0.2195 -1.4453
  114TCq2    C1 1734   3.136   3.930   1.196  0.5121 -0.2851  0.0859
  114TCq2    O2 1735   3.069   3.885   1.287 -0.3376  0.5670 -0.5046
  114TCq2    C2 1736   3.077   3.952   1.071  0.3218 -0.4708 -0.6322
  114TCq2    C3 1737   3.152   3.989   0.962 -0.0510 -0.5286 -0.2224
  114TCq2    C4 1738   3.088   4.005   0.841  0.1665  0.1405 -0.9438
  114TCq2    C5 1739   2.952   3.975   0.821  0.3216 -1.0287 -0.3161
  114TCq2    C6 1740   2.879   3.934   0.929 -0.7437  1.0075  0.1284
  114TCq2    C7 1741   2.942   3.926   1.056 -0.0301 -0.3907 -0.3125
  114TCq2    C8 1742   2.737   3.921   0.916  0.7303 -0.1295 -0.0312
  114TCq2    O4 1743   2.689   3.962   0.810 -0.2065 -0.4077 -0.8371
  114TCq2    C9 1744   3.174   4.021   0.725  0.6119  0.3254  0.1713
  114TCq2    O5 1745   3.116   4.034   0.615  0.2355  0.0380 -0.4459
  114TCq2    O6 1746   3.292   3.992   0.749 -0.3471  0.0727  0.0129
  114TCq2    H2 1747   3.256   4.022   0.966 -1.2013  2.8332  1.9790
  114TCq2    H3 1748   2.907   3.984   0.723 -0.2502  2.8070  0.3201
  114TCq2    H4 1749   2.881   3.894   1.140 -2.4014  1.9259 -1.1653
  115TMC2    C1 1750   3.657   1.849   0.185  0.7092  0.2110  0.7366
  115TMC2    C2 1751   3.777   1.862   0.249  0.3666  0.0275 -0.0001
  115TMC2    C3 1752   3.842   1.981   0.265 -0.0355  0.4257 -0.1694
  115TMC2    C4 1753   3.586   1.966   0.153 -0.0619 -0.1046  0.9078
  115TMC2    C5 1754   3.658   2.079   0.168  0.3210 -0.1428  0.3559
  115TMC2    C6 1755   3.784   2.095   0.221 -0.0806 -0.6071  0.2440
  115TMC2     C 1756   3.589   1.718   0.171  0.6636 -0.3035  0.6485
  115TMC2     O 1757   3.651   1.619   0.193 -0.4048  0.2010  0.0051
  115TMC2     H 1758   3.840   1.777   0.274 -3.0416 -2.4400  0.2215
  115TMC2    H1 1759   3.493   1.960   0.097 -0.4317  4.7623  1.0413
  115TMC2    H2 1760   3.827   2.194   0.237 -1.6404 -0.0406  0.9509
  115TMC2    C7 1761   3.594   2.197   0.126  0.7838 -0.3100  0.0141
  115TMC2    C8 1762   3.983   1.977   0.304 -0.1959 -0.6357  0.7015
  115TMC2    O1 1763   3.475   2.209   0.149  0.2987 -0.3205 -0.0690
  115TMC2    O2 1764   4.033   1.886   0.372  0.1199 -0.1588  0.3203
  115TMC2    O5 1765   4.051   2.041   0.201 -0.6140 -0.6027 -0.1634
  115TMC2    H5 1766   3.991   2.106   0.160 -1.1364 -0.6925  0.4669
  116MPD2     C 1767   3.187   1.415   0.085 -0.3291 -0.0961 -0.2644
  116MPD2    C1 1768   3.319   1.400   0.060  0.2602  0.7833  0.0403
  116MPD2    C2 1769   3.412   1.495   0.094 -0.2990 -0.4191  0.3959
  116MPD2    C3 1770   3.371   1.613   0.146  0.6738  0.0845  0.4498
  116MPD2    C4 1771   3.240   1.627   0.167  0.1555 -0.3752  0.3925
  116MPD2    C5 1772   3.145   1.535   0.146 -0.2240 -0.3235  0.3773
  116MPD2     H 1773   3.518   1.482   0.073 -0.6292  0.5032 -1.8504
  116MPD2    H1 1774   3.204   1.726   0.194 -1.2576 -1.4102  2.3081
  116MPD2    H2 1775   3.112   1.342   0.056  1.2685 -1.4930 -0.8760
  116MPD2    H3 1776   3.039   1.548   0.165 -0.8232 -1.5459 -2.1645
  116MPD2     N 1777   3.456   1.728   0.158  0.1264  0.0910  0.0656
  116MPD2    H5 1778   3.415   1.815   0.188 -2.5722 -1.8631  2.0781
  116MPD2    N1 1779   3.357   1.287  17.681  0.0300  0.4696  0.7090
  116MPD2    H7 1780   3.288   1.213  17.670  0.7962 -0.2596  0.7522
  117TMC2    C1 1781   2.349   3.330  14.293 -1.4165 -0.6286 -0.3177
  117TMC2    C2 1782   2.340   3.247  14.398  0.0856  0.8220  0.3420
  117TMC2    C3 1783   2.422   3.272  14.501  0.2593 -0.0083  0.8602
  117TMC2    C4 1784   2.447   3.430  14.284 -0.3362 -0.1049 -0.1967
  117TMC2    C5 1785   2.528   3.446  14.392  0.0075  0.5238  0.5342
  117TMC2    C6 1786   2.521   3.363  14.500  0.3265  0.2337  0.1098
  117TMC2     C 1787   2.238   3.339  14.192  0.0256 -0.0087 -0.2648
  117TMC2     O 1788   2.176   3.234  14.169  1.2617  0.1837 -0.1061
  117TMC2     H 1789   2.261   3.173  14.406  0.6185  0.1479 -0.7012
  117TMC2    H1 1790   2.461   3.499  14.202 -0.5538  0.0648 -0.0908
  117TMC2    H2 1791   2.578   3.395  14.585  0.0848 -0.3967  0.5094
  117TMC2    C7 1792   2.644   3.536  14.375  0.0128  0.3026  0.0371
  117TMC2    C8 1793   2.404   3.227  14.632  0.4544  0.0303 -0.9742
  117TMC2    O1 1794   2.641   3.617  14.280  0.4712  0.0527 -0.4378
  117TMC2    O2 1795   2.468   3.272  14.724  0.1181 -0.2733  1.2516
  117TMC2    O5 1796   2.350   3.108  14.634 -0.6536 -0.5936 -0.0570
  117TMC2    H5 1797   2.330   3.066  14.547  0.4455 -2.9718  0.8328
  118MPD2     C 1798   2.981   3.545  14.546  0.3531 -0.2602 -0.1879
  118MPD2    C1 1799   2.877   3.587  14.460  0.2264 -0.8899 -0.0282
  118MPD2    C2 1800   2.892   3.710  14.392 -0.2959  0.1498  0.0912
  118MPD2    C3 1801   3.001   3.791  14.413  0.3644  0.2181 -0.2118
  118MPD2    C4 1802   3.110   3.740  14.485  0.0492  0.4033 -0.8487
  118MPD2    C5 1803   3.086   3.627  14.562  0.7006  0.2658 -0.0055
  118MPD2     H 1804   2.815   3.746  14.324 -1.0001 -1.1828  0.1915
  118MPD2    H1 1805   3.194   3.803  14.513  0.8327 -2.2502  2.7376
  118MPD2    H2 1806   2.964   3.461  14.612 -1.4619 -1.6115 -2.3548
  118MPD2    H3 1807   3.154   3.617  14.646 -0.5357  0.4766  1.0098
  118MPD2     N 1808   3.016   3.917  14.367 -0.6435 -0.4325 -0.2960
  118MPD2    H5 1809   3.112   3.947  14.379 -0.8401 -0.0502  0.2985
  118MPD2    N1 1810   2.761   3.507  14.445 -0.0009  0.0992 -0.4268
  118MPD2    H7 1811   2.769   3.416  14.490 -1.1397 -0.5612 -1.5802
  119MPD2     C 1812   1.611   0.398  14.498 -0.0084 -0.3359  0.0271
  119MPD2    C1 1813   1.478   0.381  14.528 -0.1824 -0.1618  0.0849
  119MPD2    C2 1814   1.384   0.373  14.422  0.0236  0.1317 -0.1212
  119MPD2    C3 1815   1.428   0.342  14.292  0.4365 -0.1623 -0.2592
  119MPD2    C4 1816   1.561   0.361  14.263  0.0118  0.4507 -0.8044
  119MPD2    C5 1817   1.647   0.405  14.362 -0.4617 -0.4113  0.4653
  119MPD2     H 1818   1.281   0.391  14.450 -0.1407 -1.9780  0.6733
  119MPD2    H1 1819   1.595   0.363  14.160  2.5631  2.8321  0.0719
  119MPD2    H2 1820   1.681   0.431  14.573 -1.4333 -0.1125  1.2431
  119MPD2    H3 1821   1.750   0.425  14.335 -0.7330  0.8495  0.3755
  119MPD2     N 1822   1.336   0.303  14.198  0.0900  0.1455  0.6419
  119MPD2    H5 1823   1.375   0.286  14.106  0.1115 -1.1454  0.8989
  119MPD2    N1 1824   1.457   0.394  14.668 -0.1760  0.2599 -0.3801
  119MPD2    H7 1825   1.530   0.441  14.721 -0.3559  0.0269  0.0775
  120TCq2    C1 1826   1.201   0.280  14.214 -0.0067 -0.7139  0.4960
  120TCq2    O2 1827   1.137   0.286  14.316  0.7526 -0.5987  0.0855
  120TCq2    C2 1828   1.148   0.223  14.097  0.0013  0.6229 -0.0984
  120TCq2    C3 1829   1.219   0.218  13.980 -0.3760 -0.2607 -0.1104
  120TCq2    C4 1830   1.156   0.191  13.859 -0.3670  0.2630  0.1946
  120TCq2    C5 1831   1.023   0.159  13.867  0.3846 -0.3666  0.4737
  120TCq2    C6 1832   0.951   0.170  13.983 -0.8844 -0.6675 -0.2336
  120TCq2    C7 1833   1.014   0.208  14.101  0.7262  0.2695  0.4550
  120TCq2    C8 1834   0.804   0.187  13.973 -0.1355  0.8793  0.3711
  120TCq2    O4 1835   0.775   0.216  13.857 -0.2733  0.2393  0.0264
  120TCq2    C9 1836   1.227   0.183  13.737  0.5320  0.0999 -0.2973
  120TCq2    O5 1837   1.354   0.202  13.743  0.3217 -0.1587 -0.1814
  120TCq2    O6 1838   1.156   0.163  13.631  0.1101  0.3110 -0.0962
  120TCq2    H2 1839   1.327   0.226  13.977 -0.3627 -0.2053  0.6341
  120TCq2    H3 1840   0.980   0.121  13.775 -0.3309  1.1567  0.1781
  120TCq2    H4 1841   0.953   0.212  14.191 -0.3975  0.6857 -0.3263
  121TMC2    C1 1842   1.912   1.754  14.405 -0.5525 -0.0882 -1.0161
  121TMC2    C2 1843   1.876   1.711  14.534 -0.3666 -0.6152 -0.2795
  121TMC2    C3 1844   1.747   1.710  14.563 -0.9945  0.0955  0.0133
  121TMC2    C4 1845   1.819   1.772  14.304 -0.5765 -0.3880  0.4001
  121TMC2    C5 1846   1.690   1.761  14.342  0.5506 -0.2686 -0.8611
  121TMC2    C6 1847   1.652   1.744  14.470  0.0309 -0.5393 -0.1732
  121TMC2     C 1848   2.044   1.799  14.384 -0.0522  0.1151  0.2955
  121TMC2     O 1849   2.124   1.763  14.469 -0.3703  0.6624  0.0167
  121TMC2     H 1850   1.955   1.706  14.609 -0.5429  0.0152 -0.0517
  121TMC2    H1 1851   1.858   1.780  14.202 -0.0975 -1.1983  0.5215
  121TMC2    H2 1852   1.550   1.755  14.506  0.0672  2.8022 -1.0306
  121TMC2    C7 1853   1.593   1.765  14.232  0.3155  1.2888 -0.4273
  121TMC2    C8 1854   1.698   1.641  14.678  0.3881  0.6577  0.0268
  121TMC2    O1 1855   1.577   1.862  14.159  0.1203 -0.0261 -0.3659
  121TMC2    O2 1856   1.583   1.649  14.710 -0.1565 -0.1897  0.4612
  121TMC2    O5 1857   1.749   1.521  14.686  0.3856 -0.1700  0.2148
  121TMC2    H5 1858   1.838   1.496  14.653 -0.1414 -1.3117 -0.3224
  122MPD2     C 1859   2.305   1.856  14.260  0.1480  0.3809  0.2046
  122MPD2    C1 1860   2.186   1.908  14.217  0.0959 -0.8039  1.4668
  122MPD2    C2 1861   2.199   1.986  14.101  0.3572  0.0308  0.5563
  122MPD2    C3 1862   2.320   2.017  14.038 -0.2313 -0.2923  0.7482
  122MPD2    C4 1863   2.435   1.955  14.087  0.7726 -1.0083 -1.0590
  122MPD2    C5 1864   2.431   1.884  14.205  0.3824  1.3830  0.7442
  122MPD2     H 1865   2.107   2.027  14.062  0.9799  0.9706  0.0599
  122MPD2    H1 1866   2.531   1.993  14.055  0.8791  2.2865  3.1156
  122MPD2    H2 1867   2.315   1.792  14.347 -0.4394 -0.0436 -0.0416
  122MPD2    H3 1868   2.516   1.850  14.263  0.1634 -0.2850  0.0943
  122MPD2     N 1869   2.328   2.101  13.925  0.0046 -0.0308  0.6695
  122MPD2    H5 1870   2.423   2.104  13.889 -0.4539 -0.1141 -0.5450
  122MPD2    N1 1871   2.059   1.882  14.275 -0.4751  0.1360  0.3568
  122MPD2    H7 1872   1.974   1.926  14.241 -0.8981  0.1131  1.3900
  123MPD2     C 1873   4.613   1.065   8.845 -0.2898  0.0200  0.0958
  123MPD2    C1 1874   4.609   0.937   8.796 -0.0290  0.0753 -0.2230
  123MPD2    C2 1875   4.484   0.879   8.790 -0.2816  0.0495 -0.2088
  123MPD2    C3 1876   4.370   0.942   8.830  0.4015  0.5503  0.6506
  123MPD2    C4 1877   4.380   1.075   8.880 -0.5535  0.1301 -0.5879
  123MPD2    C5 1878   4.500   1.137   8.880  0.6242  0.5188  0.6747
  123MPD2     H 1879   4.469   0.776   8.760 -2.5946 -0.5281  2.9509
  123MPD2    H1 1880   4.291   1.134   8.900 -0.9013 -1.0641  1.4370
  123MPD2    H2 1881   4.700   1.130   8.848 -1.9454  2.1274  2.3597
  123MPD2    H3 1882   4.506   1.244   8.898 -2.7489  0.5257  1.6921
  123MPD2     N 1883   4.249   0.866   8.837  0.2982 -0.6446  0.0888
  123MPD2    H5 1884   4.250   0.768   8.811 -0.8562 -0.4595 -0.6428
  123MPD2    N1 1885   0.008   0.880   8.764  0.3004  0.0838 -0.7404
  123MPD2    H7 1886   0.091   0.938   8.774  1.0831 -1.1260 -0.2688
  124TCq2    C1 1887   4.127   0.917   8.881 -0.8549 -0.1539 -0.0681
  124TCq2    O2 1888   4.094   1.025   8.931  0.2234  0.1085 -0.3826
  124TCq2    C2 1889   4.022   0.819   8.878 -0.3930  0.4315 -0.4684
  124TCq2    C3 1890   3.896   0.869   8.868  0.0014 -0.7345 -0.1147
  124TCq2    C4 1891   3.793   0.780   8.883 -0.6984  0.4811  0.6817
  124TCq2    C5 1892   3.818   0.652   8.918  0.1421  0.2658 -0.5971
  124TCq2    C6 1893   3.945   0.602   8.919 -0.4130 -0.0785 -0.5637
  124TCq2    C7 1894   4.051   0.691   8.917  0.6651 -0.2266 -0.0072
  124TCq2    C8 1895   3.960   0.468   8.960 -0.3155 -0.1616  0.5212
  124TCq2    O4 1896   3.864   0.410   9.012 -0.1464  0.2382  0.4876
  124TCq2    C9 1897   3.660   0.836   8.870  0.1616  0.6784 -0.0140
  124TCq2    O5 1898   3.648   0.933   8.792 -0.2043  0.0982  0.4894
  124TCq2    O6 1899   3.566   0.769   8.911 -0.0570 -0.5522  0.2206
  124TCq2    H2 1900   3.863   0.970   8.849  1.9202 -0.3667 -1.4960
  124TCq2    H3 1901   3.731   0.587   8.921 -0.9743  1.6931 -2.1955
  124TCq2    H4 1902   4.152   0.654   8.934  1.6493  2.5373  0.0401
  125TMC2    C1 1903   0.804   0.777  10.002 -0.5399  0.1744  0.2266
  125TMC2    C2 1904   0.696   0.746  10.077  0.7727  0.3488  0.2804
  125TMC2    C3 1905   0.684   0.802  10.204  0.3941 -0.4255 -0.7055
  125TMC2    C4 1906   0.890   0.874  10.047 -0.4077 -0.3897 -0.6019
  125TMC2    C5 1907   0.869   0.932  10.166 -0.3768  0.1040 -0.6840
  125TMC2    C6 1908   0.770   0.895  10.251 -0.3718  0.0171 -0.1543
  125TMC2     C 1909   0.806   0.735   9.861 -0.4010 -0.4186  0.6377
  125TMC2     O 1910   0.713   0.682   9.808  0.3701  0.9275  0.5447
  125TMC2     H 1911   0.622   0.673  10.045 -2.2807  3.0171  1.2669
  125TMC2    H1 1912   0.969   0.915   9.985 -0.4993  0.4695 -0.1584
  125TMC2    H2 1913   0.769   0.934  10.352  0.5269  0.5280 -0.3413
  125TMC2    C7 1914   0.965   1.026  10.219  0.5352  0.5075 -0.1156
  125TMC2    C8 1915   0.583   0.755  10.295  0.1533  0.1409  0.3012
  125TMC2    O1 1916   0.935   1.105  10.309  0.1152  0.2001  0.3063
  125TMC2    O2 1917   0.528   0.825  10.378 -0.1545 -0.0790  0.0104
  125TMC2    O5 1918   0.603   0.623  10.299  0.2016  0.1345  0.2558
  125TMC2    H5 1919   0.661   0.596  10.225  2.5974  2.5294  1.2478
  126MPD1     C 1920   0.999   0.763   9.395 -0.1590  0.1364  0.4196
  126MPD1    C1 1921   1.106   0.772   9.485  0.1508  0.8064 -0.0343
  126MPD1    C2 1922   1.077   0.768   9.622 -0.0059 -0.4265 -0.3229
  126MPD1    C3 1923   0.947   0.757   9.660  0.1962  0.0437 -0.0110
  126MPD1    C4 1924   0.844   0.745   9.573 -0.0372  0.3396 -0.3585
  126MPD1    C5 1925   0.873   0.747   9.440  0.2583 -0.2630  0.3153
  126MPD1     H 1926   1.158   0.779   9.693 -0.4965  2.6052 -0.2462
  126MPD1    H1 1927   0.739   0.734   9.597  0.1129 -0.9482 -0.2888
  126MPD1    H2 1928   1.012   0.752   9.288  1.2169 -0.1100  0.6112
  126MPD1    H3 1929   0.787   0.731   9.376 -0.0685  0.5142  0.5603
  126MPD1     N 1930   0.927   0.766   9.799  0.6788 -0.1046 -0.8214
  126MPD1    H5 1931   1.009   0.782   9.857 -1.4897  1.6826  1.6939
  126MPD1    N1 1932   1.235   0.825   9.437 -0.5626 -0.4490 -0.0658
  126MPD1    H6 1933   1.263   0.812   9.340  2.1826  0.7312  0.5636
  126MPD1    H7 1934   1.311   0.803   9.501  0.1343  0.8407 -0.4498
  127MPD2     C 1935   2.812   0.238  10.032 -0.8156  0.4808  0.7659
  127MPD2    C1 1936   2.937   0.295  10.028  0.1136  0.1681 -0.2981
  127MPD2    C2 1937   2.932   0.415   9.969 -0.1621 -0.0408  0.7206
  127MPD2    C3 1938   2.821   0.480   9.922  0.1851 -0.7130  0.4092
  127MPD2    C4 1939   2.698   0.421   9.937 -0.2461  0.1542 -0.6941
  127MPD2    C5 1940   2.697   0.295   9.988  0.1616  0.1269 -0.1105
  127MPD2     H 1941   3.029   0.463   9.968  1.7745 -3.9713  1.6737
  127MPD2    H1 1942   2.602   0.470   9.923 -0.0678 -0.3172 -3.5272
  127MPD2    H2 1943   2.809   0.139  10.077  0.8708 -0.7156 -1.7596
  127MPD2    H3 1944   2.606   0.237   9.981  0.5655 -0.4971 -0.1313
  127MPD2     N 1945   2.824   0.610   9.861 -0.6369 -0.2434  0.7174
  127MPD2    H5 1946   2.732   0.650   9.848 -0.5780 -0.8074 -1.4744
  127MPD2    N1 1947   3.044   0.235  10.098  0.0713 -0.1663 -0.2112
  127MPD2    H7 1948   3.032   0.144  10.142  1.5801  0.8908  2.3918
  128TCq2    C1 1949   3.166   0.296  10.125 -0.3466 -0.5932 -0.0980
  128TCq2    O2 1950   3.196   0.417  10.127  0.9136  0.7326  0.4462
  128TCq2    C2 1951   3.258   0.205  10.187  0.2116  0.4196 -0.2382
  128TCq2    C3 1952   3.365   0.263  10.256 -0.2170  0.3318  0.2820
  128TCq2    C4 1953   3.454   0.183  10.310  0.0988  0.2771  0.5612
  128TCq2    C5 1954   3.450   0.051  10.297 -0.1329 -0.4589  0.2948
  128TCq2    C6 1955   3.344   4.716  10.237  0.9017  0.3070  0.4657
  128TCq2    C7 1956   3.256   0.074  10.169 -0.4429 -0.3343 -0.4387
  128TCq2    C8 1957   3.291   4.596  10.294  0.0945  0.0510 -0.4525
  128TCq2    O4 1958   3.326   4.573  10.408  0.2346 -0.0083  0.1371
  128TCq2    C9 1959   3.556   0.240  10.398  0.3857 -0.7323 -0.1089
  128TCq2    O5 1960   3.588   0.362  10.387 -0.2473  0.3226 -0.2091
  128TCq2    O6 1961   3.618   0.152  10.461 -0.3244 -0.0505  0.5165
  128TCq2    H2 1962   3.371   0.367  10.286 -1.2726  0.7989 -1.1172
  128TCq2    H3 1963   3.528   4.711  10.336 -1.4946 -2.0818  0.2944
  128TCq2    H4 1964   3.185   0.021  10.106  1.9390 -0.0465 -3.3419
  129MPD2     C 1965   0.447   1.544   1.771  0.0696  0.3359 -0.5000
  129MPD2    C1 1966   0.570   1.483   1.746  0.3455 -0.4521  0.2660
  129MPD2    C2 1967   0.631   1.497   1.628 -0.4238  0.8418 -0.3486
  129MPD2    C3 1968   0.572   1.566   1.525 -0.2712  0.1848  0.3202
  129MPD2    C4 1969   0.449   1.630   1.551  0.1428  0.3800  0.5850
  129MPD2    C5 1970   0.392   1.618   1.675  0.5386 -0.1520 -0.0721
  129MPD2     H 1971   0.717   1.434   1.609 -1.0299  0.0887 -0.6150
  129MPD2    H1 1972   0.390   1.683   1.477 -1.6101 -0.2214  1.5399
  129MPD2    H2 1973   0.403   1.542   1.870 -0.2217 -2.1157 -0.6682
  129MPD2    H3 1974   0.297   1.663   1.702  1.4460  2.4857 -1.2790
  129MPD2     N 1975   0.645   1.576   1.405  0.5153 -0.3717 -0.4378
  129MPD2    H5 1976   0.728   1.521   1.382  1.1242  0.3615 -0.0002
  129MPD2    N1 1977   0.633   1.408   1.847  0.2924 -0.5970  0.0838
  129MPD2    H7 1978   0.728   1.381   1.825  0.4186  1.0233 -1.3999
  130TCq2    C1 1979   0.572   1.358   1.955 -0.1225  0.3917 -0.4079
  130TCq2    O2 1980   0.454   1.365   1.991  0.5485 -0.1360  0.1293
  130TCq2    C2 1981   0.657   1.257   2.026  0.1987 -0.3799  0.5112
  130TCq2    C3 1982   0.786   1.245   2.009 -0.5043 -0.0951  0.9710
  130TCq2    C4 1983   0.849   1.133   2.051  0.0220 -0.7431  0.0562
  130TCq2    C5 1984   0.790   1.034   2.120  0.0978 -0.5465 -0.1732
  130TCq2    C6 1985   0.654   1.047   2.137  0.4738  0.4159  0.4868
  130TCq2    C7 1986   0.585   1.158   2.094  0.5711  0.4157  0.4506
  130TCq2    C8 1987   0.567   0.938   2.183  0.0264 -0.5297  1.0093
  130TCq2    O4 1988   0.447   0.956   2.171 -0.6877  0.5308 -0.0348
  130TCq2    C9 1989   0.989   1.113   2.022 -0.0508 -0.2242 -0.4023
  130TCq2    O5 1990   1.041   1.191   1.933  0.3908 -0.4033  1.0252
  130TCq2    O6 1991   1.048   1.021   2.085  0.1606 -0.5399 -0.8594
  130TCq2    H2 1992   0.842   1.326   1.963 -1.6418 -0.4626 -1.0374
  130TCq2    H3 1993   0.838   0.940   2.141  0.1200 -0.4571  0.1687
  130TCq2    H4 1994   0.486   1.174   2.135  1.5694  2.1832  2.1845
  131MPD2     C 1995   0.472   0.088   9.080 -0.5461 -0.2226 -0.5460
  131MPD2    C1 1996   0.556   0.194   9.086  0.2606 -0.4644  0.1684
  131MPD2    C2 1997   0.546   0.298   8.996  0.4575 -0.1138  0.3911
  131MPD2    C3 1998   0.448   0.290   8.891 -0.2569  0.3179  0.2181
  131MPD2    C4 1999   0.356   0.181   8.888 -0.3088  0.3026  0.3701
  131MPD2    C5 2000   0.374   0.094   8.986  0.3421  0.7493 -0.1435
  131MPD2     H 2001   0.611   0.384   9.006  1.1407 -0.3006 -2.5141
  131MPD2    H1 2002   0.265   0.163   8.832 -0.0190  0.0934 -0.0332
  131MPD2    H2 2003   0.472   0.006   9.151 -2.2219  1.0794  0.9670
  131MPD2    H3 2004   0.301   0.014   8.980 -0.0485  1.2229 -1.7261
  131MPD2     N 2005   0.451   0.404   8.810  0.2091  0.1505  0.2722
  131MPD2    H5 2006   0.524   0.471   8.831 -0.3268  1.3485 -1.8034
  131MPD2    N1 2007   0.633   0.190   9.198 -0.2593  0.1099 -0.0019
  131MPD2    H7 2008   0.626   0.104   9.250  0.2948 -0.0051 -0.1190
  132TCq2    C1 2009   1.076   0.394   9.547  0.4995  0.2977  0.0173
  132TCq2    O2 2010   1.142   0.418   9.445 -0.2214  0.2420 -0.4648
  132TCq2    C2 2011   0.944   0.331   9.518 -0.2010 -0.2843  0.1666
  132TCq2    C3 2012   0.868   0.281   9.623 -0.0629 -0.2421 -0.1893
  132TCq2    C4 2013   0.752   0.215   9.593 -0.0337 -0.4526 -0.0671
  132TCq2    C5 2014   0.713   0.203   9.468 -0.6583  0.4098 -0.3616
  132TCq2    C6 2015   0.791   0.251   9.369  0.1625 -0.1848 -0.6997
  132TCq2    C7 2016   0.908   0.319   9.391  0.4099 -0.1628  0.4975
  132TCq2    C8 2017   0.733   0.280   9.234 -0.0039  0.4890 -0.4983
  132TCq2    O4 2018   0.763   0.391   9.190 -0.3525  0.2361 -0.1323
  132TCq2    C9 2019   0.681   0.144   9.704  0.8318 -0.5286  0.3112
  132TCq2    O5 2020   0.576   0.076   9.676  0.3821 -0.1458 -0.5419
  132TCq2    O6 2021   0.730   0.175   9.815 -0.1436 -0.0133 -0.5133
  132TCq2    H2 2022   0.905   0.280   9.725 -1.3944 -0.5152  0.2979
  132TCq2    H3 2023   0.623   0.147   9.444  0.3263 -1.5734  0.5935
  132TCq2    H4 2024   0.970   0.344   9.306  1.6403 -0.5557  1.2747
  133MPD2     C 2025   4.492   1.434   9.619  0.0764  0.2017  0.3583
  133MPD2    C1 2026   4.572   1.381   9.514  0.4765  0.3930  0.0632
  133MPD2    C2 2027   4.531   1.274   9.443  0.3930  0.1468  0.5464
  133MPD2    C3 2028   4.408   1.212   9.461  0.6374  0.0004 -0.4640
  133MPD2    C4 2029   4.323   1.262   9.557 -0.5461  0.6696 -0.5680
  133MPD2    C5 2030   4.365   1.371   9.636  0.4242  0.1023  0.1406
  133MPD2     H 2031   4.595   1.235   9.365 -0.7133 -1.0836  0.2519
  133MPD2    H1 2032   4.225   1.221   9.576  0.4281 -1.3840  0.0449
  133MPD2    H2 2033   4.514   1.520   9.681  2.7490 -0.1263 -0.1661
  133MPD2    H3 2034   4.289   1.407   9.703 -0.7306 -1.3430 -0.4042
  133MPD2     N 2035   4.362   1.094   9.398 -0.1909  0.1761 -0.3167
  133MPD2    H5 2036   4.272   1.057   9.427 -1.3244  2.2025 -1.2638
  133MPD2    N1 2037   4.697   1.443   9.491 -0.8300  0.2979 -0.2003
  133MPD2    H7 2038   4.721   1.521   9.552  0.9076  1.0783 -1.9053
  134TCq2    C1 2039   0.061   1.418   9.390 -0.1164  0.3193 -0.8321
  134TCq2    O2 2040   0.055   1.331   9.299 -0.1324 -0.6347  0.0163
  134TCq2    C2 2041   0.174   1.516   9.396 -0.0225 -0.5014 -0.4855
  134TCq2    C3 2042   0.276   1.497   9.306  0.2079 -0.6160 -0.0453
  134TCq2    C4 2043   0.389   1.574   9.312 -0.4115 -0.1994  0.1890
  134TCq2    C5 2044   0.391   1.680   9.401  0.2539  0.4514 -0.2250
  134TCq2    C6 2045   0.294   1.690   9.493 -0.0729  0.4428 -0.3122
  134TCq2    C7 2046   0.180   1.607   9.495  0.3089 -0.1087 -0.1083
  134TCq2    C8 2047   0.317   1.789   9.606  0.4115 -0.7632 -0.3554
  134TCq2    O4 2048   0.225   1.829   9.677 -0.7379  0.1831 -0.0371
  134TCq2    C9 2049   0.500   1.552   9.225  0.2926 -0.3474 -0.0724
  134TCq2    O5 2050   0.484   1.458   9.145  0.3614 -0.4763  0.4862
  134TCq2    O6 2051   0.595   1.635   9.230 -0.2038  0.0496 -0.0627
  134TCq2    H2 2052   0.272   1.413   9.238  2.6406  0.7321 -1.8659
  134TCq2    H3 2053   0.476   1.747   9.397 -0.9405  1.9519 -0.4742
  134TCq2    H4 2054   0.112   1.615   9.578 -1.5840 -1.3214 -1.5245
  135MPD2     C 2055   2.025   1.561   9.836  0.0596 -0.2314  0.2937
  135MPD2    C1 2056   2.030   1.461   9.739 -0.2228 -0.2508  0.0211
  135MPD2    C2 2057   2.131   1.465   9.645 -1.1552  0.0385 -0.4193
  135MPD2    C3 2058   2.227   1.559   9.642 -0.4232  0.5502  0.1152
  135MPD2    C4 2059   2.226   1.657   9.741 -0.0244 -0.1759  1.0656
  135MPD2    C5 2060   2.121   1.663   9.832  0.3091  0.8166  0.0702
  135MPD2     H 2061   2.136   1.379   9.579 -2.2111 -2.4161  2.6819
  135MPD2    H1 2062   2.291   1.744   9.737 -0.8996  0.3663 -1.6232
  135MPD2    H2 2063   1.944   1.561   9.908  1.6063 -0.1234  2.0494
  135MPD2    H3 2064   2.121   1.751   9.895 -1.2724  0.8784 -0.0150
  135MPD2     N 2065   2.333   1.561   9.554  0.4424  0.6406 -0.4190
  135MPD2    H5 2066   2.387   1.645   9.540 -1.5406  1.3473 -4.0048
  135MPD2    N1 2067   1.946   1.347   9.737  0.5697  0.9486  0.3683
  135MPD2    H7 2068   1.972   1.282   9.664 -0.6347  1.2280 -0.3139
  136TCq2    C1 2069   1.829   1.334   9.807 -0.3318 -0.1585  0.7919
  136TCq2    O2 2070   1.771   1.410   9.884 -0.2106 -0.5159  0.3377
  136TCq2    C2 2071   1.769   1.203   9.787  0.0627 -0.4782  0.1978
  136TCq2    C3 2072   1.833   1.098   9.725  0.1451 -0.7475 -0.4138
  136TCq2    C4 2073   1.763   0.981   9.724  0.1387  0.1204 -0.0304
  136TCq2    C5 2074   1.638   0.970   9.774  0.4569  0.1832 -0.4891
  136TCq2    C6 2075   1.576   1.081   9.833  0.1493  0.6454  0.1194
  136TCq2    C7 2076   1.639   1.196   9.840 -0.0225 -0.5204 -0.1491
  136TCq2    C8 2077   1.432   1.075   9.856 -0.2487  0.3643  0.0935
  136TCq2    O4 2078   1.372   0.980   9.815 -0.1232  0.1752 -0.0647
  136TCq2    C9 2079   1.835   0.865   9.662  0.1386  0.0018  0.7491
  136TCq2    O5 2080   1.785   0.750   9.667  0.2302  0.7933 -0.2034
  136TCq2    O6 2081   1.941   0.895   9.601  0.0556  0.3096  0.3137
  136TCq2    H2 2082   1.935   1.101   9.688  0.3171 -0.2724  0.0850
  136TCq2    H3 2083   1.586   0.875   9.776 -2.7349  1.9273 -1.4180
  136TCq2    H4 2084   1.596   1.293   9.863 -2.8754 -1.9035  0.2531
  137MPD2     C 2085   2.620   1.148  10.076 -0.5751  0.6946  0.3579
  137MPD2    C1 2086   2.509   1.109  10.144  0.4919 -0.5198  0.3675
  137MPD2    C2 2087   2.420   1.196  10.201  0.7169 -0.6696 -0.4421
  137MPD2    C3 2088   2.455   1.325  10.205 -0.3133  0.0872 -0.0384
  137MPD2    C4 2089   2.573   1.364  10.141  0.5615 -0.3383  0.1500
  137MPD2    C5 2090   2.653   1.279  10.080 -0.5531  0.1814  0.5828
  137MPD2     H 2091   2.335   1.159  10.257 -0.7007  3.5564  0.1615
  137MPD2    H1 2092   2.607   1.466  10.155  1.0845 -0.4787 -0.1129
  137MPD2    H2 2093   2.680   1.081  10.016 -2.6193 -1.5118  0.7807
  137MPD2    H3 2094   2.744   1.320  10.038  0.6894 -1.5072  1.6048
  137MPD2     N 2095   2.366   1.404  10.280 -0.0706  0.6362 -0.5257
  137MPD2    H5 2096   2.276   1.365  10.309  0.6282 -0.8559 -0.3471
  137MPD2    N1 2097   2.486   0.972  10.148  0.7223 -0.0290 -0.3175
  137MPD2    H7 2098   2.549   0.915  10.093  1.1014  0.8592 -0.8013
  138TCq2    C1 2099   2.377   0.901  10.195  0.2288  0.6242  1.0170
  138TCq2    O2 2100   2.282   0.943  10.265 -0.6215  0.4565  0.1265
  138TCq2    C2 2101   2.375   0.768  10.146 -0.1450  0.5736 -0.4290
  138TCq2    C3 2102   2.428   0.752  10.017 -0.9214 -0.4784  0.2262
  138TCq2    C4 2103   2.396   0.642   9.949  0.7316 -0.1604 -0.0849
  138TCq2    C5 2104   2.317   0.541   9.996  0.4387  0.2352 -0.0557
  138TCq2    C6 2105   2.262   0.564  10.119  0.2704  0.3653  0.2286
  138TCq2    C7 2106   2.277   0.683  10.192  0.2972 -0.3419 -0.1240
  138TCq2    C8 2107   2.159   0.474  10.166 -1.1469  0.0465  0.1244
  138TCq2    O4 2108   2.168   0.359  10.120  0.1980  0.4133 -0.6868
  138TCq2    C9 2109   2.448   0.630   9.813  0.3615  0.2149  0.0349
  138TCq2    O5 2110   2.411   0.524   9.750 -0.1559 -0.7221  0.2732
  138TCq2    O6 2111   2.507   0.730   9.766 -0.0263 -0.2169  0.8720
  138TCq2    H2 2112   2.492   0.827   9.971 -1.0046 -0.1909  0.5789
  138TCq2    H3 2113   2.293   0.454   9.936  0.5205  0.2039 -0.0428
  138TCq2    H4 2114   2.243   0.693  10.294 -0.3056  2.4567 -0.6030
  139TMC2    C1 2115   2.168   0.163  13.404  0.4224 -0.5967  0.0337
  139TMC2    C2 2116   2.105   0.181  13.286 -0.5239 -0.7203 -0.1204
  139TMC2    C3 2117   2.042   0.301  13.263 -0.5309  0.6376  0.0167
  139TMC2    C4 2118   2.154   0.253  13.508  0.2921 -0.5587 -0.5502
  139TMC2    C5 2119   2.081   0.367  13.483  0.2299 -0.5790 -0.9636
  139TMC2    C6 2120   2.025   0.393  13.361 -0.7621 -0.1978 -1.2487
  139TMC2     C 2121   2.203   0.022  13.438  0.3356  0.0417  0.4684
  139TMC2     O 2122   2.174   4.658  13.358 -0.4201  0.2313 -0.4932
  139TMC2     H 2123   2.099   0.099  13.216 -1.4047  0.3284 -1.2562
  139TMC2    H1 2124   2.184   0.224  13.608 -1.4102 -0.7105 -0.0796
  139TMC2    H2 2125   1.964   0.480  13.340 -1.0154  0.6379  3.0738
  139TMC2    C7 2126   2.026   0.439  13.602 -0.1421  0.4037  0.3509
  139TMC2    C8 2127   1.930   0.290  13.173  0.4926 -0.0402  0.3286
  139TMC2    O1 2128   1.940   0.519  13.579  0.0731 -0.1183 -0.7364
  139TMC2    O2 2129   1.828   0.343  13.208  0.5809  0.1078  0.1001
  139TMC2    O5 2130   1.991   0.315  13.057  0.1028  0.1161  0.2139
  139TMC2    H5 2131   2.074   0.264  13.047  0.0285  0.6924 -3.2935
  140MPD2     C 2132   2.402   4.629  13.725  0.0795  0.2306  0.5431
  140MPD2    C1 2133   2.323   4.620  13.614 -0.2373  0.7382 -0.1566
  140MPD2    C2 2134   2.275   4.497  13.576 -0.3958  0.2135 -0.1201
  140MPD2    C3 2135   2.322   4.380  13.634 -0.3846  0.0878 -0.5718
  140MPD2    C4 2136   2.410   4.385  13.740  0.2168 -0.0233  0.1922
  140MPD2    C5 2137   2.446   4.510  13.784  0.8747 -0.2339  0.7098
  140MPD2     H 2138   2.191   4.490  13.508  0.2546 -0.6573 -0.8334
  140MPD2    H1 2139   2.456   4.291  13.769  1.2682  0.0380 -1.2541
  140MPD2    H2 2140   2.432   4.719  13.778  0.5564  0.7530 -0.6132
  140MPD2    H3 2141   2.523   4.506  13.860  2.9282 -0.3865 -1.3838
  140MPD2     N 2142   2.260   4.266  13.580  0.8321 -0.2760 -0.4938
  140MPD2    H5 2143   2.193   4.283  13.505  0.4113 -2.0135 -0.5080
  140MPD2    N1 2144   2.278   0.014  13.551  0.7919  0.7269 -0.1163
  140MPD2    H7 2145   2.312   0.102  13.590  0.6004  0.3154  0.9841
  141TCq2    C1 2146   3.077   0.928  14.138 -1.0087  0.0054 -0.3262
  141TCq2    O2 2147   3.009   0.998  14.068  0.2227 -0.5796  0.1430
  141TCq2    C2 2148   3.054   0.931  14.280 -0.3411 -0.3522  1.2004
  141TCq2    C3 2149   3.042   0.809  14.343 -0.0283 -0.0952  0.2946
  141TCq2    C4 2150   3.006   0.807  14.477 -0.3563  0.8784 -0.5997
  141TCq2    C5 2151   2.982   0.921  14.544 -1.0661 -0.3867 -0.4288
  141TCq2    C6 2152   2.993   1.039  14.476 -0.7101  0.4219 -0.7007
  141TCq2    C7 2153   3.019   1.051  14.345  0.1753  0.0989 -0.2190
  141TCq2    C8 2154   2.985   1.157  14.560  0.7123  0.4529  0.5918
  141TCq2    O4 2155   2.937   1.156  14.674 -0.5804  0.3514 -0.3877
  141TCq2    C9 2156   3.000   0.683  14.553  0.5160 -0.2081 -0.7092
  141TCq2    O5 2157   3.002   0.576  14.489  0.3280  0.6988  0.1054
  141TCq2    O6 2158   3.002   0.686  14.678 -0.2044  0.3087  0.3395
  141TCq2    H2 2159   3.062   0.717  14.290 -2.3100  0.3297 -1.3312
  141TCq2    H3 2160   2.950   0.914  14.647  0.8573 -2.7359  0.0250
  141TCq2    H4 2161   3.004   1.142  14.288 -0.8258  0.0734 -0.0022
  142MPD2     C 2162   4.123   3.805   9.499  1.1917 -0.1070 -1.4020
  142MPD2    C1 2163   4.203   3.904   9.452 -0.1887  0.1436  0.6751
  142MPD2    C2 2164   4.148   4.024   9.413  0.0870 -0.1171 -0.6375
  142MPD2    C3 2165   4.014   4.043   9.405 -0.1314 -0.1335  0.4252
  142MPD2    C4 2166   3.933   3.933   9.429 -0.7021  0.1536 -0.2767
  142MPD2    C5 2167   3.989   3.819   9.485 -0.8604  0.0265 -0.1428
  142MPD2     H 2168   4.209   4.111   9.394 -0.1953 -0.0599 -1.2609
  142MPD2    H1 2169   3.828   3.931   9.401 -0.4763 -0.0656 -1.0960
  142MPD2    H2 2170   4.154   3.713   9.547 -0.4875 -0.2979 -0.6773
  142MPD2    H3 2171   3.920   3.737   9.502 -2.3457  0.7295 -2.8319
  142MPD2     N 2172   3.943   4.162   9.372  0.2480 -0.0991 -0.8109
  142MPD2    H5 2173   3.842   4.164   9.365  0.0616  0.5142  2.0420
  142MPD2    N1 2174   4.343   3.876   9.441  0.1550  0.2827  0.3536
  142MPD2    H7 2175   4.358   3.779   9.465 -0.7380 -0.0323 -0.3430
  143TCq2    C1 2176   4.005   4.279   9.349 -0.0169  0.4196  0.0845
  143TCq2    O2 2177   4.124   4.303   9.324 -0.8215 -0.0625 -0.9992
  143TCq2    C2 2178   3.907   4.387   9.330 -0.1622  0.2050  0.4886
  143TCq2    C3 2179   3.772   4.365   9.361  0.5301  0.3645  0.4507
  143TCq2    C4 2180   3.682   4.433   9.289  0.1509 -0.1060 -0.5265
  143TCq2    C5 2181   3.723   4.537   9.206 -0.3955 -0.0857  0.3605
  143TCq2    C6 2182   3.858   4.552   9.178  0.4175  0.0450  0.5353
  143TCq2    C7 2183   3.947   4.473   9.235  0.5851 -0.5331 -0.0161
  143TCq2    C8 2184   3.898   4.674   9.113  0.1779 -0.0328 -0.4425
  143TCq2    O4 2185   3.810   0.030   9.089  0.5267  0.5691 -0.2070
  143TCq2    C9 2186   3.544   4.409   9.302  0.0149  0.3001  0.2328
  143TCq2    O5 2187   3.470   4.444   9.209 -0.0467  0.2537 -0.3950
  143TCq2    O6 2188   3.509   4.342   9.404  0.2648  0.0989  0.6387
  143TCq2    H2 2189   3.736   4.293   9.433  0.3149  0.4326  0.4099
  143TCq2    H3 2190   3.640   4.591   9.164  0.0669 -0.4943 -1.0783
  143TCq2    H4 2191   4.054   4.488   9.222  0.1510  1.1759 -1.7104
  144MPD2     C 2192   2.944   3.029   0.820 -0.2463 -0.3196  0.3235
  144MPD2    C1 2193   2.999   2.898   0.807 -0.0137  0.8432 -0.0077
  144MPD2    C2 2194   3.113   2.871   0.882 -0.9419  0.7048 -0.7399
  144MPD2    C3 2195   3.186   2.958   0.959  0.0571  0.6042  0.5070
  144MPD2    C4 2196   3.129   3.083   0.963 -1.1944 -0.9351 -0.4799
  144MPD2    C5 2197   3.005   3.112   0.907  0.0929 -0.0412  0.2609
  144MPD2     H 2198   3.143   2.767   0.874 -2.4098  0.3375 -1.5234
  144MPD2    H1 2199   3.177   3.156   1.027 -1.2570 -0.9514 -0.4140
  144MPD2    H2 2200   2.859   3.070   0.766 -0.7461  0.8273  2.0041
  144MPD2    H3 2201   2.963   3.210   0.928  0.2627  0.1241 -0.1821
  144MPD2     N 2202   3.314   2.935   1.018  0.1481  0.0364 -0.3606
  144MPD2    H5 2203   3.366   3.006   1.068 -0.6288  3.8098 -4.8936
  144MPD2    N1 2204   2.957   2.801   0.712  0.2268  0.5031 -0.5498
  144MPD2    H7 2205   3.005   2.712   0.707  0.1895  0.3304  2.1926
  145TCq2    C1 2206   3.388   2.826   0.992 -0.2786  0.5453  0.2569
  145TCq2    O2 2207   3.367   2.742   0.904  0.4424  0.4785  0.1294
  145TCq2    C2 2208   3.512   2.836   1.058 -0.3006 -0.0562  0.3262
  145TCq2    C3 2209   3.611   2.771   1.006 -0.6125 -0.0953  0.5289
  145TCq2    C4 2210   3.730   2.779   1.065  0.8604 -0.3995  1.0802
  145TCq2    C5 2211   3.749   2.848   1.182 -0.5072  1.2220 -0.8133
  145TCq2    C6 2212   3.643   2.913   1.237 -0.7033  0.0649 -0.2302
  145TCq2    C7 2213   3.524   2.902   1.175  0.3985 -0.1507  0.1135
  145TCq2    C8 2214   3.665   3.032   1.314 -0.1118  0.2675  0.2809
  145TCq2    O4 2215   3.568   3.098   1.341  0.4076 -0.6760  0.0294
  145TCq2    C9 2216   3.849   2.714   1.012 -0.3837  0.3337  0.5917
  145TCq2    O5 2217   3.834   2.655   0.901 -0.2349  0.5011 -0.0886
  145TCq2    O6 2218   3.957   2.729   1.072 -0.1535  0.2006  0.1600
  145TCq2    H2 2219   3.608   2.713   0.914  0.2349  0.6894  0.0033
  145TCq2    H3 2220   3.845   2.834   1.229 -0.9403 -0.1238 -0.3091
  145TCq2    H4 2221   3.436   2.939   1.228  0.1857 -1.0862  0.4280
  146TMC2    C1 2222   4.581   2.510  12.525  0.4602  0.4240  0.4145
  146TMC2    C2 2223   4.495   2.599  12.458 -0.2686  0.5261  0.0574
  146TMC2    C3 2224   4.459   2.556  12.334 -0.5849  0.0741 -0.1999
  146TMC2    C4 2225   4.622   2.399  12.468  0.8051  0.3158 -0.6868
  146TMC2    C5 2226   4.553   2.349  12.357 -0.5206 -0.1096 -0.0304
  146TMC2    C6 2227   4.491   2.437  12.279 -0.5995  0.3116 -0.0195
  146TMC2     C 2228   4.632   2.552  12.648  0.6296  0.3267 -0.1429
  146TMC2     O 2229   4.647   2.669  12.668 -0.1911  0.1753  0.1233
  146TMC2     H 2230   4.492   2.698  12.500  0.2127  1.5148 -2.2445
  146TMC2    H1 2231   4.703   2.347  12.518 -0.3559  0.1588  1.0371
  146TMC2    H2 2232   4.444   2.404  12.187 -0.6951  2.2240 -0.6538
  146TMC2    C7 2233   4.607   2.234  12.295 -0.3751  0.1066  0.0341
  146TMC2    C8 2234   4.394   2.653  12.248  0.2610  0.6197  0.6076
  146TMC2    O1 2235   4.602   2.226  12.173  0.5210  0.6968 -0.6390
  146TMC2    O2 2236   4.419   2.663  12.124  0.0151 -0.2463  0.0680
  146TMC2    O5 2237   4.340   2.753  12.321  0.1213 -0.2640  0.3109
  146TMC2    H5 2238   4.322   2.720  12.412  0.3807  0.7161  0.7271
  147MPD2     C 2239   0.188   1.827  12.320 -0.2694  0.6625  0.0752
  147MPD2    C1 2240   0.135   1.849  12.446 -0.1956  0.2604 -0.0831
  147MPD2    C2 2241   0.058   1.965  12.464 -0.4980 -0.5865 -0.8913
  147MPD2    C3 2242   0.021   2.039  12.357  1.0304  0.3887  0.1219
  147MPD2    C4 2243   0.081   2.016  12.230  0.2520 -0.0766  0.7750
  147MPD2    C5 2244   0.153   1.903  12.213 -0.5437  0.0435 -0.9858
  147MPD2     H 2245   0.021   1.987  12.563 -0.7316 -0.6846 -0.9573
  147MPD2    H1 2246   0.062   2.077  12.142 -0.9264 -3.1062 -1.0813
  147MPD2    H2 2247   0.251   1.740  12.303  0.1483  1.2189 -1.1717
  147MPD2    H3 2248   0.208   1.894  12.120  0.5426 -0.3406 -0.3045
  147MPD2     N 2249   4.663   2.146  12.387  0.1435  0.8779  0.0887
  147MPD2    H5 2250   4.661   2.157  12.488 -0.9110  1.2308  0.0275
  147MPD2    N1 2251   0.187   1.765  12.548  0.6901 -0.1549 -0.4399
  147MPD2    H7 2252   0.273   1.716  12.525  2.1043  1.2465  1.9639
  148MPD2     C 2253   1.238   0.215  10.624  0.2159  0.0338 -0.2180
  148MPD2    C1 2254   1.211   0.124  10.524 -0.0344 -0.4027 -0.5132
  148MPD2    C2 2255   1.115   0.028  10.545 -0.4949 -0.4461  0.1692
  148MPD2    C3 2256   1.029   0.040  10.652  0.2998  0.7675  0.3352
  148MPD2    C4 2257   1.047   0.138  10.748 -0.7543  0.6018 -0.1804
  148MPD2    C5 2258   1.158   0.220  10.730  0.5255 -0.0563  0.0898
  148MPD2     H 2259   1.098   4.676  10.472 -0.0535 -0.2860 -0.1073
  148MPD2    H1 2260   0.985   0.145  10.837 -0.3294 -0.0424  0.1698
  148MPD2    H2 2261   1.313   0.293  10.621  0.3657 -0.0772  0.6140
  148MPD2    H3 2262   1.177   0.289  10.811 -0.8969 -0.9256  1.1639
  148MPD2     N 2263   0.905   4.691  10.648 -0.1545  0.1509 -0.1618
  148MPD2    H5 2264   0.841   4.695  10.727  1.2427 -2.1495  1.1087
  148MPD2    N1 2265   1.269   0.127  10.395  0.6399 -0.1161  0.0248
  148MPD2    H7 2266   1.235   0.056  10.330 -0.7699  0.6945 -0.1180
  149TCq2    C1 2267   1.381   0.202  10.352 -0.3939 -0.5243  0.6646
  149TCq2    O2 2268   1.452   0.266  10.425 -0.1134 -0.1116  0.1000
  149TCq2    C2 2269   1.416   0.183  10.210 -0.3049 -0.2965  0.1954
  149TCq2    C3 2270   1.548   0.192  10.174 -0.0984 -0.9336 -0.0937
  149TCq2    C4 2271   1.581   0.176  10.047 -0.5764  0.1917  0.5824
  149TCq2    C5 2272   1.481   0.161   9.956 -0.0182  0.2511 -0.1625
  149TCq2    C6 2273   1.350   0.167   9.999 -0.3151  0.0647  0.4182
  149TCq2    C7 2274   1.314   0.182  10.119  0.1474 -0.3257  0.1338
  149TCq2    C8 2275   1.246   0.117   9.908  0.4008  0.5480  0.1951
  149TCq2    O4 2276   1.155   0.057   9.969  0.4576 -0.0218 -0.0192
  149TCq2    C9 2277   1.723   0.145  10.023  0.0627 -0.3514  0.4629
  149TCq2    O5 2278   1.803   0.139  10.125 -0.4585  0.0901  0.1575
  149TCq2    O6 2279   1.745   0.105   9.905 -0.3728 -0.0191  0.6006
  149TCq2    H2 2280   1.625   0.198  10.249 -0.8802  0.4104  0.6146
  149TCq2    H3 2281   1.507   0.140   9.853  1.0651  0.4132  0.0792
  149TCq2    H4 2282   1.209   0.181  10.147  0.9543 -1.8576  3.1659
  150MPD2     C 2283   2.056   0.026  12.299 -1.0715 -0.4004  0.1821
  150MPD2    C1 2284   1.990   0.144  12.288  0.0553  0.2049  0.7981
  150MPD2    C2 2285   2.055   0.256  12.324 -0.0873  0.0476 -0.6606
  150MPD2    C3 2286   2.184   0.255  12.368  1.6478 -0.2242 -0.3509
  150MPD2    C4 2287   2.251   0.137  12.377 -0.0080  0.0928  0.4482
  150MPD2    C5 2288   2.187   0.022  12.347  0.2232  0.3408 -0.3258
  150MPD2     H 2289   2.012   0.353  12.300 -1.5814 -1.1555 -2.7970
  150MPD2    H1 2290   2.359   0.136  12.393  0.0893 -3.1283 -0.4805
  150MPD2    H2 2291   2.004   4.662  12.265  0.2275 -0.8434 -0.6543
  150MPD2    H3 2292   2.242   4.653  12.341 -1.1509 -0.5442  0.9126
  150MPD2     N 2293   2.257   0.372  12.392  0.5624 -0.6148  0.0649
  150MPD2    H5 2294   2.348   0.366  12.437  1.2748 -0.9920 -1.4236
  150MPD2    N1 2295   1.861   0.142  12.237  1.1201 -0.3867  0.0745
  150MPD2    H7 2296   1.817   0.055  12.208 -1.1332  0.3206  1.4284
  151TCq2    C1 2297   2.221   0.500  12.371  0.0010 -0.7907 -0.1738
  151TCq2    O2 2298   2.126   0.552  12.310 -0.8277 -0.4990  0.2356
  151TCq2    C2 2299   2.320   0.598  12.427  0.3639  0.2828  1.0773
  151TCq2    C3 2300   2.273   0.716  12.465  0.3994 -0.2146 -0.0245
  151TCq2    C4 2301   2.354   0.822  12.504  1.0361  0.4618 -0.5084
  151TCq2    C5 2302   2.490   0.796  12.509  0.9189 -0.6518  0.6527
  151TCq2    C6 2303   2.539   0.674  12.457  0.1603  0.1599 -0.0282
  151TCq2    C7 2304   2.456   0.575  12.417  0.0100  0.3293 -0.0670
  151TCq2    C8 2305   2.685   0.648  12.459  0.2761 -0.6091 -0.0695
  151TCq2    O4 2306   2.758   0.748  12.452 -0.2248 -0.2465  0.5784
  151TCq2    C9 2307   2.300   0.942  12.543  0.2125 -0.1223 -0.1497
  151TCq2    O5 2308   2.175   0.961  12.530  0.0533 -0.1007  0.7046
  151TCq2    O6 2309   2.378   1.025  12.600  0.0387 -0.9214  0.0537
  151TCq2    H2 2310   2.166   0.730  12.481  0.9233  1.5536  1.9483
  151TCq2    H3 2311   2.552   0.876  12.546 -1.3794  1.9998 -1.2090
  151TCq2    H4 2312   2.492   0.484  12.371  1.7176  0.5316  0.8658
  152MPD2     C 2313   1.529   4.464  12.775 -0.5853 -0.4803 -0.0654
  152MPD2    C1 2314   1.541   4.580  12.708  1.1274  0.8317  0.2756
  152MPD2    C2 2315   1.425   4.654  12.694  0.6354 -0.3737 -0.7437
  152MPD2    C3 2316   1.303   4.619  12.740 -0.1405  0.1510 -0.1884
  152MPD2    C4 2317   1.288   4.509  12.813 -0.1728 -0.3509  0.0950
  152MPD2    C5 2318   1.403   4.432  12.830  0.5158 -0.5406 -0.2870
  152MPD2     H 2319   1.414   0.029  12.652  1.3438 -0.5542 -1.3691
  152MPD2    H1 2320   1.188   4.472  12.831 -0.1327 -0.1869  0.6538
  152MPD2    H2 2321   1.610   4.394  12.791 -0.3560 -0.3292 -0.5770
  152MPD2    H3 2322   1.407   4.338  12.885  1.8236 -1.2352 -1.5875
  152MPD2     N 2323   1.188   4.697  12.705 -0.2981  0.2201 -0.3733
  152MPD2    H5 2324   1.207   0.045  12.637  2.2652 -1.6707 -1.6680
  152MPD2    N1 2325   1.667   4.607  12.654  0.0850 -0.0705  0.4098
  152MPD2    H7 2326   1.741   4.546  12.688  1.5689  0.8666 -1.1590
  153TCq2    C1 2327   1.690   4.719  12.576 -0.5809  0.8034  0.4083
  153TCq2    O2 2328   1.611   0.074  12.531  0.5630  0.0329  0.2472
  153TCq2    C2 2329   1.834   0.036  12.580 -0.3139 -0.2497  0.2662
  153TCq2    C3 2330   1.938   4.674  12.589 -0.2571  0.1507  0.1365
  153TCq2    C4 2331   2.062   4.710  12.635  0.2596  0.3403 -0.2669
  153TCq2    C5 2332   2.080   0.115  12.671  0.5120 -0.1795 -0.2707
  153TCq2    C6 2333   1.971   0.204  12.669  0.2741  0.0523  0.3695
  153TCq2    C7 2334   1.845   0.165  12.622  0.0540  0.4900 -0.7948
  153TCq2    C8 2335   1.973   0.344  12.708 -0.2094 -1.0793  0.2896
  153TCq2    O4 2336   1.877   0.412  12.679 -0.2945 -0.0719  0.0497
  153TCq2    C9 2337   2.163   4.604  12.650 -0.6093  0.3741  0.2924
  153TCq2    O5 2338   2.145   4.501  12.581  0.0565 -0.3967 -0.7717
  153TCq2    O6 2339   2.265   4.618  12.720 -0.0800  0.4467  0.8879
  153TCq2    H2 2340   1.924   4.571  12.557 -2.5452  0.4485  0.2315
  153TCq2    H3 2341   2.175   0.130  12.720  0.4724 -3.1943  0.7175
  153TCq2    H4 2342   1.763   0.236  12.633 -1.1137 -0.8814 -0.6136
  154MPD2     C 2343   3.415   0.087   0.631 -0.5322 -0.6623  0.4783
  154MPD2    C1 2344   3.438   4.715   0.724 -0.0941  0.0911 -0.4816
  154MPD2    C2 2345   3.353   4.697   0.832  0.4523 -0.0804  0.5120
  154MPD2    C3 2346   3.232   0.044   0.830 -0.3258 -0.0184  0.1893
  154MPD2    C4 2347   3.215   0.142   0.732 -0.1585  0.1782 -0.3510
  154MPD2    C5 2348   3.303   0.165   0.631 -1.0488 -0.3458  0.1141
  154MPD2     H 2349   3.366   4.612   0.898  1.6297 -0.2611  0.0405
  154MPD2    H1 2350   3.124   0.202   0.729 -0.7299 -0.6342  0.5688
  154MPD2    H2 2351   3.488   0.120   0.558 -0.3721  0.7220  1.2684
  154MPD2    H3 2352   3.284   0.233   0.549  4.5507  1.6994  0.5414
  154MPD2     N 2353   3.129   0.016   0.921 -0.2595 -0.0548  0.7269
  154MPD2    H5 2354   3.153   4.677   0.996  1.1806 -0.9114 -0.4750
  154MPD2    N1 2355   3.542   4.631   0.694  0.0532 -0.1410 -0.4415
  154MPD2    H7 2356   3.585   4.649   0.604  0.5481  0.2969 -0.1196
  155TCq2    C1 2357   3.577   4.512   0.759 -0.0113 -0.7462 -0.6031
  155TCq2    O2 2358   3.543   4.471   0.871 -0.1502  0.1297 -0.2220
  155TCq2    C2 2359   3.663   4.419   0.685 -0.6986  0.1903 -0.4411
  155TCq2    C3 2360   3.672   4.291   0.742 -0.1199  0.1619 -0.5355
  155TCq2    C4 2361   3.736   4.198   0.679  0.4456 -0.5033 -0.3367
  155TCq2    C5 2362   3.805   4.213   0.563  0.1839 -0.4015  0.4806
  155TCq2    C6 2363   3.784   4.336   0.503  0.3344 -0.1069  0.6721
  155TCq2    C7 2364   3.712   4.440   0.556 -0.4620  0.0199  0.2375
  155TCq2    C8 2365   3.855   4.355   0.374  0.1488 -0.4010  0.5879
  155TCq2    O4 2366   3.915   4.253   0.344 -0.0282  0.0017 -0.5294
  155TCq2    C9 2367   3.752   4.066   0.741  0.4410 -0.4140 -0.4929
  155TCq2    O5 2368   3.824   3.986   0.683 -0.3816  0.0144 -0.2414
  155TCq2    O6 2369   3.708   4.060   0.857 -0.6324  0.0633  0.8169
  155TCq2    H2 2370   3.643   4.273   0.845 -0.9937  1.6610 -0.5158
  155TCq2    H3 2371   3.872   4.140   0.520  2.8223 -0.5134  4.8723
  155TCq2    H4 2372   3.678   4.530   0.506  3.1786  0.6143 -1.1547
  156MPD2     C 2373   1.172   2.225  12.249 -0.0575  0.5731  0.7259
  156MPD2    C1 2374   1.294   2.276  12.212 -0.0726 -0.1233  0.1785
  156MPD2    C2 2375   1.404   2.260  12.296  0.1169  0.1112 -0.1307
  156MPD2    C3 2376   1.399   2.197  12.419  0.6190  0.4949 -0.8172
  156MPD2    C4 2377   1.276   2.145  12.458 -0.0143  0.8894  0.7530
  156MPD2    C5 2378   1.170   2.157  12.371 -0.0122  0.2950 -0.0292
  156MPD2     H 2379   1.498   2.287  12.249  0.5457  0.5965  1.0187
  156MPD2    H1 2380   1.271   2.103  12.558  1.6534 -0.7388  0.1647
  156MPD2    H2 2381   1.082   2.230  12.188  2.2705  0.1842 -2.7508
  156MPD2    H3 2382   1.072   2.128  12.408 -0.7520  1.2170 -1.2686
  156MPD2     N 2383   1.517   2.195  12.494 -0.0147 -0.5765  0.0388
  156MPD2    H5 2384   1.603   2.228  12.452 -0.4218  0.8254  0.2953
  156MPD2    N1 2385   1.297   2.328  12.079 -0.7875  0.1693  0.2892
  156MPD2    H7 2386   1.216   2.293  12.028  0.5140  1.0525 -2.3871
  157TCq2    C1 2387   1.401   2.397  12.023  0.7040 -0.2630 -0.7274
  157TCq2    O2 2388   1.510   2.430  12.065  0.3562  0.3445 -0.7483
  157TCq2    C2 2389   1.384   2.387  11.880  0.2922 -0.4684 -0.0881
  157TCq2    C3 2390   1.275   2.328  11.828  0.1206 -0.4655 -0.1947
  157TCq2    C4 2391   1.283   2.257  11.712  0.5366  0.3946 -0.8205
  157TCq2    C5 2392   1.403   2.253  11.647  0.1216  0.0203  0.6267
  157TCq2    C6 2393   1.509   2.311  11.694  0.4452 -0.6629 -0.1753
  157TCq2    C7 2394   1.509   2.379  11.819  0.1997 -0.8980 -0.2195
  157TCq2    C8 2395   1.628   2.326  11.601  0.1119  0.5628 -0.3834
  157TCq2    O4 2396   1.620   2.252  11.503 -0.6122  0.2008 -0.3823
  157TCq2    C9 2397   1.167   2.188  11.657  0.8289 -0.2801  0.3164
  157TCq2    O5 2398   1.188   2.131  11.545  0.5106  0.0630  0.6046
  157TCq2    O6 2399   1.058   2.187  11.715 -0.1735 -0.0696  0.0631
  157TCq2    H2 2400   1.176   2.325  11.872  0.2630 -0.3840  0.1312
  157TCq2    H3 2401   1.407   2.193  11.557 -0.7719 -1.7763  1.7747
  157TCq2    H4 2402   1.595   2.427  11.863 -0.4412 -0.0454  0.1042
  158TMC2    C1 2403   2.470   1.363  13.697  0.1175 -0.5791  0.0594
  158TMC2    C2 2404   2.538   1.441  13.608 -0.2195 -0.6241  0.7768
  158TMC2    C3 2405   2.466   1.517  13.524  0.4385 -0.2044 -0.0051
  158TMC2    C4 2406   2.334   1.363  13.701 -0.4034  0.2946 -0.7711
  158TMC2    C5 2407   2.264   1.440  13.612  0.2907 -0.2196  0.8949
  158TMC2    C6 2408   2.327   1.519  13.524  0.8596  0.3266  0.1904
  158TMC2     C 2409   2.544   1.260  13.753 -0.0721  0.1608  0.7601
  158TMC2     O 2410   2.653   1.229  13.707 -0.0989  0.7257 -0.7284
  158TMC2     H 2411   2.644   1.459  13.609 -0.1283 -1.0699 -0.9023
  158TMC2    H1 2412   2.278   1.285  13.753  1.9130 -0.4532  0.5989
  158TMC2    H2 2413   2.275   1.583  13.455 -0.9046 -1.4600 -0.1337
  158TMC2    C7 2414   2.119   1.469  13.617 -0.4890  0.2914 -0.0826
  158TMC2    C8 2415   2.542   1.579  13.417  0.3332 -0.2016  0.3598
  158TMC2    O1 2416   2.075   1.537  13.526 -0.9009 -0.4081 -0.5822
  158TMC2    O2 2417   2.629   1.524  13.359  0.1051 -0.1395 -0.0995
  158TMC2    O5 2418   2.544   1.702  13.476  1.0133 -0.1564  0.0276
  158TMC2    H5 2419   2.466   1.719  13.534  2.1877 -2.2626  2.2534
  159MPD2     C 2420   2.652   0.979  14.175 -0.0323  0.7934 -0.7813
  159MPD2    C1 2421   2.541   1.057  14.199  0.5135  0.0722 -0.1938
  159MPD2    C2 2422   2.482   1.134  14.101  1.0225  0.3740 -0.5981
  159MPD2    C3 2423   2.537   1.137  13.971 -0.2975 -0.0243  0.3878
  159MPD2    C4 2424   2.647   1.059  13.942  0.1017  0.6285 -0.4163
  159MPD2    C5 2425   2.699   0.982  14.048 -0.0314  0.0097  0.0354
  159MPD2     H 2426   2.394   1.194  14.117  0.2950 -1.0111  0.5846
  159MPD2    H1 2427   2.690   1.041  13.845  0.3533  0.9734 -0.3690
  159MPD2    H2 2428   2.690   0.913  14.253 -3.0572 -0.9194 -0.7528
  159MPD2    H3 2429   2.786   0.924  14.017 -0.1457  0.1776 -0.5986
  159MPD2     N 2430   2.483   1.228  13.875 -0.1511  0.1997  0.7158
  159MPD2    H5 2431   2.403   1.286  13.901 -2.9393 -3.2830 -0.1459
  159MPD2    N1 2432   2.492   1.046  14.331  0.0684  0.2033 -0.5269
  159MPD2    H7 2433   2.535   0.986  14.400  1.5035  1.7861 -0.0309
  160TMC2    C1 2434   1.647   3.537   1.531 -0.0943 -0.4132 -0.1275
  160TMC2    C2 2435   1.746   3.490   1.619  0.3804 -0.1337 -0.1057
  160TMC2    C3 2436   1.874   3.540   1.602  0.3090  0.2696  0.2176
  160TMC2    C4 2437   1.680   3.618   1.426 -0.6779 -0.0986 -0.1602
  160TMC2    C5 2438   1.813   3.657   1.409  0.7168  0.0534  0.1156
  160TMC2    C6 2439   1.914   3.615   1.493 -0.0081 -0.3926  1.1295
  160TMC2     C 2440   1.527   3.466   1.534  0.5029 -0.7155 -1.4639
  160TMC2     O 2441   1.525   3.343   1.556 -0.2540 -0.0696 -0.0180
  160TMC2     H 2442   1.719   3.424   1.701 -0.5331  0.5885  0.1781
  160TMC2    H1 2443   1.601   3.643   1.357 -0.0067  0.0543 -0.8651
  160TMC2    H2 2444   2.013   3.658   1.490  0.2247 -0.9067  1.3844
  160TMC2    C7 2445   1.837   3.770   1.322  0.3898 -0.7634  0.0691
  160TMC2    C8 2446   1.970   3.478   1.695  0.3227  0.5954 -0.2806
  160TMC2    O1 2447   1.742   3.820   1.277  0.8151 -0.0408 -0.3584
  160TMC2    O2 2448   1.981   3.513   1.811 -0.0304  0.7233  0.2457
  160TMC2    O5 2449   2.064   3.406   1.624 -0.0294  0.0890  0.3274
  160TMC2    H5 2450   2.041   3.373   1.534 -1.2873  0.9733  0.3232
  161MPD2     C 2451   1.241   3.412   1.460  0.5546 -0.2586  0.4951
  161MPD2    C1 2452   1.285   3.532   1.500 -0.1911  1.0115 -0.3771
  161MPD2    C2 2453   1.198   3.637   1.523 -0.1080  0.5678 -0.2039
  161MPD2    C3 2454   1.059   3.629   1.511 -1.2220 -0.0505 -0.7668
  161MPD2    C4 2455   1.015   3.506   1.463  0.2237  0.3455  1.0791
  161MPD2    C5 2456   1.103   3.404   1.433 -0.4225  0.1981  0.9643
  161MPD2     H 2457   1.242   3.732   1.553  0.7744  0.4205 -1.0264
  161MPD2    H1 2458   0.910   3.489   1.443  0.0550  1.8172  0.7434
  161MPD2    H2 2459   1.299   3.321   1.457 -0.6722 -0.9335 -2.6786
  161MPD2    H3 2460   1.059   3.314   1.392 -0.8389  0.2625  1.2768
  161MPD2     N 2461   0.970   3.736   1.545  0.1945 -0.2192  0.7349
  161MPD2    H5 2462   0.870   3.720   1.533  0.5247 -3.0807  1.7931
  161MPD2    N1 2463   1.426   3.553   1.532 -0.6240  0.1029  0.0675
  161MPD2    H7 2464   1.448   3.647   1.563  2.3373 -0.5126 -0.1578
  162TMC2    C1 2465   4.456   1.261   1.554 -0.1053 -0.4109 -0.6045
  162TMC2    C2 2466   4.416   1.383   1.507  0.1848 -0.6611 -0.0985
  162TMC2    C3 2467   4.319   1.447   1.582 -0.1808  0.2741 -0.2826
  162TMC2    C4 2468   4.411   1.197   1.671  0.0459  0.5140  0.4470
  162TMC2    C5 2469   4.305   1.262   1.727  1.0154 -0.5249  0.2790
  162TMC2    C6 2470   4.260   1.381   1.682 -0.7435  0.2846 -0.0754
  162TMC2     C 2471   4.569   1.214   1.484 -0.4014 -0.2727 -0.7173
  162TMC2     O 2472   4.577   1.237   1.363 -0.1432  0.1656  0.2418
  162TMC2     H 2473   4.451   1.430   1.416 -0.1507 -2.9175 -1.4030
  162TMC2    H1 2474   4.432   1.091   1.684  0.2430  0.1000 -3.2747
  162TMC2    H2 2475   4.176   1.425   1.735  0.0336 -0.7236  1.9577
  162TMC2    C7 2476   4.237   1.212   1.846 -0.5672  0.1919 -0.1383
  162TMC2    C8 2477   4.274   1.583   1.556 -0.2553  0.4493  0.4234
  162TMC2    O1 2478   4.128   1.259   1.874 -0.4265  0.1241  0.6755
  162TMC2    O2 2479   4.225   1.650   1.641  0.0441 -0.7528  0.5729
  162TMC2    O5 2480   4.254   1.603   1.420 -0.5876  0.0056 -0.3636
  162TMC2    H5 2481   4.287   1.531   1.363 -1.0277 -0.4949  0.0108
  163MPD2     C 2482   0.186   0.825   1.453 -0.0021 -0.1976 -0.8146
  163MPD2    C1 2483   0.149   0.915   1.360  0.0292 -0.6057 -0.2293
  163MPD2    C2 2484   0.057   1.013   1.391 -0.2635 -0.1843 -0.6580
  163MPD2    C3 2485   0.014   1.034   1.521 -0.4402 -0.0566 -0.5477
  163MPD2    C4 2486   0.058   0.940   1.615  0.0273 -0.2564 -0.0958
  163MPD2    C5 2487   0.138   0.839   1.583  0.5272  0.0456  0.0549
  163MPD2     H 2488   0.024   1.085   1.317 -2.9486  1.7711  2.4226
  163MPD2    H1 2489   0.030   0.945   1.720  0.6508  0.6219  0.0287
  163MPD2    H2 2490   0.262   0.749   1.436 -0.6269 -0.4363 -2.5584
  163MPD2    H3 2491   0.168   0.765   1.657  1.1592  2.0860  1.8155
  163MPD2     N 2492   4.642   1.126   1.562 -0.4206 -0.0403  0.3218
  163MPD2    H5 2493   4.614   1.120   1.659  0.0880 -0.0949  0.4666
  163MPD2    N1 2494   0.214   0.904   1.232 -0.3689  0.1311  0.0313
  163MPD2    H7 2495   0.292   0.839   1.233  0.2182  0.8072 -1.2372
  164TCq2    C1 2496   1.075   0.777  11.216 -0.5200 -0.5686 -0.1470
  164TCq2    O2 2497   1.092   0.869  11.142 -0.2700 -0.7846  0.3900
  164TCq2    C2 2498   0.986   0.786  11.331 -0.3736 -0.7439 -0.4159
  164TCq2    C3 2499   0.983   0.695  11.432 -0.0886  0.6320  0.3271
  164TCq2    C4 2500   0.907   0.733  11.540 -0.0245 -0.7620  1.0303
  164TCq2    C5 2501   0.821   0.842  11.539 -0.6758 -0.1767  0.3818
  164TCq2    C6 2502   0.829   0.925  11.438 -0.3296 -0.5010  0.1441
  164TCq2    C7 2503   0.908   0.903  11.327 -1.3295  0.4958  0.2966
  164TCq2    C8 2504   0.733   1.033  11.423  0.2662  0.9564  0.8562
  164TCq2    O4 2505   0.720   1.072  11.308  0.4513  0.1387 -0.2018
  164TCq2    C9 2506   0.927   0.660  11.661 -0.0787  0.0266  0.4149
  164TCq2    O5 2507   1.004   0.565  11.656  0.4191  0.2862  0.9707
  164TCq2    O6 2508   0.835   0.665  11.745  0.0970  0.2427  0.1126
  164TCq2    H2 2509   1.042   0.604  11.433 -1.7946 -0.4628  0.7163
  164TCq2    H3 2510   0.767   0.864  11.631  0.8090  0.8307  1.0003
  164TCq2    H4 2511   0.909   0.969  11.242 -0.2455  0.7880  0.5377
  165MPD2     C 2512   1.555   1.831   1.945 -0.4095 -0.0774  0.4581
  165MPD2    C1 2513   1.576   1.903   1.837  0.2272  0.3207  0.0005
  165MPD2    C2 2514   1.608   2.034   1.857  0.0597  0.0857 -0.4699
  165MPD2    C3 2515   1.636   2.082   1.986 -0.2614 -0.2788 -0.0890
  165MPD2    C4 2516   1.636   1.995   2.099  0.3127 -0.4097 -0.2779
  165MPD2    C5 2517   1.589   1.870   2.072 -0.0825  0.1111 -0.4256
  165MPD2     H 2518   1.623   2.104   1.776  1.2365  1.3021  0.8015
  165MPD2    H1 2519   1.674   2.026   2.196  1.8132 -0.3778 -0.8751
  165MPD2    H2 2520   1.525   1.727   1.939 -0.4368 -0.1866  2.2839
  165MPD2    H3 2521   1.582   1.804   2.158 -1.2007 -0.3749 -0.8879
  165MPD2     N 2522   1.667   2.217   2.011  0.2421 -0.2893  0.0953
  165MPD2    H5 2523   1.709   2.228   2.103 -2.2092  2.3130  0.8958
  165MPD2    N1 2524   1.560   1.843   1.710  0.0545 -0.3449  0.1454
  165MPD2    H7 2525   1.556   1.742   1.710  0.8272 -0.3904  2.4432
  166TCq2    C1 2526   1.663   2.328   1.929 -0.5192 -0.5015  0.0838
  166TCq2    O2 2527   1.630   2.339   1.808 -0.1648 -0.2563 -0.4204
  166TCq2    C2 2528   1.732   2.451   1.975 -0.6283 -0.5941 -0.2736
  166TCq2    C3 2529   1.752   2.464   2.104 -0.1116 -0.6210  0.2274
  166TCq2    C4 2530   1.850   2.545   2.146  0.3548 -0.4529  0.3514
  166TCq2    C5 2531   1.914   2.624   2.061 -0.8397  0.5359 -0.4145
  166TCq2    C6 2532   1.876   2.626   1.930 -0.6744  0.2883  0.2675
  166TCq2    C7 2533   1.781   2.540   1.879  0.7620  0.5730 -0.2488
  166TCq2    C8 2534   1.933   2.719   1.832  0.0493 -0.0146 -0.1953
  166TCq2    O4 2535   2.033   2.784   1.862 -0.1588  0.2517 -0.0089
  166TCq2    C9 2536   1.889   2.536   2.285 -0.3470 -0.6447  0.1591
  166TCq2    O5 2537   1.826   2.457   2.356  0.0663  0.2400 -0.5872
  166TCq2    O6 2538   1.992   2.593   2.319 -0.3552  0.9831 -0.3128
  166TCq2    H2 2539   1.689   2.412   2.175 -0.2924  0.9173  1.2009
  166TCq2    H3 2540   1.997   2.682   2.101  0.0426 -0.2981 -1.0335
  166TCq2    H4 2541   1.760   2.523   1.774 -1.1173 -0.4643  0.2914
  167TMC2    C1 2542   4.470   1.016  13.032 -0.2061 -0.0323 -0.3400
  167TMC2    C2 2543   4.333   1.016  13.057 -0.8518 -0.7199  0.7340
  167TMC2    C3 2544   4.296   0.936  13.165  0.0399 -0.6658 -0.1921
  167TMC2    C4 2545   4.560   0.944  13.103  0.8239  0.3556  0.0439
  167TMC2    C5 2546   4.520   0.865  13.206  0.4464 -0.2375  0.2756
  167TMC2    C6 2547   4.386   0.867  13.238  0.5134 -0.0968  0.3913
  167TMC2     C 2548   4.508   1.037  12.895  0.0188 -0.1090 -0.9709
  167TMC2     O 2549   4.602   0.964  12.858  0.0983 -0.1550  0.2611
  167TMC2     H 2550   4.257   1.066  12.999 -0.3647 -0.3060  0.4518
  167TMC2    H1 2551   4.667   0.955  13.089  1.0275 -0.0742  1.2512
  167TMC2    H2 2552   4.356   0.788  13.305 -0.2060 -0.5607 -0.4756
  167TMC2    C7 2553   4.585   0.734  13.227  0.5427  1.0488 -0.2726
  167TMC2    C8 2554   4.154   0.892  13.170  0.4235 -0.1285 -0.4024
  167TMC2    O1 2555   4.550   0.669  13.323  0.0982 -0.3942 -0.5088
  167TMC2    O2 2556   4.113   0.776  13.184  0.0924 -0.1762 -0.5070
  167TMC2    O5 2557   4.083   0.998  13.170  0.3233  0.6074 -0.3165
  167TMC2    H5 2558   4.125   1.087  13.175 -1.2265  1.2930  0.3002
  168MPD2     C 2559   4.387   1.315  12.674  0.2509  0.1111  0.0740
  168MPD2    C1 2560   4.458   1.199  12.708 -0.3083  0.4256  0.2959
  168MPD2    C2 2561   4.531   1.137  12.607  0.5724  0.0966 -0.0842
  168MPD2    C3 2562   4.533   1.183  12.474  0.8270 -0.9428 -0.0451
  168MPD2    C4 2563   4.470   1.304  12.453  0.5539 -0.0759 -0.2195
  168MPD2    C5 2564   4.395   1.360  12.548  0.2182 -0.4324 -0.7608
  168MPD2     H 2565   4.584   1.047  12.637 -2.8513 -1.0742  2.5763
  168MPD2    H1 2566   4.480   1.359  12.361  0.1601  1.9631  0.9653
  168MPD2    H2 2567   4.322   1.377  12.734 -0.4305  0.6664 -1.2372
  168MPD2    H3 2568   4.340   1.451  12.529  1.4539  0.2763 -0.9154
  168MPD2     N 2569   4.601   1.116  12.370 -0.1202  0.0303 -0.1630
  168MPD2    H5 2570   4.612   1.167  12.283  3.3352 -0.6350 -0.1163
  168MPD2    N1 2571   4.444   1.145  12.838 -0.4707  0.0960 -0.1005
  168MPD2    H7 2572   4.380   1.195  12.898 -0.2380 -0.3214  0.4908
  169MPD1     C 2573   3.095   3.880  10.304  0.1369  0.0268 -0.0295
  169MPD1    C1 2574   3.056   3.760  10.257 -0.1279 -0.1516 -0.6337
  169MPD1    C2 2575   3.083   3.721  10.131 -0.4907  0.3993  0.4975
  169MPD1    C3 2576   3.143   3.807  10.035 -0.0063 -0.0873 -0.1044
  169MPD1    C4 2577   3.202   3.921  10.094 -0.2874  0.3233  0.1498
  169MPD1    C5 2578   3.180   3.949  10.224 -0.0340 -0.0382 -0.0131
  169MPD1     H 2579   3.039   3.626  10.102  0.5799  0.6946 -2.1047
  169MPD1    H1 2580   3.258   3.997  10.042 -0.1321 -0.9913 -1.6252
  169MPD1    H2 2581   3.070   3.912  10.405 -1.3760 -0.5925 -0.2186
  169MPD1    H3 2582   3.219   4.044  10.259  1.1875 -0.6569  0.2681
  169MPD1     N 2583   3.146   3.763   9.902  1.2043 -0.5716  0.1901
  169MPD1    H5 2584   3.096   3.676   9.884  0.2342  0.6650 -3.0070
  169MPD1    N1 2585   2.989   3.683  10.354  0.1734 -0.3902 -0.2244
  169MPD1    H6 2586   2.927   3.618  10.307  1.9521 -2.2367 -0.0082
  169MPD1    H7 2587   2.931   3.741  10.414  0.1236  2.1612 -2.7590
  170MPD1     C 2588   0.109   2.954  13.027  0.6175 -0.1031 -0.6818
  170MPD1    C1 2589   0.052   2.945  13.149 -0.1046 -0.1073 -0.6913
  170MPD1    C2 2590   0.117   3.005  13.257 -0.2161  0.2027 -0.1841
  170MPD1    C3 2591   0.235   3.073  13.237  0.0922 -0.4685 -0.1631
  170MPD1    C4 2592   0.286   3.088  13.110  0.0235 -1.1282 -0.0504
  170MPD1    C5 2593   0.223   3.027  13.005 -0.2089  0.1873 -0.3677
  170MPD1     H 2594   0.085   2.985  13.359  1.2832  0.5613  0.3624
  170MPD1    H1 2595   0.377   3.143  13.088 -1.8755  0.7291 -3.2641
  170MPD1    H2 2596   0.059   2.917  12.938 -3.9633  1.5022  1.2081
  170MPD1    H3 2597   0.269   3.050  12.910 -0.5866 -0.9522 -0.8328
  170MPD1     N 2598   0.308   3.112  13.347  0.5720 -0.1820  0.5449
  170MPD1    H5 2599   0.264   3.108  13.438 -2.6464  0.6483 -0.9835
  170MPD1    N1 2600   4.669   2.856  13.172  0.6307  0.3887 -0.2388
  170MPD1    H6 2601   4.612   2.839  13.090  1.5945 -1.9595 -0.4034
  170MPD1    H7 2602   4.612   2.894  13.248  1.4341 -0.6996  0.9031
  171MPD1     C 2603   4.316   4.373  15.392  0.6959  0.0258 -0.1487
  171MPD1    C1 2604   4.438   4.301  15.401  0.4863 -0.0216 -0.5494
  171MPD1    C2 2605   4.433   4.173  15.454  0.0872 -0.0008 -0.4964
  171MPD1    C3 2606   4.317   4.099  15.478  1.1445 -0.4040  0.0825
  171MPD1    C4 2607   4.200   4.170  15.461 -0.1242  0.2866 -0.0616
  171MPD1    C5 2608   4.198   4.302  15.416 -0.0942  0.2961  0.1105
  171MPD1     H 2609   4.530   4.125  15.456 -0.5081 -1.1764  1.0411
  171MPD1    H1 2610   4.109   4.128  15.503  0.9697 -1.3058  0.7117
  171MPD1    H2 2611   4.305   4.474  15.353  0.0351 -0.6346 -1.6959
  171MPD1    H3 2612   4.109   4.361  15.403 -0.6263 -0.4503  0.3672
  171MPD1     N 2613   4.320   3.968  15.539  0.0508 -0.4215 -0.0968
  171MPD1    H5 2614   4.232   3.922  15.557 -0.4435  0.1704 -0.9762
  171MPD1    N1 2615   4.557   4.382  15.382 -0.0350 -0.9783  0.5678
  171MPD1    H6 2616   4.540   4.454  15.312  1.6959 -0.5845  0.5528
  171MPD1    H7 2617   4.640   4.332  15.353  0.9153 -0.4168  2.3344
  172MPD1     C 2618   4.118   3.874   1.487 -0.4872 -0.5103 -0.7282
  172MPD1    C1 2619   3.993   3.841   1.539  0.4930  0.1836 -1.1064
  172MPD1    C2 2620   3.888   3.805   1.455 -0.1027  1.1633 -0.4943
  172MPD1    C3 2621   3.913   3.797   1.317 -0.1443  0.5602  0.0423
  172MPD1    C4 2622   4.036   3.836   1.271  0.0159  0.6733 -0.1440
  172MPD1    C5 2623   4.139   3.868   1.358  0.0373 -0.1308  0.1473
  172MPD1     H 2624   3.797   3.767   1.500  0.5011  0.6128  0.2659
  172MPD1    H1 2625   4.062   3.841   1.166  0.8263  0.9397  0.0708
  172MPD1    H2 2626   4.199   3.906   1.552 -0.1181 -1.0750 -0.9027
  172MPD1    H3 2627   4.240   3.892   1.327  0.1321 -0.0116  0.5370
  172MPD1     N 2628   3.817   3.750   1.225 -0.3535 -0.3739 -0.5264
  172MPD1    H5 2629   3.847   3.756   1.129  1.5002  0.8601  0.1384
  172MPD1    N1 2630   3.971   3.853   1.675  0.5725  0.6603  0.0101
  172MPD1    H6 2631   4.055   3.861   1.733  0.5173  1.9110 -0.0897
  172MPD1    H7 2632   3.921   3.772   1.710  3.3226  0.0742  2.5409
  173MPD1     C 2633   4.650   3.644  13.742  0.1558 -0.1159 -0.5422
  173MPD1    C1 2634   4.719   3.531  13.712 -0.0186  0.5350  0.5584
  173MPD1    C2 2635   4.697   3.422  13.787 -0.1045  0.0059 -0.1155
  173MPD1    C3 2636   4.588   3.411  13.873 -0.2101 -0.0938 -0.3390
  173MPD1    C4 2637   4.506   3.518  13.884 -0.2842  0.0786  1.1395
  173MPD1    C5 2638   4.546   3.635  13.830 -0.2552  0.1854  0.3118
  173MPD1     H 2639   0.031   3.333  13.766 -0.2927  0.2644 -1.7501
  173MPD1    H1 2640   4.411   3.514  13.937  0.2824 -0.0745  2.1529
  173MPD1    H2 2641   4.662   3.740  13.693  0.6158  0.0881 -0.0308
  173MPD1    H3 2642   4.486   3.724  13.839 -0.1368  0.6673 -3.7067
  173MPD1     N 2643   4.572   3.291  13.944 -0.2502 -0.5684  0.5819
  173MPD1    H5 2644   4.637   3.214  13.929 -0.6734 -0.7580 -0.3013
  173MPD1    N1 2645   0.115   3.542  13.643  0.1563  0.2945 -0.1554
  173MPD1    H6 2646   0.139   3.458  13.592 -1.9083 -1.0842  1.1582
  173MPD1    H7 2647   0.121   3.621  13.579 -0.2550  0.7032  0.3099
  174MPD1     C 2648   4.657   2.331  13.949 -0.0682  0.3000 -0.2742
  174MPD1    C1 2649   4.554   2.405  13.894  0.3815  0.0399  1.2126
  174MPD1    C2 2650   4.521   2.531  13.944 -0.3889  0.4858 -0.4834
  174MPD1    C3 2651   4.598   2.578  14.045  1.0148 -0.5306  0.4869
  174MPD1    C4 2652   4.692   2.505  14.107  0.5935 -0.4384 -0.5250
  174MPD1    C5 2653   0.001   2.381  14.061 -0.6490  0.0107  1.1564
  174MPD1     H 2654   4.451   2.583  13.880  2.5416  2.8948 -1.7450
  174MPD1    H1 2655   0.020   2.553  14.188  0.1895  0.9568 -1.0744
  174MPD1    H2 2656   4.678   2.231  13.912  0.5707  0.0124  0.8756
  174MPD1    H3 2657   0.074   2.323  14.115  0.3615  1.1151  0.9928
  174MPD1     N 2658   4.586   2.708  14.102 -0.0683  0.4066 -0.0723
  174MPD1    H5 2659   4.645   2.734  14.181  0.5244 -1.5422  0.1144
  174MPD1    N1 2660   4.481   2.344  13.792  0.5704  0.2178  0.5526
  174MPD1    H6 2661   4.416   2.410  13.749  0.8087 -0.5089 -0.9100
  174MPD1    H7 2662   4.551   2.315  13.725  1.5586 -0.0608  1.7019
  175MPD1     C 2663   3.098   3.753  15.794 -0.1515 -0.4185  0.4865
  175MPD1    C1 2664   3.232   3.726  15.809 -1.0439 -0.0133  0.0340
  175MPD1    C2 2665   3.266   3.678  15.932  0.2494  0.2573  0.5057
  175MPD1    C3 2666   3.172   3.666  16.041  0.4272 -0.4148  0.5954
  175MPD1    C4 2667   3.040   3.701  16.021  0.0076 -0.0105 -1.1381
  175MPD1    C5 2668   3.011   3.743  15.897  0.5663 -0.4309  0.4403
  175MPD1     H 2669   3.372   3.667  15.954  0.5120  0.0524 -0.8752
  175MPD1    H1 2670   2.966   3.702  16.101  1.4994 -1.4369  0.2775
  175MPD1    H2 2671   3.060   3.787  15.698 -1.9803 -0.9095  1.0377
  175MPD1    H3 2672   2.909   3.776  15.882  0.1873 -1.3930  0.8960
  175MPD1     N 2673   3.218   3.622  16.174 -0.5235 -0.3494 -0.1876
  175MPD1    H5 2674   3.152   3.635  16.251 -1.6541 -2.1093 -0.8795
  175MPD1    N1 2675   3.330   3.746  15.712  0.0133 -0.0309 -0.2452
  175MPD1    H6 2676   3.297   3.701  15.627 -0.2948 -0.8915  0.3319
  175MPD1    H7 2677   3.419   3.702  15.737  0.3075  1.0367  0.5837
  176MPD1     C 2678   3.753   1.871  17.233 -0.3255 -0.6344 -0.3313
  176MPD1    C1 2679   3.833   1.953  17.306  0.7163  0.1509  0.4991
  176MPD1    C2 2680   3.945   1.900  17.370 -0.1508 -0.0040 -0.1505
  176MPD1    C3 2681   3.979   1.767  17.352  1.3229 -0.7221  0.0737
  176MPD1    C4 2682   3.892   1.689  17.276 -0.3042  0.1630 -0.5845
  176MPD1    C5 2683   3.782   1.745  17.218  0.8847 -0.1558  0.5532
  176MPD1     H 2684   4.000   1.964  17.437  1.2244 -1.3663  0.0229
  176MPD1    H1 2685   3.900   1.581  17.263 -0.5704  0.1695 -0.7927
  176MPD1    H2 2686   3.656   1.911  17.203 -0.0865  0.3471  0.2349
  176MPD1    H3 2687   3.711   1.681  17.166 -0.3336  2.3666 -0.8559
  176MPD1     N 2688   4.088   1.703  17.419  0.6367 -0.0046 -0.4652
  176MPD1    H5 2689   4.141   1.755  17.488 -0.7810  1.8279 -0.7410
  176MPD1    N1 2690   3.796   2.088  17.326  0.1715 -0.1945 -0.5308
  176MPD1    H6 2691   3.751   2.129  17.245  2.9156  2.4835 -0.7008
  176MPD1    H7 2692   3.877   2.146  17.348 -0.4127 -0.9435  3.5763
  177MPD1     C 2693   3.558   1.234  10.111 -0.4703  0.4719 -0.1969
  177MPD1    C1 2694   3.580   1.112  10.049  0.2025  1.0370 -0.7265
  177MPD1    C2 2695   3.477   1.062   9.973  0.7877  0.3096 -0.7359
  177MPD1    C3 2696   3.361   1.130   9.957 -1.2009 -0.0355 -0.2664
  177MPD1    C4 2697   3.344   1.256  10.025  0.0560 -0.0029  0.3257
  177MPD1    C5 2698   3.445   1.306  10.099  0.2720  0.1219 -0.6740
  177MPD1     H 2699   3.486   0.967   9.922  4.2633  1.0575 -1.5645
  177MPD1    H1 2700   3.247   1.304  10.034  0.9763  1.7552  0.8110
  177MPD1    H2 2701   3.643   1.267  10.169  1.1873 -1.1501 -1.7231
  177MPD1    H3 2702   3.443   1.397  10.158  0.5255  0.0431 -0.5400
  177MPD1     N 2703   3.258   1.067   9.880 -0.1878  0.3468  0.4310
  177MPD1    H5 2704   3.277   0.974   9.844 -0.6976  1.0381 -1.6314
  177MPD1    N1 2705   3.693   1.035  10.084  0.3124 -0.5353 -0.4835
  177MPD1    H6 2706   3.765   1.083  10.138 -1.6403  1.9705 -0.1584
  177MPD1    H7 2707   3.731   0.988  10.002 -2.0255 -2.7083 -0.3109
  178MPD1     C 2708   0.594   2.556   0.575  0.2150  0.1082 -0.9457
  178MPD1    C1 2709   0.521   2.477   0.486  0.0471  0.1476  0.8705
  178MPD1    C2 2710   0.589   2.410   0.391 -0.3699  0.1513  0.5870
  178MPD1    C3 2711   0.731   2.396   0.386  0.4909 -0.3174 -0.4448
  178MPD1    C4 2712   0.799   2.464   0.482  0.1690  0.3589 -0.2457
  178MPD1    C5 2713   0.727   2.538   0.576  0.2629 -0.0205 -0.4192
  178MPD1     H 2714   0.536   2.362   0.310 -0.4599 -1.2912  1.4968
  178MPD1    H1 2715   0.907   2.474   0.485  0.3977 -2.2798 -0.0419
  178MPD1    H2 2716   0.545   2.613   0.654  2.2974 -0.7282  0.9414
  178MPD1    H3 2717   0.783   2.602   0.644 -1.0872 -0.7279  1.3500
  178MPD1     N 2718   0.799   2.333   0.279 -0.4976  0.5624  0.1899
  178MPD1    H5 2719   0.898   2.356   0.286 -0.3970  0.3839 -0.6994
  178MPD1    N1 2720   0.380   2.496   0.478  0.8136  0.3287  0.1877
  178MPD1    H6 2721   0.335   2.415   0.437  0.5564 -0.0282  1.1782
  178MPD1    H7 2722   0.343   2.514   0.572  1.1889 -1.4162  0.6723
  179MPD1     C 2723   0.725   4.212  15.362  0.0964 -1.3579 -0.4910
  179MPD1    C1 2724   0.783   4.202  15.483  0.3913  0.0416  0.0683
  179MPD1    C2 2725   0.744   4.289  15.586 -0.3341 -0.4609 -0.3868
  179MPD1    C3 2726   0.648   4.381  15.563  0.3538  0.4880  0.1052
  179MPD1    C4 2727   0.597   4.395  15.440 -0.1793 -0.2903 -0.5240
  179MPD1    C5 2728   0.631   4.311  15.343 -0.1469 -0.0866  0.4371
  179MPD1     H 2729   0.787   4.276  15.684 -0.3900 -2.0458 -0.5802
  179MPD1    H1 2730   0.525   4.473  15.418 -1.4282 -1.4263 -0.4734
  179MPD1    H2 2731   0.750   4.159  15.271  2.8846 -0.7287 -0.0723
  179MPD1    H3 2732   0.581   4.319  15.248 -2.4518 -0.2057  1.6347
  179MPD1     N 2733   0.590   4.471  15.664  0.3415  0.4056 -0.1481
  179MPD1    H5 2734   0.523   4.542  15.639 -1.2023 -0.7953  0.5372
  179MPD1    N1 2735   0.883   4.108  15.515  0.2870  0.7930 -0.2893
  179MPD1    H6 2736   0.867   4.073  15.609  2.5558  1.5202  0.3700
  179MPD1    H7 2737   0.866   4.023  15.462 -1.9572  0.9023  0.2869
  180MPD1     C 2738   0.530   1.497  15.556 -0.2480  0.6064  0.2900
  180MPD1    C1 2739   0.631   1.517  15.469  0.4148 -0.6622 -0.5421
  180MPD1    C2 2740   0.597   1.530  15.338  0.1513 -0.0213  0.6250
  180MPD1    C3 2741   0.463   1.509  15.299  0.5792 -0.5934  0.7534
  180MPD1    C4 2742   0.365   1.477  15.387  0.8983  0.2991 -0.2112
  180MPD1    C5 2743   0.405   1.459  15.516  0.3283  0.7910  0.5258
  180MPD1     H 2744   0.671   1.550  15.262 -2.0712 -0.4224 -1.6495
  180MPD1    H1 2745   0.261   1.456  15.364  1.5195 -1.0977 -1.7603
  180MPD1    H2 2746   0.560   1.495  15.661  1.1060  1.2516 -0.0861
  180MPD1    H3 2747   0.330   1.442  15.593  1.2791 -0.5799  1.1375
  180MPD1     N 2748   0.435   1.534  15.158 -0.1063 -0.2901 -0.7390
  180MPD1    H5 2749   0.515   1.572  15.108  0.3581  0.1487  0.3348
  180MPD1    N1 2750   0.755   1.567  15.523 -0.0553 -0.4360 -0.5696
  180MPD1    H6 2751   0.790   1.518  15.605 -0.1558 -1.3962 -1.0976
  180MPD1    H7 2752   0.828   1.562  15.453 -0.4335  0.1433 -1.0129
  181MPD1     C 2753   2.516   3.394   9.756 -0.0411  0.1017  0.3946
  181MPD1    C1 2754   2.617   3.478   9.717  0.4660 -0.1532 -0.4456
  181MPD1    C2 2755   2.740   3.447   9.761 -0.0934 -0.1935  0.8675
  181MPD1    C3 2756   2.769   3.327   9.833 -0.0566  0.2724  0.1803
  181MPD1    C4 2757   2.667   3.244   9.861 -0.1663 -0.7893  0.1613
  181MPD1    C5 2758   2.541   3.283   9.824 -0.1361  0.1303 -0.5904
  181MPD1     H 2759   2.815   3.524   9.742 -0.6591 -0.1941 -1.3312
  181MPD1    H1 2760   2.689   3.151   9.912 -0.4704 -0.4371  0.9214
  181MPD1    H2 2761   2.413   3.414   9.729  0.9145  4.4529 -0.0910
  181MPD1    H3 2762   2.450   3.230   9.849 -0.4641  0.4941 -1.0036
  181MPD1     N 2763   2.901   3.288   9.858  0.2543 -0.2836 -0.0361
  181MPD1    H5 2764   2.923   3.195   9.892  1.3942  0.2544  0.7122
  181MPD1    N1 2765   2.594   3.607   9.672  0.0697  0.4541  0.3141
  181MPD1    H6 2766   2.670   3.640   9.613 -0.9433  1.8115 -0.2367
  181MPD1    H7 2767   2.503   3.610   9.626 -0.1613  0.6748  0.7759
  182MPD1     C 2768   3.030   1.943   1.560  0.3428 -0.2995 -0.2291
  182MPD1    C1 2769   3.070   1.871   1.449 -0.9218  0.8224 -0.0666
  182MPD1    C2 2770   2.999   1.904   1.333 -0.2840  0.2630 -0.2135
  182MPD1    C3 2771   2.884   1.995   1.336 -0.5827  0.1367 -0.3979
  182MPD1    C4 2772   2.851   2.059   1.455 -0.4289 -0.0138  1.2348
  182MPD1    C5 2773   2.931   2.035   1.566 -0.3452 -0.1398 -1.0413
  182MPD1     H 2774   3.036   1.859   1.242 -2.0585  1.0958 -1.3548
  182MPD1    H1 2775   2.767   2.128   1.459  1.4801  2.1773  3.2310
  182MPD1    H2 2776   3.090   1.946   1.650  0.1440 -1.6450 -0.0573
  182MPD1    H3 2777   2.918   2.085   1.661  0.0008 -1.3299 -0.3502
  182MPD1     N 2778   2.807   2.016   1.222 -0.2330  0.1365  0.1851
  182MPD1    H5 2779   2.724   2.072   1.239  1.1975  1.8940  1.4009
  182MPD1    N1 2780   3.190   1.803   1.447  0.0189  0.1058 -0.3422
  182MPD1    H6 2781   3.198   1.727   1.380  1.7574  1.0875 -1.2183
  182MPD1    H7 2782   3.222   1.766   1.536 -1.0165 -0.4411 -0.1966
  183MPD1     C 2783   2.713   1.500   9.716  0.4599  1.0192  0.5690
  183MPD1    C1 2784   2.834   1.513   9.657  0.2126  0.2030 -0.3214
  183MPD1    C2 2785   2.869   1.637   9.602 -0.0628 -0.5231  0.3113
  183MPD1    C3 2786   2.781   1.744   9.608  0.4484 -0.3610  0.1727
  183MPD1    C4 2787   2.650   1.725   9.663 -0.3927 -0.6682 -0.2793
  183MPD1    C5 2788   2.624   1.603   9.720 -0.1577  0.5498 -0.1570
  183MPD1     H 2789   2.971   1.655   9.568  0.0472  0.0008  0.9187
  183MPD1    H1 2790   2.580   1.807   9.672  0.1548 -0.2131 -0.1844
  183MPD1    H2 2791   2.679   1.409   9.765 -0.7853 -0.2911 -2.7373
  183MPD1    H3 2792   2.530   1.591   9.773 -0.1809 -0.5709 -0.4472
  183MPD1     N 2793   2.823   1.866   9.550  0.0242 -0.0274 -0.2147
  183MPD1    H5 2794   2.923   1.868   9.533 -0.2425  2.0886 -1.6173
  183MPD1    N1 2795   2.928   1.419   9.660  0.0419  0.1222 -0.2905
  183MPD1    H6 2796   3.011   1.426   9.602 -0.8022  0.3113 -1.4793
  183MPD1    H7 2797   2.879   1.333   9.637 -2.5486  2.2764 -2.8701
  184MPD1     C 2798   3.200   4.719  10.672  0.2454  0.2456  0.5194
  184MPD1    C1 2799   3.231   0.129  10.670  0.0492  0.0153  0.0887
  184MPD1    C2 2800   3.139   0.211  10.604  0.4409  0.0652 -0.0428
  184MPD1    C3 2801   3.031   0.158  10.531  0.1118  0.5328  0.1109
  184MPD1    C4 2802   3.002   0.023  10.538  0.5431  0.3958  0.2171
  184MPD1    C5 2803   3.088   4.665  10.618  0.8107  0.0115  0.5010
  184MPD1     H 2804   3.160   0.317  10.607 -0.5951  0.2887 -0.7640
  184MPD1    H1 2805   2.918   4.712  10.478 -1.2909  2.8494  1.2914
  184MPD1    H2 2806   3.262   4.652  10.730  0.2906  0.7735  1.0858
  184MPD1    H3 2807   3.069   4.559  10.625 -0.7323  0.1575 -1.5361
  184MPD1     N 2808   2.949   0.247  10.455 -0.5401  0.4012 -0.5321
  184MPD1    H5 2809   2.872   0.198  10.410 -1.9835  3.0646 -0.9510
  184MPD1    N1 2810   3.333   0.180  10.752  0.1649  0.4998 -0.2724
  184MPD1    H6 2811   3.411   0.116  10.743  0.1793  0.6057 -0.8736
  184MPD1    H7 2812   3.365   0.273  10.724  2.4639 -0.3672 -0.4551
  185MPD1     C 2813   2.129   0.719  10.632  0.3160 -0.2332  0.0041
  185MPD1    C1 2814   2.147   0.582  10.600  0.5303  0.1850 -0.5654
  185MPD1    C2 2815   2.271   0.543  10.551  0.3328 -0.4688  0.0470
  185MPD1    C3 2816   2.370   0.644  10.517  0.4732  0.2041  0.6561
  185MPD1    C4 2817   2.343   0.775  10.544  0.1977  0.0849  0.3203
  185MPD1    C5 2818   2.221   0.813  10.595 -0.2768 -0.4725 -0.6211
  185MPD1     H 2819   2.291   0.437  10.541 -2.3085 -0.9961  0.3307
  185MPD1    H1 2820   2.414   0.842  10.496 -1.4696  0.6585 -1.3370
  185MPD1    H2 2821   2.035   0.756  10.672  0.3512 -1.5937  1.3842
  185MPD1    H3 2822   2.197   0.918  10.606  0.0805 -0.6900  2.1107
  185MPD1     N 2823   2.490   0.614  10.446 -0.4043  0.1319 -0.1448
  185MPD1    H5 2824   2.563   0.683  10.456  0.3352 -0.8432  1.1836
  185MPD1    N1 2825   2.054   0.486  10.650 -0.4791  0.3217 -1.2285
  185MPD1    H6 2826   2.059   0.396  10.604  1.3199 -0.0931 -0.2155
  185MPD1    H7 2827   1.958   0.520  10.646 -0.8208 -0.6643 -1.4671
  186MPD1     C 2828   0.467   0.239  15.929 -0.1100 -0.1910 -0.6553
  186MPD1    C1 2829   0.371   0.338  15.954 -0.3201 -0.2978 -0.3241
  186MPD1    C2 2830   0.392   0.423  16.061  0.4906  0.4609  0.5016
  186MPD1    C3 2831   0.500   0.409  16.144 -0.3395  0.1586 -0.9607
  186MPD1    C4 2832   0.581   0.297  16.130 -0.0084 -0.4975 -0.5089
  186MPD1    C5 2833   0.570   0.227  16.012  0.1628  0.1751  0.2581
  186MPD1     H 2834   0.330   0.511  16.077 -1.6108 -1.1714  1.2912
  186MPD1    H1 2835   0.654   0.269  16.205 -1.9459 -2.2247  0.7415
  186MPD1    H2 2836   0.458   0.172  15.845 -0.1396 -2.4563  1.1364
  186MPD1    H3 2837   0.645   0.153  15.987 -0.9705 -1.0734  0.5547
  186MPD1     N 2838   0.526   0.491  16.258 -0.1146  0.0334 -0.2622
  186MPD1    H5 2839   0.616   0.466  16.297 -0.9700 -2.5851  0.0969
  186MPD1    N1 2840   0.293   0.376  15.845  0.0647  0.1496 -0.1670
  186MPD1    H6 2841   0.207   0.417  15.881  0.1957 -0.7307  1.1432
  186MPD1    H7 2842   0.269   0.300  15.782 -0.9865  0.7101 -0.4346
  187MPD1     C 2843   3.969   3.006   0.159 -0.2715 -0.5298 -0.1702
  187MPD1    C1 2844   3.912   2.882   0.126  0.8068  0.0112 -0.4679
  187MPD1    C2 2845   4.003   2.777   0.103 -0.5112  0.7885 -0.2012
  187MPD1    C3 2846   4.141   2.803   0.090 -0.2097 -0.5827 -0.4213
  187MPD1    C4 2847   4.188   2.932   0.112  0.1259 -1.1524  0.4563
  187MPD1    C5 2848   4.101   3.032   0.143 -0.4961 -0.0610 -0.4835
  187MPD1     H 2849   3.972   2.674   0.093  0.6156  0.3997  0.3537
  187MPD1    H1 2850   4.290   2.969   0.112 -0.2646 -0.0478  3.2858
  187MPD1    H2 2851   3.906   3.089   0.189 -2.9684 -2.6932  0.1299
  187MPD1    H3 2852   4.143   3.130   0.164 -0.2352  0.0347 -1.4366
  187MPD1     N 2853   4.234   2.699   0.053  0.2824 -0.2379  0.2319
  187MPD1    H5 2854   4.323   2.737   0.023  1.1352 -1.9910  0.5331
  187MPD1    N1 2855   3.780   2.851   0.138 -0.3541  0.0783 -0.0602
  187MPD1    H6 2856   3.717   2.931   0.147 -1.1629 -0.2877 -2.5602
  187MPD1    H7 2857   3.743   2.790   0.066  1.1208  0.8212 -1.4410
  188MPD1     C 2858   0.164   1.639  10.917 -0.3958 -0.6143  0.4296
  188MPD1    C1 2859   0.278   1.572  10.883  1.1393  0.3291 -0.0415
  188MPD1    C2 2860   0.280   1.504  10.760  0.1096  0.0470  0.1985
  188MPD1    C3 2861   0.183   1.525  10.668 -0.7492  0.0948  0.2442
  188MPD1    C4 2862   0.075   1.604  10.702  0.0524 -0.0612 -1.0782
  188MPD1    C5 2863   0.066   1.656  10.830 -0.5239  0.6148 -0.2648
  188MPD1     H 2864   0.373   1.451  10.741  0.6951  1.3885 -0.6721
  188MPD1    H1 2865   0.004   1.647  10.632 -0.9627 -0.7571 -0.4827
  188MPD1    H2 2866   0.161   1.695  11.010 -0.7188  0.1286 -0.0254
  188MPD1    H3 2867   4.715   1.728  10.857 -0.5157  0.3914  0.3507
  188MPD1     N 2868   0.193   1.471  10.537 -0.7195  0.0073  0.5036
  188MPD1    H5 2869   0.112   1.482  10.476  1.5715  3.4885 -1.8850
  188MPD1    N1 2870   0.386   1.556  10.972 -0.6279 -0.9919 -0.3779
  188MPD1    H6 2871   0.474   1.543  10.923 -1.4785  0.2994 -2.2601
  188MPD1    H7 2872   0.398   1.630  11.040 -1.9768 -3.3271  2.4013
  189MPD1     C 2873   2.240   2.140   0.397  0.0723 -0.6226  0.1822
  189MPD1    C1 2874   2.202   2.109   0.528 -0.1896 -0.6189  0.7640
  189MPD1    C2 2875   2.118   2.188   0.598  0.0954 -0.5860 -0.0415
  189MPD1    C3 2876   2.072   2.307   0.544  0.1703 -0.2944 -0.5376
  189MPD1    C4 2877   2.097   2.339   0.411 -0.2608  0.0189  0.1104
  189MPD1    C5 2878   2.187   2.253   0.338  0.5146 -0.4132  0.2007
  189MPD1     H 2879   2.092   2.170   0.701 -1.7788  0.1175 -0.3768
  189MPD1    H1 2880   2.061   2.428   0.361 -0.4592 -1.6598 -2.7725
  189MPD1    H2 2881   2.289   2.073   0.326 -0.1367 -0.3326 -0.2368
  189MPD1    H3 2882   2.204   2.277   0.234 -1.1096 -2.2397 -0.4944
  189MPD1     N 2883   1.978   2.387   0.616  0.0465 -0.3223 -0.1571
  189MPD1    H5 2884   1.963   2.364   0.714  0.3884  2.7264  0.6079
  189MPD1    N1 2885   2.216   1.981   0.577 -0.2115 -0.0501  0.4309
  189MPD1    H6 2886   2.312   1.953   0.559 -1.1954 -3.3802  0.3651
  189MPD1    H7 2887   2.207   1.970   0.678  1.3386 -1.9275  0.3684
  190MPD1     C 2888   0.133   0.998  15.250 -0.4322 -0.0196  0.0596
  190MPD1    C1 2889   0.275   0.983  15.245 -0.0631 -0.4484  0.2814
  190MPD1    C2 2890   0.342   1.015  15.359 -0.8751  0.3697 -0.2464
  190MPD1    C3 2891   0.288   1.089  15.465  0.2020 -0.0650  0.1253
  190MPD1    C4 2892   0.149   1.109  15.456 -0.2903  0.0218  0.7878
  190MPD1    C5 2893   0.076   1.063  15.350  0.1237  0.3256  0.1111
  190MPD1     H 2894   0.446   0.984  15.362 -0.9473  0.0901 -0.6582
  190MPD1    H1 2895   0.095   1.161  15.534 -2.5370 -0.4665 -0.4370
  190MPD1    H2 2896   0.074   0.959  15.168  1.2763  0.0271 -1.2012
  190MPD1    H3 2897   4.693   1.070  15.345  0.0102 -0.1379  2.1345
  190MPD1     N 2898   0.368   1.131  15.572  0.5134  0.2015  0.3511
  190MPD1    H5 2899   0.469   1.123  15.561  0.2341  0.3364 -2.4344
  190MPD1    N1 2900   0.343   0.913  15.150 -0.6509  0.0160 -0.3594
  190MPD1    H6 2901   0.302   0.914  15.057  0.4630  0.3159 -0.8476
  190MPD1    H7 2902   0.435   0.956  15.146 -0.7053  0.5125  3.3466
  191MPD1     C 2903   4.396   3.694  13.040 -0.0795  0.1425 -0.1464
  191MPD1    C1 2904   4.512   3.721  12.974  0.1677  0.1353 -0.8841
  191MPD1    C2 2905   4.526   3.843  12.911  0.1126 -0.3223 -0.8053
  191MPD1    C3 2906   4.432   3.944  12.936 -0.9785  0.1178 -0.1330
  191MPD1    C4 2907   4.316   3.920  12.999  0.4966 -0.5069 -1.4462
  191MPD1    C5 2908   4.295   3.796  13.045  0.0307 -0.1224 -0.5335
  191MPD1     H 2909   4.615   3.863  12.852 -0.3009 -0.4850 -1.4906
  191MPD1    H1 2910   4.238   3.995  13.009  1.4643  0.0985  1.6705
  191MPD1    H2 2911   4.386   3.599  13.091  0.1876  0.7672  1.0796
  191MPD1    H3 2912   4.208   3.783  13.108  1.3734 -1.2844  1.0978
  191MPD1     N 2913   4.471   4.065  12.877 -0.0587  0.0092 -0.0979
  191MPD1    H5 2914   4.554   4.072  12.818 -1.3811 -0.7503 -2.0765
  191MPD1    N1 2915   4.596   3.613  12.944 -0.1536 -0.8279 -0.1643
  191MPD1    H6 2916   4.692   3.643  12.925 -0.5289  0.4709 -0.0529
  191MPD1    H7 2917   4.601   3.538  13.012 -1.6465  0.4522  1.3657
  192MPD1     C 2918   4.372   0.405  12.918  0.6939  0.1244 -0.3680
  192MPD1    C1 2919   4.266   0.313  12.908  0.0909 -0.7697 -0.1793
  192MPD1    C2 2920   4.290   0.190  12.845  0.3448 -0.5308  0.3222
  192MPD1    C3 2921   4.423   0.153  12.816 -0.4737  0.2855  0.0041
  192MPD1    C4 2922   4.523   0.250  12.819  0.9248  0.2991  0.1047
  192MPD1    C5 2923   4.489   0.375  12.870 -0.2313 -0.0770  0.0219
  192MPD1     H 2924   4.206   0.123  12.832 -1.6560  1.8370  1.0360
  192MPD1    H1 2925   4.623   0.242  12.780  0.4551 -1.3472 -0.7909
  192MPD1    H2 2926   4.353   0.506  12.952 -1.2253  0.1460 -1.5102
  192MPD1    H3 2927   4.563   0.454  12.874  0.9672 -1.1950  0.1387
  192MPD1     N 2928   4.457   0.021  12.772  0.1463 -0.2413  0.4338
  192MPD1    H5 2929   4.554   4.725  12.749  0.1684 -1.0170  1.2456
  192MPD1    N1 2930   4.135   0.341  12.949 -0.5168  0.3617  0.4826
  192MPD1    H6 2931   4.144   0.403  13.029  0.5375  0.0637  0.5869
  192MPD1    H7 2932   4.087   0.257  12.982 -0.0503 -0.4087 -0.8365
  193MPD1     C 2933   4.137   3.462   0.079  0.2527 -0.4073 -0.0268
  193MPD1    C1 2934   4.247   3.519   0.130  0.3322 -0.1677  0.0413
  193MPD1    C2 2935   4.329   3.569   0.029 -0.4146 -0.4635 -0.2758
  193MPD1    C3 2936   4.282   3.607  17.606  0.2140  0.7103  0.3511
  193MPD1    C4 2937   4.157   3.567  17.570  0.6685 -0.2185  0.4990
  193MPD1    C5 2938   4.085   3.489  17.655  0.2425  0.3104  0.4884
  193MPD1     H 2939   4.434   3.583   0.054 -0.9351 -1.9056  2.7194
  193MPD1    H1 2940   4.113   3.589  17.473  0.7396  1.6263  0.8864
  193MPD1    H2 2941   4.082   3.393   0.143 -0.9424  0.6879  0.1268
  193MPD1    H3 2942   3.985   3.459  17.629  0.2271 -1.0068  2.0635
  193MPD1     N 2943   4.353   3.684  17.516  0.2215  0.0716 -0.2596
  193MPD1    H5 2944   4.305   3.719  17.434  0.4592 -1.2422 -0.9704
  193MPD1    N1 2945   4.301   3.493   0.256 -0.1054 -0.0347  0.7309
  193MPD1    H6 2946   4.351   3.573   0.294 -1.0105  1.0807 -0.4612
  193MPD1    H7 2947   4.234   3.481   0.332 -0.7853  0.8278  0.2713
  194MPD1     C 2948   3.336   1.087  16.705 -0.6915 -0.6505  0.2872
  194MPD1    C1 2949   3.234   1.005  16.663 -0.3715  0.4673 -0.1552
  194MPD1    C2 2950   3.216   0.885  16.727 -0.4272 -0.7492  0.5318
  194MPD1    C3 2951   3.292   0.848  16.832  0.2074 -0.3198 -0.0843
  194MPD1    C4 2952   3.404   0.919  16.861 -0.2662 -0.1013  0.8854
  194MPD1    C5 2953   3.428   1.036  16.794  0.2417  0.3500 -0.5602
  194MPD1     H 2954   3.120   0.839  16.705 -1.3911  0.6753  1.7522
  194MPD1    H1 2955   3.469   0.872  16.933  1.5785 -0.6968 -1.1930
  194MPD1    H2 2956   3.335   1.193  16.686 -0.4611 -0.8526 -0.8235
  194MPD1    H3 2957   3.517   1.094  16.818  1.6827 -1.9488 -0.3584
  194MPD1     N 2958   3.270   0.731  16.906 -0.4871  0.6304  0.4370
  194MPD1    H5 2959   3.345   0.711  16.972  0.2623  3.8441  0.5395
  194MPD1    N1 2960   3.127   1.066  16.593  0.0411  0.2185 -0.1201
  194MPD1    H6 2961   3.078   0.998  16.534 -0.0583 -1.7336  2.2454
  194MPD1    H7 2962   3.161   1.148  16.544  0.7248  0.8432  1.4209
  195MPD1     C 2963   4.087   3.264   0.528  0.2514 -0.9749  0.7518
  195MPD1    C1 2964   4.213   3.209   0.511  0.2881 -0.6442  0.2904
  195MPD1    C2 2965   4.223   3.078   0.473 -0.4516 -0.1504  0.1608
  195MPD1    C3 2966   4.113   2.990   0.472  0.6425  0.6844  0.4397
  195MPD1    C4 2967   3.990   3.047   0.497  0.1816 -0.3655 -0.0558
  195MPD1    C5 2968   3.975   3.184   0.513 -0.7206 -0.7778 -0.1110
  195MPD1     H 2969   4.325   3.046   0.456 -0.5226 -0.5325  0.4448
  195MPD1    H1 2970   3.902   2.990   0.470  0.9908 -0.2404 -2.9263
  195MPD1    H2 2971   4.074   3.370   0.548  1.1697 -0.6127 -0.5335
  195MPD1    H3 2972   3.876   3.228   0.508 -0.8778 -0.8995  1.9421
  195MPD1     N 2973   4.122   2.848   0.448  0.2109 -0.6350  0.2067
  195MPD1    H5 2974   4.039   2.789   0.439 -0.5989  0.6282 -0.5894
  195MPD1    N1 2975   4.325   3.290   0.507 -0.6814 -0.6992 -0.3890
  195MPD1    H6 2976   4.317   3.366   0.574  0.2958 -0.3796 -0.6251
  195MPD1    H7 2977   4.408   3.238   0.538 -0.1505 -0.8099 -1.9969
  196MPD1     C 2978   2.989   1.267   0.804  0.1108 -0.0005 -0.2949
  196MPD1    C1 2979   3.088   1.346   0.749  0.0689  0.5936 -0.2325
  196MPD1    C2 2980   3.165   1.422   0.826 -0.6276 -0.6448  0.1253
  196MPD1    C3 2981   3.147   1.421   0.963  0.0300 -0.5383 -0.1893
  196MPD1    C4 2982   3.043   1.344   1.019  0.5033  0.5253  0.0199
  196MPD1    C5 2983   2.960   1.268   0.940 -0.6895 -0.1077 -0.1644
  196MPD1     H 2984   3.246   1.482   0.788 -0.6328 -1.0437 -0.5091
  196MPD1    H1 2985   3.025   1.347   1.126  2.1731 -1.2185  0.3375
  196MPD1    H2 2986   2.936   1.199   0.737  2.4252 -2.2927  0.2116
  196MPD1    H3 2987   2.874   1.215   0.978 -1.9042  0.2815 -2.3849
  196MPD1     N 2988   3.229   1.479   1.057  0.2426 -0.5792  0.3057
  196MPD1    H5 2989   3.201   1.479   1.154 -0.3812 -1.3240  0.1245
  196MPD1    N1 2990   3.116   1.326   0.609 -0.8629 -0.2086 -0.4019
  196MPD1    H6 2991   3.040   1.293   0.549 -1.9219 -1.4664  1.6358
  196MPD1    H7 2992   3.149   1.410   0.562  0.6964 -1.0376 -0.8050
  197MPD1     C 2993   2.995   3.627  17.652 -0.4363 -0.3619 -0.3047
  197MPD1    C1 2994   3.077   3.711   0.020 -0.7510  0.8854  0.0798
  197MPD1    C2 2995   3.160   3.802  17.648  0.0869 -0.1479  0.1375
  197MPD1    C3 2996   3.178   3.787  17.511  0.6834 -0.6451  0.1230
  197MPD1    C4 2997   3.115   3.680  17.452 -0.2593 -0.5460 -0.2464
  197MPD1    C5 2998   3.029   3.597  17.521 -0.0372 -0.4177 -0.4330
  197MPD1     H 2999   3.222   3.880  17.691 -0.9145  0.9828 -0.4745
  197MPD1    H1 3000   3.131   3.654  17.347 -0.2308  0.4704 -0.4967
  197MPD1    H2 3001   2.930   3.565   0.012 -1.1986  0.0324 -0.7063
  197MPD1    H3 3002   2.979   3.514  17.473  0.9263 -1.2564  0.0049
  197MPD1     N 3003   3.248   3.872  17.427  0.3218 -0.0410 -0.1254
  197MPD1    H5 3004   3.271   3.838  17.335  0.6557 -3.9152  1.4068
  197MPD1    N1 3005   3.042   3.744   0.157  0.0062 -0.0948  0.1770
  197MPD1    H6 3006   3.015   3.663   0.212 -1.2086  1.1580  1.4072
  197MPD1    H7 3007   3.109   3.801   0.209  1.0219 -1.5982  0.5112
  198MPD1     C 3008   0.858   1.727  16.600  0.1581 -0.0493 -0.6353
  198MPD1    C1 3009   0.928   1.837  16.566  0.2737  0.7372 -0.2577
  198MPD1    C2 3010   0.877   1.916  16.463  0.2544  0.0833 -0.4446
  198MPD1    C3 3011   0.781   1.865  16.376  0.4110 -0.0812 -0.3022
  198MPD1    C4 3012   0.729   1.744  16.402  0.2185  0.2594 -0.1090
  198MPD1    C5 3013   0.767   1.674  16.514 -0.2521 -0.5967  0.2052
  198MPD1     H 3014   0.914   2.017  16.445  2.0095 -0.8327 -1.9779
  198MPD1    H1 3015   0.643   1.702  16.351  0.9302 -2.2909  0.7885
  198MPD1    H2 3016   0.882   1.665  16.686  2.3306  1.4298 -0.1972
  198MPD1    H3 3017   0.715   1.585  16.547  0.6368 -1.5506 -0.9607
  198MPD1     N 3018   0.731   1.957  16.279  0.4153  0.2416 -0.2938
  198MPD1    H5 3019   0.764   2.052  16.267  0.9338  0.0774 -0.1730
  198MPD1    N1 3020   0.998   1.900  16.672  0.2983 -0.1701  0.0826
  198MPD1    H6 3021   1.053   1.839  16.732  2.8461  2.7103  0.7560
  198MPD1    H7 3022   1.067   1.965  16.634  0.8879 -1.5610 -1.2028
  199MPD1     C 3023   1.953   2.643   9.349 -0.0429 -0.6184  0.1195
  199MPD1    C1 3024   2.084   2.632   9.314  0.0644  0.6795  0.3059
  199MPD1    C2 3025   2.172   2.737   9.320  0.0373 -0.9703 -0.3575
  199MPD1    C3 3026   2.130   2.855   9.379  0.6496  0.5199  0.7216
  199MPD1    C4 3027   1.995   2.869   9.420 -0.6765 -0.1991  0.3811
  199MPD1    C5 3028   1.907   2.766   9.401 -0.3999 -0.2353  0.2064
  199MPD1     H 3029   2.270   2.733   9.274  0.0314  0.6569 -0.5404
  199MPD1    H1 3030   1.964   2.962   9.464  0.1478 -0.1713  0.9177
  199MPD1    H2 3031   1.884   2.563   9.325  1.1643 -1.7893  0.5283
  199MPD1    H3 3032   1.802   2.781   9.419 -0.1268  0.6522  1.0442
  199MPD1     N 3033   2.209   2.974   9.389 -0.0543 -0.2474 -0.1564
  199MPD1    H5 3034   2.159   3.060   9.406  0.7559  0.1192  0.3683
  199MPD1    N1 3035   2.125   2.515   9.243 -0.6284 -0.5923  0.2688
  199MPD1    H6 3036   2.220   2.484   9.259  0.0419  1.9485  1.1309
  199MPD1    H7 3037   2.063   2.436   9.263  0.3805 -2.1633 -2.8829
  200MPD1     C 3038   1.265   3.741  15.288  0.4734  0.4460 -0.1503
  200MPD1    C1 3039   1.273   3.678  15.167 -0.8348 -0.1480  0.3868
  200MPD1    C2 3040   1.398   3.672  15.114 -0.1974  0.5786 -0.5738
  200MPD1    C3 3041   1.504   3.727  15.173  0.1169 -0.2555  0.5090
  200MPD1    C4 3042   1.498   3.772  15.299  0.3883  0.1698 -0.6313
  200MPD1    C5 3043   1.376   3.784  15.356 -0.1532 -0.1964  0.0218
  200MPD1     H 3044   1.403   3.639  15.011  3.1920 -3.7758  0.9781
  200MPD1    H1 3045   1.582   3.811  15.354  1.2612  1.8106 -3.1375
  200MPD1    H2 3046   1.177   3.764  15.347  0.0543 -0.1932 -0.5285
  200MPD1    H3 3047   1.367   3.824  15.457  0.8552  0.8570 -0.3072
  200MPD1     N 3048   1.625   3.720  15.098 -0.7337 -0.1143  0.2635
  200MPD1    H5 3049   1.624   3.676  15.007 -0.3558  1.1538 -0.3448
  200MPD1    N1 3050   1.163   3.649  15.084  0.2376  0.1804 -0.6890
  200MPD1    H6 3051   1.179   3.572  15.020 -1.3224 -0.8929  0.2086
  200MPD1    H7 3052   1.151   3.726  15.018  2.0720  1.4186  0.4104
  201MPD1     C 3053   3.670   3.668  12.834 -0.3568 -0.6217 -0.9645
  201MPD1    C1 3054   3.732   3.603  12.941 -0.2626 -0.1162  0.4071
  201MPD1    C2 3055   3.724   3.462  12.940  0.1556  0.3241  0.4983
  201MPD1    C3 3056   3.648   3.385  12.856 -0.0786 -0.1652  0.5810
  201MPD1    C4 3057   3.590   3.449  12.753 -1.0695 -0.4266  0.3898
  201MPD1    C5 3058   3.591   3.586  12.750 -0.3406  0.6405  0.7168
  201MPD1     H 3059   3.783   3.414  13.017 -0.8884 -0.0741  1.0424
  201MPD1    H1 3060   3.534   3.409  12.668 -0.2416  0.1591 -0.4299
  201MPD1    H2 3061   3.667   3.775  12.820 -0.7062 -0.4498  0.4128
  201MPD1    H3 3062   3.530   3.640  12.678  0.1743  1.7422  1.1012
  201MPD1     N 3063   3.656   3.239  12.860  0.1790  0.4121 -0.0587
  201MPD1    H5 3064   3.731   3.199  12.915  0.5634  1.3594  0.1075
  201MPD1    N1 3065   3.830   3.674  13.023  0.1750 -0.4446 -0.7321
  201MPD1    H6 3066   3.810   3.768  13.059 -1.2221 -0.5601 -1.2133
  201MPD1    H7 3067   3.862   3.613  13.098  1.5551  0.4233 -0.6092
  202MPD1     C 3068   3.662   1.002   9.136 -0.0355 -0.4720 -0.3973
  202MPD1    C1 3069   3.568   1.097   9.171  0.0229 -0.2332 -0.1779
  202MPD1    C2 3070   3.614   1.196   9.256  0.3514  0.1530 -0.6847
  202MPD1    C3 3071   3.745   1.228   9.257 -0.2178 -0.6087  0.4772
  202MPD1    C4 3072   3.837   1.149   9.200  0.6102 -0.2739 -0.1409
  202MPD1    C5 3073   3.797   1.034   9.138  0.4966  0.2517 -0.2797
  202MPD1     H 3074   3.531   1.252   9.298  2.2316  3.8186 -1.8765
  202MPD1    H1 3075   3.941   1.179   9.203  0.4541  0.4611 -2.8754
  202MPD1    H2 3076   3.635   0.903   9.101  1.3075 -1.8913  2.5036
  202MPD1    H3 3077   3.877   0.966   9.112 -0.6968 -0.8850 -0.9508
  202MPD1     N 3078   3.794   1.321   9.345 -0.4516  0.5674  0.1302
  202MPD1    H5 3079   3.893   1.339   9.353 -0.2991 -0.0709 -0.3447
  202MPD1    N1 3080   3.440   1.051   9.182 -0.1285  0.1030  0.0931
  202MPD1    H6 3081   3.412   0.995   9.101  1.6675 -1.0007  0.2330
  202MPD1    H7 3082   3.387   1.136   9.198  0.2500  0.3429  0.0778
  203MPD1     C 3083   2.544   3.757  12.805  0.1822  0.6990  0.2465
  203MPD1    C1 3084   2.564   3.668  12.702 -0.1170  0.4696 -0.3711
  203MPD1    C2 3085   2.513   3.543  12.708  0.0168  0.3264  0.1964
  203MPD1    C3 3086   2.457   3.495  12.823 -0.2107 -0.3339  0.4023
  203MPD1    C4 3087   2.448   3.580  12.933  1.0291 -1.0440 -0.3977
  203MPD1    C5 3088   2.484   3.715  12.922 -0.1738 -0.3301 -0.5299
  203MPD1     H 3089   2.524   3.486  12.616 -2.9383  1.7521 -1.0533
  203MPD1    H1 3090   2.408   3.553  13.031  0.2909  2.2444  0.2349
  203MPD1    H2 3091   2.564   3.863  12.794 -0.0519  0.5350 -1.9217
  203MPD1    H3 3092   2.470   3.779  13.008  2.0704 -1.6236  0.8049
  203MPD1     N 3093   2.398   3.365  12.822 -0.3454  0.8834 -0.1126
  203MPD1    H5 3094   2.406   3.311  12.737  0.3724  2.3538 -0.9850
  203MPD1    N1 3095   2.607   3.731  12.581 -0.1296  0.3331  0.1988
  203MPD1    H6 3096   2.676   3.806  12.594 -0.0647  0.2142  0.5460
  203MPD1    H7 3097   2.651   3.660  12.523 -0.1972  0.4676 -0.0185
  204MPD1     C 3098   1.792   4.428   0.496 -0.3414  0.6732  0.3678
  204MPD1    C1 3099   1.853   4.319   0.543  0.5265 -0.5072  0.4816
  204MPD1    C2 3100   1.924   4.250   0.438 -1.0122  0.3897 -0.5108
  204MPD1    C3 3101   1.919   4.281   0.302  0.2247  0.1138 -0.6820
  204MPD1    C4 3102   1.835   4.377   0.262  0.2715  0.2400 -0.9550
  204MPD1    C5 3103   1.772   4.452   0.360  0.9682 -0.3434  0.2231
  204MPD1     H 3104   1.979   4.165   0.475 -2.3829 -0.2869 -0.0183
  204MPD1    H1 3105   1.820   4.402   0.158 -1.3659 -0.1495 -0.8113
  204MPD1    H2 3106   1.729   4.483   0.565 -3.1047 -0.7791 -0.9831
  204MPD1    H3 3107   1.710   4.537   0.335  0.4562 -0.4552  1.0830
  204MPD1     N 3108   1.989   4.197   0.202  0.0143  0.5537  0.2081
  204MPD1    H5 3109   2.058   4.128   0.230 -0.4271  1.0821  2.5244
  204MPD1    N1 3110   1.877   4.297   0.679  0.3885 -0.1362  0.0465
  204MPD1    H6 3111   1.908   4.202   0.701 -1.1122 -1.0487 -1.8407
  204MPD1    H7 3112   1.806   4.329   0.745  0.8881 -1.3759  1.1898
  205MPD1     C 3113   1.506   2.587  16.958 -0.1887 -0.0627  0.8316
  205MPD1    C1 3114   1.618   2.663  16.932  0.8849 -0.5776 -0.0902
  205MPD1    C2 3115   1.668   2.742  17.033  0.9471 -0.0484 -0.5195
  205MPD1    C3 3116   1.602   2.755  17.151  0.0290  0.5311 -1.3740
  205MPD1    C4 3117   1.498   2.674  17.183 -0.2582  0.8670  0.3114
  205MPD1    C5 3118   1.455   2.583  17.088  0.4963  0.5142 -0.5797
  205MPD1     H 3119   1.750   2.809  17.010  0.3093  0.2395 -1.9680
  205MPD1    H1 3120   1.450   2.687  17.280 -0.2450 -1.3015  0.6237
  205MPD1    H2 3121   1.441   2.539  16.886 -1.4333 -2.1275  3.3430
  205MPD1    H3 3122   1.377   2.510  17.099  0.7198  0.4138  0.3401
  205MPD1     N 3123   1.648   2.833  17.253  0.1941  0.1601 -0.0755
  205MPD1    H5 3124   1.609   2.822  17.346  1.2707  0.1327  0.3705
  205MPD1    N1 3125   1.655   2.688  16.799 -0.3206 -0.0774  0.2004
  205MPD1    H6 3126   1.751   2.721  16.800  0.1338 -1.4362  0.9222
  205MPD1    H7 3127   1.642   2.608  16.738 -0.1142 -0.2819  0.4279
  206MPD1     C 3128   1.737   0.831  16.591 -0.5669  0.0519  0.0264
  206MPD1    C1 3129   1.657   0.943  16.601  0.4787  0.0891  0.1030
  206MPD1    C2 3130   1.657   1.037  16.500  0.0590 -0.2901 -0.5455
  206MPD1    C3 3131   1.736   1.024  16.385 -0.4775 -0.4452 -0.2290
  206MPD1    C4 3132   1.825   0.919  16.391  0.9712  0.6354 -0.2672
  206MPD1    C5 3133   1.833   0.831  16.494 -0.3788  0.1652 -1.4373
  206MPD1     H 3134   1.590   1.122  16.510 -0.9302 -1.1528  0.0752
  206MPD1    H1 3135   1.910   0.918  16.324  0.5883  1.0165 -0.7621
  206MPD1    H2 3136   1.735   0.749  16.663 -0.8610 -0.6714 -0.8060
  206MPD1    H3 3137   1.916   0.762  16.499  0.1040  0.9238  0.9015
  206MPD1     N 3138   1.745   1.118  16.281  0.3847  0.2835  0.4656
  206MPD1    H5 3139   1.819   1.096  16.215  0.6067  1.6761  0.2400
  206MPD1    N1 3140   1.560   0.948  16.705 -0.2522  0.1469  0.0132
  206MPD1    H6 3141   1.589   0.900  16.790  1.1590 -0.3539 -0.7476
  206MPD1    H7 3142   1.542   1.045  16.733 -2.6163 -0.3327  0.1334
  207MPD1     C 3143   0.629   3.931   9.033 -0.3903  0.3570 -0.1903
  207MPD1    C1 3144   0.514   3.923   8.962  0.0354 -0.1367 -0.0352
  207MPD1    C2 3145   0.393   3.920   9.023  0.3949 -0.1691 -0.9629
  207MPD1    C3 3146   0.394   3.919   9.163  0.2797 -0.3450  0.4748
  207MPD1    C4 3147   0.507   3.927   9.243 -0.2232  0.1861 -0.0898
  207MPD1    C5 3148   0.626   3.940   9.174 -0.3687 -0.1200 -0.3147
  207MPD1     H 3149   0.295   3.914   8.978 -0.5271  0.4151  0.9601
  207MPD1    H1 3150   0.515   3.916   9.350 -0.1411  2.3816  0.1187
  207MPD1    H2 3151   0.724   3.935   8.980  0.2974 -0.1512  1.0013
  207MPD1    H3 3152   0.720   3.945   9.227 -1.8823  0.8919  2.2827
  207MPD1     N 3153   0.282   3.905   9.243 -0.0243 -0.1338 -0.0593
  207MPD1    H5 3154   0.304   3.896   9.341  0.2341  1.8579  0.0586
  207MPD1    N1 3155   0.518   3.904   8.825  0.6297  0.0706  0.9597
  207MPD1    H6 3156   0.608   3.933   8.786 -0.5085  2.0515 -0.2005
  207MPD1    H7 3157   0.438   3.937   8.772  1.4608  1.6084  0.6595
  208MPD1     C 3158   2.554   2.653  17.090  0.2795  0.1258  0.2214
  208MPD1    C1 3159   2.459   2.685  17.187 -0.6148  0.1806 -0.2133
  208MPD1    C2 3160   2.422   2.587  17.286 -0.3252  0.2565 -0.3770
  208MPD1    C3 3161   2.487   2.468  17.289  0.1747 -0.4647  0.0386
  208MPD1    C4 3162   2.574   2.437  17.185 -0.3017 -0.6323  0.1852
  208MPD1    C5 3163   2.612   2.532  17.097 -0.4363  0.1744 -0.6258
  208MPD1     H 3164   2.349   2.611  17.363 -0.0054  1.2183 -0.3743
  208MPD1    H1 3165   2.638   2.350  17.193  0.3088 -0.0864  1.1957
  208MPD1    H2 3166   2.597   2.725  17.021 -1.1405  1.0741  0.3366
  208MPD1    H3 3167   2.692   2.516  17.025 -1.6747 -0.0976 -1.9411
  208MPD1     N 3168   2.457   2.387  17.400  0.0961  1.1810  0.6280
  208MPD1    H5 3169   2.379   2.422  17.454 -2.4201  1.4399 -3.1833
  208MPD1    N1 3170   2.375   2.795  17.168  0.5657 -0.6686  0.2506
  208MPD1    H6 3171   2.428   2.875  17.136 -1.0225  1.3349  2.6384
  208MPD1    H7 3172   2.314   2.828  17.243  0.7376 -0.0235  0.1096
  209MPD1     C 3173   0.101   2.616  10.446 -0.1207  0.4688  0.1767
  209MPD1    C1 3174   0.040   2.670  10.336  0.4536 -0.2515 -0.2161
  209MPD1    C2 3175   0.123   2.754  10.264  0.4382  0.8505  0.1682
  209MPD1    C3 3176   0.239   2.805  10.314  0.2721 -0.6345  0.2385
  209MPD1    C4 3177   0.289   2.763  10.434 -0.2369 -0.6678  0.3876
  209MPD1    C5 3178   0.216   2.667  10.493  0.5524 -0.5868  0.1224
  209MPD1     H 3179   0.090   2.793  10.168  1.4153 -0.4801 -0.7241
  209MPD1    H1 3180   0.391   2.782  10.468 -1.0575 -0.2887  2.6535
  209MPD1    H2 3181   0.054   2.536  10.503  0.4913 -0.2205 -0.2823
  209MPD1    H3 3182   0.266   2.632  10.583 -1.3612  0.0669  1.4509
  209MPD1     N 3183   0.298   2.902  10.228 -0.3082  0.2102 -0.2705
  209MPD1    H5 3184   0.260   2.929  10.138 -1.1624 -1.0266 -0.2830
  209MPD1    N1 3185   4.671   2.608  10.257  0.3314 -0.1415 -0.9222
  209MPD1    H6 3186   4.594   2.568  10.311  0.2512 -1.2162 -1.8378
  209MPD1    H7 3187   4.631   2.677  10.194  0.9457  2.1140  1.1514
  210MPD1     C 3188   1.119   3.570  10.032 -0.6763 -0.4832  0.2284
  210MPD1    C1 3189   1.082   3.490  10.134  0.4896 -0.4147  0.2708
  210MPD1    C2 3190   0.966   3.423  10.128 -0.1008 -0.5948  1.2003
  210MPD1    C3 3191   0.884   3.433  10.017  0.3192 -0.7124  0.0453
  210MPD1    C4 3192   0.916   3.521   9.919  0.2825  0.0983 -0.0091
  210MPD1    C5 3193   1.036   3.593   9.923  0.3178 -0.4004 -0.1278
  210MPD1     H 3194   0.940   3.362  10.214 -1.8205  0.9210  1.7433
  210MPD1    H1 3195   0.843   3.553   9.846  0.0688  1.1315  0.6639
  210MPD1    H2 3196   1.216   3.617  10.021  0.2457 -2.2353  0.8795
  210MPD1    H3 3197   1.069   3.665   9.849 -0.8514 -2.4239 -2.6196
  210MPD1     N 3198   0.757   3.368  10.014  0.3803 -0.5257 -0.0207
  210MPD1    H5 3199   0.697   3.398   9.938 -0.0100  0.7690  0.7937
  210MPD1    N1 3200   1.158   3.487  10.251 -0.5686 -0.2076  0.1062
  210MPD1    H6 3201   1.116   3.549  10.321  0.6441 -1.8799  2.3185
  210MPD1    H7 3202   1.243   3.543  10.241  0.3429 -1.2678  1.8133
  211MPD1     C 3203   2.958   3.013  16.267 -0.1595  0.0328  0.1928
  211MPD1    C1 3204   2.967   3.090  16.383 -0.4323  0.2765 -0.1696
  211MPD1    C2 3205   2.857   3.101  16.464  0.8056  0.5040  0.2637
  211MPD1    C3 3206   2.735   3.039  16.439 -0.7920  0.1576 -0.5240
  211MPD1    C4 3207   2.731   2.963  16.320 -0.4259 -0.2756  0.4975
  211MPD1    C5 3208   2.840   2.944  16.241  0.3831 -0.4231 -0.3968
  211MPD1     H 3209   2.865   3.165  16.551 -0.2159  0.8457  0.1031
  211MPD1    H1 3210   2.646   2.902  16.290 -1.2098 -0.4734  3.1442
  211MPD1    H2 3211   3.052   2.982  16.224  1.1005 -0.6734  3.4836
  211MPD1    H3 3212   2.833   2.871  16.161  0.0151  0.1662 -0.9015
  211MPD1     N 3213   2.620   3.069  16.520 -0.1629 -0.3388  0.1946
  211MPD1    H5 3214   2.633   3.133  16.598  3.4853 -1.1278  0.2375
  211MPD1    N1 3215   3.083   3.164  16.408 -0.8220 -0.4986  0.2319
  211MPD1    H6 3216   3.164   3.124  16.361 -0.6168  1.2800 -0.9552
  211MPD1    H7 3217   3.115   3.164  16.504 -0.9765 -0.0756  0.2842
  212MPD1     C 3218   1.335   1.289  16.932  0.3494  0.6178 -0.3127
  212MPD1    C1 3219   1.443   1.207  16.928 -0.4070  0.2857 -1.2757
  212MPD1    C2 3220   1.441   1.088  17.001 -0.2077  0.8571  0.0804
  212MPD1    C3 3221   1.338   1.064  17.088  0.1705  0.6926 -0.1189
  212MPD1    C4 3222   1.236   1.153  17.093  0.1622  0.0502  0.3492
  212MPD1    C5 3223   1.231   1.261  17.012 -0.2425 -0.3771 -0.1956
  212MPD1     H 3224   1.521   1.018  16.983 -1.6019 -0.5103 -0.8406
  212MPD1    H1 3225   1.151   1.132  17.158 -0.0083 -2.5740 -0.6981
  212MPD1    H2 3226   1.319   1.380  16.875  1.0424 -0.6313 -2.4825
  212MPD1    H3 3227   1.152   1.335  17.022 -0.4951 -1.0333  2.7055
  212MPD1     N 3228   1.336   0.960  17.180 -0.4763 -0.1106  0.0917
  212MPD1    H5 3229   1.249   0.960  17.231 -0.4677  0.9513  0.1018
  212MPD1    N1 3230   1.539   1.234  16.825  0.1813  0.4151 -0.4489
  212MPD1    H6 3231   1.631   1.202  16.853 -0.2173  0.0983  0.4911
  212MPD1    H7 3232   1.546   1.334  16.803  1.4488  0.6680  1.1488
  213MPD1     C 3233   4.618   2.476  15.813 -0.5152  0.0694  0.3401
  213MPD1    C1 3234   0.003   2.432  15.750  0.3748 -0.6656  0.0859
  213MPD1    C2 3235   4.694   2.347  15.647 -0.3477  0.4330 -0.5011
  213MPD1    C3 3236   4.564   2.352  15.595  0.0413  0.0066  0.0447
  213MPD1    C4 3237   4.462   2.423  15.655  0.7482 -0.0927 -0.0233
  213MPD1    C5 3238   4.491   2.485  15.770  0.1673  0.1201  0.0083
  213MPD1     H 3239   0.044   2.292  15.593  0.1205  0.3721  0.2063
  213MPD1    H1 3240   4.360   2.431  15.619  0.0180 -2.3595  1.5381
  213MPD1    H2 3241   4.639   2.537  15.900 -0.9563 -1.1062  1.2795
  213MPD1    H3 3242   4.408   2.531  15.822 -0.4966 -1.2100  0.1176
  213MPD1     N 3243   4.552   2.287  15.471 -0.1576 -0.1017  0.2491
  213MPD1    H5 3244   4.636   2.254  15.424 -0.9451  0.9942 -1.9283
  213MPD1    N1 3245   0.117   2.413  15.827 -0.3274  0.1897 -0.5783
  213MPD1    H6 3246   0.142   2.503  15.867 -1.7435 -0.6196  2.0806
  213MPD1    H7 3247   0.200   2.374  15.783  1.0843 -0.9730  3.1845
  214MPD1     C 3248   3.949   1.632  14.819 -0.1376  0.3596  0.5659
  214MPD1    C1 3249   3.907   1.720  14.917  0.8743  0.0382  0.4985
  214MPD1    C2 3250   4.005   1.807  14.972  0.4126  0.1508 -0.4048
  214MPD1    C3 3251   4.132   1.811  14.916  0.3373  0.3425  0.0105
  214MPD1    C4 3252   4.170   1.731  14.811  0.1721  0.0038 -0.0171
  214MPD1    C5 3253   4.079   1.632  14.770 -0.3262  0.2310 -0.0460
  214MPD1     H 3254   3.975   1.880  15.047 -0.0999 -1.6305  1.1264
  214MPD1    H1 3255   4.274   1.732  14.781 -0.4182 -1.6575 -2.1326
  214MPD1    H2 3256   3.883   1.555  14.779 -0.3819  0.8382  0.0464
  214MPD1    H3 3257   4.115   1.552  14.706  0.5368  0.3816  0.2483
  214MPD1     N 3258   4.235   1.906  14.960 -0.2509  0.1580 -1.3054
  214MPD1    H5 3259   4.321   1.897  14.906  0.0118 -0.8480 -0.7304
  214MPD1    N1 3260   3.776   1.714  14.960 -0.0315 -0.3244  0.3806
  214MPD1    H6 3261   3.713   1.668  14.895  0.1650  0.3652 -0.3024
  214MPD1    H7 3262   3.753   1.810  14.988 -0.6945  0.4852 -2.9404
  215MPD1     C 3263   4.296   2.519  10.715  0.5375 -1.2646  0.4405
  215MPD1    C1 3264   4.383   2.482  10.815  0.0484  0.6840 -0.1145
  215MPD1    C2 3265   4.501   2.556  10.832 -0.4705 -0.1855 -0.6418
  215MPD1    C3 3266   4.531   2.657  10.742 -0.4841  0.4552 -0.5171
  215MPD1    C4 3267   4.443   2.691  10.646  1.0524 -0.9477 -0.0233
  215MPD1    C5 3268   4.322   2.624  10.635 -0.1567  0.1246 -0.0323
  215MPD1     H 3269   4.570   2.532  10.912 -1.8712  0.8468  0.8811
  215MPD1    H1 3270   4.457   2.782  10.589 -0.1634 -1.0754 -0.5261
  215MPD1    H2 3271   4.202   2.466  10.703  0.2145 -0.4572 -0.5556
  215MPD1    H3 3272   4.249   2.667  10.566  0.5555  0.7422 -0.3958
  215MPD1     N 3273   4.648   2.726  10.767  0.3572  0.2008  0.1445
  215MPD1    H5 3274   4.705   2.685  10.839  0.8626 -0.3108 -0.5539
  215MPD1    N1 3275   4.359   2.379  10.908  0.2816 -0.4070  0.0907
  215MPD1    H6 3276   4.447   2.331  10.928 -0.5970 -1.6839  0.8263
  215MPD1    H7 3277   4.293   2.315  10.864 -0.9617 -0.2324  1.7177
  216MPD1     C 3278   2.004   4.435  16.603  0.3395 -0.1981 -0.4195
  216MPD1    C1 3279   1.878   4.435  16.648 -0.3079  0.0693 -0.1508
  216MPD1    C2 3280   1.860   4.442  16.784  0.4872  0.4178 -0.1147
  216MPD1    C3 3281   1.969   4.430  16.868 -0.7235  0.7142  0.4144
  216MPD1    C4 3282   2.096   4.417  16.823  0.2373 -0.7641 -0.1643
  216MPD1    C5 3283   2.110   4.419  16.688  0.3201 -0.0147  0.2574
  216MPD1     H 3284   1.765   4.467  16.829  0.5764  0.8342 -0.1571
  216MPD1    H1 3285   2.186   4.421  16.884  0.4367 -2.3527 -0.3649
  216MPD1    H2 3286   2.025   4.441  16.497  1.4011  1.6474 -0.0999
  216MPD1    H3 3287   2.211   4.416  16.650  0.5814  2.2963  0.7481
  216MPD1     N 3288   1.944   4.449  17.010  0.5985  0.4790 -0.2715
  216MPD1    H5 3289   1.846   4.455  17.034  0.4262 -1.0262 -0.5763
  216MPD1    N1 3290   1.775   4.485  16.557 -0.3424  0.1382  0.1569
  216MPD1    H6 3291   1.787   4.457  16.460 -1.0094 -2.9387  0.9894
  216MPD1    H7 3292   1.681   4.457  16.581 -0.3995 -1.5258 -2.0095
  217MPD1     C 3293   2.842   2.190   9.041  0.5483  0.2700 -0.7448
  217MPD1    C1 3294   2.710   2.180   9.067 -0.5171  0.0718  0.0192
  217MPD1    C2 3295   2.665   2.056   9.115 -0.1694  0.0593 -0.0024
  217MPD1    C3 3296   2.754   1.957   9.145  0.1547 -0.2662  0.0519
  217MPD1    C4 3297   2.884   1.978   9.125  0.0721  0.2013 -0.4231
  217MPD1    C5 3298   2.928   2.093   9.073 -0.0707  0.0942  0.1169
  217MPD1     H 3299   2.559   2.042   9.130 -0.7031  3.1864 -0.9690
  217MPD1    H1 3300   2.958   1.904   9.152 -0.3927 -0.1375 -0.0802
  217MPD1    H2 3301   2.881   2.272   8.982 -0.9213  0.0807 -1.9628
  217MPD1    H3 3302   3.030   2.098   9.038  0.2905  0.3519  1.1817
  217MPD1     N 3303   2.726   1.844   9.219  0.6990 -0.1239 -0.6310
  217MPD1    H5 3304   2.800   1.803   9.275  0.1051 -0.1989  0.0892
  217MPD1    N1 3305   2.625   2.277   9.018 -0.0857 -0.4854 -0.3443
  217MPD1    H6 3306   2.538   2.285   9.071 -0.9823  0.7301 -1.9757
  217MPD1    H7 3307   2.668   2.369   9.020 -0.3213 -0.3904  0.2641
  218MPD1     C 3308   0.838   3.570  12.207  0.2196  0.2007  0.0125
  218MPD1    C1 3309   0.729   3.534  12.272  0.0649  0.4616 -0.3324
  218MPD1    C2 3310   0.669   3.414  12.228  0.2112 -0.4769  0.8248
  218MPD1    C3 3311   0.693   3.352  12.103 -0.1486 -0.6870 -0.5942
  218MPD1    C4 3312   0.803   3.400  12.037  0.5108  0.4997 -0.2510
  218MPD1    C5 3313   0.881   3.494  12.098  0.2970 -0.0534 -0.7938
  218MPD1     H 3314   0.587   3.372  12.287 -0.6095 -0.3145 -0.1920
  218MPD1    H1 3315   0.847   3.359  11.947 -0.2317 -0.7790 -0.0256
  218MPD1    H2 3316   0.909   3.647  12.235  1.2400 -1.5877  2.2815
  218MPD1    H3 3317   0.962   3.529  12.036  0.9071 -0.3552 -0.1691
  218MPD1     N 3318   0.605   3.251  12.063  0.1558  0.2062  0.3943
  218MPD1    H5 3319   0.529   3.236  12.129 -0.5587 -1.9932 -0.9649
  218MPD1    N1 3320   0.704   3.599  12.397 -0.0587  0.2467 -0.1077
  218MPD1    H6 3321   0.723   3.699  12.398  1.5782 -0.0647 -1.0523
  218MPD1    H7 3322   0.609   3.579  12.430 -0.2753  2.2184  0.4762
  219MPD1     C 3323   0.557   2.686  11.192 -0.4523 -0.2211  0.3973
  219MPD1    C1 3324   0.436   2.689  11.255  0.1431 -1.0979 -0.0959
  219MPD1    C2 3325   0.424   2.739  11.384  0.6419 -0.4093 -0.9385
  219MPD1    C3 3326   0.529   2.798  11.454  0.2289 -0.3321 -0.5789
  219MPD1    C4 3327   0.642   2.806  11.386  0.2783 -0.1246 -0.5795
  219MPD1    C5 3328   0.662   2.749  11.260 -0.2770  0.6534 -0.4957
  219MPD1     H 3329   0.328   2.735  11.434  0.0566  0.7666 -1.9754
  219MPD1    H1 3330   0.733   2.852  11.423  1.1654 -2.1628 -0.2754
  219MPD1    H2 3331   0.581   2.645  11.095 -0.3389  1.6542 -0.3687
  219MPD1    H3 3332   0.758   2.760  11.212  0.0644  1.6607  0.4079
  219MPD1     N 3333   0.522   2.834  11.589 -0.0342 -0.3341  0.1797
  219MPD1    H5 3334   0.610   2.872  11.621  0.2027 -0.1140 -0.7385
  219MPD1    N1 3335   0.335   2.606  11.205 -0.0130 -0.0170  0.4739
  219MPD1    H6 3336   0.322   2.618  11.104  1.5223 -1.2239  0.1450
  219MPD1    H7 3337   0.244   2.621  11.248  0.0396  2.3480 -0.2058
  220MPD1     C 3338   0.069   4.233   9.591  0.8634  0.4170 -0.1828
  220MPD1    C1 3339   0.166   4.140   9.612  0.2645  0.2822  0.3645
  220MPD1    C2 3340   0.127   4.023   9.672 -0.4011  0.6671  0.1013
  220MPD1    C3 3341   0.000   4.002   9.714 -0.2338  0.1019  0.0643
  220MPD1    C4 3342   4.629   4.101   9.702  0.6112 -0.8110  0.3570
  220MPD1    C5 3343   4.667   4.217   9.639  0.6652 -0.0966  0.0083
  220MPD1     H 3344   0.200   3.943   9.668 -1.4362 -0.2726  0.0271
  220MPD1    H1 3345   4.529   4.092   9.743  1.1484  0.3355  1.9523
  220MPD1    H2 3346   0.083   4.331   9.547  0.7900  0.7171  0.4673
  220MPD1    H3 3347   4.597   4.299   9.627 -0.9170 -1.5480 -0.6499
  220MPD1     N 3348   4.706   3.883   9.779 -0.1285 -0.1511  0.0863
  220MPD1    H5 3349   0.052   3.814   9.801  0.0032  0.1900  0.7232
  220MPD1    N1 3350   0.292   4.153   9.543 -0.3827 -0.2463  0.3242
  220MPD1    H6 3351   0.369   4.093   9.573 -0.5029 -0.3961  0.3288
  220MPD1    H7 3352   0.327   4.248   9.534  0.4559 -0.5057  0.8350
  221MPD1     C 3353   1.481   2.253  16.635 -0.7731 -0.2780  0.6886
  221MPD1    C1 3354   1.542   2.283  16.753 -0.4117  0.8872 -0.2235
  221MPD1    C2 3355   1.664   2.356  16.746  0.3045  0.0374  0.3535
  221MPD1    C3 3356   1.712   2.401  16.623 -0.0605  0.1993 -0.5405
  221MPD1    C4 3357   1.631   2.374  16.515  0.0489  0.1624  0.0439
  221MPD1    C5 3358   1.515   2.303  16.520  0.2804  0.5215 -0.5852
  221MPD1     H 3359   1.725   2.368  16.835 -1.8919  1.3191  1.6685
  221MPD1    H1 3360   1.672   2.419  16.425 -1.9685 -0.1789 -1.0711
  221MPD1    H2 3361   1.387   2.198  16.631 -1.0708  0.4098 -1.6790
  221MPD1    H3 3362   1.459   2.278  16.430  0.8513  1.9459 -1.3345
  221MPD1     N 3363   1.835   2.459  16.600 -0.3281 -0.2218 -0.4313
  221MPD1    H5 3364   1.871   2.460  16.505  0.2413  0.1542 -0.2113
  221MPD1    N1 3365   1.502   2.222  16.866  0.1689  0.2818  0.0104
  221MPD1    H6 3366   1.548   2.271  16.943  1.1615 -0.4153 -0.1299
  221MPD1    H7 3367   1.401   2.229  16.876  0.1591 -0.6783  0.6690
  222MPD1     C 3368   1.871   1.206  16.712  0.2036  0.1479 -0.8936
  222MPD1    C1 3369   1.855   1.151  16.837  0.4813  0.6329 -0.9432
  222MPD1    C2 3370   1.866   1.233  16.949  0.5539 -0.5424 -0.2143
  222MPD1    C3 3371   1.865   1.368  16.938  0.1804  0.0298 -0.8582
  222MPD1    C4 3372   1.881   1.426  16.815  0.1432  0.9193 -0.4467
  222MPD1    C5 3373   1.892   1.342  16.704 -0.1663 -0.8197 -0.6669
  222MPD1     H 3374   1.867   1.192  17.050  0.5732 -0.1908 -0.0716
  222MPD1    H1 3375   1.882   1.533  16.798 -0.4959  1.3371  2.1331
  222MPD1    H2 3376   1.879   1.147  16.621 -0.4100  0.1578 -0.9494
  222MPD1    H3 3377   1.911   1.388  16.607  1.4311  0.5629  0.2987
  222MPD1     N 3378   1.865   1.462  17.048  0.2045 -0.0239 -0.3253
  222MPD1    H5 3379   1.892   1.556  17.020 -0.2111  0.3816  0.6372
  222MPD1    N1 3380   1.863   1.014  16.862 -0.3788  0.5314 -0.4716
  222MPD1    H6 3381   1.811   0.998  16.949 -0.0784  1.1672 -0.1754
  222MPD1    H7 3382   1.815   0.966  16.786 -0.7566 -3.4854  2.2627
  223MPD1     C 3383   2.453   2.057  17.117  0.1018  0.4960  0.6517
  223MPD1    C1 3384   2.449   1.923  17.097  0.2091 -0.0491  0.1598
  223MPD1    C2 3385   2.348   1.847  17.141 -0.0483  0.4996 -0.0393
  223MPD1    C3 3386   2.234   1.904  17.202 -0.4265  0.0133 -0.3547
  223MPD1    C4 3387   2.235   2.046  17.208  0.2496  0.1256  0.6803
  223MPD1    C5 3388   2.346   2.116  17.167 -0.0486 -0.0114 -0.6495
  223MPD1     H 3389   2.353   1.738  17.135 -2.1629  0.3071  1.4780
  223MPD1    H1 3390   2.155   2.102  17.255  1.6227  1.8368  0.9726
  223MPD1    H2 3391   2.535   2.119  17.083 -1.2675  2.2890  0.6507
  223MPD1    H3 3392   2.339   2.224  17.166 -0.6317 -0.0291  0.8950
  223MPD1     N 3393   2.126   1.825  17.247 -0.5471  0.5513  0.5457
  223MPD1    H5 3394   2.131   1.724  17.242 -2.7896  0.6379 -2.9395
  223MPD1    N1 3395   2.569   1.862  17.048 -0.5126 -0.2674  0.2737
  223MPD1    H6 3396   2.623   1.927  16.991 -2.1243  1.9201  1.2312
  223MPD1    H7 3397   2.554   1.769  17.010  4.1584 -0.4478 -1.1061
  224MPD1     C 3398   2.385   1.979   9.878 -0.0664 -0.4199  0.0687
  224MPD1    C1 3399   2.429   2.071   9.787 -0.5775  0.0442  0.1604
  224MPD1    C2 3400   2.565   2.106   9.789 -0.2305 -0.5563  0.0609
  224MPD1    C3 3401   2.647   2.042   9.884 -0.6437  0.0349  0.2224
  224MPD1    C4 3402   2.598   1.943   9.963 -0.1646  0.2096 -0.0176
  224MPD1    C5 3403   2.465   1.909   9.964 -0.4275  0.6497  0.2019
  224MPD1     H 3404   2.597   2.193   9.733 -0.5112  0.8553  2.0880
  224MPD1    H1 3405   2.667   1.895  10.031  0.8157  1.7316  0.0704
  224MPD1    H2 3406   2.281   1.950   9.879  0.1578 -1.1776  0.8417
  224MPD1    H3 3407   2.436   1.832  10.033  0.0387  0.1307 -0.1837
  224MPD1     N 3408   2.784   2.070   9.906  1.0205  0.6260  0.0798
  224MPD1    H5 3409   2.834   1.999   9.959  1.5461  1.3919  0.6025
  224MPD1    N1 3410   2.350   2.127   9.685 -0.3725 -0.4965  0.3519
  224MPD1    H6 3411   2.251   2.131   9.706 -0.5901 -0.3128 -0.7126
  224MPD1    H7 3412   2.368   2.226   9.674  0.4557 -0.5676  1.0286
  225MPD1     C 3413   0.067   4.020  12.379  0.5375  0.3865 -0.0379
  225MPD1    C1 3414   0.011   3.933  12.469  0.0004 -0.2695 -0.0281
  225MPD1    C2 3415   4.596   3.938  12.498  0.5022 -0.7081  0.2922
  225MPD1    C3 3416   4.514   4.028  12.431  0.3146 -0.0622 -0.8933
  225MPD1    C4 3417   4.572   4.120  12.347 -0.6887 -0.0726  0.4489
  225MPD1    C5 3418   4.706   4.106  12.315  0.0654  0.4291  0.2229
  225MPD1     H 3419   4.555   3.864  12.565  0.6573  0.6855  1.9520
  225MPD1    H1 3420   4.515   4.197  12.297  0.1056 -0.5670 -1.2115
  225MPD1    H2 3421   0.172   4.029  12.355  0.5718 -1.1177 -0.4538
  225MPD1    H3 3422   0.021   4.177  12.244 -1.0934 -0.7350 -1.5995
  225MPD1     N 3423   4.376   4.034  12.444  0.1953  0.1824  0.5288
  225MPD1    H5 3424   4.330   4.108  12.391  1.6348  0.7087  0.0161
  225MPD1    N1 3425   0.092   3.861  12.558 -0.0088 -0.1687 -0.1945
  225MPD1    H6 3426   0.187   3.846  12.525  1.0252 -0.1418  2.7172
  225MPD1    H7 3427   0.048   3.772  12.584  1.4528 -1.0115 -0.5975
  226MPD1     C 3428   1.894   2.117   9.568 -0.2105 -0.0772  0.4347
  226MPD1    C1 3429   2.023   2.157   9.555 -0.4969  0.0136 -0.2840
  226MPD1    C2 3430   2.051   2.288   9.584  0.8983 -0.5431  0.2285
  226MPD1    C3 3431   1.960   2.367   9.650 -0.7808  0.6503  0.7368
  226MPD1    C4 3432   1.842   2.314   9.690 -0.8003  0.1954  0.8968
  226MPD1    C5 3433   1.809   2.193   9.643 -0.3626 -0.1668 -0.1874
  226MPD1     H 3434   2.144   2.333   9.552  1.1032 -0.6809  0.6284
  226MPD1    H1 3435   1.769   2.374   9.744 -2.3141 -0.5171 -0.3739
  226MPD1    H2 3436   1.860   2.023   9.527 -0.1143  0.3565 -0.6428
  226MPD1    H3 3437   1.708   2.159   9.659 -0.0265 -1.6996 -1.3208
  226MPD1     N 3438   1.998   2.504   9.669  0.4403  0.5309  0.3463
  226MPD1    H5 3439   2.082   2.541   9.628  0.3835 -0.4362 -0.6475
  226MPD1    N1 3440   2.100   2.092   9.459 -0.2135 -0.0449 -0.5317
  226MPD1    H6 3441   2.202   2.100   9.458 -0.4083  2.5706  0.2226
  226MPD1    H7 3442   2.066   1.996   9.463  3.1369 -1.2377 -0.6145
  227MPD1     C 3443   1.411   3.340   9.849  0.0520  0.2063  0.5387
  227MPD1    C1 3444   1.380   3.204   9.874 -0.0190  0.5534 -0.1633
  227MPD1    C2 3445   1.486   3.113   9.867 -0.9190  0.7892  0.0546
  227MPD1    C3 3446   1.610   3.152   9.829 -0.5092 -0.1191  0.3684
  227MPD1    C4 3447   1.635   3.282   9.795 -0.1398  0.3654  0.1226
  227MPD1    C5 3448   1.537   3.378   9.814  0.8447  1.0782 -0.1922
  227MPD1     H 3449   1.465   3.009   9.888  1.1416  0.5012  0.5919
  227MPD1    H1 3450   1.732   3.323   9.768  0.0597 -0.5157 -0.4735
  227MPD1    H2 3451   1.340   3.421   9.863  0.3962  0.8123 -1.2873
  227MPD1    H3 3452   1.559   3.484   9.802  0.8082  1.3003  1.7638
  227MPD1     N 3453   1.711   3.055   9.822  0.1808  0.2327  0.1337
  227MPD1    H5 3454   1.678   2.962   9.844  0.7423 -0.3047 -1.3339
  227MPD1    N1 3455   1.251   3.170   9.896  0.4809 -1.0237 -0.1226
  227MPD1    H6 3456   1.236   3.072   9.916 -2.4804 -0.1673  1.9399
  227MPD1    H7 3457   1.204   3.221   9.971  0.8966  0.3816 -0.8069
  228MPD1     C 3458   0.983   2.017  12.671  0.1686  0.7768 -0.3410
  228MPD1    C1 3459   0.859   2.069  12.638 -0.2833 -0.3230  0.4203
  228MPD1    C2 3460   0.744   1.994  12.659 -0.2767 -0.1487 -0.0977
  228MPD1    C3 3461   0.743   1.871  12.721  0.1949  1.0630 -0.7916
  228MPD1    C4 3462   0.867   1.819  12.750  0.2597  0.8144  0.3210
  228MPD1    C5 3463   0.982   1.890  12.731 -0.0346  0.0768 -0.7946
  228MPD1     H 3464   0.652   2.047  12.635 -0.6926 -0.9190 -0.1916
  228MPD1    H1 3465   0.879   1.715  12.779 -0.5930  0.8290  0.7409
  228MPD1    H2 3466   1.076   2.072  12.680  0.1113  1.0880 -1.6341
  228MPD1    H3 3467   1.073   1.841  12.766 -0.1799  0.4091  0.0582
  228MPD1     N 3468   0.618   1.800  12.744 -0.2556  0.2738 -0.6473
  228MPD1    H5 3469   0.538   1.848  12.703  0.1549  0.0418 -1.6977
  228MPD1    N1 3470   0.849   2.212  12.620  0.5795 -0.1673  0.5335
  228MPD1    H6 3471   0.928   2.257  12.573  0.8454 -0.6652  0.4997
  228MPD1    H7 3472   0.766   2.238  12.566  0.7806  1.2742  0.9159
  229MPD1     C 3473   1.943   0.518  14.862 -0.1347 -0.4494 -0.1072
  229MPD1    C1 3474   1.937   0.407  14.781 -0.6115 -0.3250  0.1236
  229MPD1    C2 3475   1.838   0.316  14.814  0.1271  0.4443 -0.0775
  229MPD1    C3 3476   1.757   0.329  14.928  0.1725  0.0550 -0.6302
  229MPD1    C4 3477   1.770   0.441  15.010 -0.2294 -0.2353  1.1954
  229MPD1    C5 3478   1.866   0.527  14.977  0.0445 -0.1228  0.2085
  229MPD1     H 3479   1.817   0.239  14.740  1.9156  0.8257 -0.9863
  229MPD1    H1 3480   1.709   0.468  15.096  0.3519  2.2623  0.7983
  229MPD1    H2 3481   2.008   0.602  14.842 -1.2228  1.1862  3.0972
  229MPD1    H3 3482   1.877   0.623  15.026 -0.4679  0.7200 -1.3287
  229MPD1     N 3483   1.651   0.231  14.947  0.4196 -0.2531 -0.4120
  229MPD1    H5 3484   1.641   0.168  14.868  0.2885 -0.2292 -0.4138
  229MPD1    N1 3485   2.018   0.399  14.667  0.2252 -0.0176  0.4253
  229MPD1    H6 3486   2.024   0.304  14.631 -0.3906 -0.4670  1.5100
  229MPD1    H7 3487   2.115   0.397  14.698  0.2141  0.2928  0.4839
  230MPD1     C 3488   0.887   0.639  15.141 -0.0105 -0.4062 -0.0314
  230MPD1    C1 3489   0.876   0.547  15.036  0.0254  0.0754  0.2055
  230MPD1    C2 3490   0.950   0.433  15.050  0.1580  0.1088  0.2106
  230MPD1    C3 3491   1.029   0.404  15.160 -0.1079 -0.1622  0.9011
  230MPD1    C4 3492   1.045   0.495  15.263 -0.3199  1.3087  0.0097
  230MPD1    C5 3493   0.955   0.603  15.253  0.3092 -0.1183 -0.7566
  230MPD1     H 3494   0.950   0.372  14.960 -0.0353  0.0357  0.2601
  230MPD1    H1 3495   1.097   0.465  15.353  1.9731  2.1178 -1.0562
  230MPD1    H2 3496   0.833   0.733  15.149  0.8748  0.1028 -0.1123
  230MPD1    H3 3497   0.954   0.675  15.334  2.3718 -1.5685  0.5638
  230MPD1     N 3498   1.104   0.285  15.164  1.0038  0.4911 -0.5835
  230MPD1    H5 3499   1.157   0.261  15.247  1.6165  1.9456 -0.5607
  230MPD1    N1 3500   0.833   0.590  14.908  0.0224 -0.7869  0.6617
  230MPD1    H6 3501   0.746   0.642  14.921 -0.0146 -0.3418 -1.3273
  230MPD1    H7 3502   0.812   0.522  14.836  0.1686 -1.2743  1.0823
  231MPD1     C 3503   3.681   2.062  15.478 -0.0645  1.0370  0.0301
  231MPD1    C1 3504   3.754   1.983  15.398  0.5681  0.0260  0.2842
  231MPD1    C2 3505   3.850   2.044  15.318  0.4699  0.5184  0.0757
  231MPD1    C3 3506   3.865   2.184  15.308  0.1551  0.6011 -0.0618
  231MPD1    C4 3507   3.777   2.262  15.379  0.3315  0.5862 -0.2260
  231MPD1    C5 3508   3.691   2.196  15.463  0.1604 -0.2236 -0.6851
  231MPD1     H 3509   3.918   1.983  15.259  0.1166  0.0997  0.0961
  231MPD1    H1 3510   3.773   2.369  15.364 -1.2627  0.7206  1.0806
  231MPD1    H2 3511   3.617   2.013  15.551  0.6689  0.8158  0.5317
  231MPD1    H3 3512   3.623   2.257  15.521  1.0410 -1.3941  1.5909
  231MPD1     N 3513   3.958   2.225  15.213  0.0761 -0.0686 -1.1258
  231MPD1    H5 3514   4.010   2.150  15.168  0.1167 -0.3687 -0.5933
  231MPD1    N1 3515   3.755   1.841  15.417 -0.2397  0.4788  0.1174
  231MPD1    H6 3516   3.796   1.788  15.340 -0.6884 -0.3093  0.4256
  231MPD1    H7 3517   3.664   1.808  15.447  0.1983  0.9775  2.0006
  232MPD1     C 3518   4.581   0.432   0.218 -0.3258 -0.5444 -0.7115
  232MPD1    C1 3519   4.525   0.375   0.332 -0.7069 -0.3193  0.4608
  232MPD1    C2 3520   4.583   0.262   0.380 -0.3040 -0.6493 -0.0728
  232MPD1    C3 3521   4.664   0.178   0.296 -0.4364 -0.1934 -0.5469
  232MPD1    C4 3522   4.712   0.231   0.182  0.2455  0.3886  0.8093
  232MPD1    C5 3523   4.670   0.357   0.147  1.1565 -0.1342 -0.0446
  232MPD1     H 3524   4.568   0.230   0.482 -1.8413 -0.4269 -0.2344
  232MPD1    H1 3525   0.054   0.181   0.113 -0.3364  1.8164 -0.7950
  232MPD1    H2 3526   4.555   0.527   0.173 -1.6748 -0.0526  1.1197
  232MPD1    H3 3527   4.723   0.397   0.061  1.1570 -3.6668 -1.6883
  232MPD1     N 3528   4.700   0.047   0.343  0.1142 -0.5846 -0.2695
  232MPD1    H5 3529   4.659   0.010   0.428  1.6421 -0.2635  0.6013
  232MPD1    N1 3530   4.462   0.455   0.427 -0.5257  0.0290  0.0573
  232MPD1    H6 3531   4.410   0.535   0.391 -0.1188 -0.4769 -1.6537
  232MPD1    H7 3532   4.400   0.406   0.492 -1.1683 -1.1040 -1.4118
  233MPD1     C 3533   1.058   2.204   1.467  0.6130  0.0170 -0.6027
  233MPD1    C1 3534   1.116   2.297   1.382  0.4095 -0.2888 -0.3341
  233MPD1    C2 3535   1.253   2.314   1.389  0.0338 -0.1433 -0.4089
  233MPD1    C3 3536   1.331   2.212   1.437 -0.2654 -0.5274  0.0766
  233MPD1    C4 3537   1.270   2.112   1.496  0.4374 -0.3418  0.0576
  233MPD1    C5 3538   1.139   2.110   1.518  0.0633 -0.2925  0.6532
  233MPD1     H 3539   1.294   2.397   1.333 -2.6854  1.2826 -0.2930
  233MPD1    H1 3540   1.333   2.030   1.532  1.2138 -0.2878 -1.1640
  233MPD1    H2 3541   0.953   2.195   1.489  0.2497  1.3050 -1.8346
  233MPD1    H3 3542   1.096   2.026   1.572  1.2162 -2.7245 -2.1867
  233MPD1     N 3543   1.476   2.220   1.421  0.4322  0.7342 -0.2588
  233MPD1    H5 3544   1.529   2.148   1.469  1.5024  0.1724 -2.2766
  233MPD1    N1 3545   1.036   2.395   1.314 -0.2661  0.2841  0.1878
  233MPD1    H6 3546   0.946   2.356   1.287 -0.5238  0.7843  0.3442
  233MPD1    H7 3547   1.087   2.419   1.228 -1.1954 -0.7240 -0.6432
  234MPD1     C 3548   3.857   0.598   9.299 -0.3448  0.2361  0.0291
  234MPD1    C1 3549   3.754   0.576   9.387 -0.6416 -0.7833 -0.9436
  234MPD1    C2 3550   3.699   0.689   9.458  0.0142 -0.1637 -0.5797
  234MPD1    C3 3551   3.762   0.814   9.458  0.0635  0.7832  0.0749
  234MPD1    C4 3552   3.873   0.820   9.375  0.0740 -0.1821  0.1153
  234MPD1    C5 3553   3.919   0.716   9.298  1.0429  0.6126  0.1659
  234MPD1     H 3554   3.610   0.680   9.519 -1.8013  2.0743 -2.9161
  234MPD1    H1 3555   3.913   0.920   9.371  1.4900 -0.7934 -0.9072
  234MPD1    H2 3556   3.900   0.516   9.243 -0.9521 -1.9062  2.6766
  234MPD1    H3 3557   3.989   0.735   9.218  2.3966 -0.7957  1.0256
  234MPD1     N 3558   3.703   0.926   9.520 -0.6329  0.7374  0.4544
  234MPD1    H5 3559   3.612   0.904   9.559 -1.4137  3.1185 -0.0005
  234MPD1    N1 3560   3.682   0.451   9.373 -0.2238  0.0414  0.2899
  234MPD1    H6 3561   3.730   0.374   9.327  0.6791 -0.8891  2.7649
  234MPD1    H7 3562   3.629   0.419   9.454  1.3462 -1.0713  0.8767
  235MPD1     C 3563   0.956   1.085   8.731  0.2005 -0.0094  0.1273
  235MPD1    C1 3564   0.963   0.949   8.770  0.1627  0.4986 -0.1734
  235MPD1    C2 3565   0.845   0.881   8.769 -0.3394 -0.1244  0.2880
  235MPD1    C3 3566   0.722   0.941   8.742 -0.7654 -0.9843  0.3117
  235MPD1    C4 3567   0.716   1.079   8.722 -0.7037  0.6838  0.3106
  235MPD1    C5 3568   0.839   1.147   8.715 -0.5307  0.3659 -0.4819
  235MPD1     H 3569   0.853   0.773   8.779  0.1257 -0.0111  1.1104
  235MPD1    H1 3570   0.623   1.128   8.698 -0.1334  0.6407 -2.0070
  235MPD1    H2 3571   1.046   1.144   8.722 -0.0319  0.7178  2.5919
  235MPD1    H3 3572   0.843   1.250   8.683 -0.6558  0.0541 -1.4905
  235MPD1     N 3573   0.612   0.851   8.731 -0.7421  0.3540  0.3098
  235MPD1    H5 3574   0.621   0.757   8.768  0.3519  0.6842  0.8829
  235MPD1    N1 3575   1.086   0.881   8.771 -0.4917 -0.4745 -0.6803
  235MPD1    H6 3576   1.093   0.813   8.847 -0.4031 -1.9563 -2.0059
  235MPD1    H7 3577   1.161   0.948   8.789 -0.0846 -1.2676  0.6062
  236MPD1     C 3578   0.244   4.450   9.938 -0.0764  0.2052 -0.0456
  236MPD1    C1 3579   0.189   4.382  10.045 -0.2698 -0.0429 -0.0982
  236MPD1    C2 3580   0.270   4.379  10.161  0.2041 -0.1488 -0.8667
  236MPD1    C3 3581   0.374   4.468  10.179 -0.1778 -0.2674 -0.1804
  236MPD1    C4 3582   0.414   4.548  10.074  0.1132 -0.1252  0.8776
  236MPD1    C5 3583   0.344   4.541   9.956 -0.2966  0.2383 -0.3990
  236MPD1     H 3584   0.242   4.311  10.240  1.3770  1.4326  0.9252
  236MPD1    H1 3585   0.507   4.605  10.075  0.4132 -0.6169  0.1242
  236MPD1    H2 3586   0.204   4.444   9.837  0.3705  1.9523 -0.3372
  236MPD1    H3 3587   0.377   4.614   9.883 -0.2263  0.0790 -0.5272
  236MPD1     N 3588   0.456   4.486  10.297  0.5693  0.7342 -0.2585
  236MPD1    H5 3589   0.533   4.552  10.292  1.1759 -0.0133 -0.8314
  236MPD1    N1 3590   0.078   4.297  10.027  0.1696  0.1779 -0.0460
  236MPD1    H6 3591   0.024   4.299  10.114 -1.2548  1.5813 -0.9504
  236MPD1    H7 3592   0.011   4.326   9.957 -0.8612 -0.1783  0.7901
  237MPD1     C 3593   4.265   3.217  15.745  0.4240 -0.7548 -0.2665
  237MPD1    C1 3594   4.246   3.246  15.611  0.2988 -0.4741  0.6548
  237MPD1    C2 3595   4.120   3.227  15.554  0.0146  0.9248 -0.4078
  237MPD1    C3 3596   4.016   3.190  15.639 -0.4717  0.9257  0.1859
  237MPD1    C4 3597   4.029   3.181  15.776  0.2152  0.2081  0.5838
  237MPD1    C5 3598   4.155   3.186  15.824  0.4334  0.3907  0.5593
  237MPD1     H 3599   4.109   3.237  15.447 -0.6780 -0.8058 -0.5050
  237MPD1    H1 3600   3.950   3.162  15.848 -0.8617 -1.5474 -1.0662
  237MPD1    H2 3601   4.361   3.213  15.795  0.5981  0.3774 -0.5177
  237MPD1    H3 3602   4.164   3.181  15.932  1.1180  0.9261  0.5251
  237MPD1     N 3603   3.886   3.171  15.590 -0.3159 -0.4044 -0.2186
  237MPD1    H5 3604   3.805   3.170  15.652 -0.7816  0.3612 -0.8079
  237MPD1    N1 3605   4.351   3.274  15.518  0.5453  0.3971 -0.1917
  237MPD1    H6 3606   4.319   3.325  15.436  1.6188 -1.4466 -1.7589
  237MPD1    H7 3607   4.432   3.313  15.565 -0.0080  1.3367 -0.0162
  238MPD1     C 3608   1.180   2.074  15.159 -0.3040 -0.4854  0.3440
  238MPD1    C1 3609   1.059   2.020  15.217 -0.4421  0.1345  0.3643
  238MPD1    C2 3610   0.942   2.014  15.145 -0.9355 -0.0141 -0.4181
  238MPD1    C3 3611   0.939   2.064  15.016  0.7309 -0.7232  0.0959
  238MPD1    C4 3612   1.057   2.112  14.962 -0.2255 -0.1212  0.2800
  238MPD1    C5 3613   1.177   2.121  15.034 -0.7977  0.3151 -0.0912
  238MPD1     H 3614   0.857   1.960  15.186 -0.4072 -1.6423 -1.4688
  238MPD1    H1 3615   1.065   2.135  14.857  0.3383  2.1734  0.8236
  238MPD1    H2 3616   1.278   2.049  15.198 -1.4733 -2.2918  2.1005
  238MPD1    H3 3617   1.269   2.145  14.983 -0.2283  0.2471  0.9139
  238MPD1     N 3618   0.822   2.070  14.943 -0.6417  0.0009  0.2347
  238MPD1    H5 3619   0.835   2.116  14.853 -1.5582 -1.6418 -0.7505
  238MPD1    N1 3620   1.082   1.946  15.336  0.4932 -0.0193  0.5558
  238MPD1    H6 3621   1.148   2.001  15.391  1.1699  2.2488 -2.5068
  238MPD1    H7 3622   0.991   1.936  15.380 -0.1334 -0.9680 -0.9334
  239MPD1     C 3623   0.990   3.374  14.967 -0.1203  0.5659  0.3261
  239MPD1    C1 3624   1.095   3.380  14.880  0.0148  0.3214  0.2643
  239MPD1    C2 3625   1.067   3.378  14.746 -0.1576  0.4382  0.5256
  239MPD1    C3 3626   0.941   3.345  14.700 -0.1173 -0.0203 -0.1955
  239MPD1    C4 3627   0.835   3.331  14.795 -0.4047 -0.4286  0.9084
  239MPD1    C5 3628   0.861   3.345  14.928 -0.1940 -0.3235  0.0163
  239MPD1     H 3629   1.158   3.381  14.687 -1.4098 -0.4778 -1.4293
  239MPD1    H1 3630   0.735   3.324  14.753 -0.8104  0.4028  1.7559
  239MPD1    H2 3631   1.004   3.370  15.074 -1.4143  1.7236  0.5429
  239MPD1    H3 3632   0.778   3.345  14.998  0.8340 -0.8886  1.2472
  239MPD1     N 3633   0.910   3.330  14.562  0.0087  0.3102 -0.0186
  239MPD1    H5 3634   0.823   3.282  14.544  0.4406 -1.6473  3.0468
  239MPD1    N1 3635   1.219   3.422  14.928  0.0304 -0.1166 -0.5412
  239MPD1    H6 3636   1.226   3.378  15.019  1.2649  0.6371 -0.2689
  239MPD1    H7 3637   1.298   3.403  14.867  0.3403 -2.6321  0.6476
  240MPD1     C 3638   0.156   2.807  13.595  0.2119 -0.1300  0.0065
  240MPD1    C1 3639   0.081   2.800  13.703 -0.5745 -0.2563  0.0090
  240MPD1    C2 3640   0.143   2.768  13.821  0.3105 -0.0365  0.7894
  240MPD1    C3 3641   0.274   2.730  13.829 -0.0451  0.0575 -0.3560
  240MPD1    C4 3642   0.349   2.730  13.714 -0.0633  0.2293 -0.7953
  240MPD1    C5 3643   0.289   2.780  13.600  0.2267 -0.8424  0.6974
  240MPD1     H 3644   0.077   2.779  13.906  0.1667  1.6626  0.4596
  240MPD1    H1 3645   0.452   2.697  13.704 -0.6043 -1.6686 -0.1192
  240MPD1    H2 3646   0.110   2.830  13.500  2.4292  0.2639 -0.9778
  240MPD1    H3 3647   0.340   2.757  13.507 -1.1528 -0.5542 -0.1218
  240MPD1     N 3648   0.323   2.679  13.957 -0.4456 -0.3307  0.2489
  240MPD1    H5 3649   0.253   2.692  14.029  0.4370  0.1571  1.0306
  240MPD1    N1 3650   4.681   2.847  13.688 -0.5146 -0.5101 -0.0757
  240MPD1    H6 3651   4.632   2.804  13.767  0.1610  1.0282  1.1772
  240MPD1    H7 3652   4.632   2.810  13.606  0.8309 -2.0661 -0.1778
  241MPD1     C 3653   1.230   2.643  14.366  0.0512  0.9887 -0.4226
  241MPD1    C1 3654   1.138   2.634  14.470 -0.4042  0.3548 -0.0238
  241MPD1    C2 3655   1.012   2.583  14.442  0.2382  0.0171 -0.0588
  241MPD1    C3 3656   0.970   2.566  14.309 -0.4578  0.1435  0.2117
  241MPD1    C4 3657   1.065   2.578  14.212  0.0832 -0.5318  0.1070
  241MPD1    C5 3658   1.191   2.616  14.237  0.5735  0.4794 -0.0011
  241MPD1     H 3659   0.942   2.565  14.523  1.2824 -1.1697  0.5878
  241MPD1    H1 3660   1.034   2.553  14.111 -0.0017  2.9609 -0.7581
  241MPD1    H2 3661   1.334   2.672  14.376 -0.2713  2.0607 -0.1491
  241MPD1    H3 3662   1.266   2.614  14.158 -0.6140 -0.1224 -1.1029
  241MPD1     N 3663   0.843   2.530  14.267  0.1314 -0.1663 -0.2753
  241MPD1    H5 3664   0.843   2.554  14.169  1.4868  1.1963  0.0508
  241MPD1    N1 3665   1.171   2.650  14.598 -0.1968 -0.4504 -0.0367
  241MPD1    H6 3666   1.259   2.700  14.611 -1.1319  1.0479  0.4974
  241MPD1    H7 3667   1.089   2.686  14.645 -0.1797  1.9099 -1.8336
  242MPD1     C 3668   4.647   1.025  16.579 -0.3569  0.1187 -0.0462
  242MPD1    C1 3669   0.056   0.986  16.580 -0.0914  0.5992  0.3678
  242MPD1    C2 3670   0.112   0.937  16.461 -0.0147 -0.4158 -0.3278
  242MPD1    C3 3671   0.049   0.950  16.337  0.0759 -0.7235 -0.2725
  242MPD1    C4 3672   4.651   1.007  16.344 -0.4503 -0.5068 -0.3719
  242MPD1    C5 3673   4.586   1.034  16.459 -0.1235  0.2515 -0.8551
  242MPD1     H 3674   0.217   0.910  16.460  0.9602  3.2668  0.6214
  242MPD1    H1 3675   4.610   1.033  16.247 -0.5560  2.7791  0.5564
  242MPD1    H2 3676   4.593   1.051  16.669 -2.3303 -4.1448 -0.0074
  242MPD1    H3 3677   4.486   1.077  16.454 -0.9251 -1.7242 -1.9625
  242MPD1     N 3678   0.101   0.927  16.207 -0.1643  0.0826  0.5858
  242MPD1    H5 3679   0.034   0.941  16.133  0.5351  1.2265  0.1604
  242MPD1    N1 3680   0.116   0.948  16.708  0.4949  0.4512  0.1091
  242MPD1    H6 3681   0.217   0.961  16.708  0.2949  2.0881  3.3043
  242MPD1    H7 3682   0.088   1.011  16.783 -1.5439  1.8425 -1.8192
  243MPD1     C 3683   2.476   4.257  16.017 -0.1753 -0.9676  0.5330
  243MPD1    C1 3684   2.431   4.128  15.997 -0.6307  0.3785  0.2918
  243MPD1    C2 3685   2.317   4.073  16.069  0.0708  0.6608  0.2606
  243MPD1    C3 3686   2.244   4.157  16.152  0.8120  0.4509  0.0613
  243MPD1    C4 3687   2.289   4.290  16.159  0.2235  1.1056 -0.3791
  243MPD1    C5 3688   2.391   4.342  16.085  0.2548 -0.1807 -0.1553
  243MPD1     H 3689   2.293   3.967  16.072  0.9854  0.3297 -3.7136
  243MPD1    H1 3690   2.251   4.355  16.236 -2.3277 -0.0675 -0.6387
  243MPD1    H2 3691   2.555   4.300  15.957  0.9812 -2.4688  0.9730
  243MPD1    H3 3692   2.419   4.440  16.121  1.7890 -1.7006  2.7631
  243MPD1     N 3693   2.135   4.102  16.212 -1.5498 -0.4888  0.7111
  243MPD1    H5 3694   2.123   4.002  16.196  0.6740 -0.9645  1.9788
  243MPD1    N1 3695   2.515   4.036  15.924  0.0577 -0.0870 -0.0788
  243MPD1    H6 3696   2.579   4.088  15.865 -0.6198  0.5447 -0.2564
  243MPD1    H7 3697   2.463   3.979  15.859 -1.9084  2.4472 -0.7421
  244MPD1     C 3698   1.646   4.164  17.111  0.3104  0.0189 -0.6612
  244MPD1    C1 3699   1.780   4.126  17.103  0.0645  0.6308  0.3330
  244MPD1    C2 3700   1.828   4.096  16.975 -0.1603  0.5348 -0.4058
  244MPD1    C3 3701   1.756   4.114  16.863 -0.5823  0.4206 -0.1613
  244MPD1    C4 3702   1.643   4.179  16.874 -0.6819  0.4201 -0.1896
  244MPD1    C5 3703   1.595   4.215  16.997  0.0365 -0.0082  0.1377
  244MPD1     H 3704   1.925   4.046  16.972 -0.2189  0.4514 -1.0704
  244MPD1    H1 3705   1.584   4.205  16.787 -2.2140  1.9214  1.2750
  244MPD1    H2 3706   1.599   4.192  17.205 -0.5133 -0.0196 -1.0643
  244MPD1    H3 3707   1.490   4.242  17.004  0.3160  1.4789 -1.4046
  244MPD1     N 3708   1.804   4.056  16.746 -0.0930  0.0716 -0.1816
  244MPD1    H5 3709   1.895   4.011  16.748  1.2180  2.6447 -2.0867
  244MPD1    N1 3710   1.856   4.094  17.220  0.4193 -0.1201 -0.0712
  244MPD1    H6 3711   1.951   4.131  17.219 -0.8198  3.0826  0.5732
  244MPD1    H7 3712   1.820   4.125  17.309 -1.6226 -0.2219 -0.8713
  245MPD1     C 3713   3.036   0.008  13.335  0.7465 -0.4819 -0.0447
  245MPD1    C1 3714   3.113   0.029  13.447  0.8728 -1.0696 -0.1177
  245MPD1    C2 3715   3.173   0.151  13.457  0.9160  0.3143 -0.1230
  245MPD1    C3 3716   3.145   0.249  13.358 -0.4585  0.8344 -0.2313
  245MPD1    C4 3717   3.068   0.230  13.250  0.7127  0.3244  0.3547
  245MPD1    C5 3718   3.009   0.108  13.246  0.5824 -0.6534 -0.4212
  245MPD1     H 3719   3.236   0.166  13.544  1.3795 -0.8751 -0.2521
  245MPD1    H1 3720   3.042   0.301  13.172 -0.9412  1.0613  1.5788
  245MPD1    H2 3721   2.981   4.641  13.325  0.6751 -0.5524  1.0287
  245MPD1    H3 3722   2.919   0.096  13.187  0.3040  2.8969 -0.7332
  245MPD1     N 3723   3.208   0.375  13.381  0.3143 -0.1679 -0.1826
  245MPD1    H5 3724   3.273   0.380  13.460  0.1907 -0.6063 -0.0506
  245MPD1    N1 3725   3.149   4.648  13.531 -0.0109  0.2112 -0.0103
  245MPD1    H6 3726   3.191   4.680  13.617 -1.8159 -0.2628  1.0475
  245MPD1    H7 3727   3.065   4.592  13.542 -0.7902  1.0335 -1.8059
  246MPD1     C 3728   0.653   2.074   9.879 -0.3529  0.4438 -0.4439
  246MPD1    C1 3729   0.715   1.953   9.845 -0.8254 -0.0430 -0.2728
  246MPD1    C2 3730   0.643   1.866   9.762 -0.0322  0.2475 -0.1482
  246MPD1    C3 3731   0.512   1.890   9.728 -0.6026 -0.3895 -0.2526
  246MPD1    C4 3732   0.452   1.998   9.780  0.1126  0.7944  0.2885
  246MPD1    C5 3733   0.522   2.086   9.858 -0.5264  0.1729  0.4902
  246MPD1     H 3734   0.693   1.778   9.725 -2.9843 -1.7972  0.6977
  246MPD1    H1 3735   0.352   2.023   9.750 -0.2645 -1.4058 -0.2807
  246MPD1    H2 3736   0.695   2.157   9.936 -3.6985  3.2959 -2.1086
  246MPD1    H3 3737   0.461   2.165   9.900 -0.0953 -0.8176  2.9662
  246MPD1     N 3738   0.450   1.806   9.630  0.2286  0.3134  0.1840
  246MPD1    H5 3739   0.513   1.750   9.573 -0.9295 -1.5840  0.7620
  246MPD1    N1 3740   0.858   1.943   9.852 -0.0350  1.0953  0.5014
  246MPD1    H6 3741   0.880   1.995   9.937 -2.1118 -1.6713  2.7249
  246MPD1    H7 3742   0.880   1.847   9.877  1.2603  1.0453 -0.7826
  247MPD1     C 3743   3.143   4.519  17.225  0.6811  0.1102  0.6532
  247MPD1    C1 3744   3.098   4.390  17.211  0.4853  0.1418 -0.8655
  247MPD1    C2 3745   3.107   4.337  17.084  0.1149  0.6289 -0.0541
  247MPD1    C3 3746   3.132   4.419  16.970  0.0523  0.4091  0.6941
  247MPD1    C4 3747   3.162   4.553  16.995  0.4741  0.9923  0.1809
  247MPD1    C5 3748   3.166   4.605  17.122  0.4431 -0.6793  0.3370
  247MPD1     H 3749   3.084   4.232  17.077  4.1308 -0.3103  0.6096
  247MPD1    H1 3750   3.186   4.629  16.921  0.8735 -0.9768 -1.7205
  247MPD1    H2 3751   3.168   4.557  17.324  1.5302  0.9469  0.1144
  247MPD1    H3 3752   3.184   4.711  17.133  0.6636 -0.5844 -0.9032
  247MPD1     N 3753   3.154   4.375  16.838 -0.2150 -0.0623 -0.0614
  247MPD1    H5 3754   3.190   4.447  16.776 -0.2897 -1.6571 -1.9650
  247MPD1    N1 3755   3.096   4.312  17.321 -0.4385 -0.2304 -0.2069
  247MPD1    H6 3756   3.060   4.220  17.299 -0.6565 -0.5619  1.4719
  247MPD1    H7 3757   3.045   4.347  17.402  0.5248 -0.8605  0.6799
  248MPD1     C 3758   4.100   4.626   0.010  0.2429  0.3738 -0.2875
  248MPD1    C1 3759   4.010   4.702   0.079  0.3623  0.6423  0.0733
  248MPD1    C2 3760   3.942   4.651   0.183  0.2365 -0.6482  0.6368
  248MPD1    C3 3761   3.934   4.514   0.209  0.0810  0.5146  0.0320
  248MPD1    C4 3762   4.015   4.433   0.133  0.4103  0.3091 -0.3812
  248MPD1    C5 3763   4.102   4.493   0.045 -0.3898  0.0278 -0.6139
  248MPD1     H 3764   3.894   4.713   0.259 -0.3813  0.4556 -0.6444
  248MPD1    H1 3765   4.033   4.329   0.155  3.3564  0.8419 -0.3570
  248MPD1    H2 3766   4.150   4.664  17.623  0.3125  0.7097 -0.1050
  248MPD1    H3 3767   4.183   4.440  17.698 -0.2515 -1.1499  0.9064
  248MPD1     N 3768   3.862   4.475   0.317 -0.5030  0.3219  0.2083
  248MPD1    H5 3769   3.806   4.548   0.360 -0.6291  0.3874 -0.0680
  248MPD1    N1 3770   4.008   0.115   0.059  0.1289 -0.3712 -0.8222
  248MPD1    H6 3771   3.924   0.159   0.098  1.9135  2.4952 -0.2039
  248MPD1    H7 3772   4.016   0.130  17.661 -1.2407  1.1454 -0.7106
  249MPD1     C 3773   0.779   4.279   9.390  0.0665  0.6446  0.0350
  249MPD1    C1 3774   0.904   4.300   9.436 -0.1216  0.4407  0.1593
  249MPD1    C2 3775   0.953   4.226   9.539  0.7492 -0.2963 -0.1008
  249MPD1    C3 3776   0.864   4.141   9.611 -0.6233 -0.6651  0.2408
  249MPD1    C4 3777   0.733   4.140   9.570 -0.0731 -0.2001 -0.2834
  249MPD1    C5 3778   0.699   4.198   9.453 -0.3549 -0.2750 -0.3731
  249MPD1     H 3779   1.051   4.256   9.575  0.3176  0.7859  0.1832
  249MPD1    H1 3780   0.672   4.059   9.607  1.2908 -1.1824 -0.1908
  249MPD1    H2 3781   0.746   4.315   9.293 -3.1814 -2.3747  0.0277
  249MPD1    H3 3782   0.605   4.166   9.408 -0.2684 -0.5459 -0.3608
  249MPD1     N 3783   0.908   4.092   9.742 -0.0174 -0.5644  0.4521
  249MPD1    H5 3784   1.004   4.118   9.765  0.1232 -2.5153  2.0684
  249MPD1    N1 3785   0.989   4.378   9.354  0.7497 -1.4287 -0.1905
  249MPD1    H6 3786   1.078   4.402   9.398 -0.3530 -1.2918  1.9390
  249MPD1    H7 3787   0.946   4.455   9.304  1.2759 -2.6092 -2.4812
  250MPD2     C 3788   1.626   3.759  13.310 -0.5177  0.3130  0.6036
  250MPD2    C1 3789   1.669   3.793  13.184  0.0322 -0.4042 -0.1039
  250MPD2    C2 3790   1.684   3.697  13.083  0.3017 -0.1501  0.6502
  250MPD2    C3 3791   1.650   3.562  13.113 -0.2265  0.5876  0.0043
  250MPD2    C4 3792   1.621   3.530  13.243 -0.3048 -0.1264  0.4743
  250MPD2    C5 3793   1.604   3.626  13.338  0.5740  0.5350 -0.1530
  250MPD2     H 3794   1.701   3.726  12.980  3.0538 -0.6005  1.0006
  250MPD2    H1 3795   1.585   3.430  13.261  0.5946  0.0587  3.3424
  250MPD2    H2 3796   1.613   3.836  13.385 -0.7322  0.8406  0.0185
  250MPD2    H3 3797   1.573   3.594  13.436 -0.0016  1.2175 -0.1082
  250MPD2     N 3798   1.648   3.459  13.018 -0.3336  0.1371 -0.7466
  250MPD2    H5 3799   1.608   3.372  13.052 -0.9389  0.5714 -0.3693
  250MPD2    N1 3800   1.695   3.931  13.168 -0.2515 -0.6357 -0.1879
  250MPD2    H7 3801   1.673   4.001  13.237 -1.5153 -1.0206 -0.1928
  251TMC3    C1 3802   1.739   4.131  13.059  0.0114 -0.2191  0.0400
  251TMC3    C2 3803   1.714   4.198  13.170 -0.4065  0.7510  0.2395
  251TMC3    C3 3804   1.739   4.331  13.160 -0.2544  0.5512  0.3614
  251TMC3    C4 3805   1.794   4.185  12.946 -0.1925 -0.8868 -0.7428
  251TMC3    C5 3806   1.836   4.310  12.948  0.4204  0.0598  0.0606
  251TMC3    C6 3807   1.801   4.387  13.054 -0.2986  0.2517  0.0198
  251TMC3     C 3808   1.743   3.986  13.055  0.2575  0.3135 -0.1609
  251TMC3     O 3809   1.790   3.932  12.958  0.3205 -0.2563  0.2478
  251TMC3     H 3810   1.673   4.164  13.265 -1.5852 -0.0330 -0.5511
  251TMC3    H1 3811   1.840   4.129  12.866 -1.1946 -2.3336 -0.3166
  251TMC3    H2 3812   1.845   4.486  13.059 -0.7054  0.5291 -1.8762
  251TMC3    C7 3813   1.910   4.375  12.843 -0.2212 -0.0084 -0.1956
  251TMC3    C8 3814   1.755   4.404  13.288  0.0149  0.2564 -0.2581
  251TMC3    O1 3815   1.861   4.480  12.792  0.2193  0.0128 -0.1313
  251TMC3    O2 3816   1.816   4.341  13.373  0.0570 -0.5472  0.5313
  252TMC3    C1 3817   3.227   3.772   9.676  0.1003 -0.3520  0.1722
  252TMC3    C2 3818   3.313   3.850   9.612  0.9208 -0.3891 -0.5072
  252TMC3    C3 3819   3.424   3.790   9.573 -0.6506  0.6107  0.6479
  252TMC3    C4 3820   3.230   3.633   9.664  0.3429 -0.1089 -0.4097
  252TMC3    C5 3821   3.345   3.579   9.609 -0.2035 -0.6600  0.5411
  252TMC3    C6 3822   3.447   3.661   9.573  0.1885 -0.7866 -0.3358
  252TMC3     C 3823   3.206   3.837   9.803  0.2242 -0.2282 -0.1797
  252TMC3     O 3824   3.248   3.950   9.812  0.2343 -0.1025  0.5368
  252TMC3     H 3825   3.299   3.957   9.603  1.7897 -0.1123  1.3401
  252TMC3    H1 3826   3.148   3.580   9.712  0.7614 -2.7860 -2.6337
  252TMC3    H2 3827   3.530   3.618   9.518 -0.1345 -1.9991  0.1519
  252TMC3    C7 3828   3.342   3.448   9.565  0.1771  0.7465 -0.3460
  252TMC3    C8 3829   3.549   3.863   9.606  0.0757  0.1076 -0.5191
  252TMC3    O1 3830   3.441   3.377   9.563  0.1422  0.0967 -0.3598
  252TMC3    O2 3831   3.651   3.822   9.551 -0.5826  0.3207 -0.3143
  253MPD2     C 3832   3.573   3.556  15.323  0.5488 -0.0968 -1.1453
  253MPD2    C1 3833   3.436   3.550  15.320 -0.3225  0.3673  0.0009
  253MPD2    C2 3834   3.370   3.495  15.429 -0.1015  0.1702  0.1502
  253MPD2    C3 3835   3.434   3.456  15.549  0.0584  0.6887 -0.6119
  253MPD2    C4 3836   3.573   3.472  15.550  0.1989 -0.4384 -0.3537
  253MPD2    C5 3837   3.643   3.517  15.435 -0.1929  0.4133 -0.0830
  253MPD2     H 3838   3.262   3.497  15.418 -0.1927 -1.3510  0.8297
  253MPD2    H1 3839   3.631   3.445  15.638  1.0988 -0.2961 -0.8993
  253MPD2    H2 3840   3.625   3.602  15.240  0.3062 -1.5942 -2.1336
  253MPD2    H3 3841   3.751   3.514  15.440 -0.1933 -1.2165 -1.3758
  253MPD2     N 3842   3.363   3.400  15.657 -0.7896 -0.5696 -0.2464
  253MPD2    H5 3843   3.417   3.397  15.742 -0.6715  0.1574 -0.2966
  253MPD2    N1 3844   3.354   3.599  15.211 -0.1968 -0.3376  0.0294
  253MPD2    H7 3845   3.256   3.574  15.210 -0.5685  1.1146 -0.3101
  254TMC3    C1 3846   3.191   3.328  15.791  0.7339 -0.1618  0.2096
  254TMC3    C2 3847   3.057   3.333  15.816  0.0927  0.1964 -0.1975
  254TMC3    C3 3848   3.009   3.277  15.931 -0.8803 -0.5892 -0.6109
  254TMC3    C4 3849   3.285   3.284  15.884  0.0277 -0.2450  0.5754
  254TMC3    C5 3850   3.238   3.232  16.002  0.3345  0.7875  0.2850
  254TMC3    C6 3851   3.100   3.230  16.022 -0.3126 -0.0254 -0.8775
  254TMC3     C 3852   3.228   3.378  15.661  0.4874 -0.5570 -0.2469
  254TMC3     O 3853   3.135   3.407  15.584  0.1361 -0.6188 -0.3012
  254TMC3     H 3854   2.988   3.357  15.736 -1.9275 -1.3263  1.0736
  254TMC3    H1 3855   3.385   3.257  15.853  0.1574 -1.0068  1.6392
  254TMC3    H2 3856   3.065   3.198  16.119  1.4112 -1.4765 -0.7460
  254TMC3    C7 3857   3.321   3.194  16.119 -0.1716 -0.4812 -0.5871
  254TMC3    C8 3858   2.876   3.312  15.990  0.4714 -0.6537  0.3199
  254TMC3    O1 3859   3.256   3.138  16.207 -0.5095  0.2339  0.6101
  254TMC3    O2 3860   2.846   3.240  16.082 -0.3269  1.1126  0.5708
  255MPD2     C 3861   1.552   1.545  10.860 -0.1304  0.5813 -0.1992
  255MPD2    C1 3862   1.526   1.584  10.730  0.1718 -0.1582  0.6030
  255MPD2    C2 3863   1.628   1.579  10.637  0.4064 -0.7618 -0.6629
  255MPD2    C3 3864   1.754   1.556  10.671  0.3300 -0.4656  0.3242
  255MPD2    C4 3865   1.785   1.531  10.805  0.6069  0.8278  0.0718
  255MPD2    C5 3866   1.682   1.524  10.897 -0.2734  0.5009  0.6149
  255MPD2     H 3867   1.603   1.604  10.534  1.3645 -1.4096 -1.0411
  255MPD2    H1 3868   1.885   1.507  10.841  0.4971 -0.2628 -0.3671
  255MPD2    H2 3869   1.477   1.535  10.938  2.0271 -0.0494  1.8053
  255MPD2    H3 3870   1.705   1.491  10.997 -0.3414  1.4355  0.9341
  255MPD2     N 3871   1.845   1.549  10.567 -0.5538 -0.1172 -0.3253
  255MPD2    H5 3872   1.819   1.586  10.476 -0.5603 -1.8330 -1.0211
  255MPD2    N1 3873   1.391   1.611  10.700 -0.0747  0.2164 -0.0587
  255MPD2    H7 3874   1.329   1.587  10.776  0.1718 -0.0705  0.0508
  256TMC3    C1 3875   1.207   1.624  10.547 -0.3610 -0.1321  0.1577
  256TMC3    C2 3876   1.169   1.657  10.425  0.4662 -0.2263  0.0578
  256TMC3    C3 3877   1.085   1.576  10.362  0.5185  0.2423  0.4928
  256TMC3    C4 3878   1.139   1.537  10.628  0.3545 -0.4030  1.0272
  256TMC3    C5 3879   1.049   1.453  10.569 -0.8727  0.1018  0.4755
  256TMC3    C6 3880   1.025   1.468  10.431 -0.4077  0.5187  0.2854
  256TMC3     C 3881   1.348   1.661  10.580 -0.2574 -0.1035  0.3997
  256TMC3     O 3882   1.417   1.712  10.490 -0.1715 -0.3295 -0.9167
  256TMC3     H 3883   1.216   1.740  10.375 -1.5792 -0.0564 -1.5668
  256TMC3    H1 3884   1.166   1.518  10.732  0.1644  2.4253  1.5867
  256TMC3    H2 3885   0.964   1.391  10.384  0.5206  0.6429 -1.1491
  256TMC3    C7 3886   1.060   1.331  10.614 -0.5421 -0.1579  0.8462
  256TMC3    C8 3887   1.148   1.524  10.239 -0.3730 -0.4468 -0.2285
  256TMC3    O1 3888   1.168   1.289  10.649  0.0162  0.2893  0.0593
  256TMC3    O2 3889   1.267   1.552  10.227  0.1368 -0.1957  0.1189
  257MPD2     C 3890   0.958   3.857  13.372  0.2690 -0.2274  0.4986
  257MPD2    C1 3891   0.884   3.785  13.276  0.1131 -0.1661 -0.0778
  257MPD2    C2 3892   0.826   3.661  13.313  0.0124  0.5150 -0.4373
  257MPD2    C3 3893   0.836   3.613  13.446 -0.0586 -0.0859 -0.2510
  257MPD2    C4 3894   0.905   3.691  13.536 -0.0645 -0.4809  0.6287
  257MPD2    C5 3895   0.958   3.812  13.496  0.3296 -0.2626 -0.0366
  257MPD2     H 3896   0.759   3.623  13.237  1.4841  1.3679 -2.1657
  257MPD2    H1 3897   0.928   3.668  13.639  0.0931 -2.3790  0.1845
  257MPD2    H2 3898   0.999   3.953  13.344  0.3480  0.2867  2.3962
  257MPD2    H3 3899   1.007   3.865  13.577 -0.8547 -1.2340  1.3002
  257MPD2     N 3900   0.772   3.484  13.469  0.5479 -0.1199  0.2279
  257MPD2    H5 3901   0.754   3.429  13.385  1.6697  0.0217 -0.0999
  257MPD2    N1 3902   0.866   3.846  13.151  0.3810  0.4759  0.3588
  257MPD2    H7 3903   0.917   3.931  13.130  2.3775 -0.7175  0.3468
  258TMC3    C1 3904   0.645   3.336  13.586 -0.4661 -0.4125  0.1828
  258TMC3    C2 3905   0.561   3.317  13.472  0.4612 -0.7240  0.4913
  258TMC3    C3 3906   0.476   3.211  13.472 -0.3502  0.4436  0.1949
  258TMC3    C4 3907   0.627   3.261  13.697 -0.8661  0.9089 -0.5790
  258TMC3    C5 3908   0.539   3.155  13.691 -0.6194 -0.5248 -0.4706
  258TMC3    C6 3909   0.452   3.132  13.583 -0.5562 -0.1481 -0.1584
  258TMC3     C 3910   0.741   3.440  13.592 -0.5568  0.2680 -0.0907
  258TMC3     O 3911   0.770   3.484  13.703 -0.0086 -0.1847 -0.0311
  258TMC3     H 3912   0.578   3.378  13.384  1.9337  0.2506  1.4497
  258TMC3    H1 3913   0.685   3.274  13.787 -0.8663 -1.3320 -0.2508
  258TMC3    H2 3914   0.384   3.047  13.585 -0.1211 -0.5079 -0.6412
  258TMC3    C7 3915   0.505   3.070  13.803  0.4342 -0.1097 -0.6487
  258TMC3    C8 3916   0.426   3.179  13.343 -0.3350  0.6759 -0.4824
  258TMC3    O1 3917   0.391   3.026  13.810 -0.0585 -0.2603  0.0292
  258TMC3    O2 3918   0.475   3.244  13.251 -0.0348  0.1655 -0.5745
  259MPD2     C 3919   4.231   3.730   1.937 -0.6300  0.2357 -0.1482
  259MPD2    C1 3920   4.291   3.854   1.943 -0.5034  0.2481 -0.8763
  259MPD2    C2 3921   4.371   3.899   1.843 -0.4538  0.5585  0.3917
  259MPD2    C3 3922   4.389   3.822   1.733 -0.5493 -1.3696 -0.9998
  259MPD2    C4 3923   4.331   3.692   1.728  0.0070  0.3950  0.4805
  259MPD2    C5 3924   4.265   3.642   1.833  0.4830 -0.6039 -0.0263
  259MPD2     H 3925   4.432   3.988   1.852 -0.2201  0.5603 -1.2954
  259MPD2    H1 3926   4.339   3.623   1.644  2.5381  1.8648 -0.4702
  259MPD2    H2 3927   4.161   3.698   2.013  0.0059 -1.4629 -0.2766
  259MPD2    H3 3928   4.228   3.540   1.834 -0.0245 -0.4077  0.9162
  259MPD2     N 3929   4.459   3.881   1.625  0.2888  0.4128 -0.1291
  259MPD2    H5 3930   4.500   3.973   1.633  2.9749 -0.6890 -1.3552
  259MPD2    N1 3931   4.259   3.937   2.055  0.1384  0.0575 -0.6532
  259MPD2    H7 3932   4.202   3.888   2.124  0.2256  0.2275 -0.4629
  260TMC3    C1 3933   4.528   3.876   1.397 -0.4691 -0.4021  0.3270
  260TMC3    C2 3934   4.494   4.007   1.378  0.5805  0.1657  0.3715
  260TMC3    C3 3935   4.539   4.053   1.261  0.3362 -0.0478  0.6610
  260TMC3    C4 3936   4.606   3.794   1.310  0.7559  0.1430 -0.2467
  260TMC3    C5 3937   4.669   3.859   1.208 -0.8058  0.1312  0.1460
  260TMC3    C6 3938   4.645   3.993   1.187 -0.4137  0.9458  0.7562
  260TMC3     C 3939   4.466   3.805   1.505  0.0189 -0.2691  0.1263
  260TMC3     O 3940   4.453   3.686   1.483 -0.4516  0.3370 -0.3898
  260TMC3     H 3941   4.419   4.062   1.435 -0.7075 -0.7600 -0.4414
  260TMC3    H1 3942   4.635   3.695   1.343 -0.1774  0.1280  0.5413
  260TMC3    H2 3943   4.687   4.035   1.097 -0.2151  0.7800  0.7689
  260TMC3    C7 3944   4.692   3.774   1.090 -0.0009 -0.4693 -0.1937
  260TMC3    C8 3945   4.502   4.188   1.223  0.5482  0.0581  0.6691
  260TMC3    O1 3946   0.000   3.831   0.985 -0.2791  0.1273 -0.5772
  260TMC3    O2 3947   4.486   4.265   1.315 -0.4712  0.0618 -0.2351
  261MPD2     C 3948   1.872   3.280  12.191  0.7457 -0.3744  0.0518
  261MPD2    C1 3949   1.822   3.393  12.255  0.5563 -0.1603 -0.4430
  261MPD2    C2 3950   1.821   3.511  12.188 -0.2638 -0.3714 -0.7304
  261MPD2    C3 3951   1.887   3.523  12.061  0.5239 -0.5290 -0.0300
  261MPD2    C4 3952   1.924   3.404  12.004 -0.5118  0.6122  0.2533
  261MPD2    C5 3953   1.925   3.279  12.068 -0.6302  0.4535 -0.2504
  261MPD2     H 3954   1.765   3.598  12.221  0.1585 -0.8749  1.3081
  261MPD2    H1 3955   1.974   3.401  11.908 -0.2592 -0.7786  0.4350
  261MPD2    H2 3956   1.871   3.183  12.241 -2.4074 -0.0773  0.5611
  261MPD2    H3 3957   1.974   3.192  12.027 -0.7971  0.3235 -0.1731
  261MPD2     N 3958   1.896   3.650  11.998 -0.6715  0.1436  0.8864
  261MPD2    H5 3959   1.844   3.722  12.048 -0.2965  1.4283 -0.5582
  261MPD2    N1 3960   1.759   3.385  12.383 -0.4974 -0.3955 -0.5683
  261MPD2    H7 3961   1.739   3.478  12.419 -1.9470 -1.0196  0.2231
  262TMC3    C1 3962   1.970   3.805  11.841  0.1617 -0.0023  0.2559
  262TMC3    C2 3963   1.855   3.877  11.859 -0.1092 -0.5624  0.2586
  262TMC3    C3 3964   1.856   4.001  11.798 -0.1544  0.2141 -0.2092
  262TMC3    C4 3965   2.076   3.842  11.769  0.2277  0.2232 -0.2221
  262TMC3    C5 3966   2.063   3.961  11.696 -0.6547  0.1496  0.3638
  262TMC3    C6 3967   1.948   4.039  11.707  0.0746  0.0279  0.0395
  262TMC3     C 3968   1.983   3.671  11.898  0.5435 -0.5596 -0.7516
  262TMC3     O 3969   2.074   3.599  11.861 -0.5309  0.2475  0.5868
  262TMC3     H 3970   1.769   3.829  11.906 -0.8148 -0.2963 -0.7751
  262TMC3    H1 3971   2.174   3.800  11.790 -0.1289 -2.1740 -3.2884
  262TMC3    H2 3972   1.932   4.112  11.629  2.8116  1.0923  0.4641
  262TMC3    C7 3973   2.183   4.023  11.656  0.5920 -0.3925 -0.1468
  262TMC3    C8 3974   1.776   4.116  11.829  0.0301  0.2845  0.1059
  262TMC3    O1 3975   2.286   3.956  11.652 -0.1278  0.0932  0.0740
  262TMC3    O2 3976   1.812   4.219  11.779 -0.1445 -0.4808 -0.4960
  263MPD2     C 3977   2.383   2.919  11.417 -0.4554 -0.5311 -0.9692
  263MPD2    C1 3978   2.450   2.989  11.519  0.6355 -0.3469 -0.4593
  263MPD2    C2 3979   2.523   3.103  11.493 -0.1473  0.6780  0.7628
  263MPD2    C3 3980   2.547   3.133  11.360  0.2914 -0.3650  0.3100
  263MPD2    C4 3981   2.494   3.059  11.258  0.4001  0.5546  0.4374
  263MPD2    C5 3982   2.411   2.954  11.285  0.2682  0.1240  0.1619
  263MPD2     H 3983   2.582   3.143  11.574  1.1497  1.0926 -0.3777
  263MPD2    H1 3984   2.500   3.083  11.153 -1.0073 -3.8767 -0.6704
  263MPD2    H2 3985   2.321   2.835  11.447 -0.1880  0.2819  1.8235
  263MPD2    H3 3986   2.376   2.898  11.199 -0.9890  1.1745 -0.0034
  263MPD2     N 3987   2.639   3.234  11.337  0.1919 -0.6573 -0.1809
  263MPD2    H5 3988   2.671   3.283  11.420  2.7903 -3.0124  0.2103
  263MPD2    N1 3989   2.440   2.929  11.646  1.2191  0.2384  0.7260
  263MPD2    H7 3990   2.386   2.843  11.645 -0.1945  1.1334  0.9377
  264TMC3    C1 3991   2.742   3.396  11.190  0.0828  0.1480 -0.3226
  264TMC3    C2 3992   2.728   3.497  11.285 -0.2676  1.1266  0.0597
  264TMC3    C3 3993   2.791   3.618  11.256 -0.4382  0.3072 -0.5207
  264TMC3    C4 3994   2.808   3.416  11.065  0.3002  0.2334 -0.4871
  264TMC3    C5 3995   2.862   3.540  11.041  0.0828  0.2710  0.0469
  264TMC3    C6 3996   2.854   3.630  11.137  0.8216  0.2636  0.3861
  264TMC3     C 3997   2.679   3.270  11.208 -0.4963  0.2239  0.3223
  264TMC3     O 3998   2.670   3.211  11.100  1.0214 -0.5024 -0.1509
  264TMC3     H 3999   2.683   3.487  11.382 -0.3302 -1.5315 -0.2490
  264TMC3    H1 4000   2.816   3.333  10.996 -0.7154  0.8081 -1.3016
  264TMC3    H2 4001   2.879   3.734  11.119  1.2164 -0.3028 -2.2990
  264TMC3    C7 4002   2.986   3.533  10.963 -0.0976  0.0539 -0.2106
  264TMC3    C8 4003   2.892   3.666  11.353  0.4235 -0.1454  0.3383
  264TMC3    O1 4004   2.983   3.483  10.850 -0.2375  0.0751 -0.6396
  264TMC3    O2 4005   3.001   3.672  11.302 -0.3453  0.5700  0.2246
  265MPD2     C 4006   4.687   3.207  15.601  0.3964 -0.9788 -0.3961
  265MPD2    C1 4007   4.668   3.313  15.519  0.1253 -0.5652 -0.7529
  265MPD2    C2 4008   4.703   3.302  15.385  0.4911  0.8045 -0.1957
  265MPD2    C3 4009   0.013   3.176  15.336 -0.3096  0.3395 -0.0027
  265MPD2    C4 4010   0.018   3.068  15.420  0.9175  0.2283 -0.1776
  265MPD2    C5 4011   0.001   3.082  15.554  0.4046  0.1010  0.4762
  265MPD2     H 4012   4.697   3.381  15.311 -2.5814  2.2723  1.6349
  265MPD2    H1 4013   0.053   2.973  15.381 -1.1504 -0.7871  0.4233
  265MPD2    H2 4014   4.672   3.200  15.708 -2.3602 -0.4513 -0.7287
  265MPD2    H3 4015   0.012   2.995  15.617 -0.2157  1.0769  1.9190
  265MPD2     N 4016   0.038   3.159  15.199  0.7431  0.0086 -0.3855
  265MPD2    H5 4017   0.071   3.065  15.177  1.1550  0.1959 -0.5693
  265MPD2    N1 4018   4.630   3.440  15.571 -0.3975 -0.5130 -0.1904
  265MPD2    H7 4019   4.594   3.509  15.507 -1.3583  1.8841  2.9259
  266TMC3    C1 4020   4.535   3.595  15.727  0.1378  0.0631  0.5279
  266TMC3    C2 4021   4.463   3.605  15.851  0.4101  0.2715  0.2427
  266TMC3    C3 4022   4.389   3.714  15.868  0.2135  0.4012  0.0790
  266TMC3    C4 4023   4.516   3.677  15.628  0.2363  0.0377  0.3805
  266TMC3    C5 4024   4.416   3.775  15.647  0.8406  0.4967 -0.0302
  266TMC3    C6 4025   4.358   3.792  15.767 -0.4133 -0.0300  0.0751
  266TMC3     C 4026   4.604   3.472  15.702 -0.3037 -0.0052 -0.1541
  266TMC3     O 4027   4.608   3.400  15.801 -0.4480 -0.1907  0.1607
  266TMC3     H 4028   4.481   3.535  15.933  0.9773  0.1069 -0.0213
  266TMC3    H1 4029   4.566   3.685  15.533 -0.7239  1.1820 -0.0353
  266TMC3    H2 4030   4.290   3.877  15.775 -0.2385  0.3152 -2.1862
  266TMC3    C7 4031   4.432   3.895  15.563 -0.4322 -0.6891 -0.0448
  266TMC3    C8 4032   4.306   3.752  15.986  0.2073 -0.3394  0.2757
  266TMC3    O1 4033   4.550   3.922  15.546  0.0451  0.2526 -0.0154
  266TMC3    O2 4034   4.188   3.783  15.961 -0.0305  0.5718  0.0180
  267MPD2     C 4035   2.294   4.585   0.351  0.0139 -0.1278 -0.1445
  267MPD2    C1 4036   2.367   4.601   0.237 -0.1188 -0.9412 -0.2618
  267MPD2    C2 4037   2.301   4.610   0.115 -0.8555 -0.5159  0.3041
  267MPD2    C3 4038   2.162   4.602   0.108 -0.5864 -1.5384 -0.1420
  267MPD2    C4 4039   2.089   4.600   0.228  0.2402  0.9109 -0.2101
  267MPD2    C5 4040   2.150   4.572   0.342  0.2223  0.0313  0.3887
  267MPD2     H 4041   2.361   4.619   0.025 -0.7496 -0.4942  0.3770
  267MPD2    H1 4042   1.981   4.596   0.233  0.3563 -1.3485  0.7615
  267MPD2    H2 4043   2.327   4.558   0.451 -0.6756  2.2993  0.7346
  267MPD2    H3 4044   2.084   4.560   0.427  0.4704  0.3343  0.6274
  267MPD2     N 4045   2.087   4.586  17.689 -0.6333  1.0304 -0.0142
  267MPD2    H5 4046   1.989   4.561  17.692 -1.1254  3.1013  0.6913
  267MPD2    N1 4047   2.511   4.599   0.247 -0.5961  0.9409  0.4067
  267MPD2    H7 4048   2.553   4.554   0.328  1.1692  0.9963 -0.4924
  268TMC3    C1 4049   2.739   4.623   0.196 -0.3024  0.0872  0.1241
  268TMC3    C2 4050   2.827   0.001   0.165 -0.3688 -0.3537  0.5767
  268TMC3    C3 4051   2.909   0.051   0.260  0.7697 -0.0822 -0.4924
  268TMC3    C4 4052   2.745   4.557   0.317 -0.4379  0.0915 -0.3905
  268TMC3    C5 4053   2.831   4.612   0.414 -0.4856  0.4471  0.5173
  268TMC3    C6 4054   2.906   0.001   0.390  0.3501 -0.1152 -0.0871
  268TMC3     C 4055   2.602   4.633   0.149 -0.3972 -0.2961  0.5771
  268TMC3     O 4056   2.577   4.686   0.041 -0.1692 -0.5020  0.0372
  268TMC3     H 4057   2.805   0.049   0.070  0.4856 -2.8636 -0.8973
  268TMC3    H1 4058   2.694   4.463   0.333  0.7259 -0.4884 -0.1048
  268TMC3    H2 4059   2.971   0.050   0.462  0.6447  1.8964 -1.7055
  268TMC3    C7 4060   2.829   4.552   0.546 -0.5117  1.0196 -0.4289
  268TMC3    C8 4061   2.988   0.174   0.242 -0.7461 -0.4909  0.1063
  268TMC3    O1 4062   2.727   4.493   0.580 -0.0808  0.0579 -0.6818
  268TMC3    O2 4063   3.038   0.223   0.344  0.6230 -0.1208  0.4860
  269MPD2     C 4064   2.333   3.719  15.757 -0.5579  0.2628  0.0281
  269MPD2    C1 4065   2.201   3.736  15.798 -0.0935 -0.2010  0.6456
  269MPD2    C2 4066   2.147   3.863  15.805 -0.0062 -1.0015  0.1442
  269MPD2    C3 4067   2.215   3.965  15.743 -0.3368 -0.9697 -0.1204
  269MPD2    C4 4068   2.341   3.943  15.691  0.2545  0.2144  0.0079
  269MPD2    C5 4069   2.407   3.820  15.710  0.5390 -0.7436 -0.4707
  269MPD2     H 4070   2.052   3.891  15.848 -0.0192 -0.5492 -0.1843
  269MPD2    H1 4071   2.396   4.029  15.654  0.8419 -0.8663 -1.6320
  269MPD2    H2 4072   2.386   3.627  15.738  0.4549  0.1317  3.4303
  269MPD2    H3 4073   2.507   3.802  15.671  0.2763 -1.1325 -0.9587
  269MPD2     N 4074   2.159   4.094  15.754  0.0489 -0.4182  0.4726
  269MPD2    H5 4075   2.070   4.096  15.802  0.3067 -1.5426  1.0039
  269MPD2    N1 4076   2.126   3.620  15.822 -0.4885  0.2677 -0.6479
  269MPD2    H7 4077   2.168   3.533  15.791 -0.7559 -0.0488 -0.1164
  270TMC3    C1 4078   1.935   3.490  15.871  0.1198  0.2250 -0.4047
  270TMC3    C2 4079   1.819   3.468  15.807  0.5371  0.0586  0.2197
  270TMC3    C3 4080   1.779   3.339  15.790  0.4034 -0.1284 -0.1192
  270TMC3    C4 4081   2.009   3.388  15.926  0.3800  0.3956  0.2587
  270TMC3    C5 4082   1.959   3.262  15.909  0.1662 -0.3739 -0.4586
  270TMC3    C6 4083   1.843   3.232  15.846  0.5305 -0.5080  0.8897
  270TMC3     C 4084   1.991   3.620  15.847 -0.1263 -0.0582 -0.3242
  270TMC3     O 4085   1.915   3.713  15.829 -0.0160  0.1644  0.1008
  270TMC3     H 4086   1.776   3.548  15.748  1.4919  0.7443  0.4475
  270TMC3    H1 4087   2.104   3.414  15.971  0.7025 -1.4532  0.6647
  270TMC3    H2 4088   1.803   3.133  15.828  0.3108 -0.3658  0.5794
  270TMC3    C7 4089   2.046   3.156  15.952  0.7907 -0.3748 -0.0774
  270TMC3    C8 4090   1.756   3.311  15.649 -0.1808  0.0057 -0.0521
  270TMC3    O1 4091   2.167   3.168  15.943  0.3467  0.0115  0.3213
  270TMC3    O2 4092   1.804   3.389  15.569 -0.0364 -0.2021 -0.4789
  271MPD2     C 4093   1.310   3.505  14.089  0.2364  0.0886  0.4254
  271MPD2    C1 4094   1.310   3.552  14.221  0.2595  0.2053 -1.1520
  271MPD2    C2 4095   1.246   3.675  14.251 -0.6779 -0.2864  0.6232
  271MPD2    C3 4096   1.190   3.749  14.148  0.2982 -0.4052  0.8296
  271MPD2    C4 4097   1.195   3.698  14.018 -0.1992  0.5425  0.4446
  271MPD2    C5 4098   1.257   3.585  13.986  0.2321 -0.4273 -0.7940
  271MPD2     H 4099   1.250   3.714  14.352 -1.6152  1.4256 -0.0138
  271MPD2    H1 4100   1.143   3.755  13.941  1.2243 -0.1749 -1.0383
  271MPD2    H2 4101   1.353   3.410  14.059 -0.5426 -0.4803  1.1215
  271MPD2    H3 4102   1.270   3.546  13.885 -0.3106  1.3211 -1.5356
  271MPD2     N 4103   1.117   3.872  14.156 -0.7439  0.3369  0.1698
  271MPD2    H5 4104   1.078   3.915  14.073  0.1683 -0.6883 -0.7840
  271MPD2    N1 4105   1.386   3.495  14.319 -0.2249 -0.6932  0.3738
  271MPD2    H7 4106   1.379   3.528  14.415 -1.1617 -2.4621  0.9247
  272TMC3    C1 4107   1.567   3.355  14.397 -0.2260  0.8295  0.1842
  272TMC3    C2 4108   1.686   3.306  14.360 -0.5350  0.4423 -0.6579
  272TMC3    C3 4109   1.761   3.249  14.458  0.0229 -0.4081  0.3838
  272TMC3    C4 4110   1.516   3.342  14.524  0.5853 -0.0792 -0.3230
  272TMC3    C5 4111   1.598   3.303  14.621 -0.0021  0.5924 -0.7927
  272TMC3    C6 4112   1.720   3.256  14.590 -0.4016  0.1431  0.5910
  272TMC3     C 4113   1.482   3.397  14.291 -1.2707 -0.1491 -0.2339
  272TMC3     O 4114   1.518   3.351  14.187 -0.1507 -0.1282 -0.4259
  272TMC3     H 4115   1.715   3.286  14.258 -0.9110 -2.1916 -0.2446
  272TMC3    H1 4116   1.416   3.377  14.546  1.3706 -0.0128  3.0806
  272TMC3    H2 4117   1.796   3.235  14.665 -0.7731 -3.0810  0.0519
  272TMC3    C7 4118   1.551   3.320  14.755  0.0122 -0.4842 -0.6108
  272TMC3    C8 4119   1.873   3.174  14.413  0.6530 -0.6089 -0.2806
  272TMC3    O1 4120   1.433   3.358  14.766 -0.2269  0.0960  0.3948
  272TMC3    O2 4121   1.928   3.217  14.314 -0.6880 -0.2133 -0.1328
  273MPD2     C 4122   3.519   2.384  11.071 -0.3959 -0.9456  0.0253
  273MPD2    C1 4123   3.467   2.380  11.196  0.1094 -0.1699 -0.2962
  273MPD2    C2 4124   3.345   2.316  11.216 -0.2474 -0.6006  0.4564
  273MPD2    C3 4125   3.275   2.269  11.103 -0.9274  0.0079 -0.4638
  273MPD2    C4 4126   3.336   2.270  10.984 -0.0121 -0.1821 -0.0249
  273MPD2    C5 4127   3.457   2.326  10.965  0.3798  0.8944 -0.4268
  273MPD2     H 4128   3.289   2.308  11.308  0.4269 -1.7955  0.7575
  273MPD2    H1 4129   3.284   2.232  10.897  2.3967  1.9719 -2.4021
  273MPD2    H2 4130   3.615   2.431  11.051 -1.2076  0.3289 -0.9630
  273MPD2    H3 4131   3.497   2.340  10.866  0.7770 -0.7517 -0.5046
  273MPD2     N 4132   3.141   2.220  11.119  0.0877  0.4398  0.2885
  273MPD2    H5 4133   3.106   2.230  11.214 -1.4136 -1.2831 -0.0763
  273MPD2    N1 4134   3.552   2.418  11.299 -0.2020  0.4236 -0.4288
  273MPD2    H7 4135   3.635   2.462  11.260  1.0448  0.2584  2.0705
  274TMC3    C1 4136   2.931   2.119  11.073  0.5368  0.0430  0.0241
  274TMC3    C2 4137   2.841   2.140  10.968  0.6448 -0.5030 -0.6355
  274TMC3    C3 4138   2.716   2.172  11.010 -0.6458 -0.6932 -0.0779
  274TMC3    C4 4139   2.902   2.126  11.208  0.5959 -0.0700 -0.5084
  274TMC3    C5 4140   2.778   2.156  11.237  0.4961  0.1905  0.4757
  274TMC3    C6 4141   2.687   2.176  11.142 -0.1818 -0.0870  0.2464
  274TMC3     C 4142   3.067   2.141  11.029  0.4400  0.1014  0.2359
  274TMC3     O 4143   3.099   2.106  10.919 -0.0874 -0.2660  0.1818
  274TMC3     H 4144   2.864   2.131  10.862 -0.8437 -1.6037 -0.8760
  274TMC3    H1 4145   2.971   2.121  11.291  1.9975 -0.1696 -1.6855
  274TMC3    H2 4146   2.587   2.203  11.172 -0.3016  0.6660 -0.8378
  274TMC3    C7 4147   2.739   2.200  11.366 -0.9578 -0.0272 -1.0398
  274TMC3    C8 4148   2.613   2.206  10.914  0.0127 -0.5509  0.4484
  274TMC3    O1 4149   2.638   2.267  11.368 -0.6812  0.0358  0.4679
  274TMC3    O2 4150   2.499   2.222  10.957  0.2126 -0.3096 -0.3450
  275MPD2     C 4151   3.229   4.161  14.689 -0.2352 -0.5320 -0.2229
  275MPD2    C1 4152   3.128   4.246  14.650  0.2770 -0.2312 -0.2010
  275MPD2    C2 4153   3.002   4.206  14.637 -0.1219  0.2731 -0.1485
  275MPD2    C3 4154   2.974   4.073  14.662  0.6992  0.3074 -0.3337
  275MPD2    C4 4155   3.077   3.987  14.687 -0.1007 -0.2675 -0.4122
  275MPD2    C5 4156   3.211   4.026  14.703  0.0032 -0.6570  0.1503
  275MPD2     H 4157   2.929   4.279  14.604  0.1069 -0.5483 -2.4854
  275MPD2    H1 4158   3.054   3.883  14.709 -0.8356 -0.0004  0.0694
  275MPD2    H2 4159   3.328   4.196  14.714 -0.3764 -0.9538  0.9529
  275MPD2    H3 4160   3.289   3.963  14.745  1.6989  0.3456 -1.4746
  275MPD2     N 4161   2.843   4.026  14.658 -0.5064  0.0002  0.3375
  275MPD2    H5 4162   2.831   3.925  14.662  0.0924 -0.1945 -2.8524
  275MPD2    N1 4163   3.140   4.385  14.625  0.4852  0.4595  0.8625
  275MPD2    H7 4164   3.065   4.430  14.574  1.2644  0.8482  0.0686
  276TMC3    C1 4165   3.206   4.605  14.662 -0.0757 -0.3988  0.0717
  276TMC3    C2 4166   3.069   4.624  14.671 -0.3156  0.1432  0.3888
  276TMC3    C3 4167   3.021   4.702  14.768 -0.2135  0.6113  0.1342
  276TMC3    C4 4168   3.296   4.671  14.747  0.0453  0.2763 -0.1258
  276TMC3    C5 4169   3.245   0.031  14.843  0.2173  0.0863 -0.3693
  276TMC3    C6 4170   3.107   0.048  14.845  0.7435 -0.1103 -0.1738
  276TMC3     C 4171   3.241   4.464  14.674 -0.3743  0.6169 -0.1340
  276TMC3     O 4172   3.330   4.440  14.754 -0.2994 -0.4889 -0.4038
  276TMC3     H 4173   2.994   4.594  14.599  1.6045 -2.4893 -0.5260
  276TMC3    H1 4174   3.402   4.647  14.745  0.0068  0.2260 -2.1169
  276TMC3    H2 4175   3.068   0.100  14.931  1.3468 -1.7076  1.0732
  276TMC3    C7 4176   3.317   0.027  14.972 -0.2961  1.0656 -0.0311
  276TMC3    C8 4177   2.920   4.641  14.848  0.3206 -0.2350 -0.4195
  276TMC3    O1 4178   3.283   0.108  15.058  0.1070 -0.3610 -0.6137
  276TMC3    O2 4179   2.861   4.708  14.931  0.0607  0.2511  0.1393
  277MPD2     C 4180   4.660   3.795  13.315 -0.0136  0.1532 -0.0265
  277MPD2    C1 4181   4.541   3.871  13.339  0.1086 -0.0771 -0.6892
  277MPD2    C2 4182   4.438   3.812  13.411 -0.0220  0.2666 -0.3862
  277MPD2    C3 4183   4.430   3.679  13.422  0.4295 -0.6323  0.3159
  277MPD2    C4 4184   4.548   3.608  13.402 -0.4386 -0.5294 -0.0967
  277MPD2    C5 4185   4.665   3.664  13.355 -0.0792 -0.5204 -0.0433
  277MPD2     H 4186   4.352   3.869  13.446 -1.1194 -1.9488  0.5390
  277MPD2    H1 4187   4.552   3.501  13.419  1.2892 -0.6752 -1.3923
  277MPD2    H2 4188   0.025   3.839  13.273  0.5013  0.1673  1.0823
  277MPD2    H3 4189   0.028   3.600  13.351 -0.4219 -0.9534 -0.4884
  277MPD2     N 4190   4.313   3.623  13.481 -0.4358  0.2896 -0.2623
  277MPD2    H5 4191   4.247   3.686  13.526 -1.2961  0.0864 -1.2335
  277MPD2    N1 4192   4.531   4.008  13.308 -0.3250 -0.3256 -0.2460
  277MPD2    H7 4193   4.598   4.033  13.236  0.2241  1.3444  0.8532
  278TMC3    C1 4194   4.195   3.462  13.594 -0.5627  0.3699 -0.2451
  278TMC3    C2 4195   4.141   3.335  13.581  0.4082  0.0814 -0.7453
  278TMC3    C3 4196   4.029   3.307  13.655 -0.3810  0.1725  0.3840
  278TMC3    C4 4197   4.124   3.562  13.659 -0.5496 -0.1093  0.0085
  278TMC3    C5 4198   4.003   3.537  13.710  0.7156  0.1358 -0.2209
  278TMC3    C6 4199   3.957   3.403  13.724 -0.5901  0.5800  0.1090
  278TMC3     C 4200   4.295   3.487  13.495  0.1918  0.8447  0.8465
  278TMC3     O 4201   4.357   3.392  13.451 -0.2892 -0.2233  0.2852
  278TMC3     H 4202   4.190   3.246  13.543  0.2090 -0.2123 -0.3211
  278TMC3    H1 4203   4.180   3.654  13.669  1.5649 -1.2497 -1.3438
  278TMC3    H2 4204   3.870   3.371  13.781 -0.7104 -0.0590 -0.4288
  278TMC3    C7 4205   3.923   3.656  13.756 -0.7838 -0.9510  0.0572
  278TMC3    C8 4206   3.970   3.176  13.651 -0.2550 -0.1651 -0.5182
  278TMC3    O1 4207   3.982   3.763  13.757  0.0212  0.0600  0.3918
  278TMC3    O2 4208   3.903   3.131  13.743 -0.4784  0.1837 -0.6171
  279MPD2     C 4209   3.602   3.302   0.562 -0.1718  0.6517  0.0881
  279MPD2    C1 4210   3.643   3.432   0.588 -0.1657  0.3632 -0.5229
  279MPD2    C2 4211   3.700   3.511   0.491 -0.1443 -0.8961 -0.7281
  279MPD2    C3 4212   3.712   3.451   0.366 -0.0548 -0.2117  0.0585
  279MPD2    C4 4213   3.667   3.325   0.338  0.2822 -0.5797 -0.2701
  279MPD2    C5 4214   3.609   3.251   0.434  0.6328  0.0229 -0.0677
  279MPD2     H 4215   3.720   3.615   0.517  0.5077 -0.6851 -2.0779
  279MPD2    H1 4216   3.677   3.288   0.237  0.9476  1.3651 -0.9161
  279MPD2    H2 4217   3.566   3.245   0.647  0.8549  0.2067  0.2293
  279MPD2    H3 4218   3.570   3.151   0.417 -1.5787  1.0222 -0.8855
  279MPD2     N 4219   3.771   3.522   0.260 -0.0306  0.3340  0.3233
  279MPD2    H5 4220   3.783   3.470   0.174  0.0054 -0.0209  0.5429
  279MPD2    N1 4221   3.623   3.477   0.721  0.2798  1.2831 -0.6789
  279MPD2    H7 4222   3.553   3.425   0.774  2.2101  1.6414  2.2274
  280TMC3    C1 4223   3.597   3.628   0.893 -0.5599  0.1182  0.5129
  280TMC3    C2 4224   3.679   3.665   1.002  0.2481  0.6829 -0.3224
  280TMC3    C3 4225   3.617   3.676   1.124 -0.1841  0.2939 -0.0517
  280TMC3    C4 4226   3.463   3.616   0.907  0.2420  0.5146 -0.4489
  280TMC3    C5 4227   3.409   3.630   1.032 -0.0274  0.2654  0.0512
  280TMC3    C6 4228   3.482   3.664   1.144  0.5798  0.2065 -0.2393
  280TMC3     C 4229   3.661   3.597   0.772 -0.5746 -0.0421 -0.2420
  280TMC3     O 4230   3.756   3.667   0.749 -0.2180 -0.0481  0.2141
  280TMC3     H 4231   3.785   3.654   0.983  0.6990 -0.5719  2.9085
  280TMC3    H1 4232   3.389   3.578   0.837  0.6615 -0.3376 -0.4399
  280TMC3    H2 4233   3.428   3.692   1.233 -0.8165 -0.5008 -0.8440
  280TMC3    C7 4234   3.268   3.620   1.049  1.0337  0.7237  0.6142
  280TMC3    C8 4235   3.685   3.705   1.249 -0.1523 -0.1541 -0.2242
  280TMC3    O1 4236   3.228   3.564   1.150 -0.3123 -0.5212  0.3169
  280TMC3    O2 4237   3.629   3.685   1.356  0.3431  0.2311  0.0215
  281TMC3    C1 4238   2.191   4.049  13.571 -0.2339  0.1110  0.8637
  281TMC3    C2 4239   2.212   4.054  13.436 -0.3315  0.3646 -1.1848
  281TMC3    C3 4240   2.125   3.975  13.359  1.0630 -0.1386  0.3367
  281TMC3    C4 4241   2.093   3.982  13.633  0.0843  0.8287  0.1442
  281TMC3    C5 4242   2.006   3.918  13.558 -0.0238  0.4940  0.3250
  281TMC3    C6 4243   2.018   3.912  13.421  0.0595 -0.2090  0.3657
  281TMC3     C 4244   2.255   4.149  13.648  0.3359  0.3083 -0.3392
  281TMC3     O 4245   2.287   4.123  13.766 -0.2792  0.6284  0.4444
  281TMC3     H 4246   2.286   4.118  13.390  1.1097 -0.2739  0.2283
  281TMC3    H1 4247   2.082   3.985  13.741 -1.6781  1.0164 -0.0280
  281TMC3    H2 4248   1.941   3.868  13.358  0.0066 -0.3560  0.5327
  281TMC3    C7 4249   1.875   3.882  13.616  0.1037 -0.0893  0.1193
  281TMC3    C8 4250   2.101   4.025  13.233 -0.1065  0.3105 -0.3432
  281TMC3    O1 4251   1.810   3.964  13.676  0.4741  0.0837 -0.3401
  281TMC3    O2 4252   1.985   4.038  13.202  0.2787 -0.6438  0.2345
  282MPD2     C 4253   4.525   0.371  15.088 -0.0615  0.0119  0.0465
  282MPD2    C1 4254   4.414   0.451  15.103 -0.6093 -0.1341  0.3233
  282MPD2    C2 4255   4.364   0.511  14.991 -0.3643  0.1952  0.0627
  282MPD2    C3 4256   4.403   0.466  14.860 -0.5286  0.2214  0.0317
  282MPD2    C4 4257   4.508   0.375  14.845  0.0227 -0.3762  0.5976
  282MPD2    C5 4258   4.566   0.337  14.961 -0.5121  0.1687  0.3981
  282MPD2     H 4259   4.276   0.574  14.999  0.1746  0.8625  0.7061
  282MPD2    H1 4260   4.537   0.333  14.750 -2.6503  0.5154 -0.5947
  282MPD2    H2 4261   4.572   0.326  15.174 -1.4323  1.8713  1.7455
  282MPD2    H3 4262   4.645   0.263  14.969  0.2802  0.8031 -1.8234
  282MPD2     N 4263   4.324   0.506  14.744 -0.0171  0.2159  0.2730
  282MPD2    H5 4264   4.249   0.574  14.754  0.3672  1.0155 -2.4291
  282MPD2    N1 4265   4.359   0.489  15.235 -0.0316 -0.0322 -0.1351
  282MPD2    H7 4266   4.296   0.568  15.235  0.8488  0.6688 -0.2633
  283TMC3    C1 4267   4.267   0.449  15.451  0.3426  0.6184  0.1332
  283TMC3    C2 4268   4.226   0.576  15.476  0.5097 -0.1546  0.6595
  283TMC3    C3 4269   4.118   0.585  15.561  0.4131  0.3999  0.1622
  283TMC3    C4 4270   4.230   0.340  15.527 -0.6469 -0.5160  0.2444
  283TMC3    C5 4271   4.128   0.359  15.616 -0.1149 -0.1378  0.1932
  283TMC3    C6 4272   4.065   0.482  15.633 -0.4286  0.1514 -0.0827
  283TMC3     C 4273   4.380   0.425  15.359 -0.2233 -0.2833 -0.2455
  283TMC3     O 4274   4.455   0.333  15.390  0.1669  0.6323  0.1207
  283TMC3     H 4275   4.284   0.658  15.438  3.0048 -2.1812  0.1067
  283TMC3    H1 4276   4.280   0.246  15.506  0.6552  0.8203 -2.5525
  283TMC3    H2 4277   3.985   0.508  15.702 -0.3642 -0.8409  0.3589
  283TMC3    C7 4278   4.088   0.257  15.711 -0.4880 -0.5854  0.9444
  283TMC3    C8 4279   4.057   0.716  15.581  0.7108  0.4169 -0.3065
  283TMC3    O1 4280   4.029   0.300  15.808 -0.2661  0.2100  0.4697
  283TMC3    O2 4281   3.990   0.735  15.680  0.1587  0.1300 -0.2675
  284MPD2     C 4282   2.930   4.714  11.628 -0.1688 -0.8528  0.8137
  284MPD2    C1 4283   2.984   0.029  11.752 -0.4821 -0.2493  0.1135
  284MPD2    C2 4284   2.929   4.697  11.867 -0.0069  0.1349 -0.0301
  284MPD2    C3 4285   2.827   4.601  11.847 -0.5022  0.1820 -0.0039
  284MPD2    C4 4286   2.786   4.557  11.721 -0.6662 -0.2666 -0.1243
  284MPD2    C5 4287   2.836   4.617  11.612  0.1553 -0.2230 -0.5769
  284MPD2     H 4288   2.956   4.723  11.969  0.8318  0.4664 -0.3451
  284MPD2    H1 4289   2.716   4.477  11.700 -1.1469 -0.4161  2.0654
  284MPD2    H2 4290   2.967   0.025  11.533 -1.4011 -0.5046  0.4603
  284MPD2    H3 4291   2.822   4.586  11.509 -0.1482  3.3478 -1.5911
  284MPD2     N 4292   2.789   4.553  11.973 -0.5386  0.0503 -0.3130
  284MPD2    H5 4293   2.837   4.593  12.053  0.5867 -1.8623 -0.0278
  284MPD2    N1 4294   3.094   0.117  11.765 -0.8826  0.1479  0.3861
  284MPD2    H7 4295   3.148   0.125  11.851  1.3501 -0.5274 -0.9634
  285TMC3    C1 4296   3.292   0.212  11.687  0.3834  0.1902  0.1648
  285TMC3    C2 4297   3.363   0.116  11.758  0.0359  0.4791  0.1175
  285TMC3    C3 4298   3.499   0.124  11.753 -0.0377 -0.1057  0.1872
  285TMC3    C4 4299   3.349   0.294  11.591 -0.8244 -0.6633  0.5055
  285TMC3    C5 4300   3.490   0.287  11.583  0.6469  0.6627 -0.6162
  285TMC3    C6 4301   3.565   0.213  11.671  0.8870  0.5373 -0.2263
  285TMC3     C 4302   3.154   0.177  11.660  0.0058 -0.2351 -0.4173
  285TMC3     O 4303   3.098   0.226  11.562 -0.4594  0.3000  0.0402
  285TMC3     H 4304   3.319   0.042  11.824 -2.0270 -1.6351 -3.6751
  285TMC3    H1 4305   3.279   0.360  11.542  1.0020  0.2491 -0.8591
  285TMC3    H2 4306   3.668   0.201  11.639  0.8204 -2.0584  0.5171
  285TMC3    C7 4307   3.552   0.399  11.526 -0.3456 -0.5279  0.4209
  285TMC3    C8 4308   3.559   4.714  11.757 -0.1182 -0.0790  1.3245
  285TMC3    O1 4309   3.632   0.453  11.601 -0.5291  0.0145  0.4130
  285TMC3    O2 4310   3.478   4.621  11.757  0.2295  0.1891 -0.4558
  286MPD2     C 4311   2.840   3.041   1.781 -0.3655  0.4613  0.3755
  286MPD2    C1 4312   2.777   2.974   1.671  0.1384 -0.1818  0.0616
  286MPD2    C2 4313   2.827   2.847   1.645 -0.0433  0.2315  0.1231
  286MPD2    C3 4314   2.930   2.781   1.717  0.3950 -0.7194  0.1780
  286MPD2    C4 4315   2.985   2.857   1.822  0.3950 -0.2157 -0.2701
  286MPD2    C5 4316   2.943   2.980   1.855  0.4988 -0.3441  0.2594
  286MPD2     H 4317   2.775   2.799   1.562 -2.0049 -0.6883  1.8692
  286MPD2    H1 4318   3.056   2.804   1.884  0.5887  0.4760  0.1001
  286MPD2    H2 4319   2.816   3.144   1.802 -0.9233 -0.1932  2.9530
  286MPD2    H3 4320   2.991   3.036   1.934  1.2200 -1.9799  0.9805
  286MPD2     N 4321   2.983   2.652   1.694  0.0540 -0.2006  0.4522
  286MPD2    H5 4322   3.047   2.617   1.765  2.0177  0.8378 -0.8110
  286MPD2    N1 4323   2.677   3.029   1.591  0.3046 -0.4430 -0.3625
  286MPD2    H7 4324   2.636   2.975   1.515  1.9579  0.0684 -1.6423
  287TMC3    C1 4325   3.070   2.479   1.556 -1.1321  0.3355 -0.0100
  287TMC3    C2 4326   3.055   2.396   1.446  0.0718 -0.2049  0.3625
  287TMC3    C3 4327   3.143   2.306   1.414  0.2547  0.0326  0.5067
  287TMC3    C4 4328   3.180   2.469   1.635 -0.1488 -0.0506  0.1574
  287TMC3    C5 4329   3.267   2.363   1.608  0.1464  0.1984 -0.4119
  287TMC3    C6 4330   3.257   2.287   1.491 -0.2662  0.7597  0.1046
  287TMC3     C 4331   2.965   2.583   1.575  0.3180 -0.2163  0.5202
  287TMC3     O 4332   2.881   2.601   1.491  0.1495  0.8051  0.2203
  287TMC3     H 4333   2.966   2.395   1.384 -0.8785 -1.5527  1.7514
  287TMC3    H1 4334   3.194   2.528   1.725  1.5435  0.5094 -0.4774
  287TMC3    H2 4335   3.329   2.209   1.470  1.1011  1.8609  0.7301
  287TMC3    C7 4336   3.399   2.378   1.667 -0.0159  0.0371 -0.3800
  287TMC3    C8 4337   3.128   2.231   1.290 -0.9548 -0.8287  0.1743
  287TMC3    O1 4338   3.413   2.476   1.740 -0.1566 -0.2870  0.6981
  287TMC3    O2 4339   3.027   2.252   1.223  0.1051 -0.5342 -0.6096
  288TMC3    C1 4340   4.538   2.935  14.121  1.3446 -0.1725 -0.2743
  288TMC3    C2 4341   4.562   2.936  14.258  0.1266 -0.2708 -0.1232
  288TMC3    C3 4342   4.570   3.062  14.320  0.1115  0.1468  0.4565
  288TMC3    C4 4343   4.503   3.050  14.050  0.1447 -0.0507 -0.2999
  288TMC3    C5 4344   4.505   3.165  14.121  0.1065 -0.1488  0.2816
  288TMC3    C6 4345   4.543   3.174  14.252 -0.1588 -0.1611  1.0099
  288TMC3     C 4346   4.529   2.812  14.041  0.3315  0.4353  0.2498
  288TMC3     O 4347   4.474   2.815  13.931  0.5288 -0.7090  0.4958
  288TMC3     H 4348   4.573   2.840  14.307 -2.1295 -1.0665 -1.1827
  288TMC3    H1 4349   4.460   3.047  13.950  2.3823 -0.9852 -1.2581
  288TMC3    H2 4350   4.536   3.274  14.294 -0.0521  0.2009  0.1780
  288TMC3    C7 4351   4.482   3.287  14.053 -0.5974 -0.0954 -0.5675
  288TMC3    C8 4352   4.573   3.077  14.460 -0.2097 -0.7942  0.0899
  288TMC3    O1 4353   4.429   3.376  14.120  0.2285 -0.6264 -0.3917
  288TMC3    O2 4354   4.613   3.183  14.503 -0.5268  0.2824  0.4466
  289MPD2     C 4355   0.174   2.041  14.335 -0.7747 -0.3468 -0.1969
  289MPD2    C1 4356   0.158   2.177  14.331  0.1170 -0.0895  0.0549
  289MPD2    C2 4357   0.030   2.223  14.350 -0.0959 -0.0651 -0.2775
  289MPD2    C3 4358   4.642   2.137  14.340 -0.0288 -0.3264 -0.0121
  289MPD2    C4 4359   4.664   2.001  14.351  0.2288 -0.1791  0.3601
  289MPD2    C5 4360   0.067   1.957  14.350  0.0593 -0.4469  0.7217
  289MPD2     H 4361   0.018   2.330  14.361 -0.8071  0.0458 -2.2290
  289MPD2    H1 4362   4.583   1.929  14.339  0.0466  0.5007 -2.4869
  289MPD2    H2 4363   0.273   1.997  14.345  0.1829  1.0502 -3.3334
  289MPD2    H3 4364   0.088   1.851  14.355  1.4425 -0.2369 -0.5345
  289MPD2     N 4365   4.507   2.178  14.341  0.0728  0.9589 -0.0204
  289MPD2    H5 4366   4.443   2.106  14.310 -0.8272  1.5855  0.4070
  289MPD2    N1 4367   0.266   2.265  14.313 -0.3063 -0.3568 -0.4456
  289MPD2    H7 4368   0.354   2.217  14.296 -1.0047 -2.5817  2.1487
  290TMC3    C1 4369   4.342   2.345  14.279 -0.1749  0.2010  0.3176
  290TMC3    C2 4370   4.337   2.477  14.235 -0.6511  0.4047  0.2989
  290TMC3    C3 4371   4.220   2.509  14.169 -0.1238 -0.0537 -0.6358
  290TMC3    C4 4372   4.247   2.247  14.259  0.2332  0.5836 -0.6152
  290TMC3    C5 4373   4.136   2.288  14.194 -0.2326 -0.3117 -0.2459
  290TMC3    C6 4374   4.124   2.417  14.147  0.1008 -0.0809  0.2798
  290TMC3     C 4375   4.474   2.312  14.344 -0.6475  0.4106  0.0369
  290TMC3     O 4376   4.543   2.411  14.373  0.5748 -0.0729 -0.1193
  290TMC3     H 4377   4.426   2.539  14.243 -1.3330  1.4645 -0.3061
  290TMC3    H1 4378   4.248   2.154  14.314 -2.2003 -0.4335 -2.3148
  290TMC3    H2 4379   4.044   2.451  14.081  0.4228  2.4927  1.2339
  290TMC3    C7 4380   4.018   2.207  14.190 -0.4979  1.0345  0.1064
  290TMC3    C8 4381   4.202   2.635  14.110  0.1839 -0.3349  0.0712
  290TMC3    O1 4382   3.927   2.274  14.147 -0.0895  0.0906 -0.6643
  290TMC3    O2 4383   4.116   2.639  14.025  0.3731  0.5528 -0.4238
  291MPD2     C 4384   3.524   2.178   0.482 -0.0178  0.0942  0.2869
  291MPD2    C1 4385   3.643   2.122   0.529  0.1111 -0.2531 -0.4363
  291MPD2    C2 4386   3.757   2.197   0.519  0.3416 -0.2019  0.2809
  291MPD2    C3 4387   3.751   2.332   0.484  0.3055  0.6040 -0.3407
  291MPD2    C4 4388   3.624   2.392   0.450  0.0370 -0.3752 -0.2532
  291MPD2    C5 4389   3.520   2.308   0.448  0.2969  0.2305 -0.0432
  291MPD2     H 4390   3.851   2.153   0.553  0.7482  0.8941  0.5548
  291MPD2    H1 4391   3.616   2.495   0.416 -1.8374 -0.7802 -1.0405
  291MPD2    H2 4392   3.437   2.113   0.473  0.2981 -0.4889  1.3426
  291MPD2    H3 4393   3.425   2.349   0.418  0.7049  1.9704  0.9944
  291MPD2     N 4394   3.871   2.411   0.460 -0.4909 -0.6727  0.2630
  291MPD2    H5 4395   3.873   2.505   0.424 -1.0656 -0.4414  0.8402
  291MPD2    N1 4396   3.654   1.988   0.574  0.7937 -0.1410 -0.4528
  291MPD2    H7 4397   3.737   1.963   0.628  0.9615  1.5734  0.0862
  292TMC3    C1 4398   3.635   1.765   0.602  0.7463  1.0017 -0.2768
  292TMC3    C2 4399   3.696   1.772   0.724 -1.4969 -0.2335 -0.0540
  292TMC3    C3 4400   3.734   1.651   0.784  0.3772 -0.0903 -0.0063
  292TMC3    C4 4401   3.627   1.648   0.535  0.5731  0.5098  0.0047
  292TMC3    C5 4402   3.682   1.538   0.586 -0.2872  0.1409  0.3307
  292TMC3    C6 4403   3.729   1.534   0.714 -0.7877  0.2255  0.1721
  292TMC3     C 4404   3.568   1.884   0.551  0.2903 -0.2550 -0.7098
  292TMC3     O 4405   3.496   1.868   0.451  0.0260 -0.9400  0.4197
  292TMC3     H 4406   3.693   1.856   0.793  1.4554 -1.7247  1.8747
  292TMC3    H1 4407   3.578   1.646   0.438 -1.3172  0.4834  0.9708
  292TMC3    H2 4408   3.773   1.441   0.747 -0.6087 -0.1678 -1.2084
  292TMC3    C7 4409   3.660   1.403   0.524  0.9298 -0.1870 -0.4127
  292TMC3    C8 4410   3.787   1.655   0.924  0.0421 -0.7176  0.7442
  292TMC3    O1 4411   3.739   1.314   0.560  0.5450 -0.2956 -0.1546
  292TMC3    O2 4412   3.818   1.766   0.972  0.3900 -0.8204  0.0622
  293MPD2     C 4413   1.508   3.665  12.519  0.8224  0.2240  0.2758
  293MPD2    C1 4414   1.378   3.633  12.532  0.0594  0.2571  0.5230
  293MPD2    C2 4415   1.314   3.656  12.654  0.1636 -0.0447  0.2693
  293MPD2    C3 4416   1.380   3.713  12.760 -0.9322 -0.3437  0.4502
  293MPD2    C4 4417   1.514   3.748  12.742  0.1893 -0.5203  0.2805
  293MPD2    C5 4418   1.577   3.711  12.626 -0.0749 -0.1849  0.4247
  293MPD2     H 4419   1.212   3.627  12.679  0.2051 -0.7536 -0.4096
  293MPD2    H1 4420   1.576   3.804  12.811 -0.4611 -0.4778  0.8314
  293MPD2    H2 4421   1.555   3.639  12.425  0.7317 -1.1504  0.6103
  293MPD2    H3 4422   1.683   3.729  12.618 -0.4216  2.1712  1.2336
  293MPD2     N 4423   1.326   3.724  12.891 -0.1774  0.0758  0.3369
  293MPD2    H5 4424   1.239   3.681  12.923 -0.9422  0.9132 -0.6085
  293MPD2    N1 4425   1.319   3.568  12.422  0.8346 -0.0188  0.2290
  293MPD2    H7 4426   1.372   3.551  12.337  1.4727 -0.3605  0.6896
  294TMC3    C1 4427   1.173   3.424  12.309 -0.2310  0.1073 -0.4662
  294TMC3    C2 4428   1.073   3.331  12.329 -0.0688 -0.6009  0.0928
  294TMC3    C3 4429   1.061   3.230  12.236  0.6673  0.1254  0.7487
  294TMC3    C4 4430   1.262   3.418  12.207 -0.0515 -0.1982  0.0439
  294TMC3    C5 4431   1.243   3.312  12.119 -0.2618 -0.1399 -0.0537
  294TMC3    C6 4432   1.148   3.218  12.125 -0.2565 -0.2788 -0.1535
  294TMC3     C 4433   1.200   3.505  12.427  0.2907  0.4573  0.6894
  294TMC3     O 4434   1.113   3.501  12.514 -0.2985 -0.0811  0.1661
  294TMC3     H 4435   1.016   3.337  12.420  0.3474  0.1935  0.3009
  294TMC3    H1 4436   1.329   3.503  12.191  1.5066 -1.0492  2.0852
  294TMC3    H2 4437   1.144   3.138  12.052 -0.0904 -0.9782  0.6082
  294TMC3    C7 4438   1.361   3.294  12.035  0.3132 -0.3628 -0.7232
  294TMC3    C8 4439   0.940   3.156  12.265  0.2568  0.0199  0.9769
  294TMC3    O1 4440   1.460   3.363  12.061  0.5000  0.5205  0.2148
  294TMC3    O2 4441   0.894   3.166  12.375  0.4643 -0.6583 -0.1943
  295MPD2     C 4442   0.527   2.084   0.549 -1.1035  0.3374  0.2052
  295MPD2    C1 4443   0.631   1.991   0.540  0.2579  0.2148  0.4766
  295MPD2    C2 4444   0.627   1.886   0.628 -0.3629 -0.4419 -0.1222
  295MPD2    C3 4445   0.526   1.860   0.718 -0.4034  0.3585 -0.1504
  295MPD2    C4 4446   0.416   1.941   0.718 -0.1076  0.5839  0.8300
  295MPD2    C5 4447   0.421   2.057   0.638  0.1473 -0.3400 -0.9634
  295MPD2     H 4448   0.718   1.827   0.636 -0.1787 -0.4678 -2.2646
  295MPD2    H1 4449   0.332   1.921   0.784  0.1942  1.0678  1.3647
  295MPD2    H2 4450   0.513   2.171   0.486 -0.0042  0.4011  0.0498
  295MPD2    H3 4451   0.338   2.127   0.639  0.1206 -0.3796  0.8642
  295MPD2     N 4452   0.543   1.762   0.816  0.0864 -0.6798  0.2919
  295MPD2    H5 4453   0.480   1.770   0.896  0.4642  0.1289  0.5080
  295MPD2    N1 4454   0.735   2.012   0.451  0.5851 -0.3722  0.0583
  295MPD2    H7 4455   0.742   2.092   0.390  0.8275 -0.1234  0.4125
  296TMC3    C1 4456   0.661   1.598   0.934  0.2367 -0.5289 -0.2027
  296TMC3    C2 4457   0.723   1.483   0.932 -0.1532 -0.5563  0.2527
  296TMC3    C3 4458   0.757   1.419   1.052 -0.7033 -0.1109 -0.0068
  296TMC3    C4 4459   0.626   1.661   1.050  0.2593 -0.1151  0.4262
  296TMC3    C5 4460   0.663   1.600   1.170 -0.7017 -0.4811  0.1208
  296TMC3    C6 4461   0.732   1.477   1.175 -0.6241 -0.4011  0.3229
  296TMC3     C 4462   0.639   1.662   0.809 -0.0755 -0.3624 -0.3577
  296TMC3     O 4463   0.672   1.598   0.711 -0.1392  0.1129 -0.4929
  296TMC3     H 4464   0.742   1.433   0.838 -0.7392 -0.7758  0.2508
  296TMC3    H1 4465   0.583   1.760   1.052 -0.9154 -0.6344  0.9347
  296TMC3    H2 4466   0.736   1.412   1.262  1.2078 -2.1174 -1.0481
  296TMC3    C7 4467   0.595   1.644   1.293  0.0120  0.2914 -0.4482
  296TMC3    C8 4468   0.869   1.329   1.047 -0.4386 -0.0703  0.8442
  296TMC3    O1 4469   0.501   1.717   1.278 -0.2687 -0.7641  0.1968
  296TMC3    O2 4470   0.862   1.244   0.957  0.1990 -0.4008 -0.8526
  297MPD2     C 4471   3.801   3.665  16.765  0.7166 -0.2340  0.1600
  297MPD2    C1 4472   3.748   3.700  16.643 -0.4783 -0.3714 -0.7952
  297MPD2    C2 4473   3.810   3.804  16.580 -0.1266  0.1309  0.0820
  297MPD2    C3 4474   3.900   3.889  16.645  0.8933 -0.1822 -0.2715
  297MPD2    C4 4475   3.941   3.858  16.772  0.2996  0.1443  0.4949
  297MPD2    C5 4476   3.889   3.743  16.831  0.0300  0.2260  0.2839
  297MPD2     H 4477   3.776   3.831  16.481  0.1186 -2.9037 -0.8307
  297MPD2    H1 4478   3.993   3.928  16.836  0.2548  0.7712 -0.1576
  297MPD2    H2 4479   3.783   3.570  16.814  2.4594 -1.5356 -1.7458
  297MPD2    H3 4480   3.917   3.726  16.934 -2.4117 -1.4005  0.7098
  297MPD2     N 4481   3.942   3.999  16.582  0.2396  0.4631  0.5416
  297MPD2    H5 4482   3.925   4.016  16.483 -0.7683  0.3432  0.6987
  297MPD2    N1 4483   3.643   3.628  16.578  0.7906  0.1450  0.2584
  297MPD2    H7 4484   3.607   3.657  16.487 -0.5077 -1.0976  0.3782
  298TMC3    C1 4485   3.458   3.486  16.553 -0.3852  0.1121  0.7765
  298TMC3    C2 4486   3.460   3.515  16.420  0.6850  0.0098  0.1758
  298TMC3    C3 4487   3.336   3.532  16.359  0.1180 -0.5862  0.7084
  298TMC3    C4 4488   3.342   3.486  16.624  0.1346 -0.3189  0.6613
  298TMC3    C5 4489   3.225   3.502  16.559  0.2685 -0.2306  1.0907
  298TMC3    C6 4490   3.222   3.534  16.426  0.1473  0.0060  0.1888
  298TMC3     C 4491   3.579   3.513  16.630 -0.2388  0.5540 -0.2116
  298TMC3     O 4492   3.585   3.458  16.737  0.0768  0.7860  0.0482
  298TMC3     H 4493   3.553   3.503  16.365  0.8073 -0.4484  0.4837
  298TMC3    H1 4494   3.351   3.497  16.731  0.4416 -0.4745  0.6516
  298TMC3    H2 4495   3.130   3.557  16.373 -0.8533 -0.3869  1.7564
  298TMC3    C7 4496   3.107   3.542  16.643  0.1290 -0.6167  0.3261
  298TMC3    C8 4497   3.330   3.561  16.218 -0.0902 -0.1327 -0.0907
  298TMC3    O1 4498   3.127   3.578  16.756 -0.0489 -0.3970  0.2460
  298TMC3    O2 4499   3.433   3.540  16.160 -0.3736 -0.1330  0.3584
  299MPD2     C 4500   4.668   3.948  10.209  0.6059  0.1450  0.1252
  299MPD2    C1 4501   4.664   3.852  10.312 -0.2119  0.1024  0.2192
  299MPD2    C2 4502   4.539   3.795  10.348  0.3354  0.4153 -0.6058
  299MPD2    C3 4503   4.422   3.836  10.282  0.1080  0.3650  0.3339
  299MPD2    C4 4504   4.433   3.926  10.178  0.0519 -0.5458 -0.0422
  299MPD2    C5 4505   4.553   3.979  10.141  0.0812 -0.2537 -0.2876
  299MPD2     H 4506   4.535   3.705  10.408 -1.1999  1.0554  0.2518
  299MPD2    H1 4507   4.347   3.941  10.113  0.3148 -0.3129 -0.3366
  299MPD2    H2 4508   0.039   3.980  10.170 -0.0460 -0.1596 -1.7558
  299MPD2    H3 4509   4.559   4.040  10.051 -0.9763 -0.0777 -0.2364
  299MPD2     N 4510   4.298   3.790  10.333  0.5360 -0.1741 -0.4922
  299MPD2    H5 4511   4.210   3.824  10.295 -1.6512 -5.0265  0.1919
  299MPD2    N1 4512   0.065   3.820  10.376 -0.0405 -0.5810 -0.1706
  299MPD2    H7 4513   0.152   3.864  10.347 -0.2403  0.7704  1.2813
  300TMC3    C1 4514   4.152   3.696  10.480 -0.6910  0.7163  0.1596
  300TMC3    C2 4515   4.071   3.803  10.450  0.2651  0.4674  0.4168
  300TMC3    C3 4516   3.976   3.836  10.540  0.0325  0.7462 -0.5281
  300TMC3    C4 4517   4.144   3.620  10.592 -0.2309  0.3163  0.6115
  300TMC3    C5 4518   4.052   3.661  10.683 -0.2196 -0.0283 -0.2775
  300TMC3    C6 4519   3.967   3.764  10.653 -0.4422  1.0112 -0.2908
  300TMC3     C 4520   4.282   3.692  10.424  0.4076 -0.5710 -0.0624
  300TMC3     O 4521   4.360   3.607  10.468 -0.3293 -0.8367 -0.1516
  300TMC3     H 4522   4.085   3.878  10.373  2.4895 -0.2654  0.1164
  300TMC3    H1 4523   4.217   3.548  10.625 -0.8914 -0.1931  0.9738
  300TMC3    H2 4524   3.887   3.791  10.721 -0.5029 -0.8074  0.3738
  300TMC3    C7 4525   4.037   3.579  10.800 -0.0278 -0.7024 -0.8759
  300TMC3    C8 4526   3.987   3.970  10.575 -0.2884  0.4412  0.3569
  300TMC3    O1 4527   4.085   3.468  10.797 -0.0414 -0.1975 -0.0008
  300TMC3    O2 4528   4.097   4.025  10.575  0.0639 -0.4155 -0.1461
  301MPD2     C 4529   0.896   4.641   2.024  0.2272 -0.7431 -0.3537
  301MPD2    C1 4530   0.805   4.622   1.920 -0.2596 -0.0028 -0.0517
  301MPD2    C2 4531   0.803   4.506   1.851  0.3790  0.2701  1.0215
  301MPD2    C3 4532   0.886   4.404   1.895  0.3789 -0.1833  0.1525
  301MPD2    C4 4533   0.975   4.421   1.995  0.0465 -0.2197  0.7202
  301MPD2    C5 4534   0.986   4.544   2.056  0.5190 -1.0634 -0.0381
  301MPD2     H 4535   0.740   4.498   1.763  3.3213  0.6367 -1.1504
  301MPD2    H1 4536   1.042   4.346   2.036 -0.5695 -1.3717 -0.3924
  301MPD2    H2 4537   0.886   0.004   2.086 -1.0621 -0.3761 -1.0724
  301MPD2    H3 4538   1.053   4.550   2.142  0.9154  0.4632 -0.4447
  301MPD2     N 4539   0.880   4.276   1.835  0.0753 -0.2380 -0.7380
  301MPD2    H5 4540   0.959   4.211   1.838 -1.1286 -1.5445  2.5789
  301MPD2    N1 4541   0.708   4.721   1.893 -0.7200 -0.0425  0.0599
  301MPD2    H7 4542   0.642   4.695   1.820 -2.3565  4.3180  0.0199
  302TMC3    C1 4543   0.776   4.113   1.700 -0.6423 -0.3446 -0.2066
  302TMC3    C2 4544   0.894   4.059   1.676  0.7482 -0.8640 -0.5159
  302TMC3    C3 4545   0.898   3.953   1.586 -0.0630 -0.0347 -0.2539
  302TMC3    C4 4546   0.663   4.064   1.643  0.1475  0.0175  0.3402
  302TMC3    C5 4547   0.671   3.966   1.554  0.3349 -0.1731 -0.3926
  302TMC3    C6 4548   0.789   3.908   1.523 -0.1951  0.3188  0.1766
  302TMC3     C 4549   0.765   4.240   1.768 -0.7011 -0.1400  0.6877
  302TMC3     O 4550   0.657   4.290   1.772 -0.0972 -0.3210 -0.7690
  302TMC3     H 4551   0.985   4.103   1.714 -0.9459  1.7292  0.5851
  302TMC3    H1 4552   0.566   4.105   1.667 -1.8548 -4.2031 -0.6531
  302TMC3    H2 4553   0.797   3.842   1.437 -0.6461  0.2848  0.1577
  302TMC3    C7 4554   0.560   3.925   1.465 -0.0409  0.1452 -0.1344
  302TMC3    C8 4555   1.009   3.859   1.593  0.4262  0.0239  0.5173
  302TMC3    O1 4556   0.552   3.807   1.435 -0.0909 -0.1205  0.1429
  302TMC3    O2 4557   1.115   3.896   1.637  0.0485 -0.1889  0.1110
  303MPD2     C 4558   2.139   2.614  10.096  0.3037 -0.1102 -0.2267
  303MPD2    C1 4559   2.004   2.616  10.099 -0.4086 -0.8453  0.0358
  303MPD2    C2 4560   1.936   2.741  10.106  0.0418  0.1176  0.2586
  303MPD2    C3 4561   2.006   2.863  10.110 -0.7663 -0.5852  0.1331
  303MPD2    C4 4562   2.143   2.859  10.096  0.2316 -0.4026 -0.6310
  303MPD2    C5 4563   2.205   2.733  10.075  0.2554  0.1493 -0.6791
  303MPD2     H 4564   1.828   2.745  10.109  0.0237  0.8410 -1.4003
  303MPD2    H1 4565   2.199   2.951  10.098 -2.1551  1.0608 -0.9922
  303MPD2    H2 4566   2.178   2.512  10.089  0.7270  0.0028  0.4790
  303MPD2    H3 4567   2.311   2.722  10.057  0.9115  1.4030  2.4755
  303MPD2     N 4568   1.953   2.992  10.130  0.8668 -0.4096 -0.0571
  303MPD2    H5 4569   2.022   3.067  10.134 -0.9969  1.2114  1.0605
  303MPD2    N1 4570   1.938   2.486  10.102  0.1287 -0.0125 -0.3713
  303MPD2    H7 4571   2.001   2.407  10.116 -1.9460 -1.9392 -1.9857
  304TMC3    C1 4572   1.775   2.310  10.122 -0.5495 -0.4523  0.3106
  304TMC3    C2 4573   1.827   2.252  10.233  0.0510  0.3013 -0.1033
  304TMC3    C3 4574   1.742   2.179  10.308 -0.2109 -0.1820 -0.2187
  304TMC3    C4 4575   1.644   2.284  10.085  0.1237 -0.5170 -0.1059
  304TMC3    C5 4576   1.557   2.215  10.170 -0.2130  0.2087 -0.2604
  304TMC3    C6 4577   1.615   2.154  10.274 -0.0343 -0.0817  0.5046
  304TMC3     C 4578   1.806   2.456  10.101  0.1808  0.4523 -0.1806
  304TMC3     O 4579   1.705   2.527  10.093 -0.7943 -0.4657  0.2510
  304TMC3     H 4580   1.926   2.276  10.269 -0.4755  2.2204  0.0842
  304TMC3    H1 4581   1.605   2.345  10.005 -1.8923 -1.0883  0.4359
  304TMC3    H2 4582   1.547   2.089  10.327  2.2439 -1.6637  1.4581
  304TMC3    C7 4583   1.450   2.304  10.219 -0.0168  0.1441  0.2398
  304TMC3    C8 4584   1.769   2.202  10.445  0.0179  0.4245  0.6888
  304TMC3    O1 4585   1.476   2.353  10.325 -0.2136  0.6870 -0.3447
  304TMC3    O2 4586   1.877   2.180  10.495  0.0138 -0.2320 -0.1927
  305MPD2     C 4587   4.499   0.869  14.480  0.7837 -0.0255 -0.2614
  305MPD2    C1 4588   4.578   0.760  14.509  0.3962 -0.1315 -0.4456
  305MPD2    C2 4589   4.594   0.664  14.411 -0.3284  0.1485  0.1118
  305MPD2    C3 4590   4.532   0.681  14.289  0.2774 -0.7166 -0.1641
  305MPD2    C4 4591   4.447   0.788  14.270 -0.5524  0.3175 -0.5387
  305MPD2    C5 4592   4.427   0.885  14.366  0.7601  0.0020  0.2439
  305MPD2     H 4593   4.673   0.590  14.422  1.6567  2.5095  1.7478
  305MPD2    H1 4594   4.402   0.805  14.172  1.2093  0.3061 -1.3565
  305MPD2    H2 4595   4.484   0.937  14.563 -2.2846  1.6770 -2.2042
  305MPD2    H3 4596   4.362   0.971  14.356  1.7923  0.5991 -1.3194
  305MPD2     N 4597   4.533   0.587  14.187 -0.0638  0.3144 -0.3602
  305MPD2    H5 4598   4.456   0.590  14.121  0.8798 -1.7952 -1.5300
  305MPD2    N1 4599   4.635   0.764  14.638 -0.2385  0.7670 -0.1112
  305MPD2    H7 4600   4.613   0.841  14.700 -0.3937  0.1378  0.6144
  306TMC3    C1 4601   0.022   0.689  14.831 -0.7524  0.0975 -0.0611
  306TMC3    C2 4602   0.136   0.624  14.871  0.4168  0.3248  0.3136
  306TMC3    C3 4603   0.169   0.638  15.002 -0.4667 -0.0628  0.2738
  306TMC3    C4 4604   4.644   0.732  14.917 -0.3794  0.2031 -0.2872
  306TMC3    C5 4605   4.677   0.724  15.050 -0.1075 -0.0303 -0.3319
  306TMC3    C6 4606   0.079   0.685  15.089 -0.0963  0.4818 -0.6410
  306TMC3     C 4607   4.718   0.665  14.687  0.0778  0.0519 -0.1130
  306TMC3     O 4608   0.055   0.578  14.628 -0.2063 -0.3626  0.8042
  306TMC3     H 4609   0.207   0.582  14.801  0.8318  1.9703 -0.2463
  306TMC3    H1 4610   4.548   0.761  14.876  0.3948  0.9160 -1.5978
  306TMC3    H2 4611   0.099   0.686  15.195  0.0722  1.1449 -0.6742
  306TMC3    C7 4612   4.580   0.758  15.149  0.1492 -0.0820  0.4606
  306TMC3    C8 4613   0.270   0.550  15.051  0.0612 -0.7185 -0.7724
  306TMC3    O1 4614   4.483   0.820  15.113 -0.6456 -0.7694  0.0352
  306TMC3    O2 4615   0.292   0.447  14.985 -0.3985 -0.3323  0.0162
  307MPD2     C 4616   2.428   2.511   0.154  0.3776  0.3840 -0.6540
  307MPD2    C1 4617   2.334   2.601   0.209  0.1483  0.4648 -0.5734
  307MPD2    C2 4618   2.318   2.607   0.346 -0.2442 -0.5973 -0.5239
  307MPD2    C3 4619   2.392   2.521   0.431 -0.0711  0.4176  0.7052
  307MPD2    C4 4620   2.488   2.433   0.379  0.7463 -0.1593 -0.1296
  307MPD2    C5 4621   2.498   2.430   0.242 -0.5055  0.0921  0.5163
  307MPD2     H 4622   2.240   2.670   0.387 -0.5270 -1.0758 -0.3317
  307MPD2    H1 4623   2.538   2.359   0.440 -0.7716  0.0832  1.4206
  307MPD2    H2 4624   2.452   2.497   0.050  0.7957  1.3382 -0.6881
  307MPD2    H3 4625   2.573   2.365   0.199  0.7909  0.3123  2.4389
  307MPD2     N 4626   2.362   2.530   0.562 -0.3135  0.3652  0.1356
  307MPD2    H5 4627   2.287   2.596   0.576 -1.4048 -1.3021  2.0787
  307MPD2    N1 4628   2.261   2.689   0.134  0.1256 -0.5164  0.6725
  307MPD2    H7 4629   2.188   2.735   0.186 -1.0190  0.9772 -2.2334
  308TMC3    C1 4630   2.205   2.638   0.894  0.3325 -0.3696 -0.5225
  308TMC3    C2 4631   2.277   2.709   0.986 -0.1999 -0.3573  0.2374
  308TMC3    C3 4632   2.411   2.717   0.967 -0.0533 -0.1037 -0.3881
  308TMC3    C4 4633   2.260   2.553   0.798 -0.1768  0.0636  0.0642
  308TMC3    C5 4634   2.394   2.565   0.782  0.0153  0.1681  0.0934
  308TMC3    C6 4635   2.478   2.640   0.868 -0.1873  0.4234  0.1845
  308TMC3     C 4636   2.068   2.619   0.921  0.1461  0.3035 -0.2734
  308TMC3     O 4637   2.021   2.511   0.886  0.5478 -0.5894 -0.2537
  308TMC3     H 4638   2.234   2.769   1.066 -1.4251  2.3589 -2.4731
  308TMC3    H1 4639   2.201   2.484   0.738 -2.9629  2.3388  0.1794
  308TMC3    H2 4640   2.579   2.670   0.841 -0.9847  2.3086 -0.6678
  308TMC3    C7 4641   2.445   2.499   0.668  0.9139 -0.2463 -0.2793
  308TMC3    C8 4642   2.493   2.822   1.035  0.4985  0.4417  0.0635
  308TMC3    O1 4643   2.556   2.453   0.679 -0.4164 -0.1686 -0.1777
  308TMC3    O2 4644   2.608   2.799   1.074 -0.6111 -0.1884 -0.5124
  309MPD2     C 4645   1.621   3.875  17.590  0.2876 -0.6175  0.5371
  309MPD2    C1 4646   1.510   3.869  17.502 -0.0246 -0.1913 -0.3456
  309MPD2    C2 4647   1.379   3.845  17.554  0.3405  0.9476  0.4616
  309MPD2    C3 4648   1.364   3.839  17.693  0.3932 -0.1414  0.5959
  309MPD2    C4 4649   1.468   3.848   0.074  0.0420  0.5694 -0.3234
  309MPD2    C5 4650   1.592   3.873   0.023 -0.2444  0.3430 -0.3510
  309MPD2     H 4651   1.296   3.826  17.488  0.1981 -0.3466  1.0225
  309MPD2    H1 4652   1.468   3.838   0.181  1.5636 -0.9181 -0.4551
  309MPD2    H2 4653   1.723   3.886  17.556  0.2561 -1.1377  0.2657
  309MPD2    H3 4654   1.675   3.868   0.092 -3.2718  0.5026  3.2750
  309MPD2     N 4655   1.234   3.831   0.051  0.3373  0.0999  0.1691
  309MPD2    H5 4656   1.232   3.824   0.152  0.7340 -1.4256  0.0670
  309MPD2    N1 4657   1.535   3.872  17.367 -0.2910 -0.1932  0.8626
  309MPD2    H7 4658   1.635   3.868  17.348 -0.1637  0.1762  1.4214
  310TMC3    C1 4659   1.497   3.884  17.131 -0.1080  0.1348  0.1417
  310TMC3    C2 4660   1.421   3.924  17.024 -0.3471  0.1231  0.0171
  310TMC3    C3 4661   1.473   3.909  16.895 -0.4030 -0.4413  0.7823
  310TMC3    C4 4662   1.614   3.820  17.105  0.1531 -0.1505 -0.6802
  310TMC3    C5 4663   1.660   3.797  16.977  0.3795  0.2259  0.0487
  310TMC3    C6 4664   1.581   3.833  16.872  0.1169 -0.4207  0.6455
  310TMC3     C 4665   1.442   3.877  17.266 -0.0436 -0.2912 -0.6353
  310TMC3     O 4666   1.318   3.895  17.264  0.0206  0.6947  0.2810
  310TMC3     H 4667   1.321   3.963  17.038  0.2942  1.3041  1.2852
  310TMC3    H1 4668   1.678   3.789  17.187  1.0655  0.8961 -0.9866
  310TMC3    H2 4669   1.624   3.826  16.772  2.7058  2.2051  1.5767
  310TMC3    C7 4670   1.781   3.723  16.953  0.3171  0.1517 -0.5465
  310TMC3    C8 4671   1.371   3.901  16.792  0.4474  0.3099  0.3038
  310TMC3    O1 4672   1.786   3.679  16.841 -0.5247 -0.2278  0.4828
  310TMC3    O2 4673   1.284   3.988  16.780  0.1200  0.0315 -0.2913
  311MPD2     C 4674   3.521   0.379  12.982 -0.1198 -0.8074  0.1235
  311MPD2    C1 4675   3.511   0.515  12.959 -0.1466  0.2369  0.7296
  311MPD2    C2 4676   3.387   0.568  12.946 -0.0436 -0.6257 -0.0009
  311MPD2    C3 4677   3.274   0.489  12.941  0.0555 -0.1213  0.2755
  311MPD2    C4 4678   3.289   0.355  12.971 -0.0940 -0.1987 -0.1114
  311MPD2    C5 4679   3.408   0.301  12.987 -0.2472 -0.0010 -0.2871
  311MPD2     H 4680   3.373   0.675  12.930  0.2722 -0.5996 -0.0882
  311MPD2    H1 4681   3.204   0.289  12.965  0.0413 -0.3602 -0.2301
  311MPD2    H2 4682   3.615   0.334  13.014 -0.2400 -0.9314  0.3026
  311MPD2    H3 4683   3.417   0.193  12.992 -0.8517 -0.0342  0.0931
  311MPD2     N 4684   3.154   0.552  12.911  0.5190 -0.6162  0.2994
  311MPD2    H5 4685   3.154   0.653  12.905  0.1129 -0.6822 -0.8556
  311MPD2    N1 4686   3.624   0.596  12.942 -0.4604 -1.0415 -0.2245
  311MPD2    H7 4687   3.602   0.693  12.920  0.5230 -0.6955  0.3022
  312TMC3    C1 4688   2.919   0.585  12.913  0.3089 -0.0737  0.2360
  312TMC3    C2 4689   2.802   0.557  12.851 -0.1361 -0.3426  0.2323
  312TMC3    C3 4690   2.687   0.614  12.900  0.1112 -0.2385  0.7456
  312TMC3    C4 4691   2.918   0.657  13.027 -0.1092  0.6586  0.0380
  312TMC3    C5 4692   2.804   0.712  13.077 -0.2899  0.4728  0.2634
  312TMC3    C6 4693   2.688   0.698  13.011  0.5316  0.1079  0.5195
  312TMC3     C 4694   3.038   0.497  12.886 -0.6358 -0.4514  0.0332
  312TMC3     O 4695   3.013   0.381  12.856 -0.7453 -0.2881 -0.0775
  312TMC3     H 4696   2.794   0.490  12.766  1.8587 -1.6326  1.0467
  312TMC3    H1 4697   3.011   0.671  13.081  0.7203 -0.6297 -1.0581
  312TMC3    H2 4698   2.601   0.751  13.047 -0.1555 -1.1089  0.6775
  312TMC3    C7 4699   2.796   0.776  13.206 -0.0561 -0.1840  0.2273
  312TMC3    C8 4700   2.564   0.581  12.833  0.1435 -0.4761  0.5529
  312TMC3    O1 4701   2.698   0.848  13.228 -0.3683 -0.3979  0.6117
  312TMC3    O2 4702   2.562   0.471  12.780  0.3526 -0.6206  0.5909
  313MPD2     C 4703   3.596   4.268  11.351  0.1293  0.7179 -0.0111
  313MPD2    C1 4704   3.473   4.213  11.351  0.1295  0.4851  0.0895
  313MPD2    C2 4705   3.433   4.116  11.271  0.2523  0.2927  0.5732
  313MPD2    C3 4706   3.520   4.070  11.173  0.3292 -0.8113 -0.9708
  313MPD2    C4 4707   3.646   4.119  11.171 -0.6465  0.6632  0.7493
  313MPD2    C5 4708   3.684   4.217  11.265  0.9640 -0.3868  0.2980
  313MPD2     H 4709   3.340   4.062  11.285 -1.5452  3.2638  0.1655
  313MPD2    H1 4710   3.716   4.079  11.098 -1.1475 -0.6110  0.9718
  313MPD2    H2 4711   3.644   4.346  11.410  0.2161  1.2562 -0.7945
  313MPD2    H3 4712   3.789   4.237  11.283  1.5016 -1.5933 -1.5150
  313MPD2     N 4713   3.474   3.970  11.087 -0.3581  0.1138 -0.0931
  313MPD2    H5 4714   3.376   3.944  11.086 -0.4173  0.3585 -0.5646
  313MPD2    N1 4715   3.373   4.271  11.430 -0.2062  0.2178 -0.0233
  313MPD2    H7 4716   3.284   4.222  11.441  1.7699 -3.3314  0.1620
  314TMC3    C1 4717   3.253   4.474  11.493  0.5178  0.2151  0.4225
  314TMC3    C2 4718   3.303   4.602  11.484  1.2385  0.0372  0.3131
  314TMC3    C3 4719   3.301   4.662  11.362 -0.1421  0.3152  0.1462
  314TMC3    C4 4720   3.164   4.428  11.402 -0.1532  0.2897 -0.8449
  314TMC3    C5 4721   3.157   4.490  11.284 -0.2335 -0.5374 -0.2953
  314TMC3    C6 4722   3.226   4.606  11.262 -0.2535  0.5510  0.2249
  314TMC3     C 4723   3.373   4.394  11.493 -0.7983 -0.1743  0.1309
  314TMC3     O 4724   3.470   4.462  11.512  0.1727  0.0622  0.5802
  314TMC3     H 4725   3.354   4.654  11.564  3.0388 -3.6841  1.6081
  314TMC3    H1 4726   3.127   4.326  11.405 -1.3779  0.7372 -0.5619
  314TMC3    H2 4727   3.228   4.652  11.163 -1.3485  0.3284  0.1033
  314TMC3    C7 4728   3.104   4.425  11.164  0.1335 -0.2987 -0.4276
  314TMC3    C8 4729   3.412   0.025  11.320 -0.0219 -0.4583 -0.1087
  314TMC3    O1 4730   3.010   4.348  11.176  0.2903  0.4685 -0.1089
  314TMC3    O2 4731   3.412   0.081  11.213 -0.2277 -0.3937 -0.2531
  315MPD2     C 4732   2.574   2.938   0.023 -0.4491 -0.4583 -0.8388
  315MPD2    C1 4733   2.631   2.963   0.153 -0.1066  0.4387  0.3070
  315MPD2    C2 4734   2.640   3.098   0.200 -0.0269  0.2882  0.8589
  315MPD2    C3 4735   2.593   3.205   0.119  0.4812 -0.2399 -0.0798
  315MPD2    C4 4736   2.554   3.184  17.692  0.4221 -0.1218 -0.3704
  315MPD2    C5 4737   2.541   3.052  17.655 -0.1177 -0.0460 -0.4477
  315MPD2     H 4738   2.674   3.117   0.301 -1.7375  0.2477  1.4260
  315MPD2    H1 4739   2.527   3.263  17.623  1.7084  0.9993  0.4283
  315MPD2    H2 4740   2.560   2.838  17.684  1.6722 -1.0411 -0.1593
  315MPD2    H3 4741   2.484   3.039  17.564 -2.1796 -0.3710  0.8697
  315MPD2     N 4742   2.616   3.337   0.171 -0.3905  0.3943  0.0516
  315MPD2    H5 4743   2.640   3.343   0.270  0.5224 -2.4229 -0.0025
  315MPD2    N1 4744   2.661   2.853   0.246 -0.1450 -0.8660  0.2660
  315MPD2    H7 4745   2.683   2.875   0.343  1.3156  0.3829 -0.3591
  316TMC3    C1 4746   2.654   3.553   0.205  0.0071  0.4164 -0.0547
  316TMC3    C2 4747   2.676   3.524   0.341  0.5623 -0.7796  0.1061
  316TMC3    C3 4748   2.714   3.628   0.421  0.1602 -0.6019  0.2256
  316TMC3    C4 4749   2.666   3.675   0.156  0.1939  0.1825 -0.7568
  316TMC3    C5 4750   2.701   3.775   0.245  0.2818  0.0809  0.1998
  316TMC3    C6 4751   2.722   3.754   0.378  0.0386 -0.6538 -0.9735
  316TMC3     C 4752   2.620   3.456   0.105  1.1177 -0.0198  0.4941
  316TMC3     O 4753   2.618   3.476  17.685  0.5487 -0.3312  0.3460
  316TMC3     H 4754   2.662   3.427   0.387 -1.7077 -1.2085 -1.4771
  316TMC3    H1 4755   2.651   3.701   0.052  0.0490  0.6959 -0.6080
  316TMC3    H2 4756   2.742   3.838   0.444  1.2785 -1.5269 -0.2559
  316TMC3    C7 4757   2.628   3.899   0.220  0.2348 -0.6873 -0.1610
  316TMC3    C8 4758   2.722   3.601   0.565 -0.3521  0.1481  0.4158
  316TMC3    O1 4759   2.604   3.972   0.313 -0.2621  0.4731 -0.1088
  316TMC3    O2 4760   2.651   3.510   0.609 -1.1629 -0.6691 -0.0004
  317MPD2     C 4761   0.070   2.587  12.897 -0.6452 -0.1753 -0.3234
  317MPD2    C1 4762   0.014   2.466  12.853 -0.5185 -0.0579 -0.5709
  317MPD2    C2 4763   0.035   2.348  12.923  0.7687 -0.4393 -0.0989
  317MPD2    C3 4764   0.111   2.353  13.035  0.2588  0.0235 -0.2278
  317MPD2    C4 4765   0.158   2.474  13.081  0.6393  0.2617  0.0489
  317MPD2    C5 4766   0.143   2.588  13.012  0.6033 -0.8941  0.2385
  317MPD2     H 4767   4.708   2.258  12.893 -0.9749  0.6079 -0.1624
  317MPD2    H1 4768   0.209   2.479  13.176  0.8653  0.0959 -0.0644
  317MPD2    H2 4769   0.068   2.677  12.837 -1.6025 -0.4106 -0.6464
  317MPD2    H3 4770   0.204   2.673  13.039  0.7983 -1.1216  0.5233
  317MPD2     N 4771   0.128   2.235  13.109 -0.7445  0.2436  0.6506
  317MPD2    H5 4772   0.082   2.156  13.065  1.0011 -0.1171 -0.5343
  317MPD2    N1 4773   4.665   2.451  12.734 -0.4772 -0.1612  0.7456
  317MPD2    H7 4774   4.646   2.354  12.712 -0.8807 -0.1890  1.2239
  318TMC3    C1 4775   0.179   2.076  13.276 -0.8655  0.5813 -0.4002
  318TMC3    C2 4776   0.073   1.997  13.241  0.5789  0.2604  0.6187
  318TMC3    C3 4777   0.067   1.873  13.294  0.0265  0.3017  0.4991
  318TMC3    C4 4778   0.279   2.032  13.350  0.2703 -0.4952  0.4663
  318TMC3    C5 4779   0.272   1.902  13.406  0.2774 -0.2955  0.1045
  318TMC3    C6 4780   0.162   1.821  13.377  0.1867 -0.1974 -0.4462
  318TMC3     C 4781   0.182   2.218  13.235  0.1426 -0.3665  0.3666
  318TMC3     O 4782   0.243   2.294  13.309  0.1478  0.3705  0.3467
  318TMC3     H 4783   4.716   2.029  13.178  0.1315  0.0999  1.1174
  318TMC3    H1 4784   0.356   2.099  13.386  0.3070 -0.4832  0.3659
  318TMC3    H2 4785   0.164   1.727  13.432 -0.7697 -0.8818 -1.5942
  318TMC3    C7 4786   0.354   1.866  13.517 -0.4098 -0.3986 -0.4685
  318TMC3    C8 4787   4.666   1.803  13.309 -0.0445 -0.1586  0.5197
  318TMC3    O1 4788   0.419   1.960  13.555  0.1218  0.1572 -0.0301
  318TMC3    O2 4789   4.671   1.707  13.383 -0.6000  0.2293  0.0129
  319MPD2     C 4790   1.268   3.096  16.500  0.1739 -0.6615  0.0175
  319MPD2    C1 4791   1.157   3.128  16.567 -0.2522  0.0053  0.3516
  319MPD2    C2 4792   1.034   3.096  16.512  0.5421 -0.6658  0.9439
  319MPD2    C3 4793   1.023   3.046  16.381 -0.2723  0.2637  0.2560
  319MPD2    C4 4794   1.139   3.001  16.318 -0.7312 -0.3906  0.3412
  319MPD2    C5 4795   1.259   3.032  16.379 -0.0262  0.1379 -0.0862
  319MPD2     H 4796   0.948   3.135  16.566  0.2604 -0.3009  0.2414
  319MPD2    H1 4797   1.135   2.955  16.219 -0.6968  0.6605 -0.1516
  319MPD2    H2 4798   1.367   3.123  16.535 -0.6214  0.7171  1.2261
  319MPD2    H3 4799   1.352   3.010  16.328 -0.0880  1.0533 -0.5987
  319MPD2     N 4800   0.903   3.030  16.306 -0.4392  0.5624  0.0574
  319MPD2    H5 4801   0.919   3.007  16.209  0.9252 -1.2034  0.7049
  319MPD2    N1 4802   1.156   3.201  16.688 -0.7450 -0.3056 -0.3175
  319MPD2    H7 4803   1.066   3.232  16.722 -0.2281  0.9258 -0.0877
  320TMC3    C1 4804   0.684   3.050  16.257 -0.2186  0.8157  0.4705
  320TMC3    C2 4805   0.706   3.102  16.137  0.1413 -0.8980 -0.0701
  320TMC3    C3 4806   0.613   3.106  16.045 -0.2671 -0.5017  0.3308
  320TMC3    C4 4807   0.560   2.988  16.285 -0.3203  0.6874 -0.5533
  320TMC3    C5 4808   0.472   2.989  16.186 -0.2601  0.7771 -0.1017
  320TMC3    C6 4809   0.492   3.049  16.069 -0.1678  0.8464  0.3381
  320TMC3     C 4810   0.781   3.048  16.356  0.2379 -0.2932 -0.3236
  320TMC3     O 4811   0.741   3.049  16.472 -0.0479  0.2995  0.1348
  320TMC3     H 4812   0.789   3.169  16.118  0.4139 -1.1630  0.1935
  320TMC3    H1 4813   0.528   2.961  16.385 -1.0114 -0.1706 -1.0104
  320TMC3    H2 4814   0.408   3.056  16.000  0.0983  2.2932  0.1752
  320TMC3    C7 4815   0.361   2.901  16.186 -0.2306  0.1797 -0.6047
  320TMC3    C8 4816   0.604   3.234  15.970  0.1901 -0.1419 -0.7825
  320TMC3    O1 4817   0.317   2.857  16.080 -0.9578  0.3099  0.5229
  320TMC3    O2 4818   0.613   3.335  16.034  0.2354  0.1916  0.4039
  321TMC3    C1 4819   1.235   3.312  16.878 -0.3915  0.5803  0.9504
  321TMC3    C2 4820   1.114   3.284  16.935  0.2309  0.1809  0.2053
  321TMC3    C3 4821   1.060   3.376  17.014 -0.5681  0.6958 -0.2726
  321TMC3    C4 4822   1.301   3.426  16.910  0.0350  0.4840  0.2677
  321TMC3    C5 4823   1.247   3.508  17.004  0.4590  0.3700  0.1141
  321TMC3    C6 4824   1.117   3.498  17.037  1.3241  0.1151 -0.0699
  321TMC3     C 4825   1.265   3.258  16.750 -0.0928 -0.9370 -0.0165
  321TMC3     O 4826   1.383   3.264  16.708  0.0640 -0.3457  0.2615
  321TMC3     H 4827   1.068   3.188  16.917  0.4514  0.1912 -0.4046
  321TMC3    H1 4828   1.398   3.452  16.870  0.3424  0.1933  0.8113
  321TMC3    H2 4829   1.073   3.571  17.103  0.0176  1.1405 -2.0922
  321TMC3    C7 4830   1.337   3.558  17.106 -0.4784 -0.1497  0.3562
  321TMC3    C8 4831   1.020   3.318  17.140  0.1533 -0.1107  0.0731
  321TMC3    O1 4832   1.452   3.584  17.078 -0.3386  0.3785  0.7194
  321TMC3    O2 4833   1.039   3.388  17.242  0.4057  0.2523 -0.2290
  322MPD2     C 4834   4.346   0.122  14.269 -0.4721 -0.1879  1.0896
  322MPD2    C1 4835   4.483   0.102  14.263  0.6599 -0.8131 -0.2769
  322MPD2    C2 4836   4.523   0.015  14.167  0.0772  0.5187 -0.5216
  322MPD2    C3 4837   4.432   4.680  14.073  0.5570  0.2231  0.1534
  322MPD2    C4 4838   4.297   4.701  14.078  0.0038  0.9080  0.5815
  322MPD2    C5 4839   4.258   0.063  14.182  0.8840 -0.8571 -0.1605
  322MPD2     H 4840   4.629   0.000  14.154 -0.2528 -1.8409 -0.4781
  322MPD2    H1 4841   4.229   4.660  14.004 -1.3277  0.0430  2.2966
  322MPD2    H2 4842   4.308   0.187  14.347  0.5898  1.7965 -0.0231
  322MPD2    H3 4843   4.151   0.083  14.186  1.1187  0.3273  0.1992
  322MPD2     N 4844   4.488   4.599  13.971  0.1881  0.0924 -0.1191
  322MPD2    H5 4845   4.587   4.580  13.979 -0.0688 -1.4294 -0.6426
  322MPD2    N1 4846   4.565   0.166  14.360  0.3615  0.3552 -0.1135
  322MPD2    H7 4847   4.514   0.221  14.429 -0.6937  1.9430 -2.1460
  323TMC3    C1 4848   0.025   0.251  14.471  0.3085 -0.5554 -0.8048
  323TMC3    C2 4849   0.148   0.307  14.455 -0.0296 -0.1554 -0.1975
  323TMC3    C3 4850   0.231   0.331  14.561 -0.5361  0.3013 -0.1353
  323TMC3    C4 4851   4.712   0.198  14.591  0.5107  0.5466 -0.1907
  323TMC3    C5 4852   0.068   0.222  14.699  0.4084  0.3209  0.3270
  323TMC3    C6 4853   0.193   0.286  14.686 -0.6669 -0.3004  0.1710
  323TMC3     C 4854   4.696   0.183  14.356  0.3972 -0.2704 -0.3880
  323TMC3     O 4855   0.057   0.136  14.282 -0.0512  0.5648  0.8462
  323TMC3     H 4856   0.171   0.328  14.351 -0.3840  2.0489  0.1733
  323TMC3    H1 4857   4.629   0.129  14.603  0.7483  0.4640  1.0728
  323TMC3    H2 4858   0.261   0.290  14.771  1.5495  0.3739 -1.6363
  323TMC3    C7 4859   0.056   0.125  14.806  0.5011  0.1257  0.2493
  323TMC3    C8 4860   0.378   0.347  14.553  0.4186 -0.4866  0.2470
  323TMC3    O1 4861   4.714   0.022  14.785 -0.6363  0.3518  0.0593
  323TMC3    O2 4862   0.445   0.328  14.653  0.7000  0.3944  0.7782
  324MPD2     C 4863   1.449   0.993  14.889  0.4296 -1.3245 -0.4481
  324MPD2    C1 4864   1.506   1.073  14.790 -0.2119 -0.0154  0.4963
  324MPD2    C2 4865   1.431   1.095  14.673  0.5324 -0.2237 -0.7238
  324MPD2    C3 4866   1.302   1.047  14.654 -1.1215 -0.0649  0.0448
  324MPD2    C4 4867   1.259   0.953  14.744 -0.3893  0.5662  0.8654
  324MPD2    C5 4868   1.329   0.927  14.854 -0.5937 -0.2120  0.1372
  324MPD2     H 4869   1.460   1.179  14.612 -1.2557  1.7749  1.1626
  324MPD2    H1 4870   1.168   0.896  14.732  1.2780 -1.4538 -2.0265
  324MPD2    H2 4871   1.483   0.974  14.990 -2.2785 -1.0228  0.5221
  324MPD2    H3 4872   1.282   0.878  14.938 -0.2432 -1.0529 -0.1609
  324MPD2     N 4873   1.213   1.075  14.553  0.2918  0.1811  0.1901
  324MPD2    H5 4874   1.122   1.032  14.563  1.1620 -1.4423  1.0878
  324MPD2    N1 4875   1.627   1.139  14.814  0.1204 -0.1372  0.5335
  324MPD2    H7 4876   1.664   1.195  14.738  0.4044 -3.0903 -1.5265
  325TMC3    C1 4877   1.133   1.161  14.356  0.4294 -0.0930  0.1201
  325TMC3    C2 4878   1.066   1.046  14.331  0.5535 -0.8009  0.6980
  325TMC3    C3 4879   0.953   1.057  14.253  0.1652  0.4637  0.4677
  325TMC3    C4 4880   1.091   1.284  14.310 -0.4339 -0.1882 -0.6455
  325TMC3    C5 4881   0.986   1.278  14.224 -1.2532  0.9469  0.3162
  325TMC3    C6 4882   0.918   1.170  14.192  0.1224 -0.0243 -0.0038
  325TMC3     C 4883   1.241   1.166  14.452 -0.4568 -0.0073 -0.8879
  325TMC3     O 4884   1.335   1.239  14.428  0.2777  0.5451 -0.3043
  325TMC3     H 4885   1.089   0.946  14.366  1.8488  0.2037  2.7080
  325TMC3    H1 4886   1.142   1.374  14.340  0.5397 -1.4608  1.5257
  325TMC3    H2 4887   0.822   1.175  14.140  0.2139 -1.7625 -0.3251
  325TMC3    C7 4888   0.917   1.405  14.203 -0.2409  1.0023  0.8283
  325TMC3    C8 4889   0.867   0.947  14.237 -0.4656  0.7129 -0.3061
  325TMC3    O1 4890   0.863   1.412  14.094 -0.2742  0.1325 -0.2827
  325TMC3    O2 4891   0.915   0.835  14.221  0.3120  0.1758 -0.2229
  326MPD2     C 4892   2.248   2.628  11.024 -0.4322 -0.1052  0.6352
  326MPD2    C1 4893   2.267   2.625  10.892  0.1309 -1.0134  0.3801
  326MPD2    C2 4894   2.400   2.639  10.847 -0.2761  0.6859 -0.7117
  326MPD2    C3 4895   2.508   2.648  10.934  0.4956 -0.0888 -0.7891
  326MPD2    C4 4896   2.484   2.655  11.069  0.3648  0.6233  0.2249
  326MPD2    C5 4897   2.347   2.645  11.111  0.1633 -0.1393 -0.1144
  326MPD2     H 4898   2.423   2.619  10.743  2.8543  1.5797 -0.1664
  326MPD2    H1 4899   2.567   2.665  11.138 -1.3618  0.6473  2.2956
  326MPD2    H2 4900   2.145   2.628  11.058 -0.3742  1.8725  0.8545
  326MPD2    H3 4901   2.322   2.634  11.216 -1.2673  1.3046 -0.3109
  326MPD2     N 4902   2.642   2.663  10.893  0.0640 -0.1572  0.3855
  326MPD2    H5 4903   2.708   2.675  10.969 -0.2194  2.1087  0.2863
  326MPD2    N1 4904   2.160   2.598  10.800 -0.2548  0.6749  0.7520
  326MPD2    H7 4905   2.193   2.609  10.705  0.2909 -0.5981  0.7987
  327TMC3    C1 4906   1.967   2.540  10.703 -1.2570 -0.5848  0.4485
  327TMC3    C2 4907   1.941   2.662  10.652  0.8471 -0.1745  0.4174
  327TMC3    C3 4908   1.990   2.685  10.528  0.0168 -0.0615  0.1913
  327TMC3    C4 4909   2.018   2.435  10.633 -0.1614  0.6511  0.0534
  327TMC3    C5 4910   2.054   2.451  10.503  0.2682 -0.1797  0.1042
  327TMC3    C6 4911   2.041   2.578  10.454 -0.1912 -0.0166 -0.3641
  327TMC3     C 4912   2.031   2.559  10.825 -0.4379  0.3018 -0.2939
  327TMC3     O 4913   1.971   2.558  10.934  0.0965  0.3737  0.1219
  327TMC3     H 4914   1.936   2.739  10.729 -0.8195 -1.1844  1.3151
  327TMC3    H1 4915   2.040   2.337  10.675  0.3702  0.3518 -0.9472
  327TMC3    H2 4916   2.072   2.596  10.352  2.0443  2.5913  0.7640
  327TMC3    C7 4917   2.180   2.392  10.461 -0.2902 -0.1874  0.4395
  327TMC3    C8 4918   2.025   2.822  10.491  0.1424  0.0094 -0.1962
  327TMC3    O1 4919   2.226   2.429  10.352  0.0198 -0.4307 -0.1047
  327TMC3    O2 4920   2.132   2.841  10.434 -0.7273 -0.2031  0.7303
  328MPD2     C 4921   0.179   1.499  17.385  1.2368 -0.4322 -0.1444
  328MPD2    C1 4922   0.055   1.483  17.327 -0.2886 -0.0511  0.1188
  328MPD2    C2 4923   0.019   1.553  17.210  1.0109 -0.2058 -0.4481
  328MPD2    C3 4924   0.111   1.634  17.146 -0.2625 -0.1507 -0.8465
  328MPD2    C4 4925   0.236   1.643  17.202  0.3855  0.0487 -0.4208
  328MPD2    C5 4926   0.269   1.582  17.317  0.5180 -0.1498  0.3094
  328MPD2     H 4927   4.642   1.552  17.175  1.2640 -0.7472 -1.1855
  328MPD2    H1 4928   0.299   1.728  17.177 -0.7775  0.5095 -1.8191
  328MPD2    H2 4929   0.216   1.451  17.475 -0.1117  1.1154  1.2190
  328MPD2    H3 4930   0.369   1.584  17.358  1.4785  1.0781 -2.1018
  328MPD2     N 4931   0.069   1.727  17.043 -0.6091  0.5446  0.4872
  328MPD2    H5 4932   0.130   1.807  17.029  0.9738 -0.6631  0.3417
  328MPD2    N1 4933   4.679   1.424  17.413 -0.4189 -0.1061  0.4986
  328MPD2    H7 4934   4.708   1.406  17.509  1.7887  0.9701  0.0238
  329TMC3    C1 4935   4.457   1.430  17.504  0.3750  0.4028  0.2028
  329TMC3    C2 4936   4.511   1.520  17.590  0.0671  0.5479  0.8207
  329TMC3    C3 4937   4.446   1.640  17.600  0.0903 -0.0976  0.3754
  329TMC3    C4 4938   4.329   1.446  17.458  0.4863 -0.3757  1.1069
  329TMC3    C5 4939   4.270   1.569  17.467 -0.5730 -0.6934  0.1689
  329TMC3    C6 4940   4.330   1.676  17.539 -0.0775  0.0787 -0.5847
  329TMC3     C 4941   4.543   1.410  17.388  0.4620 -0.1978  0.1744
  329TMC3     O 4942   4.481   1.416  17.284 -0.4148  0.4800  0.0470
  329TMC3     H 4943   4.606   1.506  17.639  0.6513 -1.9175 -1.0665
  329TMC3    H1 4944   4.289   1.367  17.396 -1.8397  0.4515  1.5507
  329TMC3    H2 4945   4.290   1.777  17.538  0.6986  0.3750 -1.5577
  329TMC3    C7 4946   4.137   1.580  17.403 -0.0225 -0.4480 -0.5473
  329TMC3    C8 4947   4.539   1.749  17.639  0.5864 -0.1122  0.4885
  329TMC3    O1 4948   4.117   1.500  17.312 -0.1098 -0.0016 -0.3048
  329TMC3    O2 4949   4.654   1.744  17.612 -0.2512  0.2601  0.5823
  330TMC3    C1 4950   2.805   1.008   9.736 -0.6118  0.1176 -0.0721
  330TMC3    C2 4951   2.807   0.876   9.750 -0.1956 -0.2946 -0.3177
  330TMC3    C3 4952   2.925   0.818   9.784  1.0402 -0.2187 -0.1124
  330TMC3    C4 4953   2.915   1.085   9.760  0.1813  0.2308 -0.2464
  330TMC3    C5 4954   3.031   1.028   9.808 -1.2638  0.3086  0.6784
  330TMC3    C6 4955   3.037   0.892   9.820  0.2627  0.3810  0.1684
  330TMC3     C 4956   2.687   1.081   9.702 -0.3096 -0.2870 -0.1590
  330TMC3     O 4957   2.704   1.198   9.673 -0.4093  0.8516  0.1315
  330TMC3     H 4958   2.721   0.815   9.726 -1.3821  1.1195  0.3873
  330TMC3    H1 4959   2.914   1.193   9.751  0.2187  0.2025 -0.5706
  330TMC3    H2 4960   3.128   0.851   9.862  0.5541  0.7677 -0.0878
  330TMC3    C7 4961   3.137   1.120   9.851  0.0818 -0.5086  0.1506
  330TMC3    C8 4962   2.940   0.680   9.821 -0.1548  0.5076  0.9751
  330TMC3    O1 4963   3.113   1.237   9.850  0.1447 -0.0553  0.1771
  330TMC3    O2 4964   3.056   0.638   9.814  0.2542 -0.4229 -0.2789
  331MPD2     C 4965   0.584   0.688  13.123  0.1166  0.0849  0.1125
  331MPD2    C1 4966   0.711   0.720  13.081  0.2532 -0.0652 -0.3156
  331MPD2    C2 4967   0.783   0.628  13.003 -0.5989  0.2268 -0.4982
  331MPD2    C3 4968   0.723   0.509  12.968  0.1409 -0.3813 -0.6367
  331MPD2    C4 4969   0.599   0.471  13.013 -1.1394  0.3523  0.1347
  331MPD2    C5 4970   0.529   0.565  13.087 -0.2773  0.0769  0.0656
  331MPD2     H 4971   0.882   0.652  12.967  0.0574  1.1352  1.9124
  331MPD2    H1 4972   0.554   0.376  12.986 -1.4245  0.1023  1.5389
  331MPD2    H2 4973   0.526   0.763  13.175  0.5645 -0.5932  1.5922
  331MPD2    H3 4974   0.423   0.543  13.097 -0.5234  1.1900 -0.1589
  331MPD2     N 4975   0.807   0.421  12.894 -0.2734 -0.7905 -0.7564
  331MPD2    H5 4976   0.899   0.454  12.868 -0.3461  0.5209  0.6330
  331MPD2    N1 4977   0.762   0.848  13.117 -0.1226 -0.5223 -0.3273
  331MPD2    H7 4978   0.692   0.919  13.138 -2.0945 -2.0823 -1.6919
  332TMC3    C1 4979   0.867   0.238  12.769 -0.0306  0.2867  0.3149
  332TMC3    C2 4980   0.914   0.313  12.670 -0.1015 -0.0150 -0.5849
  332TMC3    C3 4981   0.983   0.248  12.570  0.5728  0.5300 -0.1271
  332TMC3    C4 4982   0.880   0.106  12.775 -0.0154  0.1006  0.2031
  332TMC3    C5 4983   0.968   0.050  12.689 -0.5160 -0.2408 -0.2508
  332TMC3    C6 4984   1.007   0.115  12.577  0.4663  0.6841  0.5506
  332TMC3     C 4985   0.771   0.292  12.856  1.3108  0.3356  0.0071
  332TMC3     O 4986   0.679   0.224  12.902  0.3707 -0.9737  0.0567
  332TMC3     H 4987   0.913   0.421  12.678  0.1088  0.1284 -2.3391
  332TMC3    H1 4988   0.842   0.046  12.858 -0.1566  0.1738  0.1910
  332TMC3    H2 4989   1.064   0.052  12.510 -0.7717 -0.4234  0.5489
  332TMC3    C7 4990   1.057   4.677  12.745  0.4972 -0.2117  0.1098
  332TMC3    C8 4991   1.053   0.328  12.477  0.0825  1.2409 -0.1426
  332TMC3    O1 4992   1.011   4.611  12.834 -0.0278  0.3059  0.0550
  332TMC3    O2 4993   1.094   0.436  12.513 -0.1488 -0.0645  0.0154
  333MPD2     C 4994   1.408   0.485  11.366 -0.5220 -0.6292 -0.1839
  333MPD2    C1 4995   1.488   0.373  11.342 -0.0970 -0.2219  0.0300
  333MPD2    C2 4996   1.451   0.254  11.404  0.3009 -0.3134  0.1793
  333MPD2    C3 4997   1.359   0.251  11.507  0.4007 -0.1336  0.5273
  333MPD2    C4 4998   1.283   0.363  11.535 -0.4264 -0.0713 -0.3215
  333MPD2    C5 4999   1.314   0.476  11.467  0.4961  0.1944  0.7865
  333MPD2     H 5000   1.507   0.162  11.388  0.1643  0.1456 -2.8816
  333MPD2    H1 5001   1.199   0.378  11.601  1.2741  2.8141  1.2213
  333MPD2    H2 5002   1.437   0.583  11.329  1.9108 -0.5947  1.7672
  333MPD2    H3 5003   1.256   0.564  11.492  2.6527  1.7049  0.4047
  333MPD2     N 5004   1.322   0.135  11.576  0.5942  0.1160  0.5749
  333MPD2    H5 5005   1.336   0.047  11.527  2.2715 -0.0757  1.4118
  333MPD2    N1 5006   1.599   0.386  11.258  0.3395 -0.5563  0.9834
  333MPD2    H7 5007   1.597   0.475  11.209  0.2639 -1.4551 -0.6523
  334TMC3    C1 5008   1.797   0.343  11.130 -0.4028  0.0137  0.2672
  334TMC3    C2 5009   1.900   0.259  11.091 -0.1333 -0.9831  0.8814
  334TMC3    C3 5010   1.988   0.312  10.997 -0.2988  0.2018  0.2360
  334TMC3    C4 5011   1.798   0.478  11.105  0.7809 -0.4954  0.2993
  334TMC3    C5 5012   1.913   0.533  11.052  0.0348  0.1191 -0.4082
  334TMC3    C6 5013   1.994   0.447  10.980  0.7289 -0.4324  0.0588
  334TMC3     C 5014   1.698   0.294  11.229 -0.4338 -0.1603  0.3166
  334TMC3     O 5015   1.700   0.175  11.265 -0.0772 -0.1976  0.7171
  334TMC3     H 5016   1.892   0.151  11.096  2.3023 -1.2682 -1.3109
  334TMC3    H1 5017   1.742   0.556  11.155 -0.0263 -0.1700 -1.0918
  334TMC3    H2 5018   2.073   0.490  10.921  0.8573  0.0414  0.5737
  334TMC3    C7 5019   1.901   0.672  10.997  0.2609 -0.2638  0.3901
  334TMC3    C8 5020   2.099   0.223  10.955  0.0651 -0.6605  0.1996
  334TMC3    O1 5021   1.787   0.710  10.992  0.3259 -0.0055 -0.2292
  334TMC3    O2 5022   2.091   0.099  10.964  0.3984  0.0464  0.1069
  335TMC3    C1 5023   0.829   2.228   0.070  0.2255 -0.1918 -0.1848
  335TMC3    C2 5024   0.800   2.112   0.005  0.3232  0.4316 -0.5050
  335TMC3    C3 5025   0.900   2.053  17.634  0.7146  1.0089  0.1132
  335TMC3    C4 5026   0.950   2.289   0.066 -0.4230  0.7660 -0.1674
  335TMC3    C5 5027   1.053   2.214   0.003 -0.1738 -0.0745  0.6726
  335TMC3    C6 5028   1.029   2.102  17.633  0.3910  0.5642 -0.0720
  335TMC3     C 5029   0.737   2.269   0.178  0.2810 -0.5505 -0.2977
  335TMC3     O 5030   0.629   2.212   0.172  0.4006  0.2910 -0.6249
  335TMC3     H 5031   0.704   2.061   0.005 -0.2522  1.5080 -0.0522
  335TMC3    H1 5032   0.968   2.383   0.117  0.4553 -0.0944  1.1097
  335TMC3    H2 5033   1.107   2.048  17.581  0.7410  1.3472 -0.3694
  335TMC3    C7 5034   1.190   2.262  17.689 -0.4735 -0.1809  0.6523
  335TMC3    C8 5035   0.879   1.954  17.530  0.0874 -0.0571  0.5980
  335TMC3    O1 5036   1.270   2.171  17.665 -0.3693  0.5717  0.1313
  335TMC3    O2 5037   0.964   1.948  17.438 -0.3377  0.7949  0.1561
  336MPD2     C 5038   0.478   4.469  16.515  0.9181  1.2784  0.0233
  336MPD2    C1 5039   0.522   4.398  16.411  0.1604 -0.2087 -0.6944
  336MPD2    C2 5040   0.553   4.264  16.428 -0.0443  0.2204 -0.2323
  336MPD2    C3 5041   0.532   4.201  16.547  0.0254  0.1050 -0.2636
  336MPD2    C4 5042   0.487   4.271  16.653 -0.5622 -0.0356 -0.4700
  336MPD2    C5 5043   0.469   4.409  16.638 -0.8179  0.0288  0.5680
  336MPD2     H 5044   0.599   4.211  16.346 -0.9023  0.2363 -0.7147
  336MPD2    H1 5045   0.485   4.230  16.754 -0.1099  1.1442  0.0232
  336MPD2    H2 5046   0.453   4.574  16.508  1.4720  1.4363  0.4502
  336MPD2    H3 5047   0.446   4.472  16.723 -2.2009 -0.1058  0.2842
  336MPD2     N 5048   0.572   4.070  16.571 -0.1097  0.4647  0.0812
  336MPD2    H5 5049   0.565   4.036  16.666  0.5352 -0.4600 -0.2132
  336MPD2    N1 5050   0.535   4.451  16.281  0.2200 -0.6246 -0.4805
  336MPD2    H7 5051   0.581   4.391  16.214 -1.5481 -2.5519  0.0470
  337TMC3    C1 5052   0.476   4.585  16.097 -0.7534  0.4819  0.1614
  337TMC3    C2 5053   0.360   4.639  16.047 -0.4492 -0.9271 -0.0953
  337TMC3    C3 5054   0.322   4.639  15.912  1.1737 -0.2308 -1.5479
  337TMC3    C4 5055   0.570   4.534  16.016 -0.0730 -0.0639  0.5879
  337TMC3    C5 5056   0.532   4.528  15.888  1.2855  0.6573  0.1734
  337TMC3    C6 5057   0.411   4.571  15.832  0.4028 -0.2138 -0.3376
  337TMC3     C 5058   0.472   4.564  16.244  0.0673  0.4521  0.1374
  337TMC3     O 5059   0.387   4.622  16.308  0.3770  0.1370  0.1329
  337TMC3     H 5060   0.290   4.673  16.123 -0.8823 -0.3183 -0.7556
  337TMC3    H1 5061   0.667   4.496  16.047  0.2741 -0.4437 -0.9460
  337TMC3    H2 5062   0.378   4.544  15.732  0.7738 -3.0854  0.2994
  337TMC3    C7 5063   0.627   4.459  15.800 -0.4240  0.8002  0.7658
  337TMC3    C8 5064   0.182   4.605  15.888 -0.2314 -0.0725 -0.0709
  337TMC3    O1 5065   0.720   4.400  15.856 -0.2744  0.2918  0.3013
  337TMC3    O2 5066   0.127   4.539  15.973 -0.2855  0.0869 -0.0154
  338MPD2     C 5067   1.365   3.745   1.204 -0.4092 -0.7194 -0.1582
  338MPD2    C1 5068   1.311   3.644   1.122  0.3026 -0.6776  0.0786
  338MPD2    C2 5069   1.180   3.643   1.100  0.2923  0.0547 -0.5022
  338MPD2    C3 5070   1.102   3.744   1.145 -0.2325  0.0874 -0.2274
  338MPD2    C4 5071   1.154   3.842   1.229  0.4761 -0.4792 -1.1294
  338MPD2    C5 5072   1.290   3.848   1.254  0.1757 -0.1939 -0.3718
  338MPD2     H 5073   1.142   3.574   1.025  0.0389  0.3142 -0.6113
  338MPD2    H1 5074   1.102   3.929   1.269  1.6120 -0.4541  0.3043
  338MPD2    H2 5075   1.473   3.748   1.208 -0.4347  1.0052 -0.6439
  338MPD2    H3 5076   1.342   3.933   1.297 -1.2413  0.2191  0.5355
  338MPD2     N 5077   0.967   3.742   1.114 -1.2351 -0.2800  0.4857
  338MPD2    H5 5078   0.949   3.668   1.047  1.2467 -0.9687  0.5702
  338MPD2    N1 5079   1.382   3.544   1.065  0.2037 -0.3589  0.4094
  338MPD2    H7 5080   1.330   3.487   0.999 -1.0602 -0.6812  1.7035
  339TMC3    C1 5081   0.746   3.796   1.079  0.1136 -0.5391  0.2482
  339TMC3    C2 5082   0.716   3.656   1.084  0.0624  0.4553  0.2486
  339TMC3    C3 5083   0.637   3.619   0.978  0.1527 -0.2569  0.4525
  339TMC3    C4 5084   0.715   3.879   0.979  0.4811 -0.2280  0.7418
  339TMC3    C5 5085   0.640   3.826   0.882  0.4578 -0.6528 -0.0775
  339TMC3    C6 5086   0.594   3.698   0.881  0.0669 -0.0693  0.7088
  339TMC3     C 5087   0.873   3.831   1.140 -0.3172  0.2964  0.4039
  339TMC3     O 5088   0.869   3.933   1.208 -0.1916  0.1172 -0.4572
  339TMC3     H 5089   0.766   3.597   1.160 -1.7481  1.8257  2.4950
  339TMC3    H1 5090   0.761   3.976   0.971  0.8270 -0.2832  2.0814
  339TMC3    H2 5091   0.530   3.655   0.805 -0.2477  1.3618  0.1591
  339TMC3    C7 5092   0.588   3.913   0.783  0.2517 -0.0284 -0.4479
  339TMC3    C8 5093   0.611   3.475   0.970 -0.0959  0.4540 -0.0394
  339TMC3    O1 5094   0.566   4.025   0.823  0.1123  0.1980 -0.5482
  339TMC3    O2 5095   0.573   3.430   0.863 -0.1335  0.1632 -0.1598
  340MPD2     C 5096   0.824   0.875  10.614 -0.3156 -0.2538  0.2984
  340MPD2    C1 5097   0.958   0.908  10.599 -0.7909 -0.3946 -0.8787
  340MPD2    C2 5098   1.002   1.040  10.609  0.3406  0.0139  0.1217
  340MPD2    C3 5099   0.904   1.135  10.630  0.0838 -0.2726 -0.1168
  340MPD2    C4 5100   0.770   1.099  10.650  0.4418 -0.6417 -0.5163
  340MPD2    C5 5101   0.727   0.970  10.647 -0.0655 -0.1321  0.3837
  340MPD2     H 5102   1.105   1.062  10.583  0.6177 -2.0040 -0.5083
  340MPD2    H1 5103   0.690   1.172  10.651 -0.2806 -1.4388  0.3165
  340MPD2    H2 5104   0.783   0.778  10.590  0.0947  0.0050 -1.4360
  340MPD2    H3 5105   0.623   0.945  10.666 -0.4452 -1.0871 -2.8903
  340MPD2     N 5106   0.932   1.273  10.617 -0.0962 -0.3001  0.1034
  340MPD2    H5 5107   0.847   1.328  10.605  1.0648  2.0097  2.5092
  340MPD2    N1 5108   1.041   0.797  10.561  0.8919  0.2353 -0.0331
  340MPD2    H7 5109   0.995   0.712  10.529 -0.5290  0.8864  0.2826
  341TMC3    C1 5110   1.250   0.698  10.484 -0.2150 -0.6342  0.8757
  341TMC3    C2 5111   1.194   0.646  10.373 -0.2015 -0.1529 -0.0515
  341TMC3    C3 5112   1.269   0.554  10.297 -0.0706 -0.4034 -0.4632
  341TMC3    C4 5113   1.381   0.684  10.505  0.8483 -0.2393 -0.2707
  341TMC3    C5 5114   1.454   0.603  10.425 -0.2565 -0.1889 -0.0712
  341TMC3    C6 5115   1.400   0.527  10.322 -0.0742  0.4349  0.0530
  341TMC3     C 5116   1.181   0.805  10.561 -0.1252 -0.0156  0.5187
  341TMC3     O 5117   1.244   0.880  10.635  0.4878 -0.1437  0.4218
  341TMC3     H 5118   1.090   0.663  10.350 -1.1390 -0.4107  4.0061
  341TMC3    H1 5119   1.419   0.727  10.597 -0.3289 -1.8681  0.9858
  341TMC3    H2 5120   1.479   0.476  10.268 -0.2547 -0.0350  0.2321
  341TMC3    C7 5121   1.597   0.594  10.443 -0.4910 -0.5154 -0.3864
  341TMC3    C8 5122   1.218   0.528  10.171  0.0816  0.0957  0.0487
  341TMC3    O1 5123   1.667   0.692  10.424  0.1607  0.1816 -0.0834
  341TMC3    O2 5124   1.095   0.518  10.148 -0.0142  0.3142  0.1830
  342MPD2     C 5125   3.383   4.679   0.249 -0.2688 -0.3119  0.0086
  342MPD2    C1 5126   3.510   4.695   0.201  0.6762  0.1243 -0.7243
  342MPD2    C2 5127   3.566   0.092   0.199 -0.4663  0.0600 -0.1902
  342MPD2    C3 5128   3.495   0.208   0.233  0.0724 -0.4589  0.0072
  342MPD2    C4 5129   3.369   0.190   0.286  0.1075 -0.1140 -0.3414
  342MPD2    C5 5130   3.314   0.065   0.292  0.6540  1.0242 -0.3344
  342MPD2     H 5131   3.663   0.098   0.150  0.7372 -1.0518  2.0450
  342MPD2    H1 5132   3.308   0.278   0.305 -0.2820 -0.7638  1.3238
  342MPD2    H2 5133   3.327   4.586   0.250 -0.9040  0.0529 -1.3652
  342MPD2    H3 5134   3.215   0.044   0.332  1.3003  2.0742  1.8252
  342MPD2     N 5135   3.539   0.341   0.221  0.5579 -0.0998 -0.0200
  342MPD2    H5 5136   3.483   0.421   0.245  0.0531 -0.5156  0.1924
  342MPD2    N1 5137   3.577   4.590   0.139  0.1483 -0.1367  0.1477
  342MPD2    H7 5138   3.654   4.610   0.077  0.9814 -0.5863  1.0306
  343TMC3    C1 5139   3.616   4.372   0.067  0.8860  0.9453  0.0645
  343TMC3    C2 5140   3.695   4.425  17.678  0.0570  0.1759 -0.8913
  343TMC3    C3 5141   3.736   4.351  17.571  0.1892 -0.2721  0.1456
  343TMC3    C4 5142   3.581   4.238   0.070 -0.1658  0.7179  0.4103
  343TMC3    C5 5143   3.625   4.165  17.665 -0.1562 -0.1471 -0.2373
  343TMC3    C6 5144   3.706   4.213  17.561 -0.5304  0.4018  0.3136
  343TMC3     C 5145   3.545   4.460   0.158 -0.6444  0.4689 -0.0743
  343TMC3     O 5146   3.455   4.400   0.219  1.2203 -0.4543 -0.0664
  343TMC3     H 5147   3.749   4.518  17.685  1.5084 -0.7032 -0.3851
  343TMC3    H1 5148   3.527   4.203   0.158  1.4640  0.8618  1.4832
  343TMC3    H2 5149   3.747   4.140  17.492  1.7329 -1.5210  3.6887
  343TMC3    C7 5150   3.586   4.019  17.651 -0.9404 -0.0035  0.2373
  343TMC3    C8 5151   3.849   4.397  17.494 -0.0134 -0.3370 -0.4596
  343TMC3    O1 5152   3.593   3.962  17.545 -0.1574 -0.1089  0.5320
  343TMC3    O2 5153   3.844   4.516  17.467 -0.2945  0.1662  0.4661
  344MPD2     C 5154   0.719   4.077  10.389 -0.2781 -0.6539  0.5784
  344MPD2    C1 5155   0.616   4.032  10.315 -0.4809 -0.3470  0.5323
  344MPD2    C2 5156   0.582   4.095  10.199 -0.2256 -0.0695  0.4033
  344MPD2    C3 5157   0.654   4.207  10.155 -0.0762  0.2360 -0.1958
  344MPD2    C4 5158   0.757   4.254  10.237  0.0527  0.3907  0.1500
  344MPD2    C5 5159   0.788   4.193  10.355  0.6361 -0.1742 -0.2672
  344MPD2     H 5160   0.515   4.038  10.136  1.8575 -1.3917 -0.6083
  344MPD2    H1 5161   0.821   4.337  10.211 -1.4123  0.3799 -3.4230
  344MPD2    H2 5162   0.743   4.045  10.490  0.1667  0.0831  0.7003
  344MPD2    H3 5163   0.868   4.220  10.423 -0.2892  1.8492  0.0028
  344MPD2     N 5164   0.634   4.271  10.028  0.5952 -0.2186 -0.2268
  344MPD2    H5 5165   0.699   4.344  10.001  0.5551  0.4176  1.3845
  344MPD2    N1 5166   0.544   3.911  10.344 -0.5714 -0.3782  0.0171
  344MPD2    H7 5167   0.473   3.881  10.278 -1.5589  0.5913  0.6367
  345TMC3    C1 5168   0.594   4.316   9.806  0.0582 -0.2395  1.1656
  345TMC3    C2 5169   0.721   4.361   9.803  0.1141  0.1940 -0.1952
  345TMC3    C3 5170   0.746   4.464   9.711  0.0874  0.6022  0.3668
  345TMC3    C4 5171   0.498   4.355   9.720 -0.6681 -0.4999  0.6622
  345TMC3    C5 5172   0.522   4.468   9.642  0.1378  0.1271  1.2541
  345TMC3    C6 5173   0.650   4.514   9.630 -0.2008 -0.0317 -0.2782
  345TMC3     C 5174   0.549   4.235   9.924  0.2084 -0.0476  0.1982
  345TMC3     O 5175   0.452   4.160   9.908  0.6879 -0.2989  0.5061
  345TMC3     H 5176   0.796   4.310   9.862 -0.2739 -0.8972 -0.6421
  345TMC3    H1 5177   0.397   4.316   9.731 -0.5527 -1.4881 -1.6854
  345TMC3    H2 5178   0.668   4.601   9.567 -0.4865  0.6775  0.6127
  345TMC3    C7 5179   0.422   4.511   9.550  0.2917  0.0312 -0.1336
  345TMC3    C8 5180   0.868   4.536   9.718  0.0183  0.6484  0.1616
  345TMC3    O1 5181   0.351   4.426   9.501  0.0795 -0.1636  0.1889
  345TMC3    O2 5182   0.937   4.515   9.817  0.1816 -0.0100  0.2489
  346MPD2     C 5183   4.390   1.611  14.361 -0.1564  0.2661 -0.3901
  346MPD2    C1 5184   4.514   1.598  14.299 -0.1573 -0.6725  0.8231
  346MPD2    C2 5185   4.631   1.584  14.376 -0.0578 -0.0208  0.2214
  346MPD2    C3 5186   4.622   1.620  14.509 -0.5409  0.8570  0.5494
  346MPD2    C4 5187   4.490   1.641  14.564  0.4656 -0.8612  0.1265
  346MPD2    C5 5188   4.377   1.618  14.494 -1.1255 -0.1427 -1.2597
  346MPD2     H 5189   4.721   1.580  14.316  0.7845  2.1349  1.3369
  346MPD2    H1 5190   4.479   1.652  14.671  0.1892 -1.0136  0.1127
  346MPD2    H2 5191   4.295   1.596  14.311 -0.3208 -2.3549  0.7049
  346MPD2    H3 5192   4.275   1.619  14.533 -0.8167 -0.0248 -0.4466
  346MPD2     N 5193   0.018   1.621  14.582 -0.1878 -0.0798 -0.7328
  346MPD2    H5 5194   0.097   1.593  14.526 -0.8170  0.0927 -1.7039
  346MPD2    N1 5195   4.527   1.585  14.159 -0.8083  0.0541 -0.2225
  346MPD2    H7 5196   4.623   1.579  14.126 -0.9846  1.4821 -0.9762
  347TMC3    C1 5197   0.169   1.640  14.775  0.1804 -0.1462 -0.4606
  347TMC3    C2 5198   0.281   1.648  14.696 -0.0726 -0.3708 -0.2437
  347TMC3    C3 5199   0.406   1.620  14.751  0.1100  0.0911 -0.1862
  347TMC3    C4 5200   0.185   1.610  14.911  0.4226  0.5897  0.3185
  347TMC3    C5 5201   0.310   1.580  14.963 -0.6554 -0.1378  0.1697
  347TMC3    C6 5202   0.423   1.591  14.886 -0.2440 -0.1497  0.0280
  347TMC3     C 5203   0.035   1.636  14.718  0.2489 -0.3243  0.2263
  347TMC3     O 5204   4.674   1.642  14.807  0.2864  0.7668  0.0626
  347TMC3     H 5205   0.270   1.676  14.592 -0.6538 -2.1541 -0.6421
  347TMC3    H1 5206   0.095   1.605  14.971 -0.6723  0.2818 -1.3230
  347TMC3    H2 5207   0.522   1.558  14.916 -0.3163  1.1140  1.6444
  347TMC3    C7 5208   0.312   1.519  15.094  0.0511 -0.1024 -0.1161
  347TMC3    C8 5209   0.522   1.619  14.659  0.3585  0.0479  0.4996
  347TMC3    O1 5210   0.203   1.481  15.141 -0.0456 -0.3563  0.6304
  347TMC3    O2 5211   0.632   1.599  14.705  0.8850 -0.1423 -0.1910
  348MPD2     C 5212   3.678   1.245  12.461 -0.6540  0.5377  0.0677
  348MPD2    C1 5213   3.735   1.186  12.351  0.2770 -0.0576  0.5097
  348MPD2    C2 5214   3.703   1.240  12.224  0.3773 -0.1493  0.2859
  348MPD2    C3 5215   3.636   1.361  12.208  0.0843  0.2935 -0.7922
  348MPD2    C4 5216   3.588   1.418  12.326 -0.4489  1.3026  0.1245
  348MPD2    C5 5217   3.613   1.361  12.447 -0.1157 -0.0528  0.3144
  348MPD2     H 5218   3.743   1.194  12.134  0.3126  0.2638  0.0431
  348MPD2    H1 5219   3.536   1.512  12.319 -0.2975  1.4097  0.4309
  348MPD2    H2 5220   3.696   1.203  12.560 -0.1615 -1.0664 -0.7014
  348MPD2    H3 5221   3.570   1.400  12.539  0.5162  0.8589  0.2280
  348MPD2     N 5222   3.620   1.419  12.081  0.7202 -0.0454  0.4934
  348MPD2    H5 5223   3.623   1.361  11.997 -3.2269  0.1579  0.2022
  348MPD2    N1 5224   3.802   1.065  12.348  0.6730  0.3093  0.8819
  348MPD2    H7 5225   3.832   1.033  12.257  2.1210  1.2295  1.0415
  349TMC3    C1 5226   3.878   0.858  12.408 -0.3850 -0.3421 -0.5302
  349TMC3    C2 5227   3.860   0.744  12.491 -0.1336 -0.5241  0.3063
  349TMC3    C3 5228   3.936   0.636  12.460 -0.1393 -0.6737  0.7337
  349TMC3    C4 5229   3.979   0.866  12.316  0.4662 -0.2557  0.0945
  349TMC3    C5 5230   4.058   0.754  12.303 -0.7495  0.3829 -0.3883
  349TMC3    C6 5231   4.032   0.627  12.364 -0.1293  1.0414 -0.1721
  349TMC3     C 5232   3.820   0.982  12.456 -0.2147  0.8053  0.5906
  349TMC3     O 5233   3.791   0.983  12.574  0.3593  0.0777 -0.3223
  349TMC3     H 5234   3.791   0.752  12.574  0.4589 -0.0713  0.7547
  349TMC3    H1 5235   3.999   0.957  12.262  0.5053  0.4437  1.2860
  349TMC3    H2 5236   4.100   0.542  12.358 -0.7200  0.5089  0.7333
  349TMC3    C7 5237   4.165   0.756  12.202 -0.0620 -0.7457 -0.0337
  349TMC3    C8 5238   3.894   0.519  12.544  0.6047 -0.3222  0.1019
  349TMC3    O1 5239   4.142   0.687  12.104 -0.1758  0.0623 -0.8396
  349TMC3    O2 5240   3.802   0.543  12.621 -0.3140 -0.4618  0.2495
  350MPD2     C 5241   3.604   3.652  10.070  0.3122 -0.7616  0.1966
  350MPD2    C1 5242   3.481   3.598  10.111 -0.3305  0.1292  0.4316
  350MPD2    C2 5243   3.435   3.656  10.230  0.2085  0.4677  0.5896
  350MPD2    C3 5244   3.493   3.763  10.298 -0.3646 -0.1156 -0.3650
  350MPD2    C4 5245   3.612   3.805  10.260  0.4711 -0.4263  0.3317
  350MPD2    C5 5246   3.661   3.758  10.141 -0.4649 -0.0531 -0.0968
  350MPD2     H 5247   3.342   3.619  10.272 -0.7957  3.2859  0.8425
  350MPD2    H1 5248   3.675   3.876  10.312 -0.1665  0.2883  0.1335
  350MPD2    H2 5249   3.664   3.606   9.993  0.2870  0.6540 -0.6679
  350MPD2    H3 5250   3.758   3.800  10.115 -0.4470 -0.0601 -0.0425
  350MPD2     N 5251   3.442   3.792  10.426 -0.3426  0.3824 -0.2079
  350MPD2    H5 5252   3.350   3.755  10.451  0.0772 -0.5211 -0.0042
  350MPD2    N1 5253   3.424   3.481  10.060  0.0493  0.9992  0.0873
  350MPD2    H7 5254   3.335   3.460  10.105  0.0863 -2.2259 -1.3110
  351TMC3    C1 5255   3.361   3.314   9.941  0.2423  0.8394 -0.2976
  351TMC3    C2 5256   3.376   3.183   9.909 -0.3651 -0.5038 -0.2446
  351TMC3    C3 5257   3.270   3.111   9.871  0.2204 -0.0175  0.3262
  351TMC3    C4 5258   3.240   3.372   9.923  0.8268 -0.4354  0.1073
  351TMC3    C5 5259   3.135   3.301   9.886  0.3938 -0.3869  0.4863
  351TMC3    C6 5260   3.141   3.165   9.864 -0.0265 -0.0932  0.8041
  351TMC3     C 5261   3.475   3.397   9.964  0.6158 -0.3164  0.6111
  351TMC3     O 5262   3.589   3.363   9.934  1.1400  0.0235  0.0656
  351TMC3     H 5263   3.476   3.146   9.926 -0.5434 -0.4745  0.8475
  351TMC3    H1 5264   3.219   3.475   9.948  0.0079 -0.5386 -0.1445
  351TMC3    H2 5265   3.060   3.101   9.830  1.2821 -0.9001 -0.7927
  351TMC3    C7 5266   3.007   3.372   9.864 -0.0309 -0.2343 -0.1684
  351TMC3    C8 5267   3.281   2.972   9.842 -0.3664 -0.5033 -0.2971
  351TMC3    O1 5268   3.012   3.494   9.861 -0.1752 -0.7104 -0.2339
  351TMC3    O2 5269   3.182   2.906   9.867  0.5544 -0.3311 -0.5549
  352MPD2     C 5270   0.785   0.955   1.735  0.1250 -0.1404 -0.2015
  352MPD2    C1 5271   0.652   0.938   1.724 -0.0287  0.4098  0.1240
  352MPD2    C2 5272   0.595   0.818   1.767 -0.2514 -0.4377  0.5088
  352MPD2    C3 5273   0.677   0.712   1.804 -0.2002  0.4892  0.5626
  352MPD2    C4 5274   0.813   0.732   1.823 -0.5844 -0.3361  0.0891
  352MPD2    C5 5275   0.865   0.854   1.785 -0.2963  0.2568 -0.1989
  352MPD2     H 5276   0.490   0.792   1.756 -0.1467 -0.9968  0.8309
  352MPD2    H1 5277   0.878   0.657   1.866  1.1718  0.6810 -0.8274
  352MPD2    H2 5278   0.824   1.055   1.718  0.1893 -0.2720 -0.8255
  352MPD2    H3 5279   0.969   0.879   1.802 -0.3742  1.4521 -1.4188
  352MPD2     N 5280   0.629   0.580   1.835 -0.4479 -0.3746 -0.3221
  352MPD2    H5 5281   0.703   0.514   1.857 -2.7211 -2.5010  0.9501
  352MPD2    N1 5282   0.582   1.043   1.668  0.0249 -0.0662  0.3736
  352MPD2    H7 5283   0.636   1.112   1.617 -1.1709 -0.0106 -0.8284
  353TMC3    C1 5284   0.478   0.394   1.869 -0.3277  0.1777 -0.3216
  353TMC3    C2 5285   0.580   0.319   1.916  0.3298  0.3001  0.9307
  353TMC3    C3 5286   0.569   0.184   1.917  0.2589  0.5527 -0.3558
  353TMC3    C4 5287   0.359   0.335   1.840  0.0784 -0.1476  1.1796
  353TMC3    C5 5288   0.341   0.200   1.854 -0.0035  0.1449  0.1130
  353TMC3    C6 5289   0.455   0.124   1.891  0.3795 -0.3157 -0.1423
  353TMC3     C 5290   0.498   0.537   1.843  1.0104  0.5408  0.0999
  353TMC3     O 5291   0.397   0.592   1.804 -0.6783  0.1102  0.2036
  353TMC3     H 5292   0.678   0.365   1.925  0.2294  0.5119  0.9342
  353TMC3    H1 5293   0.278   0.386   1.789  0.4947  0.5308  1.1984
  353TMC3    H2 5294   0.437   0.017   1.895 -1.5304  0.0464  1.1424
  353TMC3    C7 5295   0.238   0.139   1.772 -0.5756  0.8484  0.0667
  353TMC3    C8 5296   0.685   0.113   1.964  0.4208 -0.3647  0.1987
  353TMC3    O1 5297   0.266   0.026   1.730  0.0182  0.1841 -0.3717
  353TMC3    O2 5298   0.752   0.168   2.049 -0.2130  0.5541  0.0437
  354TMC3    C1 5299   2.272   2.211  13.726 -0.4608 -0.0931  0.3192
  354TMC3    C2 5300   2.181   2.292  13.657 -0.1867  0.1387  0.0316
  354TMC3    C3 5301   2.199   2.293  13.521 -0.4283 -0.4889 -0.2078
  354TMC3    C4 5302   2.377   2.145  13.663 -0.8691  0.0330 -0.2755
  354TMC3    C5 5303   2.384   2.150  13.524 -0.5248  0.5391 -0.0083
  354TMC3    C6 5304   2.294   2.219  13.453  0.5045 -0.3708  0.2772
  354TMC3     C 5305   2.228   2.162  13.860 -0.1302  0.1071 -0.3185
  354TMC3     O 5306   2.112   2.191  13.887  0.9758  0.1360 -0.3295
  354TMC3     H 5307   2.091   2.323  13.710 -1.0300 -1.0768 -0.6842
  354TMC3    H1 5308   2.441   2.078  13.718 -0.2482  1.0627  0.2498
  354TMC3    H2 5309   2.291   2.215  13.345  1.3674  0.4628  0.2187
  354TMC3    C7 5310   2.505   2.094  13.466  0.4473 -0.1088 -0.4717
  354TMC3    C8 5311   2.177   2.423  13.450  0.3044 -0.3558 -0.4596
  354TMC3    O1 5312   2.572   2.025  13.541 -0.0581  0.1925  0.0007
  354TMC3    O2 5313   2.230   2.437  13.339 -0.1558  0.2490 -0.3266
  355MPD2     C 5314   2.850   3.085  11.957  0.0965  1.0545 -0.7573
  355MPD2    C1 5315   2.900   3.144  11.841 -0.8484 -0.2243  0.1250
  355MPD2    C2 5316   3.034   3.134  11.804 -0.6495 -0.2826 -0.4087
  355MPD2    C3 5317   3.119   3.070  11.888  0.1106  0.6108  0.6067
  355MPD2    C4 5318   3.068   3.000  11.999 -0.0433  0.4996  0.0254
  355MPD2    C5 5319   2.938   3.004  12.030  0.6985 -1.2749 -0.4788
  355MPD2     H 5320   3.073   3.182  11.714  0.0726  0.5727  0.3629
  355MPD2    H1 5321   3.129   2.946  12.070  2.0934 -0.8770 -2.8415
  355MPD2    H2 5322   2.745   3.090  11.983  0.1954  1.0377 -0.3553
  355MPD2    H3 5323   2.902   2.955  12.119 -0.7949  0.4274 -0.1594
  355MPD2     N 5324   3.263   3.075  11.882 -1.0359  0.1978  0.0731
  355MPD2    H5 5325   3.317   3.024  11.950  0.5687 -0.3785 -1.6264
  355MPD2    N1 5326   2.802   3.207  11.758 -0.2644 -0.0650  0.7698
  355MPD2    H7 5327   2.704   3.186  11.777 -1.0678  0.6475 -2.4502
  356TMC3    C1 5328   3.462   3.172  11.828 -0.0551  0.3159  0.2032
  356TMC3    C2 5329   3.550   3.223  11.734 -0.0842 -0.4486 -0.5457
  356TMC3    C3 5330   3.665   3.285  11.776 -0.5506 -0.1794 -0.1594
  356TMC3    C4 5331   3.479   3.209  11.960  0.6941  0.3276  0.0846
  356TMC3    C5 5332   3.601   3.259  11.998 -0.3939  0.6004 -0.0975
  356TMC3    C6 5333   3.693   3.305  11.911  0.2914 -0.2719 -0.5641
  356TMC3     C 5334   3.335   3.139  11.782 -0.0200  0.2631  1.0373
  356TMC3     O 5335   3.296   3.197  11.678 -0.0281  0.4771 -0.4692
  356TMC3     H 5336   3.528   3.201  11.630 -0.8532  2.6257 -1.0259
  356TMC3    H1 5337   3.399   3.199  12.033  0.0140 -1.3874 -0.9181
  356TMC3    H2 5338   3.784   3.347  11.950  0.5521 -0.5408 -0.8817
  356TMC3    C7 5339   3.628   3.262  12.142 -0.5323  0.2968  0.0509
  356TMC3    C8 5340   3.762   3.308  11.668 -0.5271 -0.2267  0.6714
  356TMC3    O1 5341   3.547   3.201  12.212 -0.7216  0.0842 -0.5223
  356TMC3    O2 5342   3.738   3.271  11.555  0.6288  0.7677  0.7535
  357MPD2     C 5343   2.504   2.537   1.277  0.0158 -0.4779  0.2964
  357MPD2    C1 5344   2.436   2.442   1.201  0.0995 -0.3183  0.2983
  357MPD2    C2 5345   2.299   2.448   1.209 -0.2445 -0.0965  0.5076
  357MPD2    C3 5346   2.242   2.541   1.296 -0.7076  0.2188  0.0575
  357MPD2    C4 5347   2.313   2.637   1.362 -0.3388  0.1640 -1.0661
  357MPD2    C5 5348   2.448   2.638   1.355 -0.3749  0.1469 -0.2705
  357MPD2     H 5349   2.237   2.381   1.150 -0.6897 -0.5356  1.4838
  357MPD2    H1 5350   2.260   2.710   1.422  0.9484  1.3265 -1.3369
  357MPD2    H2 5351   2.612   2.529   1.270 -0.0935 -0.7720 -0.9569
  357MPD2    H3 5352   2.514   2.695   1.419  0.2102  0.2826 -0.9860
  357MPD2     N 5353   2.105   2.540   1.331  0.2301 -0.1981  0.3090
  357MPD2    H5 5354   2.083   2.601   1.408  2.2503 -2.0022  2.3062
  357MPD2    N1 5355   2.512   2.364   1.116 -0.1043 -0.3231 -0.1781
  357MPD2    H7 5356   2.612   2.370   1.129  0.0158 -2.2269 -0.1983
  358TMC3    C1 5357   2.563   2.194   0.958 -0.7074 -0.2674  0.0827
  358TMC3    C2 5358   2.558   2.153   0.831  0.2971  0.3056 -0.1424
  358TMC3    C3 5359   2.633   2.045   0.794 -0.1303 -0.1327  0.0951
  358TMC3    C4 5360   2.641   2.125   1.045 -0.4407 -0.0603  0.9923
  358TMC3    C5 5361   2.709   2.010   1.011  0.2312 -0.7271 -0.2349
  358TMC3    C6 5362   2.699   1.962   0.882 -0.3175  0.1195 -0.8107
  358TMC3     C 5363   2.465   2.292   1.007  0.5463  0.0914 -0.1160
  358TMC3     O 5364   2.355   2.294   0.950  0.0527 -0.0185 -0.0022
  358TMC3     H 5365   2.496   2.208   0.760 -0.8451 -1.5970 -0.6159
  358TMC3    H1 5366   2.633   2.154   1.149 -1.1520  2.6672  0.1673
  358TMC3    H2 5367   2.779   1.894   0.856  0.9220  0.3106  2.5247
  358TMC3    C7 5368   2.824   1.972   1.095 -0.2812 -0.5394 -0.0227
  358TMC3    C8 5369   2.619   2.009   0.659  0.3434 -0.5839 -0.2307
  358TMC3    O1 5370   2.896   1.880   1.061 -0.4573  0.1006 -0.0855
  358TMC3    O2 5371   2.590   2.097   0.579  0.1079 -0.0799  0.3534
  359MPD2     C 5372   3.865   2.171  12.008  0.5374  0.1377 -0.5732
  359MPD2    C1 5373   3.745   2.220  11.984 -0.6681  0.1152  0.2593
  359MPD2    C2 5374   3.636   2.179  12.056 -1.1368 -0.4558  0.2468
  359MPD2    C3 5375   3.642   2.071  12.147 -0.1678 -0.6577 -0.1142
  359MPD2    C4 5376   3.761   2.012  12.163  0.3802 -0.0930  0.5743
  359MPD2    C5 5377   3.875   2.072  12.102 -0.1344  0.2467 -0.6519
  359MPD2     H 5378   3.538   2.208  12.019 -0.1725 -0.0425 -1.9684
  359MPD2    H1 5379   3.780   1.929  12.229  1.8886  0.2378  0.5505
  359MPD2    H2 5380   3.953   2.218  11.965 -1.7864  0.7575 -4.5907
  359MPD2    H3 5381   3.973   2.030  12.121 -0.0422  0.5972 -0.3624
  359MPD2     N 5382   3.530   2.020  12.213  0.2497 -0.2362 -0.4637
  359MPD2    H5 5383   3.560   1.952  12.282  1.4378 -0.2442 -0.9868
  359MPD2    N1 5384   3.725   2.314  11.879  0.2562 -0.1693  0.2666
  359MPD2    H7 5385   3.628   2.341  11.870 -0.3009 -2.2945 -0.1852
  360TMC3    C1 5386   3.758   2.468  11.703 -0.0170  0.1758  0.6751
  360TMC3    C2 5387   3.845   2.569  11.656 -0.2491 -0.3827 -0.3520
  360TMC3    C3 5388   3.806   2.623  11.537  1.3142  0.7432 -0.1189
  360TMC3    C4 5389   3.645   2.420  11.635 -0.3641  0.3363  0.4528
  360TMC3    C5 5390   3.622   2.471  11.515 -0.3874  0.4307 -0.2023
  360TMC3    C6 5391   3.704   2.569  11.465  0.2781 -1.6120  0.4722
  360TMC3     C 5392   3.818   2.385  11.808  0.3156  0.4453 -0.5225
  360TMC3     O 5393   3.938   2.395  11.818  0.0572 -0.6922  0.0329
  360TMC3     H 5394   3.922   2.607  11.722  0.2633 -2.8324  0.4615
  360TMC3    H1 5395   3.583   2.337  11.667 -0.1406  0.0012  0.0181
  360TMC3    H2 5396   3.686   2.608  11.366 -0.9185 -1.1814  0.8556
  360TMC3    C7 5397   3.526   2.407  11.437 -0.1876 -0.0517  0.1320
  360TMC3    C8 5398   3.920   2.661  11.450 -0.2925  0.7616  0.1420
  360TMC3    O1 5399   3.434   2.343  11.487 -0.2104 -0.1053 -0.2904
  360TMC3    O2 5400   3.884   2.704  11.341  0.3397  0.2314 -0.0627
  361MPD2     C 5401   0.064   0.291  17.001  0.4901  0.7005 -0.5754
  361MPD2    C1 5402   0.015   0.316  17.131 -0.1250 -0.0972  0.4563
  361MPD2    C2 5403   0.078   0.274  17.247  0.6797  0.4985  0.2681
  361MPD2    C3 5404   0.183   0.185  17.238 -0.1539 -0.5703 -0.5852
  361MPD2    C4 5405   0.221   0.149  17.111 -0.1658  0.5941  0.0209
  361MPD2    C5 5406   0.168   0.206  16.996  0.3758  0.1755 -1.0877
  361MPD2     H 5407   0.050   0.317  17.342 -1.5603  2.1705 -1.1504
  361MPD2    H1 5408   0.295   0.072  17.089 -1.5582 -0.2647 -1.5832
  361MPD2    H2 5409   0.024   0.334  16.910  0.1230 -1.3434 -1.3980
  361MPD2    H3 5410   0.195   0.160  16.902  0.8067 -0.9956 -0.3989
  361MPD2     N 5411   0.245   0.127  17.343 -0.4590 -0.3902 -0.4345
  361MPD2    H5 5412   0.315   0.056  17.324 -0.8499 -1.4946  2.2952
  361MPD2    N1 5413   4.631   0.407  17.120 -0.6211  0.0797 -0.0011
  361MPD2    H7 5414   4.599   0.444  17.031 -2.4922 -1.0512  0.1786
  362TMC3    C1 5415   4.422   0.505  17.202 -0.0597  0.3198  0.2967
  362TMC3    C2 5416   4.318   0.465  17.276 -0.7727  0.5047  0.3656
  362TMC3    C3 5417   4.194   0.523  17.255 -0.3813 -0.3618  0.7660
  362TMC3    C4 5418   4.394   0.581  17.090  0.3560 -0.0832 -0.1551
  362TMC3    C5 5419   4.273   0.643  17.070 -0.8457 -0.0438 -0.4984
  362TMC3    C6 5420   4.168   0.617  17.154  0.1150  0.0390 -0.9936
  362TMC3     C 5421   4.551   0.444  17.226  0.5402  0.7826 -0.5001
  362TMC3     O 5422   4.577   0.420  17.342 -0.0832 -0.6268 -0.3102
  362TMC3     H 5423   4.326   0.388  17.352  0.9240  0.3504  0.0280
  362TMC3    H1 5424   4.482   0.615  17.037  0.2355  1.2640  0.5035
  362TMC3    H2 5425   4.068   0.652  17.131 -0.6688 -1.7399 -0.3005
  362TMC3    C7 5426   4.248   0.722  16.949  0.5774  0.3737 -0.1579
  362TMC3    C8 5427   4.103   0.494  17.359  0.8428 -0.1667  0.7898
  362TMC3    O1 5428   4.137   0.776  16.940 -0.4405  0.2762  0.2646
  362TMC3    O2 5429   4.103   0.379  17.405  0.0752  0.0809 -0.3681
  363TMC3    C1 5430   2.809   2.102   9.498  0.1880  0.8634 -0.1349
  363TMC3    C2 5431   2.947   2.111   9.490  0.9023 -0.3553  0.0535
  363TMC3    C3 5432   2.992   2.239   9.463 -0.7743 -0.4544 -0.0934
  363TMC3    C4 5433   2.729   2.206   9.488 -0.3175  0.0172 -0.3988
  363TMC3    C5 5434   2.777   2.331   9.468  0.0572  0.6140  0.2396
  363TMC3    C6 5435   2.909   2.350   9.455 -0.3014  0.5675 -0.6927
  363TMC3     C 5436   2.743   1.972   9.512  0.6618  0.1657 -0.0687
  363TMC3     O 5437   2.625   1.968   9.492  0.1325  0.4942 -0.5257
  363TMC3     H 5438   3.008   2.022   9.483 -0.2336 -1.1100 -0.3092
  363TMC3    H1 5439   2.625   2.203   9.520 -0.3024 -2.2425 -0.5404
  363TMC3    H2 5440   2.952   2.445   9.428  1.2759  0.1646  0.3727
  363TMC3    C7 5441   2.694   2.441   9.511  0.4656 -0.3671  0.1370
  363TMC3    C8 5442   3.140   2.265   9.471 -1.0342 -0.0779 -0.3599
  363TMC3    O1 5443   2.573   2.413   9.521  0.2949  0.0972  0.3956
  363TMC3    O2 5444   3.193   2.372   9.432  0.2681  0.5138  1.0070
  364MPD2     C 5445   1.917   3.315  10.459 -0.4422  0.5665 -0.0451
  364MPD2    C1 5446   2.035   3.253  10.423 -0.4733 -0.4719 -0.3318
  364MPD2    C2 5447   2.035   3.115  10.440  0.1368 -0.3329 -0.7174
  364MPD2    C3 5448   1.931   3.049  10.492 -0.0935  0.3538 -0.6756
  364MPD2    C4 5449   1.814   3.116  10.538  0.1567 -0.2849 -0.4497
  364MPD2    C5 5450   1.812   3.252  10.513 -0.9368  0.0026  0.8603
  364MPD2     H 5451   2.121   3.067  10.395  0.4588 -0.1904 -0.2485
  364MPD2    H1 5452   1.728   3.063  10.575  2.1335 -3.2656 -0.0938
  364MPD2    H2 5453   1.906   3.422  10.448  1.5387  0.8431  0.5914
  364MPD2    H3 5454   1.721   3.301  10.545 -1.0698  0.7483 -0.6887
  364MPD2     N 5455   1.927   2.913  10.521  1.0154  0.0711  0.8513
  364MPD2    H5 5456   1.836   2.879  10.552 -0.1686  1.8781 -0.6180
  364MPD2    N1 5457   2.146   3.337  10.401  0.4431 -0.2886 -0.1607
  364MPD2    H7 5458   2.133   3.432  10.436 -0.4522  0.2396 -1.9353
  365TMC3    C1 5459   2.367   3.396  10.386 -0.1796 -0.0342 -0.5941
  365TMC3    C2 5460   2.463   3.397  10.286  0.2613  0.4326 -0.1469
  365TMC3    C3 5461   2.577   3.468  10.310 -0.0457  0.6413 -0.0041
  365TMC3    C4 5462   2.381   3.457  10.502 -1.8681 -0.7217 -0.3768
  365TMC3    C5 5463   2.491   3.536  10.521  0.3360 -0.2249 -0.7909
  365TMC3    C6 5464   2.591   3.545  10.423 -0.3799 -0.1122 -0.2998
  365TMC3     C 5465   2.269   3.294  10.375  0.2404  0.3844 -0.4355
  365TMC3     O 5466   2.305   3.186  10.328 -0.2456 -0.0672  0.3928
  365TMC3     H 5467   2.447   3.321  10.211 -0.2099  0.4463 -0.0608
  365TMC3    H1 5468   2.301   3.442  10.574 -2.4825 -0.9229 -1.1074
  365TMC3    H2 5469   2.684   3.598  10.441 -0.5501 -0.5797  1.8646
  365TMC3    C7 5470   2.536   3.579  10.651 -0.2568 -0.0836 -0.5997
  365TMC3    C8 5471   2.700   3.406  10.279  0.0688 -0.7075 -0.4362
  365TMC3    O1 5472   2.598   3.685  10.646  0.0577 -0.1346 -0.4333
  365TMC3    O2 5473   2.802   3.468  10.300  0.4784  0.0689  0.2819
  366MPD2     C 5474   0.389   3.408  15.211 -0.0054 -0.4229  1.1064
  366MPD2    C1 5475   0.431   3.512  15.287  0.2456 -0.4303  0.4388
  366MPD2    C2 5476   0.554   3.517  15.347  0.1693 -0.4355  0.7432
  366MPD2    C3 5477   0.634   3.403  15.344  0.1716 -0.3427 -0.1691
  366MPD2    C4 5478   0.588   3.292  15.270  0.0259  0.2703 -0.3055
  366MPD2    C5 5479   0.469   3.298  15.207  0.3992  0.4431  0.2656
  366MPD2     H 5480   0.592   3.605  15.399 -2.6404 -0.3021  2.5322
  366MPD2    H1 5481   0.636   3.196  15.257 -0.5316 -0.0495  0.0137
  366MPD2    H2 5482   0.297   3.404  15.152  0.2948  0.7612  0.5690
  366MPD2    H3 5483   0.435   3.215  15.145  1.4931  0.5001 -0.4176
  366MPD2     N 5484   0.747   3.397  15.419 -0.0648 -0.0062 -1.0654
  366MPD2    H5 5485   0.763   3.472  15.485 -0.9983  0.0143 -0.8629
  366MPD2    N1 5486   0.348   3.625  15.313 -0.1925 -0.0258 -0.4524
  366MPD2    H7 5487   0.393   3.704  15.358  0.2096  0.8636 -2.4105
  367TMC3    C1 5488   0.174   3.777  15.337 -0.8384  0.0205  0.5551
  367TMC3    C2 5489   0.244   3.824  15.441  0.6191  0.0175  0.4074
  367TMC3    C3 5490   0.212   3.949  15.491  0.1334  0.1482  0.2662
  367TMC3    C4 5491   0.073   3.855  15.271 -0.4117  0.4559  0.3539
  367TMC3    C5 5492   0.051   3.972  15.333 -0.0107 -0.4843  1.0621
  367TMC3    C6 5493   0.125   4.033  15.433  0.2225  0.3474 -0.6246
  367TMC3     C 5494   0.214   3.646  15.280  0.0648  0.3910  0.0112
  367TMC3     O 5495   0.142   3.589  15.200  0.1192  0.2159  0.8527
  367TMC3     H 5496   0.310   3.760  15.498 -0.3056 -1.3132 -0.0343
  367TMC3    H1 5497   0.007   3.818  15.194  2.1547 -0.1208 -1.5653
  367TMC3    H2 5498   0.097   4.129  15.475  4.2697  0.9700  0.6731
  367TMC3    C7 5499   4.687   4.064  15.268  0.7671  0.3941  0.5230
  367TMC3    C8 5500   0.312   3.997  15.586  0.0870  0.4333 -0.0457
  367TMC3    O1 5501   4.724   4.183  15.276  0.1406  0.4433 -0.7457
  367TMC3    O2 5502   0.414   3.928  15.591  1.0747 -0.3961  0.2152
  368MPD2     C 5503   2.094   1.093  13.493 -0.1470  0.0380  0.6322
  368MPD2    C1 5504   2.040   1.177  13.393 -0.3070  0.5092  0.8598
  368MPD2    C2 5505   2.125   1.245  13.309 -0.0827  0.6974 -0.5130
  368MPD2    C3 5506   2.264   1.213  13.311  0.0781  0.4477  0.3309
  368MPD2    C4 5507   2.301   1.108  13.390 -0.3917  0.6775  0.1467
  368MPD2    C5 5508   2.225   1.055  13.489 -0.3416 -0.6356 -0.0666
  368MPD2     H 5509   2.090   1.322  13.241 -2.0968 -2.7056 -3.3171
  368MPD2    H1 5510   2.408   1.090  13.392 -0.2965  1.5314  2.8490
  368MPD2    H2 5511   2.031   1.043  13.566 -1.8248  0.1058 -0.7730
  368MPD2    H3 5512   2.259   0.974  13.552  0.1948 -1.3885 -1.3252
  368MPD2     N 5513   2.365   1.271  13.227 -0.4318 -0.9605 -0.5602
  368MPD2    H5 5514   2.455   1.227  13.211  0.4174  0.5485  0.0213
  368MPD2    N1 5515   1.907   1.209  13.375 -0.1985  0.1221 -0.7714
  368MPD2    H7 5516   1.889   1.258  13.288  1.8913  0.0413 -1.2724
  369TMC3    C1 5517   1.671   1.203  13.376  0.2068  0.6534 -0.7322
  369TMC3    C2 5518   1.678   1.314  13.289 -0.8951 -0.4972 -0.1028
  369TMC3    C3 5519   1.559   1.381  13.262  0.0748 -0.1138  0.7164
  369TMC3    C4 5520   1.550   1.147  13.415 -0.1451  0.0646  0.2938
  369TMC3    C5 5521   1.439   1.205  13.371 -0.3196  0.3464  0.0024
  369TMC3    C6 5522   1.439   1.319  13.297 -0.6199 -0.0714  0.7176
  369TMC3     C 5523   1.798   1.156  13.436  0.2204 -0.8856 -0.3157
  369TMC3     O 5524   1.782   1.060  13.514  0.2215  0.3501 -0.3083
  369TMC3     H 5525   1.768   1.356  13.244 -1.1712 -1.1528 -1.2518
  369TMC3    H1 5526   1.553   1.065  13.486 -1.2853  0.6831  1.0647
  369TMC3    H2 5527   1.347   1.369  13.272 -0.8286 -0.4903  0.6487
  369TMC3    C7 5528   1.319   1.124  13.396  0.8067  0.1315 -0.1936
  369TMC3    C8 5529   1.556   1.470  13.143 -0.1477  0.2068 -0.5382
  369TMC3    O1 5530   1.344   1.009  13.434  0.0111 -0.4069  0.2455
  369TMC3    O2 5531   1.450   1.484  13.085 -0.2346 -0.7125 -0.2752
  370TMC3    C1 5532   0.990   1.279  16.592  0.5904  0.0271  0.1490
  370TMC3    C2 5533   0.908   1.223  16.690 -0.2796  0.7197  0.3204
  370TMC3    C3 5534   0.810   1.130  16.650 -0.1018  0.5071 -0.3160
  370TMC3    C4 5535   0.987   1.229  16.459 -0.0756  0.0091  0.4287
  370TMC3    C5 5536   0.898   1.132  16.430 -0.4329 -0.4907 -0.4004
  370TMC3    C6 5537   0.803   1.091  16.523  0.3802 -0.5622  0.1162
  370TMC3     C 5538   1.072   1.391  16.637 -0.5439 -0.2377 -0.1202
  370TMC3     O 5539   1.098   1.389  16.757  0.0585 -0.2633 -0.3904
  370TMC3     H 5540   0.920   1.256  16.793  1.3089  3.2413 -0.6897
  370TMC3    H1 5541   1.056   1.258  16.381 -2.4591 -0.8184 -1.9642
  370TMC3    H2 5542   0.743   1.003  16.501  0.6954 -0.2964 -1.8511
  370TMC3    C7 5543   0.955   1.034  16.331 -0.3110 -0.5212  0.3109
  370TMC3    C8 5544   0.713   1.078  16.746  0.1106  0.1349 -0.2873
  370TMC3    O1 5545   1.075   1.034  16.313  0.5051 -0.0794  0.4903
  370TMC3    O2 5546   0.646   0.984  16.713 -0.0973 -0.1892 -0.2782
  371TMC3    C1 5547   2.156   4.324  15.802 -0.3905 -0.0545 -0.3005
  371TMC3    C2 5548   2.056   4.289  15.891  0.0593 -0.1274  0.1175
  371TMC3    C3 5549   1.979   4.395  15.944  0.2562 -0.0221  0.4132
  371TMC3    C4 5550   2.186   4.448  15.766  0.2969 -0.6131  0.2367
  371TMC3    C5 5551   2.116   4.548  15.826  0.0420  0.4098  1.1133
  371TMC3    C6 5552   2.016   4.525  15.913 -0.2048 -0.2903  0.3660
  371TMC3     C 5553   2.220   4.215  15.725 -0.1293 -0.8107  0.0730
  371TMC3     O 5554   2.328   4.235  15.665  1.0114  0.2085  0.5880
  371TMC3     H 5555   2.041   4.192  15.937 -2.1857 -0.6168 -1.6977
  371TMC3    H1 5556   2.268   4.477  15.702  0.3255 -2.6525 -0.6342
  371TMC3    H2 5557   1.956   4.612  15.938 -0.3890 -0.7693  1.5753
  371TMC3    C7 5558   2.159   4.681  15.807  0.0923  0.3676  0.2443
  371TMC3    C8 5559   1.878   4.366  16.048  0.6527 -0.0642 -1.1168
  371TMC3    O1 5560   2.205   4.708  15.696  0.6122 -0.2325 -0.0848
  371TMC3    O2 5561   1.866   4.246  16.073 -0.8220  0.3108  0.1473
  372MPD2     C 5562   1.820   1.462  13.638  0.7657  0.5853  0.0342
  372MPD2    C1 5563   1.911   1.382  13.709 -0.1010 -0.3468 -0.3107
  372MPD2    C2 5564   1.856   1.289  13.792 -0.2025 -0.4744 -0.5379
  372MPD2    C3 5565   1.713   1.265  13.797  0.2285 -0.3894  0.1085
  372MPD2    C4 5566   1.628   1.346  13.732 -0.7692  0.0412  0.6565
  372MPD2    C5 5567   1.683   1.444  13.652  0.5686  0.6962 -0.7576
  372MPD2     H 5568   1.928   1.224  13.842  0.7311  0.7065 -0.3428
  372MPD2    H1 5569   1.519   1.339  13.729 -0.7992  0.7736  0.0527
  372MPD2    H2 5570   1.857   1.549  13.584  0.6767 -1.5258 -3.4127
  372MPD2    H3 5571   1.622   1.507  13.589 -0.9678 -0.6993 -0.6729
  372MPD2     N 5572   1.668   1.172  13.895 -0.5999 -0.2294 -0.5029
  372MPD2    H5 5573   1.748   1.121  13.932 -0.4289  0.2878 -0.1546
  372MPD2    N1 5574   2.054   1.389  13.702  0.4311 -0.5327 -0.0690
  372MPD2    H7 5575   2.113   1.329  13.760  2.1411  0.9386 -0.2856
  373TMC3    C1 5576   1.541   1.007  14.005  0.5505 -0.4273  0.0664
  373TMC3    C2 5577   1.482   1.002  14.128 -0.5510 -0.2397 -0.2963
  373TMC3    C3 5578   1.510   0.896  14.207 -0.2967 -0.7311  0.8324
  373TMC3    C4 5579   1.618   0.906  13.953  0.2441 -0.6634  0.5264
  373TMC3    C5 5580   1.643   0.800  14.033  0.8852 -0.0053 -0.1850
  373TMC3    C6 5581   1.584   0.791  14.158  0.0497  0.0813  0.4639
  373TMC3     C 5582   1.538   1.132  13.931  0.2567 -0.4861  0.9033
  373TMC3     O 5583   1.433   1.190  13.911 -0.0697  0.6019 -0.0313
  373TMC3     H 5584   1.437   1.088  14.177  1.4315  0.2117  0.7147
  373TMC3    H1 5585   1.664   0.924  13.857 -2.4215 -2.1519 -1.0023
  373TMC3    H2 5586   1.592   0.702  14.220  1.6996  0.9169  1.4347
  373TMC3    C7 5587   1.718   0.694  13.966  0.5193 -1.1190 -0.2885
  373TMC3    C8 5588   1.561   0.929  14.337 -0.0189  0.0351  0.5665
  373TMC3    O1 5589   1.688   0.672  13.851 -0.0468 -0.1377 -0.0707
  373TMC3    O2 5590   1.618   1.038  14.353 -0.3613 -0.6803 -0.0841
  374TMC3    C1 5591   2.881   0.447  10.341  0.2616  0.1313 -0.4174
  374TMC3    C2 5592   2.922   0.563  10.276  0.0116  0.2497 -0.6301
  374TMC3    C3 5593   2.823   0.650  10.250  0.2046 -0.3474  0.2358
  374TMC3    C4 5594   2.749   0.416  10.357 -0.4325  0.3241  0.1358
  374TMC3    C5 5595   2.655   0.504  10.317 -0.3074  0.5564  0.1087
  374TMC3    C6 5596   2.690   0.633  10.278  0.1372 -0.0982 -0.0353
  374TMC3     C 5597   2.975   0.373  10.420  0.0214  0.0995 -0.2313
  374TMC3     O 5598   3.078   0.438  10.439  0.1426  0.1504  0.4006
  374TMC3     H 5599   3.023   0.588  10.246 -0.3788  1.5272 -0.8902
  374TMC3    H1 5600   2.718   0.330  10.416  3.6034 -2.6634 -2.0640
  374TMC3    H2 5601   2.627   0.719  10.255 -0.4050 -0.9333 -1.7052
  374TMC3    C7 5602   2.518   0.495  10.379 -0.0817 -0.4130  0.0973
  374TMC3    C8 5603   2.861   0.774  10.195  0.2616  0.5913  0.1344
  374TMC3    O1 5604   2.455   0.393  10.362 -0.7142 -0.1552 -0.1593
  374TMC3    O2 5605   2.772   0.830  10.133 -0.3519  0.0933  0.0409
  375MPD2     C 5606   2.297   2.323  16.877  0.2757  0.3634  0.2303
  375MPD2    C1 5607   2.191   2.232  16.847 -0.0381 -0.9079 -0.3487
  375MPD2    C2 5608   2.224   2.129  16.747 -0.6039  0.2255 -0.1435
  375MPD2    C3 5609   2.354   2.117  16.704  0.1168 -1.1815  0.3614
  375MPD2    C4 5610   2.452   2.207  16.731  0.4040 -0.1922  0.0350
  375MPD2    C5 5611   2.426   2.308  16.818  0.2446 -0.2656  0.5143
  375MPD2     H 5612   2.148   2.058  16.715  0.4486 -0.2619 -1.5318
  375MPD2    H1 5613   2.554   2.192  16.695 -0.4603 -2.9370 -1.3199
  375MPD2    H2 5614   2.287   2.405  16.948  0.5887 -1.2239  2.1024
  375MPD2    H3 5615   2.498   2.387  16.839  1.0448 -0.6015 -0.9794
  375MPD2     N 5616   2.365   2.009  16.614 -0.3278 -0.0936  0.2224
  375MPD2    H5 5617   2.283   1.952  16.596 -0.9003  1.0178 -0.7734
  375MPD2    N1 5618   2.060   2.239  16.888 -0.3973  0.0534  0.2837
  375MPD2    H7 5619   2.002   2.162  16.854 -1.8012  1.0646  0.4294
  376TMC3    C1 5620   2.479   1.864  16.455  0.0101 -0.4276 -0.3273
  376TMC3    C2 5621   2.598   1.797  16.432 -0.0311  0.1529  0.3964
  376TMC3    C3 5622   2.601   1.703  16.341 -0.4706 -0.1331 -0.0372
  376TMC3    C4 5623   2.369   1.827  16.382 -0.3309 -1.2381 -0.5552
  376TMC3    C5 5624   2.380   1.730  16.293 -0.0875  0.2718 -0.5675
  376TMC3    C6 5625   2.505   1.668  16.261 -0.7732  0.0649  0.2481
  376TMC3     C 5626   2.478   1.966  16.563  0.5255  0.1587  0.1061
  376TMC3     O 5627   2.590   1.974  16.610  0.5124 -0.4090  0.4370
  376TMC3     H 5628   2.688   1.818  16.490 -0.6814 -0.3422  1.5734
  376TMC3    H1 5629   2.275   1.880  16.388  0.0594 -0.7720  1.4213
  376TMC3    H2 5630   2.526   1.604  16.176 -2.1215  0.5751 -0.4663
  376TMC3    C7 5631   2.276   1.706  16.192 -0.1217  0.4322 -0.3462
  376TMC3    C8 5632   2.727   1.636  16.319  0.0840 -0.5940  0.0306
  376TMC3    O1 5633   2.322   1.691  16.080 -0.2912  0.1945 -0.0095
  376TMC3    O2 5634   2.770   1.652  16.205  0.0178 -0.1278  0.3893
  377MPD2     C 5635   0.177   1.372  12.660 -0.3611  0.4192  0.0849
  377MPD2    C1 5636   0.277   1.327  12.742  0.2211 -0.0270  0.4158
  377MPD2    C2 5637   0.251   1.288  12.873  0.3643  0.0437 -0.4530
  377MPD2    C3 5638   0.116   1.295  12.916 -0.3365 -0.2628 -0.2621
  377MPD2    C4 5639   0.017   1.353  12.836  0.2774 -1.0271 -0.4769
  377MPD2    C5 5640   0.047   1.393  12.707 -0.3109 -0.2873  0.0527
  377MPD2     H 5641   0.334   1.259  12.936 -0.0614 -3.0406 -1.3430
  377MPD2    H1 5642   4.638   1.364  12.865  0.5628 -1.2715  0.6080
  377MPD2    H2 5643   0.206   1.389  12.557 -1.1961  2.0089  0.0996
  377MPD2    H3 5644   4.699   1.441  12.643 -3.0336 -1.8229  2.0181
  377MPD2     N 5645   0.069   1.255  13.040  0.4678  0.3660  0.6565
  377MPD2    H5 5646   4.702   1.290  13.061  0.0916  0.3396 -0.8936
  377MPD2    N1 5647   0.401   1.342  12.675  0.2583  0.1557 -0.0846
  377MPD2    H7 5648   0.409   1.380  12.582 -0.7366 -2.4073 -1.2170
  378TMC3    C1 5649   0.706   1.406  12.429  0.2166 -0.5514  0.4861
  378TMC3    C2 5650   0.614   1.355  12.514  0.4498 -0.0271 -0.8261
  378TMC3    C3 5651   0.635   1.345  12.647  0.8046  0.1932 -0.1131
  378TMC3    C4 5652   0.818   1.455  12.487  0.2934  0.0110  0.0599
  378TMC3    C5 5653   0.838   1.450  12.623  0.1258 -1.1190 -0.4180
  378TMC3    C6 5654   0.742   1.404  12.703 -0.1470  0.5710 -0.3238
  378TMC3     C 5655   0.656   1.441  12.297  0.5699  0.5098  0.1661
  378TMC3     O 5656   0.536   1.426  12.280 -0.4070 -0.1634 -0.0930
  378TMC3     H 5657   0.535   1.298  12.465 -0.2753  1.3514 -1.2692
  378TMC3    H1 5658   0.886   1.512  12.424 -1.0565 -1.0872 -2.3985
  378TMC3    H2 5659   0.767   1.380  12.806  0.1337 -1.5689 -0.8897
  378TMC3    C7 5660   0.974   1.434  12.676  0.2870  0.3048 -0.6724
  378TMC3    C8 5661   0.522   1.313  12.736 -0.1421 -0.2472  0.4224
  378TMC3    O1 5662   0.996   1.444  12.794 -0.4524 -0.0581 -0.4512
  378TMC3    O2 5663   0.550   1.281  12.848 -0.6719  0.2147  0.5976
  379MPD2     C 5664   1.200   3.582  16.435 -0.0328 -0.1863 -0.3104
  379MPD2    C1 5665   1.176   3.719  16.447  0.3444 -0.2192 -0.2613
  379MPD2    C2 5666   1.238   3.783  16.553 -0.1466 -0.1721  1.0026
  379MPD2    C3 5667   1.333   3.718  16.627  0.3555  0.2410  0.0450
  379MPD2    C4 5668   1.348   3.583  16.613  0.3460 -0.5500  0.3755
  379MPD2    C5 5669   1.281   3.514  16.520 -0.3819  0.9451 -0.6363
  379MPD2     H 5670   1.214   3.888  16.570 -3.0879 -0.5121 -0.9217
  379MPD2    H1 5671   1.406   3.523  16.683 -0.3677 -3.1911 -1.2936
  379MPD2    H2 5672   1.147   3.521  16.363 -2.1816  0.9592  0.3000
  379MPD2    H3 5673   1.283   3.406  16.520 -2.7433  0.9042 -1.1727
  379MPD2     N 5674   1.395   3.772  16.739 -0.3608 -0.1349  0.2961
  379MPD2    H5 5675   1.465   3.711  16.780 -0.4534 -0.6644 -0.3309
  379MPD2    N1 5676   1.091   3.777  16.353 -0.6321  0.1390  0.0845
  379MPD2    H7 5677   1.070   3.726  16.269 -1.0737 -0.9076  0.8358
  380TMC3    C1 5678   0.977   3.922  16.212  0.1372 -0.2584  0.2271
  380TMC3    C2 5679   1.041   3.873  16.106  0.2772 -0.0388  0.1185
  380TMC3    C3 5680   1.000   3.910  15.981 -0.0169 -0.3883 -0.2858
  380TMC3    C4 5681   0.881   4.020  16.198 -0.1693  0.6444  0.1758
  380TMC3    C5 5682   0.848   4.059  16.071 -0.1489 -0.6566  0.0138
  380TMC3    C6 5683   0.895   3.998  15.958  0.1700 -0.3385  0.4007
  380TMC3     C 5684   1.033   3.900  16.349  0.2467 -0.4970  0.4235
  380TMC3     O 5685   0.994   3.963  16.450 -0.5200 -0.1362  0.4675
  380TMC3     H 5686   1.119   3.799  16.120  1.7876  1.7091  0.8868
  380TMC3    H1 5687   0.836   4.068  16.284  0.4786 -1.4430  1.6803
  380TMC3    H2 5688   0.881   4.033  15.857 -0.5870 -1.0949  0.2448
  380TMC3    C7 5689   0.727   4.140  16.063 -0.9055 -0.7620 -0.7129
  380TMC3    C8 5690   1.094   3.903  15.875 -0.6716 -0.6565 -0.4768
  380TMC3    O1 5691   0.712   4.232  16.142  0.0058  0.0950 -1.0084
  380TMC3    O2 5692   1.099   3.998  15.800 -0.0805 -0.5867 -0.7883
  381TMC3    C1 5693   0.492   0.648  16.431 -0.5635  0.2282 -0.8351
  381TMC3    C2 5694   0.624   0.661  16.452  0.0390  1.1584  0.0786
  381TMC3    C3 5695   0.663   0.687  16.573 -0.2543  0.3134 -0.0779
  381TMC3    C4 5696   0.401   0.667  16.531 -0.1541  1.3615  0.0392
  381TMC3    C5 5697   0.448   0.706  16.652 -0.9223 -0.6855  0.1801
  381TMC3    C6 5698   0.583   0.716  16.678  1.1337 -0.0110  0.2613
  381TMC3     C 5699   0.436   0.568  16.320  0.5651  0.1858 -0.2239
  381TMC3     O 5700   0.316   0.579  16.311  0.1012  0.6282 -0.0302
  381TMC3     H 5701   0.688   0.648  16.366  0.8328  5.0157  0.0747
  381TMC3    H1 5702   0.294   0.649  16.529 -0.1316  0.9844  1.8923
  381TMC3    H2 5703   0.609   0.742  16.780  0.4674  0.2001  0.3737
  381TMC3    C7 5704   0.373   0.656  16.758  0.2519  0.0577  0.2594
  381TMC3    C8 5705   0.807   0.703  16.589 -0.3479 -0.4777 -0.4868
  381TMC3    O1 5706   0.352   0.534  16.755  0.4931  0.0775  0.5431
  381TMC3    O2 5707   0.871   0.660  16.494  0.2462  0.7210  0.4335
  382MPD2     C 5708   0.421   2.486  17.656 -0.0217  0.2718 -0.1482
  382MPD2    C1 5709   0.337   2.593  17.637  0.2029 -0.3104  0.0930
  382MPD2    C2 5710   0.210   2.574  17.602 -0.5061  0.0022  0.4255
  382MPD2    C3 5711   0.163   2.443  17.582 -0.0135 -0.2105  0.7974
  382MPD2    C4 5712   0.252   2.338  17.590 -0.0588 -0.7730 -0.4779
  382MPD2    C5 5713   0.380   2.356  17.633  0.2943 -0.2201  0.3164
  382MPD2     H 5714   0.148   2.659  17.576  2.6008  1.7527 -1.2921
  382MPD2    H1 5715   0.218   2.238  17.567 -0.5863 -0.7774  0.3406
  382MPD2    H2 5716   0.521   2.503  17.693 -0.0120 -2.3334  1.0162
  382MPD2    H3 5717   0.446   2.270  17.644 -0.1514 -0.5193  0.6524
  382MPD2     N 5718   0.030   2.420  17.568 -0.4394 -0.0481 -0.0561
  382MPD2    H5 5719   0.000   2.328  17.538 -1.1102  1.3041 -3.5118
  382MPD2    N1 5720   0.375   2.728  17.640  0.1178  0.0404  0.0973
  382MPD2    H7 5721   0.310   2.795  17.601 -1.9765 -1.0398  1.7371
  383TMC3    C1 5722   4.523   2.464  17.600 -0.1530  0.5177 -0.5068
  383TMC3    C2 5723   4.489   2.362  17.515 -0.5759  0.7414  0.4474
  383TMC3    C3 5724   4.361   2.325  17.520 -0.2459  0.5413 -0.0566
  383TMC3    C4 5725   4.430   2.535  17.675  0.0173  0.3781 -0.5917
  383TMC3    C5 5726   4.302   2.487  17.676  0.3613  0.9353  0.1170
  383TMC3    C6 5727   4.266   2.383  17.602 -0.1723 -0.5652  0.0048
  383TMC3     C 5728   4.659   2.507  17.621 -0.4083  0.1671 -0.5809
  383TMC3     O 5729   4.680   2.618  17.673 -0.1415 -0.4996  0.4277
  383TMC3     H 5730   4.557   2.340  17.433 -0.2181 -0.4553  1.0770
  383TMC3    H1 5731   4.455   2.604   0.053 -1.7278 -0.8706  1.0596
  383TMC3    H2 5732   4.167   2.338  17.601 -1.0563  1.3730  0.0267
  383TMC3    C7 5733   4.195   2.569   0.026  0.2504 -0.1235  0.8994
  383TMC3    C8 5734   4.317   2.247  17.408 -0.3416  0.0556 -0.2901
  383TMC3    O1 5735   4.092   2.511   0.043  0.5205 -0.1346  0.3862
  383TMC3    O2 5736   4.204   2.251  17.362 -0.4894  0.3751  0.2419
  384MPD2     C 5737   2.042   4.400  12.046  0.1233  0.0887 -0.0766
  384MPD2    C1 5738   1.986   4.295  12.115 -0.5946  0.5239 -1.0540
  384MPD2    C2 5739   2.061   4.180  12.116 -0.7895 -0.7125 -0.1553
  384MPD2    C3 5740   2.185   4.170  12.045 -0.2059 -0.1230 -0.1548
  384MPD2    C4 5741   2.235   4.278  11.975  0.3110  0.1961 -0.4837
  384MPD2    C5 5742   2.162   4.393  11.981 -0.6318  0.0237  0.2272
  384MPD2     H 5743   2.028   4.095  12.175 -0.6103 -0.8820 -0.3034
  384MPD2    H1 5744   2.329   4.274  11.922 -0.1108  0.6342 -1.2740
  384MPD2    H2 5745   1.988   4.494  12.040  1.4026  0.8634  0.3600
  384MPD2    H3 5746   2.197   4.478  11.922 -0.0664  0.6921  1.5321
  384MPD2     N 5747   2.272   4.056  12.047  0.3173  0.2708 -0.0069
  384MPD2    H5 5748   2.364   4.064  12.005 -0.9085  0.1605 -2.7388
  384MPD2    N1 5749   1.862   4.299  12.196  0.6090 -0.3199 -0.0050
  384MPD2    H7 5750   1.828   4.218  12.248  0.6032 -1.3830 -1.6791
  385TMC3    C1 5751   2.339   3.839  12.111  0.7962 -0.1519  0.1149
  385TMC3    C2 5752   2.299   3.707  12.114 -0.4398  0.6249 -0.6125
  385TMC3    C3 5753   2.335   3.628  12.220 -0.0452 -0.0148  0.1100
  385TMC3    C4 5754   2.430   3.890  12.207 -0.1337 -0.0450 -0.2694
  385TMC3    C5 5755   2.443   3.810  12.323 -0.6781  0.1832 -0.0261
  385TMC3    C6 5756   2.403   3.674  12.329  0.7687  1.1213 -0.6355
  385TMC3     C 5757   2.224   3.933  12.089 -0.0427 -0.7270  0.2003
  385TMC3     O 5758   2.110   3.892  12.104  0.4159  0.6851 -0.5574
  385TMC3     H 5759   2.223   3.666  12.049  0.6655  1.3196 -2.3304
  385TMC3    H1 5760   2.460   3.994  12.210 -0.9675  0.2226 -1.2870
  385TMC3    H2 5761   2.441   3.605  12.403  3.4363  1.4772 -1.7060
  385TMC3    C7 5762   2.377   3.873  12.433 -0.6614  0.1526 -0.9402
  385TMC3    C8 5763   2.312   3.483  12.212 -0.1022  0.2052 -0.2087
  385TMC3    O1 5764   2.344   3.990  12.407 -0.1523 -0.5176  0.3397
  385TMC3    O2 5765   2.347   3.416  12.312  0.3786  0.1481  0.0593
  386TMC3    C1 5766   2.463   1.834  11.970  0.2446  0.0358 -0.2709
  386TMC3    C2 5767   2.503   1.831  11.835 -0.4068 -0.0140 -0.1385
  386TMC3    C3 5768   2.413   1.811  11.739  0.4861  0.4730 -0.2012
  386TMC3    C4 5769   2.333   1.818  12.002 -0.6008  0.7598 -0.2192
  386TMC3    C5 5770   2.247   1.818  11.896 -0.3856  0.2951  0.8872
  386TMC3    C6 5771   2.278   1.816  11.766 -0.3662 -0.3300  0.5388
  386TMC3     C 5772   2.570   1.782  12.062  0.0851  0.3166  0.2878
  386TMC3     O 5773   2.686   1.824  12.043 -1.1801 -0.0559 -0.5988
  386TMC3     H 5774   2.608   1.845  11.812 -1.1355  5.0471 -0.3644
  386TMC3    H1 5775   2.311   1.815  12.108  0.4544 -2.3583 -0.0673
  386TMC3    H2 5776   2.215   1.811  11.678  0.3298  0.3715 -0.0103
  386TMC3    C7 5777   2.109   1.811  11.934 -0.0845  0.5487 -0.0187
  386TMC3    C8 5778   2.450   1.750  11.612 -0.0851  0.2653 -0.1855
  386TMC3    O1 5779   2.082   1.840  12.050  0.4742  0.0827 -1.1843
  386TMC3    O2 5780   2.376   1.765  11.514  0.1560  0.2197  0.3597
  387MPD2     C 5781   4.539   1.159   9.910 -0.3237  0.2796  0.1980
  387MPD2    C1 5782   4.669   1.119   9.926  0.6263 -0.4182 -0.6669
  387MPD2    C2 5783   0.002   1.030   9.837  0.1140  0.2304  0.2027
  387MPD2    C3 5784   4.646   0.959   9.748 -0.1274  0.2658 -0.1142
  387MPD2    C4 5785   4.515   0.990   9.736 -0.1779 -0.3162  0.0988
  387MPD2    C5 5786   4.461   1.098   9.809  0.3942 -0.1291 -0.4916
  387MPD2     H 5787   0.106   1.005   9.849  0.6810  2.1072 -0.8653
  387MPD2    H1 5788   4.450   0.928   9.675  1.1057 -0.7388 -0.8412
  387MPD2    H2 5789   4.495   1.237   9.971  1.6003  0.4213  1.3684
  387MPD2    H3 5790   4.357   1.122   9.788 -0.8513 -3.6977  1.5166
  387MPD2     N 5791   4.705   0.854   9.676 -0.4086  0.2824  0.4494
  387MPD2    H5 5792   0.076   0.842   9.706  0.4537  1.7452 -1.7202
  387MPD2    N1 5793   0.034   1.173  10.021 -0.5445  0.4583 -0.3836
  387MPD2    H7 5794   0.129   1.136  10.022 -0.7453 -0.0498 -0.1177
  388TMC3    C1 5795   0.139   1.309  10.162 -0.5244  0.2182 -0.3608
  388TMC3    C2 5796   0.153   1.357  10.291 -0.2143  0.2322 -0.4049
  388TMC3    C3 5797   0.278   1.368  10.344 -0.2338  0.4798  0.0584
  388TMC3    C4 5798   0.248   1.273  10.087 -0.2841  0.6181 -0.6410
  388TMC3    C5 5799   0.371   1.289  10.144  0.1625  0.5621  0.0569
  388TMC3    C6 5800   0.387   1.330  10.274 -0.0940  0.3365  0.1645
  388TMC3     C 5801   0.011   1.279  10.103  0.0579 -0.0698  0.2733
  388TMC3     O 5802   4.633   1.328  10.147 -0.4829 -0.7125 -0.5312
  388TMC3     H 5803   0.064   1.384  10.348 -0.7755 -1.1606 -0.6271
  388TMC3    H1 5804   0.241   1.259   9.980 -0.8546  2.5358 -0.8371
  388TMC3    H2 5805   0.490   1.334  10.308  0.3356 -2.0186 -0.8844
  388TMC3    C7 5806   0.483   1.234  10.077  0.4547 -0.1689  0.5074
  388TMC3    C8 5807   0.304   1.410  10.481 -0.4052  0.5791 -0.0178
  388TMC3    O1 5808   0.592   1.279  10.091  0.3897  0.1817 -0.6524
  388TMC3    O2 5809   0.417   1.398  10.519 -0.3273  0.1171 -0.0561
  389MPD2     C 5810   4.405   4.551  11.675 -0.2176  0.3374  0.0330
  389MPD2    C1 5811   4.343   4.455  11.603  0.5865 -0.6126  0.1872
  389MPD2    C2 5812   4.255   4.371  11.662  0.5747 -0.4800  0.3965
  389MPD2    C3 5813   4.220   4.394  11.794 -0.3776 -0.8885  0.1539
  389MPD2    C4 5814   4.279   4.498  11.866  0.0923 -0.1350 -0.5949
  389MPD2    C5 5815   4.375   4.581  11.806 -0.1679  0.8751  0.1235
  389MPD2     H 5816   4.210   4.292  11.604 -1.6484  0.7789  0.4083
  389MPD2    H1 5817   4.255   4.509  11.971 -0.0997 -0.3752 -0.6151
  389MPD2    H2 5818   4.478   4.615  11.628 -0.9522  0.5887 -0.7727
  389MPD2    H3 5819   4.432   4.654  11.864  1.5851  0.7327 -1.4224
  389MPD2     N 5820   4.129   4.312  11.864  0.2292  0.2658  0.0715
  389MPD2    H5 5821   4.099   4.363  11.947 -1.5548 -2.7767  1.3126
  389MPD2    N1 5822   4.360   4.455  11.466 -0.0328  0.0737  0.0998
  389MPD2    H7 5823   4.424   4.528  11.434 -0.2554  0.6304  0.9302
  390TMC3    C1 5824   3.954   4.154  11.920 -1.4215 -0.5188  0.0502
  390TMC3    C2 5825   3.888   4.035  11.901  0.6120  0.6700  0.2859
  390TMC3    C3 5826   3.779   4.004  11.972  0.6705  0.1730  0.0762
  390TMC3    C4 5827   3.904   4.246  12.013  0.2919 -0.6647  0.1830
  390TMC3    C5 5828   3.783   4.218  12.069  0.3163  1.4317 -1.3872
  390TMC3    C6 5829   3.721   4.101  12.060 -0.0070  0.0741 -0.7757
  390TMC3     C 5830   4.072   4.185  11.838 -0.5751 -0.2753  0.1358
  390TMC3     O 5831   4.108   4.102  11.757  0.2006  0.0917 -0.3357
  390TMC3     H 5832   3.928   3.970  11.824  0.3334 -0.2124  0.8847
  390TMC3    H1 5833   3.952   4.342  12.026 -0.8989  0.1766 -1.6553
  390TMC3    H2 5834   3.629   4.081  12.113 -0.7963 -0.3035 -2.2706
  390TMC3    C7 5835   3.702   4.339  12.102 -1.1166  0.0049  0.6019
  390TMC3    C8 5836   3.698   3.885  11.947 -0.3382 -0.4265 -0.2611
  390TMC3    O1 5837   3.753   4.450  12.093 -0.4804  0.3272  0.1481
  390TMC3    O2 5838   3.713   3.833  11.839  0.3664  0.5845 -0.0736
  391MPD2     C 5839   3.435   1.108  11.582  0.1158 -1.1308  0.1033
  391MPD2    C1 5840   3.490   1.220  11.532 -0.6880  0.1468 -0.1887
  391MPD2    C2 5841   3.473   1.235  11.398  0.5046  0.1750 -0.2385
  391MPD2    C3 5842   3.409   1.148  11.314  0.6614  0.4559 -0.2831
  391MPD2    C4 5843   3.337   1.042  11.368 -0.4488  0.8026 -0.3937
  391MPD2    C5 5844   3.351   1.030  11.507 -0.1388 -0.1552  0.6459
  391MPD2     H 5845   3.515   1.322  11.349  2.4610 -0.1460  0.8683
  391MPD2    H1 5846   3.264   0.978  11.320  0.5421 -0.2566 -0.4944
  391MPD2    H2 5847   3.443   1.083  11.688  2.6182 -0.0800  0.1586
  391MPD2    H3 5848   3.294   0.951  11.555 -1.8272  0.1290 -0.8944
  391MPD2     N 5849   3.412   1.169  11.177  0.3469 -0.3753  1.0801
  391MPD2    H5 5850   3.447   1.260  11.148  0.3008 -0.2140  1.5298
  391MPD2    N1 5851   3.549   1.312  11.624 -0.1866 -0.2166  0.3313
  391MPD2    H7 5852   3.555   1.274  11.718  3.1278 -0.2886  0.0784
  392TMC3    C1 5853   3.387   1.134  10.952 -0.4936  0.2316  0.0057
  392TMC3    C2 5854   3.287   1.117  10.857 -0.3935  0.6995  0.8100
  392TMC3    C3 5855   3.317   1.140  10.729 -0.7191  0.2046  0.3694
  392TMC3    C4 5856   3.512   1.180  10.919 -0.4428 -0.0697 -0.1557
  392TMC3    C5 5857   3.540   1.201  10.786  0.0590  0.0053  0.7363
  392TMC3    C6 5858   3.446   1.172  10.692 -0.2581 -0.2064 -0.1817
  392TMC3     C 5859   3.361   1.086  11.082 -0.3752  0.3762 -0.6262
  392TMC3     O 5860   3.302   0.976  11.092 -0.4117 -0.4001  0.0023
  392TMC3     H 5861   3.199   1.059  10.883 -0.1993 -0.2120 -0.5689
  392TMC3    H1 5862   3.598   1.181  10.984 -0.5693 -2.3646  0.0508
  392TMC3    H2 5863   3.469   1.170  10.586 -0.5738  0.0354 -0.2549
  392TMC3    C7 5864   3.615   1.320  10.767  0.8652  0.1572 -0.2697
  392TMC3    C8 5865   3.229   1.087  10.631  0.1755 -0.1551 -0.3325
  392TMC3    O1 5866   3.624   1.394  10.861 -0.6561 -0.2136 -0.0892
  392TMC3    O2 5867   3.149   1.003  10.671 -0.5218 -0.1050 -0.4041
  393TMC3    C1 5868   2.320   3.900  10.569  0.2482  0.3601  0.0585
  393TMC3    C2 5869   2.183   3.871  10.599  0.4393  0.2084  0.2073
  393TMC3    C3 5870   2.143   3.864  10.729 -0.1040  0.2911  0.7411
  393TMC3    C4 5871   2.408   3.938  10.665  0.3376 -1.0423  0.8490
  393TMC3    C5 5872   2.366   3.928  10.798  0.0034  0.3849 -0.5948
  393TMC3    C6 5873   2.236   3.891  10.828  0.4768 -0.4225  0.4737
  393TMC3     C 5874   2.373   3.872  10.436 -0.2122  0.0843 -0.0660
  393TMC3     O 5875   2.472   3.927  10.391 -0.5674 -0.2793  0.1128
  393TMC3     H 5876   2.118   3.847  10.516 -0.1078  0.2088  0.6428
  393TMC3    H1 5877   2.510   3.957  10.633 -0.5678  3.2155  0.5276
  393TMC3    H2 5878   2.217   3.875  10.933  1.8555  1.0569  0.9550
  393TMC3    C7 5879   2.447   3.957  10.913  0.2803 -0.8640  0.0391
  393TMC3    C8 5880   2.010   3.838  10.782  0.0485  0.1193 -0.2904
  393TMC3    O1 5881   2.403   3.973  11.021  0.1516  1.0928 -0.1788
  393TMC3    O2 5882   2.000   3.811  10.901  0.3518  0.8351 -0.3561
  394TMC3    C1 5883   4.327   4.434  11.230 -0.4015  0.3734  0.3291
  394TMC3    C2 5884   4.230   4.408  11.138 -0.2154  0.1817 -0.9490
  394TMC3    C3 5885   4.264   4.421  11.005  0.3358  0.0936 -0.3569
  394TMC3    C4 5886   4.461   4.457  11.201  0.5843  1.0666  0.1577
  394TMC3    C5 5887   4.494   4.450  11.067 -0.4185  0.3485 -0.4584
  394TMC3    C6 5888   4.398   4.441  10.966  0.2638 -0.3871  0.4292
  394TMC3     C 5889   4.288   4.387  11.365  0.0809 -0.6931  0.3840
  394TMC3     O 5890   4.218   4.282  11.367 -0.1257  0.0152 -0.5732
  394TMC3     H 5891   4.130   4.387  11.175 -0.6706  2.5187 -0.8706
  394TMC3    H1 5892   4.538   4.467  11.277  0.2791  1.7428  0.3800
  394TMC3    H2 5893   4.426   4.455  10.863  2.3244  0.3107  1.0805
  394TMC3    C7 5894   4.636   4.451  11.022  0.5617 -0.0011  0.1735
  394TMC3    C8 5895   4.178   4.360  10.906 -0.0525 -0.5412  0.2866
  394TMC3    O1 5896   4.654   4.465  10.902 -0.2329  0.1179 -0.0867
  394TMC3    O2 5897   4.238   4.308  10.811  0.6230  0.2971 -0.0825
  395TMC3    C1 5898   3.630   1.620  14.369 -0.1517 -0.1148  0.2861
  395TMC3    C2 5899   3.511   1.668  14.326  0.5077 -0.3662 -0.3582
  395TMC3    C3 5900   3.467   1.787  14.374 -0.0630 -0.0214  0.0279
  395TMC3    C4 5901   3.716   1.697  14.436  0.0060  0.3832  0.5789
  395TMC3    C5 5902   3.681   1.822  14.479 -0.2229 -0.2844 -0.0205
  395TMC3    C6 5903   3.559   1.869  14.446  0.0716  0.6315  0.2282
  395TMC3     C 5904   3.631   1.485  14.430 -0.0093  0.0753  0.3422
  395TMC3     O 5905   3.686   1.486  14.541  0.4412  0.0100  0.2108
  395TMC3     H 5906   3.454   1.599  14.266  0.8126 -1.5425  0.7189
  395TMC3    H1 5907   3.805   1.656  14.481 -0.8312 -0.8107  1.1597
  395TMC3    H2 5908   3.525   1.968  14.476 -1.1167  0.5222 -0.7628
  395TMC3    C7 5909   3.778   1.918  14.514 -0.5036 -0.1240  0.2342
  395TMC3    C8 5910   3.334   1.784  14.423 -0.0646 -0.8658 -0.0299
  395TMC3    O1 5911   3.749   2.036  14.531 -0.1626 -0.3013 -0.1096
  395TMC3    O2 5912   3.298   1.879  14.491  0.2265  0.3582 -0.4196
  396MPD2     C 5913   2.832   2.804  17.282  0.3694 -0.2082  0.3066
  396MPD2    C1 5914   2.960   2.763  17.315  0.0136  0.1124  0.9688
  396MPD2    C2 5915   3.073   2.821  17.264 -0.6289  0.5505  0.1181
  396MPD2    C3 5916   3.057   2.915  17.167  0.1719  0.9376 -0.3761
  396MPD2    C4 5917   2.934   2.964  17.137  0.2661 -0.2661 -0.4959
  396MPD2    C5 5918   2.817   2.907  17.191 -0.0729  0.2900  0.1895
  396MPD2     H 5919   3.172   2.798  17.300 -0.1826 -1.2110 -2.2506
  396MPD2    H1 5920   2.915   3.057  17.085 -2.7747  0.2242  1.4582
  396MPD2    H2 5921   2.740   2.764  17.321 -0.3532 -0.2186 -1.4234
  396MPD2    H3 5922   2.718   2.944  17.169  1.0964  2.6501 -1.0643
  396MPD2     N 5923   3.179   2.973  17.128 -0.0001  0.0602  0.3532
  396MPD2    H5 5924   3.262   2.926  17.163 -0.8134 -1.9735 -0.4659
  396MPD2    N1 5925   2.958   2.663  17.418 -0.1786 -0.2771 -0.3040
  396MPD2    H7 5926   2.869   2.633  17.457 -1.4514  3.1736 -0.5734
  397TMC3    C1 5927   3.066   2.501  17.574 -0.5100  0.3529 -0.6641
  397TMC3    C2 5928   3.201   2.460  17.582 -0.1589  0.1823  0.2277
  397TMC3    C3 5929   3.251   2.329  17.607 -0.1124 -0.5793  0.6281
  397TMC3    C4 5930   2.979   2.397  17.561  0.5395 -0.0396 -0.0973
  397TMC3    C5 5931   3.031   2.275  17.581  0.0925  0.9508  0.7970
  397TMC3    C6 5932   3.160   2.236  17.617 -0.0195  0.3750  0.6926
  397TMC3     C 5933   3.070   2.599  17.463  0.1323 -0.0973 -1.0561
  397TMC3     O 5934   3.181   2.601  17.415  0.6370 -1.0547 -0.6325
  397TMC3     H 5935   3.273   2.531  17.621 -0.7314  0.5321  0.6384
  397TMC3    H1 5936   2.877   2.402  17.524  0.1371 -0.1471  1.0046
  397TMC3    H2 5937   3.183   2.131  17.605  0.6317  0.6814 -0.8079
  397TMC3    C7 5938   2.935   2.168  17.607 -0.5701  0.5769  0.4771
  397TMC3    C8 5939   3.353   2.279  17.514  0.4990 -0.1237 -0.0670
  397TMC3    O1 5940   2.877   2.130  17.505  0.1495  0.0097  0.4710
  397TMC3    O2 5941   3.418   2.179  17.551  0.5132 -0.3133 -0.2147
  398MPD2     C 5942   1.537   3.132   0.553 -0.8968 -0.7396 -0.3841
  398MPD2    C1 5943   1.645   3.084   0.619 -0.3442 -0.2876  0.4887
  398MPD2    C2 5944   1.750   3.172   0.652  0.6712 -0.3997 -0.5551
  398MPD2    C3 5945   1.726   3.308   0.642  0.4114  0.0630 -0.5549
  398MPD2    C4 5946   1.615   3.360   0.567  0.2293 -0.5344  0.7620
  398MPD2    C5 5947   1.527   3.266   0.521 -0.7365 -0.8727  0.4803
  398MPD2     H 5948   1.836   3.137   0.708  0.4870 -0.5768 -0.3849
  398MPD2    H1 5949   1.597   3.464   0.540  0.9137 -0.5902  0.0992
  398MPD2    H2 5950   1.455   3.068   0.522  0.1167 -2.2528  0.0321
  398MPD2    H3 5951   1.438   3.299   0.468  0.2620  1.8407  0.5379
  398MPD2     N 5952   1.828   3.385   0.697  0.8357  0.3021  0.3855
  398MPD2    H5 5953   1.898   3.325   0.741  0.8845  0.5831  0.6881
  398MPD2    N1 5954   1.677   2.944   0.634 -0.0872  0.3250  0.0219
  398MPD2    H7 5955   1.772   2.920   0.656  1.2991 -0.3462 -6.5716
  399TMC3    C1 5956   1.639   2.713   0.665 -0.1790  0.0956 -0.0421
  399TMC3    C2 5957   1.763   2.675   0.634  0.0255 -1.0481 -1.0312
  399TMC3    C3 5958   1.804   2.546   0.656  0.6329 -0.4420 -0.0536
  399TMC3    C4 5959   1.553   2.623   0.722 -0.4204 -0.1305 -0.5768
  399TMC3    C5 5960   1.594   2.492   0.750 -0.6857 -0.3830 -0.2543
  399TMC3    C6 5961   1.722   2.447   0.713 -0.7237 -0.3116 -0.3108
  399TMC3     C 5962   1.582   2.841   0.624  0.0100  0.0124 -0.6133
  399TMC3     O 5963   1.461   2.852   0.612 -0.6652 -0.6375  0.2807
  399TMC3     H 5964   1.823   2.746   0.579 -0.0181 -0.4403 -0.2860
  399TMC3    H1 5965   1.453   2.653   0.753 -0.3214  0.2661 -0.6393
  399TMC3    H2 5966   1.755   2.344   0.718  2.2816  0.6251 -0.8917
  399TMC3    C7 5967   1.501   2.407   0.821 -0.2485 -0.2141 -0.2588
  399TMC3    C8 5968   1.919   2.506   0.575 -0.0982  0.8236  0.9311
  399TMC3    O1 5969   1.380   2.434   0.827 -0.1203  0.7985 -0.0563
  399TMC3    O2 5970   1.936   2.578   0.478  0.3514 -0.1669 -0.5134
  400TMC3    C1 5971   4.622   1.866  16.957 -0.6995 -0.0717 -0.2077
  400TMC3    C2 5972   4.512   1.872  16.875 -0.2818  0.6970 -0.7868
  400TMC3    C3 5973   4.468   2.001  16.849  0.1193 -0.5909 -0.4721
  400TMC3    C4 5974   4.665   1.975  17.033 -0.0738 -0.2352 -0.1327
  400TMC3    C5 5975   4.613   2.093  17.007  0.0197 -0.2097 -0.5307
  400TMC3    C6 5976   4.522   2.111  16.909  0.1665 -0.7206  0.3464
  400TMC3     C 5977   4.666   1.730  17.000 -0.9374  0.6047 -0.5295
  400TMC3     O 5978   4.588   1.637  16.978  0.5275 -0.3765 -0.1899
  400TMC3     H 5979   4.477   1.788  16.816  2.2328 -1.6491  1.0428
  400TMC3    H1 5980   0.020   1.964  17.106 -1.4650 -0.7338  1.2994
  400TMC3    H2 5981   4.487   2.209  16.879 -0.4361 -0.0065  3.3264
  400TMC3    C7 5982   4.629   2.200  17.107 -0.5088 -0.2672  0.3690
  400TMC3    C8 5983   4.363   2.020  16.749  0.7171 -0.2177 -0.0360
  400TMC3    O1 5984   4.721   2.182  17.190  0.6606 -0.3253  0.1970
  400TMC3    O2 5985   4.330   2.133  16.718 -0.2187 -0.0556 -0.8449
  401MPD2     C 5986   2.924   0.812   1.315  0.1143 -0.4783  0.0068
  401MPD2    C1 5987   3.032   0.734   1.290  0.0603 -0.6296  0.2812
  401MPD2    C2 5988   3.007   0.598   1.265 -0.2521  0.2240  0.2226
  401MPD2    C3 5989   2.884   0.538   1.274  0.2602 -0.0822 -0.1625
  401MPD2    C4 5990   2.783   0.623   1.323  0.0129  0.1262 -0.1957
  401MPD2    C5 5991   2.801   0.755   1.330  0.0972 -0.7921 -0.3943
  401MPD2     H 5992   3.092   0.535   1.240 -1.1096 -1.4345  1.5102
  401MPD2    H1 5993   2.688   0.585   1.358  1.5728 -0.3489  3.5310
  401MPD2    H2 5994   2.939   0.918   1.333 -0.5293 -0.1798 -1.1565
  401MPD2    H3 5995   2.718   0.815   1.368 -0.3816 -2.4063  1.1122
  401MPD2     N 5996   2.875   0.400   1.244 -0.3014 -0.0123  0.3704
  401MPD2    H5 5997   2.958   0.361   1.199 -1.9868 -0.1454 -2.6083
  401MPD2    N1 5998   3.164   0.777   1.291  0.4641  0.8627  0.4796
  401MPD2    H7 5999   3.232   0.702   1.285  0.4008  0.8612 -0.2152
  402TMC3    C1 6000   2.784   0.186   1.199  0.4820  0.0289 -0.4162
  402TMC3    C2 6001   2.780   0.071   1.277 -0.6631 -0.4931 -0.6688
  402TMC3    C3 6002   2.848   4.686   1.237  0.4316 -0.4858  0.3987
  402TMC3    C4 6003   2.867   0.189   1.090  0.2211 -0.0927 -0.5051
  402TMC3    C5 6004   2.945   0.079   1.062 -0.4227  0.5775  0.0324
  402TMC3    C6 6005   2.933   4.691   1.132  0.1570 -0.4294 -0.3013
  402TMC3     C 6006   2.767   0.318   1.264 -0.1493 -0.3993  0.4218
  402TMC3     O 6007   2.668   0.336   1.335 -0.7055 -0.3044  0.2127
  402TMC3     H 6008   2.718   0.076   1.365  0.3971 -1.1046  0.1146
  402TMC3    H1 6009   2.874   0.281   1.033  1.1447  0.8587  1.1463
  402TMC3    H2 6010   2.978   4.597   1.102  0.6907 -0.5264  0.7683
  402TMC3    C7 6011   3.006   0.088   0.926 -0.6405  0.1069  0.1375
  402TMC3    C8 6012   2.858   4.578   1.335  0.2874 -0.4764  0.9262
  402TMC3    O1 6013   2.952   0.164   0.847  0.0446  0.1369  0.2738
  402TMC3    O2 6014   2.970   4.543   1.360  0.4600  0.1484 -0.0217
  403MPD2     C 6015   1.478   4.329  13.467  0.1597 -0.1665 -0.1979
  403MPD2    C1 6016   1.491   4.196  13.486 -0.6989 -0.5575  0.5567
  403MPD2    C2 6017   1.542   4.156  13.610 -0.0425  0.2446  0.1774
  403MPD2    C3 6018   1.590   4.243  13.707 -0.6187 -0.5671 -0.4573
  403MPD2    C4 6019   1.579   4.378  13.687  0.2863 -0.5956  0.4492
  403MPD2    C5 6020   1.525   4.417  13.567 -0.4756 -0.7755 -1.0070
  403MPD2     H 6021   1.558   4.052  13.636 -1.3732  0.3038  1.2784
  403MPD2    H1 6022   1.616   4.455  13.754  1.6189 -1.0993  0.2975
  403MPD2    H2 6023   1.449   4.374  13.373  1.9679  2.9785  0.7564
  403MPD2    H3 6024   1.509   4.519  13.534  1.5963 -1.0000 -2.6584
  403MPD2     N 6025   1.651   4.181  13.819 -0.2903 -0.1835 -0.0593
  403MPD2    H5 6026   1.655   4.080  13.818  0.6871 -0.1399  0.0256
  403MPD2    N1 6027   1.438   4.096  13.395 -0.1814  0.2023 -0.0164
  403MPD2    H7 6028   1.390   4.131  13.313  0.4464 -0.6756 -0.7579
  404TMC3    C1 6029   1.319   3.902  13.332  0.2203  0.1986  0.7086
  404TMC3    C2 6030   1.271   3.784  13.374  0.6233  0.2730  0.3247
  404TMC3    C3 6031   1.252   3.680  13.288 -0.9783  0.0038  0.0817
  404TMC3    C4 6032   1.343   3.922  13.200 -0.6613  0.0832  0.1973
  404TMC3    C5 6033   1.310   3.817  13.109 -0.2551  0.2992 -0.2370
  404TMC3    C6 6034   1.283   3.696  13.161 -0.5888  0.4346 -0.3125
  404TMC3     C 6035   1.397   3.970  13.430  0.6637  0.1248  0.3576
  404TMC3     O 6036   1.411   3.913  13.537  0.5490 -0.5416 -0.0842
  404TMC3     H 6037   1.257   3.767  13.480 -0.5660 -2.2609 -0.2345
  404TMC3    H1 6038   1.391   4.008  13.155 -2.4118  0.3487 -1.1733
  404TMC3    H2 6039   1.265   3.611  13.095 -0.3178 -1.3568  1.9198
  404TMC3    C7 6040   1.370   3.827  12.975  0.6037  0.1529 -0.4507
  404TMC3    C8 6041   1.263   3.541  13.335  0.3909  0.2284 -0.2818
  404TMC3    O1 6042   1.436   3.926  12.950  1.0561  0.5383  0.2474
  404TMC3    O2 6043   1.306   3.454  13.265  0.2241 -1.0327  0.1369
  405MPD2     C 6044   1.901   4.372  14.929  0.7248 -0.2220  0.9251
  405MPD2    C1 6045   1.885   4.252  14.857 -0.0358  0.5552  0.9845
  405MPD2    C2 6046   1.786   4.257  14.759  1.0327  0.5287 -0.9432
  405MPD2    C3 6047   1.714   4.371  14.731 -0.4843  0.4754 -0.6612
  405MPD2    C4 6048   1.744   4.488  14.802 -0.0159 -0.4418  0.6970
  405MPD2    C5 6049   1.840   4.494  14.907 -0.3420 -0.1182  0.1341
  405MPD2     H 6050   1.771   4.173  14.693  0.6499  0.5093 -0.8301
  405MPD2    H1 6051   1.696   4.583  14.783 -1.1505 -0.9019  1.3063
  405MPD2    H2 6052   1.970   4.362  15.012 -0.8714 -0.2166  2.2445
  405MPD2    H3 6053   1.856   4.589  14.956  1.2327  0.1069 -0.8177
  405MPD2     N 6054   1.621   4.365  14.621 -0.0140  0.7831  0.1136
  405MPD2    H5 6055   1.607   4.273  14.580 -1.2249  0.8986  0.2548
  405MPD2    N1 6056   1.969   4.141  14.894  0.1392 -0.0012  0.2743
  405MPD2    H7 6057   2.025   4.146  14.979  1.1573 -0.7294 -0.3616
  406TMC3    C1 6058   1.235   4.353  14.450  0.5288  0.2379  0.3112
  406TMC3    C2 6059   1.271   4.259  14.351 -0.1854  0.2830 -1.0711
  406TMC3    C3 6060   1.407   4.239  14.337 -0.8390  0.6068  0.2290
  406TMC3    C4 6061   1.327   4.438  14.511 -0.3603 -0.0177 -0.0399
  406TMC3    C5 6062   1.459   4.419  14.479  0.1233  0.0787 -0.7050
  406TMC3    C6 6063   1.499   4.315  14.399 -0.0926 -0.1051 -0.1371
  406TMC3     C 6064   1.089   4.385  14.450 -0.8934 -0.0044 -0.0959
  406TMC3     O 6065   1.015   4.349  14.361 -0.5461 -0.0411  0.5811
  406TMC3     H 6066   1.205   4.181  14.314  0.5229 -1.1352  0.6670
  406TMC3    H1 6067   1.298   4.531  14.559 -1.5398  0.3243 -1.3880
  406TMC3    H2 6068   1.602   4.305  14.368  0.0993  0.2570  0.3948
  406TMC3    C7 6069   1.559   4.471  14.563 -0.4627  0.1821 -0.2984
  406TMC3    C8 6070   1.444   4.104  14.293 -0.2790  0.1899 -0.0903
  406TMC3    O1 6071   1.546   4.583  14.602  0.4275  0.5269 -0.3529
  406TMC3    O2 6072   1.374   4.049  14.213 -0.3431  0.5775  0.2333
  407MPD2     C 6073   4.101   0.518   9.625 -0.5018 -0.1299  0.3800
  407MPD2    C1 6074   4.215   0.590   9.631  0.3831  0.3251 -0.1344
  407MPD2    C2 6075   4.255   0.649   9.751 -0.3586  0.5201 -0.1877
  407MPD2    C3 6076   4.185   0.638   9.861 -0.9035  0.0962  0.4474
  407MPD2    C4 6077   4.072   0.564   9.858 -0.8453  0.0693 -0.3021
  407MPD2    C5 6078   4.032   0.502   9.742  0.5222  0.5910  0.1624
  407MPD2     H 6079   4.338   0.718   9.752 -0.4285  0.6064 -0.3347
  407MPD2    H1 6080   4.010   0.549   9.945 -0.5138  0.5389  0.0190
  407MPD2    H2 6081   4.082   0.464   9.533  1.8453 -1.2250  0.5274
  407MPD2    H3 6082   3.943   0.441   9.737 -0.7609  2.4885  0.1241
  407MPD2     N 6083   4.217   0.710   9.980 -0.6905  0.3321  0.6386
  407MPD2    H5 6084   4.140   0.732  10.043  0.4146  1.4001  1.6399
  407MPD2    N1 6085   4.298   0.620   9.522  0.0370 -0.0204 -0.0624
  407MPD2    H7 6086   4.377   0.683   9.535  1.8084 -2.0731 -0.7473
  408TMC3    C1 6087   4.322   0.679   9.300  0.1219  0.1218 -0.2261
  408TMC3    C2 6088   4.356   0.633   9.179 -0.2539 -0.6503 -0.0192
  408TMC3    C3 6089   4.417   0.722   9.097 -0.5660  0.0553  0.8382
  408TMC3    C4 6090   4.331   0.814   9.339  0.9910 -0.2119 -0.3727
  408TMC3    C5 6091   4.372   0.904   9.250  1.0231 -0.0287 -0.3622
  408TMC3    C6 6092   4.426   0.855   9.133  0.5112  0.1558  0.1099
  408TMC3     C 6093   4.272   0.586   9.393 -0.5587 -0.5306  0.0203
  408TMC3     O 6094   4.211   0.498   9.343 -0.0612  0.3858 -0.3072
  408TMC3     H 6095   4.346   0.528   9.153 -1.6561 -0.7043  0.7709
  408TMC3    H1 6096   4.294   0.845   9.436 -1.8243  0.2696 -1.5894
  408TMC3    H2 6097   4.455   0.933   9.064 -0.7707  0.3278 -0.2376
  408TMC3    C7 6098   4.435   1.030   9.296  0.4421  0.0533 -0.5516
  408TMC3    C8 6099   4.534   0.656   9.051 -0.0002 -0.3946 -0.1049
  408TMC3    O1 6100   4.535   1.073   9.237 -0.2185  0.5595  0.7670
  408TMC3    O2 6101   4.529   0.548   8.991  0.2642  0.0577  0.6805
  409MPD2     C 6102   3.378   1.324  16.942  0.3986  0.1802 -0.0841
  409MPD2    C1 6103   3.486   1.331  17.028 -0.4604  0.7326 -0.2579
  409MPD2    C2 6104   3.580   1.424  17.001 -0.7310  0.3636  0.1386
  409MPD2    C3 6105   3.557   1.512  16.894  0.1170  0.0321  0.3007
  409MPD2    C4 6106   3.438   1.518  16.824 -0.5521  0.0452 -0.0998
  409MPD2    C5 6107   3.357   1.411  16.843  0.4303  0.2033  0.3590
  409MPD2     H 6108   3.664   1.445  17.066 -0.3971  5.1636 -1.8558
  409MPD2    H1 6109   3.409   1.591  16.750 -0.3099  1.5731  1.3096
  409MPD2    H2 6110   3.308   1.241  16.947  0.8641 -0.1659  0.5246
  409MPD2    H3 6111   3.276   1.401  16.772  1.2461 -1.6916 -0.3113
  409MPD2     N 6112   3.657   1.608  16.853 -0.2219 -0.0917  0.9456
  409MPD2    H5 6113   3.617   1.691  16.811 -1.0704 -2.0306 -2.0910
  409MPD2    N1 6114   3.509   1.249  17.137 -0.4435 -0.3546  0.8557
  409MPD2    H7 6115   3.589   1.282  17.191  0.1921 -1.1013  0.3800
  410TMC3    C1 6116   3.854   1.723  16.826  0.7162  0.2017  0.0382
  410TMC3    C2 6117   3.963   1.764  16.896 -0.1258 -0.0979  0.1861
  410TMC3    C3 6118   4.003   1.891  16.882 -0.4993  0.0315  0.5166
  410TMC3    C4 6119   3.791   1.803  16.730  0.3433  0.1849 -0.2774
  410TMC3    C5 6120   3.835   1.930  16.718 -0.4205  0.6926 -0.5754
  410TMC3    C6 6121   3.937   1.980  16.793  0.4333 -0.3052  0.0257
  410TMC3     C 6122   3.794   1.600  16.870  0.0446 -0.2610 -0.1850
  410TMC3     O 6123   3.861   1.508  16.911  0.0778  0.7672 -0.2310
  410TMC3     H 6124   3.990   1.699  16.979  1.6645  1.3504  0.7516
  410TMC3    H1 6125   3.704   1.771  16.674  0.7856 -2.2175  0.4485
  410TMC3    H2 6126   3.961   2.085  16.799  0.8537 -0.3891 -0.1856
  410TMC3    C7 6127   3.751   2.019  16.641 -0.3336  0.2642  0.4242
  410TMC3    C8 6128   4.091   1.952  16.985  0.1105  0.4675  0.3331
  410TMC3    O1 6129   3.635   1.982  16.618  0.2293  0.1206  0.6824
  410TMC3    O2 6130   4.102   2.075  16.976  0.6960 -0.8598 -0.0297
  411MPD2     C 6131   4.094   2.622  14.514 -0.0159 -0.1965  0.4219
  411MPD2    C1 6132   3.969   2.656  14.465  0.0369 -0.7562 -0.1636
  411MPD2    C2 6133   3.871   2.566  14.443 -0.6182 -0.3808  0.3040
  411MPD2    C3 6134   3.892   2.431  14.477  0.7442 -0.0540 -0.5449
  411MPD2    C4 6135   4.024   2.394  14.511 -0.1060  0.4946  0.0085
  411MPD2    C5 6136   4.123   2.486  14.537  0.0920 -0.3047  0.5098
  411MPD2     H 6137   3.776   2.596  14.400 -0.7116 -2.5074 -0.9973
  411MPD2    H1 6138   4.047   2.294  14.547 -0.5997  0.7872  1.1454
  411MPD2    H2 6139   4.173   2.695  14.530 -1.4939  1.2302  1.2265
  411MPD2    H3 6140   4.217   2.454  14.580  0.6571 -0.4549 -0.8307
  411MPD2     N 6141   3.793   2.331  14.460  0.2207 -0.1029  0.5983
  411MPD2    H5 6142   3.823   2.235  14.450  1.2256  0.5995 -3.0774
  411MPD2    N1 6143   3.967   2.792  14.431  0.6869 -0.2446 -0.3094
  411MPD2    H7 6144   4.051   2.847  14.444 -0.9968  2.0013  1.1496
  412TMC3    C1 6145   3.568   2.244  14.425  0.4020 -0.4677  0.2299
  412TMC3    C2 6146   3.439   2.268  14.453  0.7389  0.4631 -0.0765
  412TMC3    C3 6147   3.344   2.226  14.370  1.1770  0.2658 -0.1303
  412TMC3    C4 6148   3.608   2.188  14.306 -0.1924  0.3668  0.3023
  412TMC3    C5 6149   3.509   2.155  14.213  1.1507 -0.2578 -0.3328
  412TMC3    C6 6150   3.378   2.159  14.254  0.1861 -0.2890  0.2766
  412TMC3     C 6151   3.656   2.354  14.471  0.3184 -0.1819  0.2631
  412TMC3     O 6152   3.598   2.456  14.513  0.2173  0.7396 -0.9933
  412TMC3     H 6153   3.415   2.309  14.551 -2.1790 -1.2499 -0.0809
  412TMC3    H1 6154   3.712   2.175  14.280 -0.1571  2.0095 -0.3741
  412TMC3    H2 6155   3.309   2.168  14.171  1.8012 -0.5003 -1.0940
  412TMC3    C7 6156   3.521   2.231  14.088  0.9963  1.2009  0.1174
  412TMC3    C8 6157   3.248   2.336  14.349  0.0052  0.0552  0.5552
  412TMC3    O1 6158   3.437   2.222  13.997 -0.0564  0.1210  0.0849
  412TMC3    O2 6159   3.293   2.451  14.332  0.2361  0.1853  0.2285
  413MPD2     C 6160   0.872   0.901  15.783  0.0642 -0.1683  1.3442
  413MPD2    C1 6161   0.784   0.796  15.760 -0.4787 -0.2053  0.4285
  413MPD2    C2 6162   0.829   0.674  15.714 -0.4515 -0.0705  0.3462
  413MPD2    C3 6163   0.964   0.655  15.690  0.1671  0.9710 -0.1838
  413MPD2    C4 6164   1.047   0.765  15.699  0.7066 -0.8312 -0.0833
  413MPD2    C5 6165   1.004   0.887  15.751  0.0647  0.2715 -0.2172
  413MPD2     H 6166   0.764   0.588  15.701  0.6233 -0.9153  0.5498
  413MPD2    H1 6167   1.154   0.766  15.684  0.9234 -0.6770  1.3932
  413MPD2    H2 6168   0.836   1.001  15.804 -0.0220 -0.6114  3.3366
  413MPD2    H3 6169   1.070   0.972  15.765  1.9241 -1.0814 -0.6924
  413MPD2     N 6170   1.010   0.523  15.682 -0.2172 -0.3535  0.2380
  413MPD2    H5 6171   0.934   0.456  15.679  0.7267 -1.3437 -1.6453
  413MPD2    N1 6172   0.643   0.794  15.794  0.0963  0.0725 -0.0100
  413MPD2    H7 6173   0.582   0.717  15.768 -1.2877  0.9427  0.6629
  414TMC3    C1 6174   1.154   0.339  15.688  0.1059 -0.5302 -0.0369
  414TMC3    C2 6175   1.227   0.280  15.788 -0.1057 -0.3970 -0.3217
  414TMC3    C3 6176   1.225   0.145  15.798  0.4402  0.2234 -0.5620
  414TMC3    C4 6177   1.075   0.272  15.596  0.4956  0.5342 -0.7201
  414TMC3    C5 6178   1.088   0.135  15.603 -0.1388  0.3646 -0.1008
  414TMC3    C6 6179   1.146   0.073  15.710 -0.1442 -0.4874  0.6889
  414TMC3     C 6180   1.143   0.483  15.691  0.0949 -1.2304 -0.5490
  414TMC3     O 6181   1.238   0.555  15.711  0.3856  0.7541 -0.2829
  414TMC3     H 6182   1.277   0.350  15.855  0.1370  1.8418 -2.8208
  414TMC3    H1 6183   1.042   0.317  15.504 -1.9847 -2.1701 -1.1234
  414TMC3    H2 6184   1.136   4.691  15.722  1.7090 -0.9496 -1.7188
  414TMC3    C7 6185   1.155   0.091  15.480 -0.4094  0.1570 -0.9736
  414TMC3    C8 6186   1.355   0.075  15.832 -0.1246  0.2490 -0.3626
  414TMC3    O1 6187   1.180   0.172  15.390 -0.5050  0.0169  0.1401
  414TMC3    O2 6188   1.342   4.682  15.857  0.1332  0.0940  0.1595
  415TMC3    C1 6189   1.799   3.167  10.172 -0.0752 -0.6909 -0.3256
  415TMC3    C2 6190   1.889   3.263  10.131  0.1851 -0.1633 -0.0104
  415TMC3    C3 6191   1.834   3.392  10.131 -0.0088  0.4220  0.0923
  415TMC3    C4 6192   1.670   3.206  10.213  0.0582 -0.2621  0.1956
  415TMC3    C5 6193   1.628   3.339  10.219 -0.5030  0.0067 -0.3324
  415TMC3    C6 6194   1.720   3.439  10.188 -0.2110 -0.1482 -0.2073
  415TMC3     C 6195   1.826   3.022  10.161 -0.0795 -0.7229 -0.5108
  415TMC3     O 6196   1.730   2.948  10.173 -0.0354  0.0121 -0.0751
  415TMC3     H 6197   1.978   3.233  10.077  0.0227 -1.0253  0.2082
  415TMC3    H1 6198   1.599   3.126  10.232 -1.1564  0.7774  0.0356
  415TMC3    H2 6199   1.683   3.540  10.172 -1.2678 -0.3013  1.2204
  415TMC3    C7 6200   1.521   3.384  10.305 -0.6930 -0.2996  0.0367
  415TMC3    C8 6201   1.902   3.492  10.045  0.1045 -0.4219 -0.3753
  415TMC3    O1 6202   1.488   3.502  10.299  0.1384  0.3755  0.0701
  415TMC3    O2 6203   1.887   3.606  10.078 -0.5410  0.0190 -0.6208
  416MPD2     C 6204   2.743   2.189  11.875  0.2321 -0.0946  0.2251
  416MPD2    C1 6205   2.731   2.294  11.786 -0.3350  0.3462  0.2335
  416MPD2    C2 6206   2.759   2.275  11.652 -0.5361  0.6028  0.3324
  416MPD2    C3 6207   2.793   2.151  11.601 -0.1763 -0.0143  0.0613
  416MPD2    C4 6208   2.828   2.055  11.695 -0.6916  0.9749 -1.0017
  416MPD2    C5 6209   2.795   2.071  11.827 -0.0450  0.7631  0.5020
  416MPD2     H 6210   2.740   2.352  11.578  0.3816  1.2764  0.8012
  416MPD2    H1 6211   2.865   1.956  11.671 -1.1551  0.0082  2.2529
  416MPD2    H2 6212   2.733   2.206  11.982  1.3494  2.6236 -0.1186
  416MPD2    H3 6213   2.806   1.989  11.897  0.9200  0.2180 -0.3043
  416MPD2     N 6214   2.805   2.132  11.463  0.3721 -0.6041 -0.1078
  416MPD2    H5 6215   2.852   2.046  11.434  0.8059 -0.2453 -0.4842
  416MPD2    N1 6216   2.688   2.422  11.837  0.4476 -0.1883 -0.1356
  416MPD2    H7 6217   2.662   2.419  11.935  1.4734  0.2581  0.1496
  417TMC3    C1 6218   2.625   2.640  11.853 -0.7220  0.2886  0.0830
  417TMC3    C2 6219   2.621   2.640  11.986  0.2117  0.1122 -0.6578
  417TMC3    C3 6220   2.579   2.758  12.043 -0.0527 -0.4613  0.0787
  417TMC3    C4 6221   2.585   2.750  11.768  0.4956  0.2792 -0.3278
  417TMC3    C5 6222   2.526   2.856  11.831 -0.1843 -0.2201 -0.1150
  417TMC3    C6 6223   2.515   2.860  11.966 -0.4983 -0.7401 -0.1700
  417TMC3     C 6224   2.686   2.539  11.771 -0.3367  0.3867  0.3520
  417TMC3     O 6225   2.718   2.559  11.657  0.1049 -0.5176 -0.0516
  417TMC3     H 6226   2.663   2.556  12.040  0.8732  1.4036  0.8885
  417TMC3    H1 6227   2.593   2.753  11.660  0.8753 -1.5693 -0.3515
  417TMC3    H2 6228   2.490   2.957  12.009 -1.0377 -1.2788  0.7161
  417TMC3    C7 6229   2.508   2.968  11.751  0.3808  0.1179 -0.0575
  417TMC3    C8 6230   2.559   2.768  12.185  0.0905 -0.8636  0.2931
  417TMC3    O1 6231   2.524   3.081  11.794 -0.8963 -0.0243 -0.4727
  417TMC3    O2 6232   2.548   2.875  12.244  0.7145  0.1606  0.0499
  418TMC3    C1 6233   2.151   3.656   0.643 -0.0035  0.5696 -0.2342
  418TMC3    C2 6234   2.013   3.653   0.639  0.2824 -0.6860 -0.4426
  418TMC3    C3 6235   1.957   3.569   0.727 -0.2907 -0.1766  0.1347
  418TMC3    C4 6236   2.229   3.581   0.733  0.0681 -0.0933 -0.6798
  418TMC3    C5 6237   2.164   3.512   0.831  0.0499 -0.5396 -0.0288
  418TMC3    C6 6238   2.026   3.503   0.829  0.2793 -0.9247  0.3589
  418TMC3     C 6239   2.219   3.680   0.516 -0.2263 -0.1676 -0.3381
  418TMC3     O 6240   2.245   3.796   0.479 -0.3914  0.3141  0.1962
  418TMC3     H 6241   1.963   3.681   0.547  1.2183 -0.9025 -1.0196
  418TMC3    H1 6242   2.336   3.580   0.716  0.2560 -1.1640  0.5902
  418TMC3    H2 6243   1.971   3.449   0.906 -0.2655  0.9430  1.2843
  418TMC3    C7 6244   2.215   3.382   0.876 -0.1243  0.3757 -0.2567
  418TMC3    C8 6245   1.832   3.518   0.690  0.4300 -0.6389  0.1536
  418TMC3    O1 6246   2.132   3.294   0.897  0.3985  0.2414 -0.9656
  418TMC3    O2 6247   1.744   3.591   0.642 -0.1770  0.1995  0.1576
  419MPD2     C 6248   0.595   2.004  12.104 -0.1688  0.8408 -0.2716
  419MPD2    C1 6249   0.544   2.127  12.107  0.4861 -0.7832  0.1728
  419MPD2    C2 6250   0.467   2.169  12.209  0.6300  0.4601  0.5904
  419MPD2    C3 6251   0.442   2.086  12.322 -0.6712 -0.5731  0.6931
  419MPD2    C4 6252   0.485   1.951  12.319 -0.2927  0.0189 -0.2778
  419MPD2    C5 6253   0.566   1.918  12.210 -0.1488  0.6537  0.3098
  419MPD2     H 6254   0.445   2.275  12.197  0.7435  0.7112  2.5916
  419MPD2    H1 6255   0.468   1.872  12.391  1.5415  1.0359  1.2489
  419MPD2    H2 6256   0.663   1.973  12.026  1.1763 -2.9792  2.4023
  419MPD2    H3 6257   0.616   1.823  12.199 -0.1364  0.5409  1.3378
  419MPD2     N 6258   0.384   2.135  12.438 -0.1456  0.3433 -0.4244
  419MPD2    H5 6259   0.335   2.224  12.431 -2.6313 -1.0599 -0.8620
  419MPD2    N1 6260   0.571   2.219  11.995 -0.5383 -0.1898  0.1025
  419MPD2    H7 6261   0.522   2.308  11.999 -0.2955 -0.0232 -0.5535
  420TMC3    C1 6262   0.323   2.186  12.650 -0.5349  0.7077 -0.3164
  420TMC3    C2 6263   0.249   2.286  12.592 -0.6184 -0.1621  0.7187
  420TMC3    C3 6264   0.255   2.411  12.649  0.6703  0.4272  0.0557
  420TMC3    C4 6265   0.387   2.197  12.770 -0.3377 -0.1066  0.5309
  420TMC3    C5 6266   0.393   2.323  12.817  0.0319 -0.3659 -0.1889
  420TMC3    C6 6267   0.324   2.429  12.765 -0.7271  0.6828  0.4742
  420TMC3     C 6268   0.384   2.085  12.564 -0.3694 -0.6735 -0.1506
  420TMC3     O 6269   0.423   1.980  12.611  0.3194  0.2781 -0.3541
  420TMC3     H 6270   0.192   2.274  12.501 -0.5037 -1.0003  0.7530
  420TMC3    H1 6271   0.455   2.119  12.802  0.8564  0.5022 -0.5069
  420TMC3    H2 6272   0.326   2.525  12.816  1.4932  0.2176  1.2548
  420TMC3    C7 6273   0.447   2.333  12.954  0.4355  0.6324  0.5042
  420TMC3    C8 6274   0.234   2.523  12.560 -0.6958 -0.5251  0.1952
  420TMC3    O1 6275   0.434   2.229  13.014 -0.2867 -0.2441  1.0334
  420TMC3    O2 6276   0.181   2.495  12.451  0.3500  0.1075 -0.5505
  421TMC3    C1 6277   1.732   4.169  14.030  0.1514 -0.4580  0.5747
  421TMC3    C2 6278   1.764   4.252  14.139  0.0431  0.3223 -0.3253
  421TMC3    C3 6279   1.897   4.264  14.171 -0.3719  0.3585 -0.4812
  421TMC3    C4 6280   1.806   4.066  13.986  0.4455  1.1945 -1.2109
  421TMC3    C5 6281   1.930   4.060  14.042  0.7585 -0.0432 -0.5974
  421TMC3    C6 6282   1.978   4.159  14.125 -0.0747 -0.6795 -0.0772
  421TMC3     C 6283   1.687   4.251  13.927 -0.1694  0.2638 -0.0127
  421TMC3     O 6284   1.686   4.372  13.943 -0.3047 -0.0114  0.1689
  421TMC3     H 6285   1.694   4.330  14.168 -0.2721 -0.0942  0.0308
  421TMC3    H1 6286   1.781   3.999  13.904 -1.4335 -1.1627  1.2903
  421TMC3    H2 6287   2.075   4.151  14.172 -0.7526  2.5851  1.8782
  421TMC3    C7 6288   2.005   3.930  14.041 -0.0834  0.3137  0.0751
  421TMC3    C8 6289   1.925   4.325  14.298 -0.8366 -1.0750 -0.5415
  421TMC3    O1 6290   2.124   3.937  14.076  0.7416  0.2721  0.3389
  421TMC3    O2 6291   1.832   4.313  14.376 -0.4753  0.2716 -0.4657
  422TMC3    C1 6292   4.050   0.768  12.840  0.0311  0.0729  0.2939
  422TMC3    C2 6293   3.997   0.899  12.831 -0.9754  0.2307 -0.2833
  422TMC3    C3 6294   3.874   0.923  12.885  0.1198 -0.5773  0.1837
  422TMC3    C4 6295   3.967   0.663  12.880  0.0280 -0.2110  0.3363
  422TMC3    C5 6296   3.837   0.689  12.918 -1.2601  0.3946 -0.0881
  422TMC3    C6 6297   3.789   0.824  12.918  0.0332  0.0925  0.2402
  422TMC3     C 6298   4.167   0.743  12.752  0.2790  0.5804 -0.2803
  422TMC3     O 6299   4.221   0.845  12.700 -0.4254 -0.7410 -0.1876
  422TMC3     H 6300   4.059   0.981  12.799 -0.9060  0.5825  0.7627
  422TMC3    H1 6301   4.002   0.560  12.878  1.5589  0.2448  3.2154
  422TMC3    H2 6302   3.690   0.842  12.958 -1.1688 -1.3882 -2.0597
  422TMC3    C7 6303   3.762   0.572  12.946  0.3186  0.2344  0.5777
  422TMC3    C8 6304   3.820   1.059  12.875  0.0300 -0.6569 -0.7516
  422TMC3    O1 6305   3.822   0.469  12.964 -0.0977 -0.1002  0.5245
  422TMC3    O2 6306   3.899   1.153  12.900  0.2383  0.0420 -0.2976
  423MPD2     C 6307   0.361   1.461   0.956  0.2076 -0.3833  1.0423
  423MPD2    C1 6308   0.417   1.345   1.018  0.0090 -0.2843 -0.8764
  423MPD2    C2 6309   0.478   1.245   0.949 -0.4239  0.4829 -0.1721
  423MPD2    C3 6310   0.487   1.264   0.809  0.5349  0.4088 -0.6744
  423MPD2    C4 6311   0.437   1.376   0.744 -0.0374  0.1831 -0.6029
  423MPD2    C5 6312   0.372   1.468   0.823  0.1322  0.3663  0.2396
  423MPD2     H 6313   0.526   1.160   0.996 -0.1984 -0.5060 -2.1524
  423MPD2    H1 6314   0.430   1.380   0.636  1.7044 -2.5501 -0.8231
  423MPD2    H2 6315   0.328   1.542   1.020  0.3686 -0.4773  1.2447
  423MPD2    H3 6316   0.324   1.550   0.770  1.9123  0.9636 -0.4678
  423MPD2     N 6317   0.548   1.166   0.725  0.2362 -0.3588  0.4503
  423MPD2    H5 6318   0.543   1.189   0.626 -1.4090 -1.0336  0.3752
  423MPD2    N1 6319   0.399   1.338   1.158 -0.5426 -0.6128 -0.3962
  423MPD2    H7 6320   0.333   1.409   1.191  0.2470 -0.0256 -0.0868
  424TMC3    C1 6321   0.390   1.247   1.384  0.1122  0.1572  0.2572
  424TMC3    C2 6322   0.461   1.184   1.480 -0.2987  0.9246  0.1199
  424TMC3    C3 6323   0.409   1.176   1.610  0.1365  0.3200  0.1826
  424TMC3    C4 6324   0.270   1.305   1.409 -0.7849  0.7889  0.1202
  424TMC3    C5 6325   0.224   1.304   1.538 -0.0499 -0.4124 -0.1680
  424TMC3    C6 6326   0.293   1.247   1.644  0.6452  0.1540  0.2231
  424TMC3     C 6327   0.447   1.245   1.245 -0.0296  0.0749  0.3115
  424TMC3     O 6328   0.550   1.184   1.227  0.3320  0.6456 -0.8522
  424TMC3     H 6329   0.551   1.133   1.448 -1.0330 -0.6599  0.5537
  424TMC3    H1 6330   0.205   1.337   1.328  0.6758 -1.6503 -2.0305
  424TMC3    H2 6331   0.262   1.251   1.748  0.3132  0.9145  0.0944
  424TMC3    C7 6332   0.114   1.400   1.580  0.4434 -0.2676  0.0305
  424TMC3    C8 6333   0.444   1.055   1.683 -0.2935  0.1472  0.8421
  424TMC3    O1 6334   0.075   1.466   1.482  0.1905 -0.3614 -0.2442
  424TMC3    O2 6335   0.369   1.024   1.777 -0.5719 -0.5561 -0.5420
  425MPD2     C 6336   4.411   0.619  17.567  0.5154  0.6390 -0.1711
  425MPD2    C1 6337   4.361   0.505  17.627 -0.0505  0.5893  0.0224
  425MPD2    C2 6338   4.240   0.512  17.698 -0.2857 -0.3238  0.1683
  425MPD2    C3 6339   4.183   0.634   0.016 -0.3692  0.5396  0.2954
  425MPD2    C4 6340   4.236   0.746  17.654  0.0988 -0.0629 -0.1001
  425MPD2    C5 6341   4.350   0.741  17.576 -0.0373 -0.5374 -0.4098
  425MPD2     H 6342   4.185   0.427   0.036  0.3361 -0.5746  0.4855
  425MPD2    H1 6343   4.176   0.836  17.648 -0.8703 -0.6629  0.4706
  425MPD2    H2 6344   4.500   0.605  17.506 -0.1395 -4.1087 -0.0320
  425MPD2    H3 6345   4.399   0.831  17.542 -1.4790  0.5493  0.4489
  425MPD2     N 6346   4.064   0.632   0.093  0.2382  0.3139  0.1067
  425MPD2    H5 6347   4.040   0.546   0.141 -1.0956  0.3550 -0.4814
  425MPD2    N1 6348   4.430   0.384  17.613  0.4768  0.2303  0.0188
  425MPD2    H7 6349   4.507   0.384  17.547 -0.0344 -2.3205 -0.5928
  426TMC3    C1 6350   4.445   0.142  17.628  0.5925 -0.4868  0.4123
  426TMC3    C2 6351   4.494   0.140  17.503 -0.4222  0.3749  0.4433
  426TMC3    C3 6352   4.589   0.041  17.474  0.2210 -0.0533 -0.0432
  426TMC3    C4 6353   4.475   0.040   0.020  0.2831 -0.8061  0.3831
  426TMC3    C5 6354   4.551   4.662  17.680 -0.5928 -0.8976  0.7350
  426TMC3    C6 6355   4.626   4.671  17.561  0.1930  0.6866  0.0915
  426TMC3     C 6356   4.384   0.267  17.679 -0.2073 -0.1006  0.2831
  426TMC3     O 6357   4.333   0.256   0.089 -0.1613  0.2087  0.4885
  426TMC3     H 6358   4.479   0.214  17.424  3.9104  0.1754 -0.5861
  426TMC3    H1 6359   4.429   0.052   0.117 -1.5668  0.6163 -0.6730
  426TMC3    H2 6360   4.698   4.592  17.541  0.3365  0.5895  1.0067
  426TMC3    C7 6361   4.555   4.541   0.055  0.3979 -0.8082 -0.2593
  426TMC3    C8 6362   4.594   0.000  17.334  0.4372  0.2500 -0.1254
  426TMC3    O1 6363   4.633   4.452   0.027 -0.1316 -0.2115  0.2138
  426TMC3    O2 6364   4.689   4.655  17.308 -0.1115 -0.4875  0.2838
  427MPD2     C 6365   3.018   2.549  14.578 -0.5469  0.3731 -0.4588
  427MPD2    C1 6366   3.011   2.507  14.708  0.0130  0.7298 -0.0193
  427MPD2    C2 6367   2.890   2.500  14.767  0.1025 -0.5866 -0.2350
  427MPD2    C3 6368   2.770   2.539  14.703  0.5917  0.5029  0.6301
  427MPD2    C4 6369   2.782   2.582  14.574  0.2170  0.1422 -0.0400
  427MPD2    C5 6370   2.903   2.588  14.510 -0.3385 -0.3509  0.2760
  427MPD2     H 6371   2.889   2.460  14.868  1.8229 -0.8941 -0.3431
  427MPD2    H1 6372   2.688   2.610  14.527  1.1499  1.8614 -0.8594
  427MPD2    H2 6373   3.110   2.558  14.521  0.3121 -1.0398  0.6966
  427MPD2    H3 6374   2.917   2.608  14.404  1.2915  2.3821  1.0005
  427MPD2     N 6375   2.641   2.551  14.761  0.6049  0.8397  0.1249
  427MPD2    H5 6376   2.569   2.590  14.701  0.1037  1.1454  0.9273
  427MPD2    N1 6377   3.128   2.469  14.779  0.7316  0.1412  0.3992
  427MPD2    H7 6378   3.123   2.421  14.868  0.5208 -1.5357 -0.5049
  428TMC3    C1 6379   3.346   2.398  14.826  0.0551  0.2694 -0.2379
  428TMC3    C2 6380   3.308   2.294  14.906  0.1137  0.6370  0.0615
  428TMC3    C3 6381   3.388   2.253  15.012  0.2088 -0.2377  0.0383
  428TMC3    C4 6382   3.472   2.452  14.840  1.0827  0.3987  0.2096
  428TMC3    C5 6383   3.562   2.390  14.929  0.0718  0.6310  0.2132
  428TMC3    C6 6384   3.526   2.285  15.016 -0.3141 -0.0934  0.7197
  428TMC3     C 6385   3.263   2.477  14.739 -0.8197 -0.0812  0.6556
  428TMC3     O 6386   3.300   2.551  14.652 -0.0510  0.2959  0.2886
  428TMC3     H 6387   3.216   2.242  14.882 -0.7261  1.6440  1.0565
  428TMC3    H1 6388   3.505   2.539  14.785 -0.5035  0.6908 -0.2562
  428TMC3    H2 6389   3.598   2.251  15.090  0.0645 -0.7367  0.0525
  428TMC3    C7 6390   3.673   2.468  14.988 -0.2957 -0.1655  0.8116
  428TMC3    C8 6391   3.345   2.125  15.069  0.0358  0.5989  0.0778
  428TMC3    O1 6392   3.675   2.483  15.108 -0.3536  0.1165  0.3512
  428TMC3    O2 6393   3.435   2.052  15.105 -0.1436  0.8366  0.4296
  429MPD2     C 6394   3.535   2.485   0.063 -0.4553 -0.1554  0.3519
  429MPD2    C1 6395   3.651   2.421   0.027 -0.4595 -0.0371 -0.6164
  429MPD2    C2 6396   3.740   2.482  17.646 -0.2011  0.1999 -0.0583
  429MPD2    C3 6397   3.724   2.604  17.591  0.9000 -0.7257 -0.6312
  429MPD2    C4 6398   3.609   2.669  17.632  0.5293 -0.5141  0.0871
  429MPD2    C5 6399   3.522   2.610   0.012  0.0632  0.0894 -0.4465
  429MPD2     H 6400   3.838   2.437  17.638 -0.6276 -0.6008 -0.8147
  429MPD2    H1 6401   3.585   2.769  17.597  0.8887 -1.0068 -1.6059
  429MPD2    H2 6402   3.454   2.454   0.128  0.7313 -1.6390  1.1328
  429MPD2    H3 6403   3.426   2.658   0.030 -0.3756 -1.1603  0.5741
  429MPD2     N 6404   3.828   2.666  17.516 -0.0647  0.3335 -0.7371
  429MPD2    H5 6405   3.913   2.612  17.508 -0.4256 -0.4243  0.5810
  429MPD2    N1 6406   3.681   2.290   0.068 -0.2668 -0.0468  0.2004
  429MPD2    H7 6407   3.776   2.267   0.041 -0.4313  1.2916 -1.5063
  430TMC3    C1 6408   3.945   2.786  17.363  0.1787 -0.1430 -0.7465
  430TMC3    C2 6409   3.939   2.871  17.259 -0.2343 -0.2134 -0.2885
  430TMC3    C3 6410   4.058   2.927  17.215 -0.8503 -0.4307 -0.4191
  430TMC3    C4 6411   4.068   2.742  17.414 -0.4517  0.3752 -0.6221
  430TMC3    C5 6412   4.185   2.795  17.363  0.1004 -0.2298  0.0147
  430TMC3    C6 6413   4.182   2.894  17.264  0.1524  0.1515 -0.3399
  430TMC3     C 6414   3.826   2.781  17.446 -0.2239 -0.3895 -0.2874
  430TMC3     O 6415   3.735   2.854  17.421 -0.2493  0.9325 -0.2313
  430TMC3     H 6416   3.843   2.887  17.210  0.2312  0.1105 -1.1106
  430TMC3    H1 6417   4.070   2.676  17.500  0.8792  0.4677 -0.5831
  430TMC3    H2 6418   4.274   2.915  17.210  1.5307  0.6176  2.1929
  430TMC3    C7 6419   4.269   2.683  17.322 -0.1378 -0.2813  0.2348
  430TMC3    C8 6420   4.047   2.980  17.084  0.3055 -0.1057 -0.4557
  430TMC3    O1 6421   4.203   2.580  17.304  0.1882  0.1729  0.0009
  430TMC3    O2 6422   3.966   2.936  17.009  0.1058  0.4576  0.5426
  431MPD2     C 6423   0.715   2.971  12.298  0.0030 -0.6348  0.0678
  431MPD2    C1 6424   0.803   2.973  12.188 -0.6971  0.0176  0.3175
  431MPD2    C2 6425   0.783   2.873  12.093 -0.2522 -0.2860  0.6270
  431MPD2    C3 6426   0.697   2.767  12.112 -0.1859  0.3709 -0.5936
  431MPD2    C4 6427   0.626   2.760  12.230  0.4775  0.4851 -0.0061
  431MPD2    C5 6428   0.632   2.865  12.311 -0.1223 -0.1900 -0.7842
  431MPD2     H 6429   0.836   2.882  11.999  0.2012  2.6514  1.1736
  431MPD2    H1 6430   0.551   2.683  12.244 -0.0068  1.1195  0.8969
  431MPD2    H2 6431   0.701   3.054  12.366  0.3629 -1.7752  1.5466
  431MPD2    H3 6432   0.568   2.869  12.399  3.1250 -1.5115  1.6510
  431MPD2     N 6433   0.660   2.677  12.015  0.1320  0.0959  0.4704
  431MPD2    H5 6434   0.577   2.628  12.047  1.4299 -2.7661 -0.5954
  431MPD2    N1 6435   0.896   3.075  12.167 -0.1444  0.2126 -0.0523
  431MPD2    H7 6436   0.944   3.078  12.078 -0.8969  0.3616 -0.4523
  432TMC3    C1 6437   0.654   2.558  11.808  0.6027 -0.3204  0.3215
  432TMC3    C2 6438   0.699   2.561  11.680  0.6462 -0.2872 -0.1821
  432TMC3    C3 6439   0.727   2.452  11.611 -0.7879  0.1185 -0.3848
  432TMC3    C4 6440   0.635   2.440  11.874  0.3833  0.3551 -0.5779
  432TMC3    C5 6441   0.660   2.325  11.807 -1.1056 -0.3316 -0.4290
  432TMC3    C6 6442   0.716   2.336  11.677 -0.3248 -0.2904 -0.5982
  432TMC3     C 6443   0.717   2.662  11.890 -0.6648 -0.2235 -0.7538
  432TMC3     O 6444   0.819   2.717  11.849  0.3738 -0.1523 -0.2043
  432TMC3     H 6445   0.712   2.656  11.629 -0.3927  0.0381  0.1616
  432TMC3    H1 6446   0.627   2.446  11.982  0.8260  0.6142 -0.5611
  432TMC3    H2 6447   0.742   2.242  11.630  1.9831 -0.2080  0.5097
  432TMC3    C7 6448   0.634   2.199  11.874 -0.1321  0.4314  0.1442
  432TMC3    C8 6449   0.847   2.452  11.528  0.9156  1.2356 -0.4246
  432TMC3    O1 6450   0.670   2.088  11.829  0.1319 -0.3321 -0.1106
  432TMC3    O2 6451   0.878   2.353  11.466 -0.2935  0.0059  0.0636
  433MPD2     C 6452   4.312   1.592  10.633  0.4722 -0.3170 -0.7898
  433MPD2    C1 6453   4.330   1.526  10.751  0.4343  0.1303  0.2146
  433MPD2    C2 6454   4.383   1.598  10.856 -0.4164 -0.5598 -0.2011
  433MPD2    C3 6455   4.393   1.737  10.851 -0.0489  0.1337 -0.3888
  433MPD2    C4 6456   4.372   1.798  10.733  0.6530  0.1480  0.7915
  433MPD2    C5 6457   4.348   1.724  10.621  0.2694 -0.1598 -0.6950
  433MPD2     H 6458   4.402   1.539  10.945 -1.1152  1.5446  1.3606
  433MPD2    H1 6459   4.366   1.906  10.726 -0.0375 -0.0037 -0.9093
  433MPD2    H2 6460   4.267   1.545  10.547 -1.2105  0.9488 -0.5935
  433MPD2    H3 6461   4.337   1.775  10.526 -0.5730 -0.6036 -0.8309
  433MPD2     N 6462   4.423   1.805  10.974  0.4400  0.5450  0.8807
  433MPD2    H5 6463   4.435   1.753  11.060 -0.2255 -0.0031  0.6482
  433MPD2    N1 6464   4.295   1.387  10.756 -0.2613  0.1687  0.5623
  433MPD2    H7 6465   4.268   1.347  10.667  1.1184 -0.8680  0.6136
  434TMC3    C1 6466   4.291   1.176  10.851  0.0597  0.1759 -0.3997
  434TMC3    C2 6467   4.353   1.118  10.961  0.4222  0.8590 -0.5535
  434TMC3    C3 6468   4.424   0.998  10.946  0.6245  0.3014  0.4791
  434TMC3    C4 6469   4.284   1.120  10.735 -0.3164 -0.3546 -0.1464
  434TMC3    C5 6470   4.352   0.998  10.721  0.4986 -0.3652  0.5707
  434TMC3    C6 6471   4.427   0.946  10.821  0.1590  0.0067 -0.5732
  434TMC3     C 6472   4.264   1.314  10.869  0.5459  0.1924 -0.1518
  434TMC3     O 6473   4.250   1.352  10.982  0.7668  0.6769 -0.1741
  434TMC3     H 6474   4.361   1.171  11.055  1.7423 -0.4808  0.0911
  434TMC3    H1 6475   4.230   1.165  10.652  1.6074  1.2158 -0.5301
  434TMC3    H2 6476   4.484   0.854  10.817 -0.6891 -0.5495  0.0736
  434TMC3    C7 6477   4.369   0.945  10.586  0.3605 -0.6138  0.7075
  434TMC3    C8 6478   4.523   0.975  11.052 -0.4884  0.9415  0.1790
  434TMC3    O1 6479   4.307   0.998  10.493 -0.1293  0.2352  0.2266
  434TMC3    O2 6480   4.493   0.988  11.170  0.5473 -0.3084 -0.0086
  435MPD2     C 6481   1.065   1.313  15.813 -0.3744  0.3271 -0.6355
  435MPD2    C1 6482   0.991   1.235  15.906 -0.2471  0.1801  0.4131
  435MPD2    C2 6483   1.061   1.169  16.007  0.6107  0.3870 -0.1213
  435MPD2    C3 6484   1.199   1.164  16.007  0.2472  0.2612  0.8583
  435MPD2    C4 6485   1.262   1.245  15.911  0.6415 -0.2359 -0.1537
  435MPD2    C5 6486   1.197   1.323  15.825  0.2188  0.4868  0.0643
  435MPD2     H 6487   1.010   1.103  16.077 -1.8042 -0.9914 -3.2144
  435MPD2    H1 6488   1.369   1.249  15.897  0.7330  0.2489  0.6668
  435MPD2    H2 6489   1.019   1.378  15.740 -0.7602 -0.3346 -0.9767
  435MPD2    H3 6490   1.243   1.401  15.765  0.5180  0.6196  0.4698
  435MPD2     N 6491   1.272   1.085  16.101 -0.2751  0.2072  0.0824
  435MPD2    H5 6492   1.224   1.044  16.180  1.3502  0.2126  1.0752
  435MPD2    N1 6493   0.854   1.225  15.906  0.2466  0.1798 -0.0845
  435MPD2    H7 6494   0.822   1.165  15.981  0.3763 -1.6362 -1.4863
  436TMC3    C1 6495   0.471   1.247  16.017 -0.3509 -0.0523 -0.6219
  436TMC3    C2 6496   0.596   1.285  15.984  0.2056  0.6672 -0.1331
  436TMC3    C3 6497   0.627   1.283  15.856 -0.5820  0.6674  0.3602
  436TMC3    C4 6498   0.372   1.214  15.925 -0.0501  0.0523  0.3629
  436TMC3    C5 6499   0.414   1.212  15.793  0.3896 -0.8407 -0.1324
  436TMC3    C6 6500   0.538   1.248  15.757  0.0788  0.2536 -0.8397
  436TMC3     C 6501   0.432   1.242  16.152 -0.3133  0.5490 -0.5542
  436TMC3     O 6502   0.518   1.211  16.230  0.1699 -0.0618 -0.3534
  436TMC3     H 6503   0.674   1.307  16.057 -0.3134  1.0601  0.3090
  436TMC3    H1 6504   0.267   1.197  15.948  0.6184 -1.9281  1.9713
  436TMC3    H2 6505   0.555   1.250  15.650  0.9065  1.1816 -0.6871
  436TMC3    C7 6506   0.315   1.165  15.697 -0.7558 -0.0001 -0.3927
  436TMC3    C8 6507   0.769   1.290  15.825  0.7600 -0.0515  0.4634
  436TMC3    O1 6508   0.199   1.182  15.731  0.1659  0.2830  0.8011
  436TMC3    O2 6509   0.789   1.354  15.723 -0.6071  0.5742  0.4315
  437TMC3    C1 6510   4.439   4.289  12.794  0.2572 -0.1865  0.0876
  437TMC3    C2 6511   4.368   4.407  12.807 -0.0464 -0.4000  0.4473
  437TMC3    C3 6512   4.409   4.511  12.722  0.3636  0.3241 -0.1901
  437TMC3    C4 6513   4.538   4.273  12.695  0.0863 -0.8764  0.1263
  437TMC3    C5 6514   4.575   4.376  12.616 -0.0879  0.3203 -0.2607
  437TMC3    C6 6515   4.516   4.498  12.634  0.0479 -0.4694 -0.8615
  437TMC3     C 6516   4.392   4.172  12.868  0.2801  0.6421  0.6322
  437TMC3     O 6517   4.280   4.188  12.909 -0.4293  0.6981 -0.4153
  437TMC3     H 6518   4.287   4.417  12.878  0.1111 -2.4530  0.9195
  437TMC3    H1 6519   4.571   4.173  12.672 -1.1242 -0.8270 -1.8212
  437TMC3    H2 6520   4.553   4.580  12.573 -0.6574  1.5929  1.4799
  437TMC3    C7 6521   4.690   4.374  12.534  0.2560 -0.2000 -0.2493
  437TMC3    C8 6522   4.369   4.643  12.769 -0.2260  0.3340 -0.5447
  437TMC3    O1 6523   4.695   4.446  12.434  0.4444 -0.8356  0.6050
  437TMC3    O2 6524   4.257   4.642  12.821 -0.1056 -0.4915 -0.4006
  438MPD2     C 6525   2.322   4.008  16.857 -0.3081 -0.3217 -0.0830
  438MPD2    C1 6526   2.342   3.897  16.934  0.1528  0.3698 -0.2744
  438MPD2    C2 6527   2.317   3.907  17.066  0.2022 -0.2061  0.4115
  438MPD2    C3 6528   2.262   4.016  17.123  0.2928  0.4852 -0.1350
  438MPD2    C4 6529   2.251   4.130  17.051  0.0427  0.3548 -0.2648
  438MPD2    C5 6530   2.265   4.121  16.916 -0.1434  0.8450  0.9377
  438MPD2     H 6531   2.340   3.820  17.127 -0.5322 -0.9489 -0.3793
  438MPD2    H1 6532   2.217   4.224  17.093  0.4078  0.9134 -1.2109
  438MPD2    H2 6533   2.325   4.013  16.748  0.3978  1.5913  0.0256
  438MPD2    H3 6534   2.247   4.211  16.859  3.1904  1.8204  1.4282
  438MPD2     N 6535   2.224   4.001  17.258 -0.1678  0.4878 -1.0794
  438MPD2    H5 6536   2.253   3.916  17.306  0.3586  0.9292 -0.6138
  438MPD2    N1 6537   2.404   3.777  16.885  0.6175 -0.2578 -0.8669
  438MPD2    H7 6538   2.428   3.704  16.951 -0.9207 -0.1776 -0.2153
  439TMC3    C1 6539   2.476   3.618  16.723 -0.9745  0.0549 -0.2503
  439TMC3    C2 6540   2.466   3.574  16.592 -0.0366  0.6586  0.5748
  439TMC3    C3 6541   2.552   3.476  16.555 -0.3498  0.0231 -0.2409
  439TMC3    C4 6542   2.573   3.572  16.809  0.1976  0.0876 -0.7235
  439TMC3    C5 6543   2.656   3.471  16.764  0.5163  0.4196 -0.0477
  439TMC3    C6 6544   2.649   3.429  16.636 -0.1872  1.1044  0.4308
  439TMC3     C 6545   2.422   3.755  16.745 -0.1365  0.1852 -0.2053
  439TMC3     O 6546   2.399   3.824  16.647 -0.3428  0.4623 -0.0623
  439TMC3     H 6547   2.391   3.611  16.523 -1.4305 -2.0558  0.6558
  439TMC3    H1 6548   2.589   3.612  16.908 -0.5292 -1.7399  0.1374
  439TMC3    H2 6549   2.720   3.360  16.592 -1.5523  1.3555 -2.1925
  439TMC3    C7 6550   2.736   3.403  16.862  0.2031 -0.2094 -0.0525
  439TMC3    C8 6551   2.573   3.448  16.410  0.1945 -0.7245 -0.0932
  439TMC3    O1 6552   2.844   3.353  16.824 -0.1041  0.2668  0.1742
  439TMC3    O2 6553   2.610   3.335  16.378  0.4321 -0.2688  0.3782
  440MPD2     C 6554   1.410   4.244  14.884 -0.2833  0.3063  0.6397
  440MPD2    C1 6555   1.476   4.344  14.951  1.2309  0.0180 -0.0552
  440MPD2    C2 6556   1.575   4.310  15.046  0.0189 -0.3047 -0.0887
  440MPD2    C3 6557   1.592   4.173  15.078 -0.2098 -0.0832 -0.3665
  440MPD2    C4 6558   1.526   4.076  15.013 -0.5351 -0.4470  0.3346
  440MPD2    C5 6559   1.427   4.116  14.924 -0.1107 -1.0256 -0.4809
  440MPD2     H 6560   1.627   4.389  15.099 -2.3642  1.3181 -0.1315
  440MPD2    H1 6561   1.550   3.974  15.041  0.2484 -0.2025  0.5477
  440MPD2    H2 6562   1.342   4.273  14.805  0.1543  1.0880  0.5474
  440MPD2    H3 6563   1.370   4.035  14.880 -2.2239  0.2213 -0.0544
  440MPD2     N 6564   1.684   4.140  15.180  0.1810 -0.6235  0.4595
  440MPD2    H5 6565   1.687   4.041  15.202 -2.8778 -0.3622  2.0641
  440MPD2    N1 6566   1.450   4.482  14.943 -0.5807 -0.3928 -0.3324
  440MPD2    H7 6567   1.513   4.541  14.997 -0.7207 -1.3374  0.8536
  441TMC3    C1 6568   1.804   4.164  15.390  0.7235  0.2666  0.5179
  441TMC3    C2 6569   1.879   4.258  15.456 -0.5664  0.3922  0.9641
  441TMC3    C3 6570   1.832   4.300  15.578 -0.4184 -0.1552  0.0788
  441TMC3    C4 6571   1.705   4.087  15.443 -0.8437 -0.4836  0.1941
  441TMC3    C5 6572   1.668   4.125  15.566 -0.1949  0.3602 -0.1085
  441TMC3    C6 6573   1.722   4.235  15.627  0.2841  0.0520 -0.3042
  441TMC3     C 6574   1.761   4.224  15.258  0.0269 -0.0527 -0.1336
  441TMC3     O 6575   1.788   4.340  15.240  0.1123  0.2607  0.7569
  441TMC3     H 6576   1.960   4.309  15.406  0.3564  0.4642  2.5352
  441TMC3    H1 6577   1.647   4.019  15.382  0.3153 -0.4205 -0.9595
  441TMC3    H2 6578   1.683   4.260  15.724  1.8674  1.8270 -0.1359
  441TMC3    C7 6579   1.552   4.058  15.615  0.1765 -0.1985 -0.1926
  441TMC3    C8 6580   1.845   4.436  15.605  0.2808  0.7010 -0.1652
  441TMC3    O1 6581   1.453   4.120  15.655  0.3063 -0.7637  1.1142
  441TMC3    O2 6582   1.954   4.485  15.567 -0.3410  0.1346  0.0365
  442MPD2     C 6583   4.094   0.363  16.697 -0.3630 -0.5062 -0.6720
  442MPD2    C1 6584   4.010   0.275  16.764 -0.5505 -1.1481  0.0632
  442MPD2    C2 6585   4.002   0.147  16.724 -0.2930 -0.5119  0.4259
  442MPD2    C3 6586   4.080   0.098  16.615 -0.4245 -0.2840  0.1747
  442MPD2    C4 6587   4.150   0.190  16.545  0.0985 -0.1607  0.2597
  442MPD2    C5 6588   4.154   0.324  16.584  0.1762  0.3171 -0.5871
  442MPD2     H 6589   3.940   0.079  16.781 -1.2173 -0.0517 -0.0316
  442MPD2    H1 6590   4.213   0.155  16.464 -1.0559  0.5282 -0.9395
  442MPD2    H2 6591   4.100   0.467  16.725  1.5645 -1.1761  1.3473
  442MPD2    H3 6592   4.196   0.403  16.523  1.5052 -1.3615 -1.8645
  442MPD2     N 6593   4.088   4.687  16.573  0.2363  0.5629  0.0976
  442MPD2    H5 6594   4.160   4.665  16.504 -0.7684  0.6622 -0.9965
  442MPD2    N1 6595   3.936   0.305  16.882  0.4806  1.0494 -0.2067
  442MPD2    H7 6596   3.872   0.232  16.910  0.3527  0.7290 -1.3467
  443TMC3    C1 6597   3.848   0.413  17.063 -0.4985  0.4085  0.1211
  443TMC3    C2 6598   3.776   0.527  17.096  0.9099 -0.0732 -0.5628
  443TMC3    C3 6599   3.656   0.505  17.166  0.3667 -0.2722  1.0449
  443TMC3    C4 6600   3.829   0.298  17.133  0.0051 -0.4154  0.0122
  443TMC3    C5 6601   3.718   0.283  17.214 -0.8161  0.2466 -0.9360
  443TMC3    C6 6602   3.625   0.384  17.216  0.2098  0.0505  0.1523
  443TMC3     C 6603   3.936   0.421  16.950  0.0768  0.1162  0.1981
  443TMC3     O 6604   3.983   0.526  16.921 -0.4161  0.1550  0.0239
  443TMC3     H 6605   3.772   0.624  17.046  0.9142  0.1665 -0.0980
  443TMC3    H1 6606   3.882   0.205  17.112 -1.1232 -1.4912  1.9023
  443TMC3    H2 6607   3.521   0.361  17.237  0.5286 -0.6866  0.9581
  443TMC3    C7 6608   3.701   0.163  17.298 -0.4012  0.2457 -0.7986
  443TMC3    C8 6609   3.567   0.551  17.057  0.1070  0.0374 -0.8225
  443TMC3    O1 6610   3.780   0.070  17.281 -0.2731 -0.8299 -0.2526
  443TMC3    O2 6611   3.559   0.670  17.038  0.0310  0.1272  0.1084
  444MPD2     C 6612   4.110   4.437  17.337 -0.2172  0.4441 -0.1643
  444MPD2    C1 6613   4.057   4.319  17.386  0.6290 -0.0652  0.0561
  444MPD2    C2 6614   4.128   4.211  17.353 -0.5459 -0.5694 -0.5093
  444MPD2    C3 6615   4.251   4.208  17.289  0.6124  0.4008  0.6251
  444MPD2    C4 6616   4.301   4.328  17.243  0.4092 -0.2520 -0.0446
  444MPD2    C5 6617   4.230   4.441  17.269 -0.0575 -0.8497 -0.2721
  444MPD2     H 6618   4.083   4.120  17.393  1.2204 -0.8505  0.8489
  444MPD2    H1 6619   4.395   4.330  17.187  1.0849 -2.5045  1.0072
  444MPD2    H2 6620   4.051   4.526  17.353 -2.5324 -1.0472 -0.4716
  444MPD2    H3 6621   4.270   4.536  17.236 -0.6947 -0.1280  1.0344
  444MPD2     N 6622   4.316   4.085  17.278  0.3816 -0.0920  0.4821
  444MPD2    H5 6623   4.268   4.003  17.311 -0.9893  0.7018  0.4507
  444MPD2    N1 6624   3.945   4.305  17.473  0.0952 -0.7176 -0.4478
  444MPD2    H7 6625   3.938   4.216  17.521  0.5273  0.3311  1.5769
  445TMC3    C1 6626   4.496   3.929  17.242  0.2962 -0.2575  0.1881
  445TMC3    C2 6627   4.464   3.867  17.361  0.2271  0.3352  0.3485
  445TMC3    C3 6628   4.542   3.760  17.405 -0.2335 -1.2133 -0.1519
  445TMC3    C4 6629   4.602   3.888  17.167  0.1860  0.1507 -0.3081
  445TMC3    C5 6630   4.686   3.791  17.229  0.1614 -0.4256 -0.4207
  445TMC3    C6 6631   4.655   3.724  17.344 -0.4731 -0.8313  0.8464
  445TMC3     C 6632   4.444   4.069  17.227 -0.2646 -0.4668 -0.5301
  445TMC3     O 6633   4.519   4.142  17.162 -0.4757 -0.3497 -0.4823
  445TMC3     H 6634   4.399   3.908  17.436 -1.1119 -1.5297  0.2180
  445TMC3    H1 6635   4.635   3.937  17.076  0.4482  0.5519  0.0108
  445TMC3    H2 6636   4.712   3.642  17.386  1.4032  0.1658  0.2470
  445TMC3    C7 6637   0.068   3.751  17.141  0.1712 -0.2758 -0.0406
  445TMC3    C8 6638   4.490   3.683  17.511  0.3106 -0.2575  0.2433
  445TMC3    O1 6639   0.047   3.766  17.021  0.0934  0.1912 -0.1572
  445TMC3    O2 6640   4.571   3.603  17.557  0.8506 -0.2093 -0.2614
  446MPD2     C 6641   4.262   1.064  11.519 -0.0503 -0.7442  0.9224
  446MPD2    C1 6642   4.239   1.068  11.390  0.0954 -0.5404 -0.5865
  446MPD2    C2 6643   4.307   1.163  11.318 -0.1904 -0.7038  0.1733
  446MPD2    C3 6644   4.406   1.243  11.375 -0.3099  0.1215 -0.2569
  446MPD2    C4 6645   4.417   1.235  11.517  0.5297 -0.0079  0.0272
  446MPD2    C5 6646   4.345   1.146  11.589 -0.0861 -0.0285 -0.2812
  446MPD2     H 6647   4.280   1.169  11.213  0.5398  1.6123  0.1221
  446MPD2    H1 6648   4.492   1.292  11.571  0.2086  1.4374 -1.0452
  446MPD2    H2 6649   4.187   1.002  11.568 -0.8627 -1.7914 -1.6499
  446MPD2    H3 6650   4.358   1.129  11.695 -0.0090 -0.7346 -0.4047
  446MPD2     N 6651   4.493   1.313  11.287 -0.5407 -0.2374  0.6687
  446MPD2    H5 6652   4.458   1.338  11.195  1.1603 -0.2326  0.0221
  446MPD2    N1 6653   4.151   0.987  11.314 -0.6594 -1.0220 -0.2634
  446MPD2    H7 6654   4.116   1.016  11.223  0.0278  0.5827 -0.0129
  447TMC3    C1 6655   4.696   1.397  11.209  0.9223 -0.0924  0.6414
  447TMC3    C2 6656   4.664   1.343  11.086  0.1536 -0.2908  1.0313
  447TMC3    C3 6657   0.044   1.313  11.003 -0.2794 -0.0721  0.2314
  447TMC3    C4 6658   0.096   1.423  11.247  0.2454  0.3845 -0.3971
  447TMC3    C5 6659   0.193   1.361  11.173  0.4161  0.1547 -1.1940
  447TMC3    C6 6660   0.176   1.303  11.048 -0.0603 -0.4415  0.2798
  447TMC3     C 6661   4.615   1.348  11.326  0.4332 -0.2758 -0.3786
  447TMC3     O 6662   4.670   1.313  11.429 -0.1748  0.0254 -0.5312
  447TMC3     H 6663   4.564   1.315  11.058 -0.5906  3.3597  0.0736
  447TMC3    H1 6664   0.104   1.461  11.348 -0.6951  0.9034 -0.5147
  447TMC3    H2 6665   0.261   1.281  10.984  0.4824  1.6245  0.2873
  447TMC3    C7 6666   0.317   1.329  11.241  0.2222  0.2219  0.4238
  447TMC3    C8 6667   0.015   1.264  10.868  0.8529  0.1648 -0.0767
  447TMC3    O1 6668   0.413   1.282  11.174  0.1709 -0.5404 -0.0205
  447TMC3    O2 6669   4.622   1.270  10.830  0.5160  0.3149  0.1186
  448TMC3    C1 6670   3.183   0.528  16.971 -0.3390  1.0370 -0.4335
  448TMC3    C2 6671   3.112   0.418  16.934  0.6621  0.2149 -0.2145
  448TMC3    C3 6672   3.088   0.322  17.028  0.3830  0.6003  0.7975
  448TMC3    C4 6673   3.216   0.550  17.105 -0.0980  0.1411  0.3189
  448TMC3    C5 6674   3.195   0.449  17.196  0.1782  0.2314  0.6086
  448TMC3    C6 6675   3.137   0.329  17.158 -0.2319  0.6870 -0.5811
  448TMC3     C 6676   3.178   0.635  16.875  0.6129 -0.5619 -0.2245
  448TMC3     O 6677   3.081   0.637  16.802 -0.4995  0.1419  0.0445
  448TMC3     H 6678   3.077   0.405  16.832  0.0285 -1.8738  0.2769
  448TMC3    H1 6679   3.277   0.632  17.141  0.9911 -0.2440 -0.6411
  448TMC3    H2 6680   3.123   0.248  17.228 -1.2190 -1.3326 -3.1287
  448TMC3    C7 6681   3.243   0.466  17.330  0.4304 -0.2132  0.5639
  448TMC3    C8 6682   2.999   0.210  17.003 -0.7607 -0.7694 -0.2469
  448TMC3    O1 6683   3.339   0.537  17.351  0.0350 -0.2489  0.2017
  448TMC3    O2 6684   2.974   0.133  17.099 -0.5518 -0.5995  0.4733
  449MPD2     C 6685   3.816   3.903  14.148  0.0321  0.4922  0.4506
  449MPD2    C1 6686   3.688   3.944  14.118 -0.1036  0.2390 -0.2588
  449MPD2    C2 6687   3.582   3.850  14.135  0.0170  0.1437 -0.9550
  449MPD2    C3 6688   3.606   3.726  14.201 -1.0245 -0.2685 -0.0694
  449MPD2    C4 6689   3.738   3.690  14.231  0.4025  0.3343 -0.2457
  449MPD2    C5 6690   3.839   3.781  14.209  0.4858 -0.1432  0.6129
  449MPD2     H 6691   3.480   3.887  14.127 -0.2620 -0.6854 -1.1968
  449MPD2    H1 6692   3.772   3.599  14.279 -3.0999 -0.1172  1.3827
  449MPD2    H2 6693   3.901   3.970  14.137 -0.0440  0.2119 -1.7440
  449MPD2    H3 6694   3.945   3.769  14.230  0.5564 -0.9225 -0.1897
  449MPD2     N 6695   3.497   3.642  14.204  0.1136 -0.4063 -0.6208
  449MPD2    H5 6696   3.407   3.669  14.166 -0.1946 -1.4894 -0.6702
  449MPD2    N1 6697   3.648   4.071  14.078  0.2001 -0.1377 -0.2449
  449MPD2    H7 6698   3.548   4.085  14.077  0.3753  0.9717 -1.6955
  450TMC3    C1 6699   3.652   4.280  13.984 -0.0570  0.0453 -0.2499
  450TMC3    C2 6700   3.673   4.310  13.850 -0.1155 -0.5073 -0.1228
  450TMC3    C3 6701   3.564   4.309  13.763 -0.7019 -0.0934 -0.2785
  450TMC3    C4 6702   3.521   4.273  14.025 -0.0920 -1.0887  0.1969
  450TMC3    C5 6703   3.421   4.275  13.941 -0.4613  0.5803  0.4008
  450TMC3    C6 6704   3.433   4.297  13.808 -0.4678 -0.5708  0.2356
  450TMC3     C 6705   3.733   4.166  14.027 -0.0374  0.1193  0.4392
  450TMC3     O 6706   3.847   4.161  13.981  0.1020  0.2543  0.4531
  450TMC3     H 6707   3.773   4.306  13.807 -0.9364 -0.8629 -2.0038
  450TMC3    H1 6708   3.502   4.275  14.132 -0.9797 -0.3146  0.0252
  450TMC3    H2 6709   3.351   4.278  13.740 -1.6093  1.4642  1.0585
  450TMC3    C7 6710   3.313   4.188  13.984 -0.0926  0.5339  0.0911
  450TMC3    C8 6711   3.573   4.341  13.616  0.2142  0.7068 -0.0135
  450TMC3    O1 6712   3.348   4.124  14.080 -0.7737  0.5810  0.2358
  450TMC3    O2 6713   3.466   4.348  13.555  0.1353 -0.1519  0.3969
  451MPD2     C 6714   4.455   2.011   2.015 -0.0605 -0.4437  0.0463
  451MPD2    C1 6715   4.571   2.082   1.988 -0.1475  0.6887 -0.9758
  451MPD2    C2 6716   4.701   2.040   2.029 -0.0703 -0.0210  0.3942
  451MPD2    C3 6717   4.713   1.920   2.088  0.0352  0.5595 -0.1259
  451MPD2    C4 6718   4.599   1.849   2.119  0.1526  0.3259  0.5410
  451MPD2    C5 6719   4.475   1.893   2.088 -0.3499 -0.0168  0.0928
  451MPD2     H 6720   0.061   2.106   2.016  0.3968 -1.3035 -3.0017
  451MPD2    H1 6721   4.600   1.749   2.160  3.8573 -0.4482 -1.4330
  451MPD2    H2 6722   4.360   2.037   1.969 -0.5609 -1.4209  0.5141
  451MPD2    H3 6723   4.388   1.829   2.096 -0.3925  0.0526  0.1867
  451MPD2     N 6724   0.117   1.871   2.128 -0.0240 -0.1243  0.4971
  451MPD2    H5 6725   0.115   1.774   2.157  1.3701  0.2531  1.8737
  451MPD2    N1 6726   4.547   2.199   1.914 -0.6433 -0.6470  0.4029
  451MPD2    H7 6727   4.451   2.225   1.895 -0.1930 -0.4563 -1.6048
  452TMC3    C1 6728   0.349   1.838   2.110 -0.0305 -0.0253 -0.3570
  452TMC3    C2 6729   0.343   1.715   2.169  0.0651 -0.1220  0.4621
  452TMC3    C3 6730   0.452   1.639   2.142  0.1759  0.4558  0.2953
  452TMC3    C4 6731   0.458   1.886   2.045  0.2196  0.0133  0.7175
  452TMC3    C5 6732   0.562   1.799   2.025  0.1113 -0.3179 -0.8506
  452TMC3    C6 6733   0.558   1.667   2.066 -0.0325 -0.0676 -0.1545
  452TMC3     C 6734   0.242   1.927   2.114 -0.1710 -0.4456  0.5104
  452TMC3     O 6735   0.271   2.038   2.076 -0.2037 -0.4588  0.5357
  452TMC3     H 6736   0.265   1.685   2.238  0.0057  1.2271  0.9811
  452TMC3    H1 6737   0.474   1.985   2.005  1.5332 -1.0614 -1.4068
  452TMC3    H2 6738   0.635   1.601   2.028  0.4231 -0.8022  2.0257
  452TMC3    C7 6739   0.635   1.820   1.903 -0.3753  0.2542  0.9067
  452TMC3    C8 6740   0.472   1.533   2.236 -0.3172  0.2925 -0.2027
  452TMC3    O1 6741   0.573   1.859   1.807  0.2213 -0.2263  0.1424
  452TMC3    O2 6742   0.381   1.478   2.299  0.1703  0.2319 -0.0784
  453TMC3    C1 6743   1.674   0.216  12.143  0.4755 -0.9218  0.0353
  453TMC3    C2 6744   1.619   0.095  12.176 -0.4770  0.1092 -0.3846
  453TMC3    C3 6745   1.558   0.036  12.065  0.2291 -0.1205 -0.3335
  453TMC3    C4 6746   1.667   0.273  12.018  0.1599 -0.0795  0.0712
  453TMC3    C5 6747   1.599   0.213  11.914 -0.4780 -0.2833  0.1340
  453TMC3    C6 6748   1.542   0.091  11.939 -0.4067  0.5439  0.1580
  453TMC3     C 6749   1.795   0.259  12.200  0.2994 -0.3334 -1.0422
  453TMC3     O 6750   1.831   0.379  12.193 -0.5741  0.1363 -0.1365
  453TMC3     H 6751   1.644   0.035  12.262 -1.0039 -0.3392 -0.5481
  453TMC3    H1 6752   1.717   0.368  12.007 -1.5932  0.6900 -1.1522
  453TMC3    H2 6753   1.497   0.026  11.866 -0.0417 -0.4202  0.7841
  453TMC3    C7 6754   1.627   0.254  11.778  0.5659 -0.4822  0.4976
  453TMC3    C8 6755   1.505   4.634  12.102 -0.9532 -0.5930 -0.4443
  453TMC3    O1 6756   1.644   0.160  11.705  0.0200  0.0468 -0.4219
  453TMC3    O2 6757   1.432   4.628  12.196  0.5469  0.0072 -0.0196
  454MPD2     C 6758   0.365   3.657  16.468  0.7139  0.3218 -0.8669
  454MPD2    C1 6759   0.324   3.784  16.450  0.4103  0.3726 -0.8236
  454MPD2    C2 6760   0.268   3.855  16.554  0.3793  0.5556 -0.6756
  454MPD2    C3 6761   0.240   3.795  16.679  1.0056 -0.0947 -0.2269
  454MPD2    C4 6762   0.280   3.665  16.697 -0.0506 -0.8248  0.4980
  454MPD2    C5 6763   0.347   3.601  16.593  0.8404  0.4481  0.2896
  454MPD2     H 6764   0.244   3.959  16.538  1.9689  0.8176 -1.3011
  454MPD2    H1 6765   0.254   3.613  16.789 -0.2143 -1.9617 -0.1939
  454MPD2    H2 6766   0.411   3.596  16.391 -1.4899 -0.8822 -1.2368
  454MPD2    H3 6767   0.375   3.496  16.593  3.1925  1.0740  0.9140
  454MPD2     N 6768   0.155   3.858  16.779  0.1528 -0.4573 -0.0165
  454MPD2    H5 6769   0.114   3.807  16.856 -1.8657  1.6226  0.2737
  454MPD2    N1 6770   0.323   3.857  16.330 -0.0776  0.2939 -0.0890
  454MPD2    H7 6771   0.296   3.955  16.329 -1.1243 -0.0350 -2.3770
  455TMC3    C1 6772   4.722   4.017  16.842  1.1752  0.2008  0.3412
  455TMC3    C2 6773   4.715   4.140  16.899 -0.1790 -0.4275  0.5043
  455TMC3    C3 6774   4.604   4.216  16.886  0.0734  0.2472  0.3201
  455TMC3    C4 6775   4.628   3.962  16.764  0.2690 -0.6473 -0.1398
  455TMC3    C5 6776   4.509   4.040  16.763  0.6358  0.2937  0.3959
  455TMC3    C6 6777   4.495   4.164  16.820 -0.3432 -0.4124  0.1311
  455TMC3     C 6778   0.126   3.991  16.785 -0.1984  0.1262  0.5886
  455TMC3     O 6779   0.198   4.084  16.744 -0.6696 -0.1145  0.4041
  455TMC3     H 6780   0.078   4.188  16.942  0.4001 -0.6199 -0.4661
  455TMC3    H1 6781   4.633   3.875  16.700  1.1938 -1.4112  0.9689
  455TMC3    H2 6782   4.395   4.200  16.841 -0.1880 -0.1928  0.4954
  455TMC3    C7 6783   4.402   3.996  16.671  0.0680 -0.3826 -0.5319
  455TMC3    C8 6784   4.601   4.352  16.939  1.3416 -0.3005  0.1083
  455TMC3    O1 6785   4.291   4.031  16.714 -0.0614  0.0023  0.5434
  455TMC3    O2 6786   4.708   4.387  16.993  0.2496  0.1163  0.0968
  456MPD2     C 6787   2.823   3.705  16.483  0.2907  0.0268  0.7638
  456MPD2    C1 6788   2.895   3.675  16.592 -0.3906 -0.1534  0.5847
  456MPD2    C2 6789   2.887   3.749  16.708  0.1648  0.2402 -0.6804
  456MPD2    C3 6790   2.793   3.855  16.719 -0.9183 -0.0169  0.6115
  456MPD2    C4 6791   2.713   3.877  16.614 -0.3097 -0.9964  0.3206
  456MPD2    C5 6792   2.726   3.802  16.500 -0.2466 -0.3686 -0.3772
  456MPD2     H 6793   2.949   3.724  16.793 -3.9874 -2.0540  1.7094
  456MPD2    H1 6794   2.633   3.949  16.613 -0.7831 -1.5227  0.1766
  456MPD2    H2 6795   2.824   3.642  16.395 -2.3861 -0.1562  0.8597
  456MPD2    H3 6796   2.650   3.815  16.424 -0.6287 -0.6073 -0.0387
  456MPD2     N 6797   2.792   3.922  16.846 -0.4138  0.4929  0.7213
  456MPD2    H5 6798   2.857   3.899  16.921  1.0257  2.1770 -0.0064
  456MPD2    N1 6799   2.993   3.571  16.569  0.0690 -0.0865 -0.2240
  456MPD2    H7 6800   2.981   3.524  16.480 -1.6037  0.9663 -0.5635
  457TMC3    C1 6801   2.738   4.095  16.992 -0.7223  0.4005 -0.3686
  457TMC3    C2 6802   2.771   4.226  16.969 -0.3824  0.2058 -0.0680
  457TMC3    C3 6803   2.717   4.317  17.051 -0.1895 -0.4762  0.2954
  457TMC3    C4 6804   2.671   4.051  17.103  0.1306 -0.0641 -0.0082
  457TMC3    C5 6805   2.620   4.149  17.190  0.1522  0.3210  0.6151
  457TMC3    C6 6806   2.636   4.283  17.166  0.4116  0.2530  0.9724
  457TMC3     C 6807   2.707   4.026  16.867 -0.7339 -0.6327  0.0428
  457TMC3     O 6808   2.613   4.071  16.806  0.4417  0.5771  0.1398
  457TMC3     H 6809   2.824   4.249  16.877 -0.2598  0.4329  0.0610
  457TMC3    H1 6810   2.634   3.950  17.111  1.0878 -0.4135 -0.0239
  457TMC3    H2 6811   2.603   4.352  17.243  0.9190  0.1143  1.3177
  457TMC3    C7 6812   2.567   4.097  17.313 -0.1807 -0.6324  0.4892
  457TMC3    C8 6813   2.740   4.455  17.021  0.7764  0.0392 -0.5302
  457TMC3    O1 6814   2.577   3.977  17.337  0.0962  0.0944 -0.4751
  457TMC3    O2 6815   2.743   4.535  17.114  0.0943  0.0950 -0.3318
  458MPD2     C 6816   0.459   4.253  12.441 -0.0628  0.0924 -0.2484
  458MPD2    C1 6817   0.417   4.179  12.547  0.0722  0.2764 -0.8094
  458MPD2    C2 6818   0.294   4.203  12.595  0.2209 -0.1767  0.2757
  458MPD2    C3 6819   0.204   4.288  12.527  0.7556 -0.3147  0.4176
  458MPD2    C4 6820   0.252   4.355  12.413  0.2090  0.5477 -0.3828
  458MPD2    C5 6821   0.387   4.346  12.374  0.8700 -0.0209  0.2961
  458MPD2     H 6822   0.265   4.169  12.694 -0.9481  1.8976  0.6634
  458MPD2    H1 6823   0.195   4.439  12.375  0.5820  0.0984 -1.9351
  458MPD2    H2 6824   0.564   4.243  12.415  0.3269  0.4711  1.1758
  458MPD2    H3 6825   0.436   4.412  12.303 -0.2887  0.1725 -0.3227
  458MPD2     N 6826   0.065   4.291  12.572 -0.1716 -0.2452 -0.5251
  458MPD2    H5 6827   0.051   4.252  12.665  0.0315  1.8257  0.3705
  458MPD2    N1 6828   0.518   4.102  12.611  0.1409 -0.0054 -0.1205
  458MPD2    H7 6829   0.598   4.069  12.558  1.3133  2.5727  0.0234
  459TMC3    C1 6830   0.641   3.985  12.767  0.5896 -0.2485 -0.5265
  459TMC3    C2 6831   0.753   4.042  12.714  0.1307 -0.1893 -0.0283
  459TMC3    C3 6832   0.871   4.024  12.781 -0.3071 -0.6256 -0.1856
  459TMC3    C4 6833   0.645   3.905  12.881 -0.0965  0.0584 -0.0828
  459TMC3    C5 6834   0.766   3.884  12.936  0.0377 -0.9446  0.3603
  459TMC3    C6 6835   0.885   3.939  12.884 -0.2897  0.1326 -0.3811
  459TMC3     C 6836   0.508   4.038  12.729  0.4240  0.4720 -0.3622
  459TMC3     O 6837   0.417   4.033  12.807  0.6457 -0.1786  0.2291
  459TMC3     H 6838   0.740   4.109  12.630 -1.2421  0.2623  0.5356
  459TMC3    H1 6839   0.548   3.877  12.920 -0.1711 -1.3830 -1.3424
  459TMC3    H2 6840   0.976   3.907  12.933 -0.6095 -0.8910 -0.4453
  459TMC3    C7 6841   0.765   3.817  13.062 -0.0902  0.0752  0.1840
  459TMC3    C8 6842   0.987   4.097  12.730  0.6278 -0.1945  0.5838
  459TMC3    O1 6843   0.657   3.761  13.080  0.3620 -0.2818  0.0214
  459TMC3    O2 6844   1.095   4.046  12.754 -0.6502  0.0125 -0.2875
  460MPD2     C 6845   0.249   1.088  10.648 -0.2479 -0.2049  0.2361
  460MPD2    C1 6846   0.124   1.139  10.679  0.4213 -0.1153 -0.5231
  460MPD2    C2 6847   0.028   1.133  10.577 -0.3570  0.9001  0.6225
  460MPD2    C3 6848   0.053   1.073  10.462  0.1789  0.2981  0.0734
  460MPD2    C4 6849   0.181   1.025  10.430 -0.1323  0.0125  0.1035
  460MPD2    C5 6850   0.282   1.034  10.525  0.1271  0.2360 -0.6497
  460MPD2     H 6851   4.653   1.159  10.610 -1.7373 -0.8074 -2.2608
  460MPD2    H1 6852   0.222   0.982  10.339 -2.7152 -0.5237 -0.8066
  460MPD2    H2 6853   0.332   1.090  10.717 -0.1801  0.7559  0.1314
  460MPD2    H3 6854   0.379   0.988  10.509  0.5311  0.4270  1.3119
  460MPD2     N 6855   4.668   1.061  10.374  0.3377  0.7761 -0.4384
  460MPD2    H5 6856   4.588   1.110  10.411 -0.8027 -1.8841  0.6666
  460MPD2    N1 6857   0.114   1.190  10.811  0.2568  0.0928  0.2878
  460MPD2    H7 6858   0.200   1.181  10.865  0.5286  0.1490 -0.1408
  461TMC3    C1 6859   4.531   0.971  10.216  0.3814 -0.5635 -1.4471
  461TMC3    C2 6860   4.497   0.863  10.142 -0.3563 -0.1368 -0.1391
  461TMC3    C3 6861   4.368   0.853  10.095  0.0293 -0.7920 -0.8386
  461TMC3    C4 6862   4.447   1.079  10.229 -0.4520 -0.2430  0.1631
  461TMC3    C5 6863   4.326   1.074  10.165 -0.1476  0.1854 -0.3459
  461TMC3    C6 6864   4.281   0.953  10.108 -0.4364 -0.5208 -0.5423
  461TMC3     C 6865   4.659   0.970  10.277 -0.3149  0.3998 -0.1373
  461TMC3     O 6866   0.013   0.874  10.253 -0.1757  0.1245  0.8505
  461TMC3     H 6867   4.574   0.797  10.103  0.0434 -0.8619  1.8289
  461TMC3    H1 6868   4.467   1.170  10.283  0.4383  1.8633 -3.7507
  461TMC3    H2 6869   4.182   0.948  10.063 -0.5555  1.5711 -0.5075
  461TMC3    C7 6870   4.260   1.192  10.111 -0.2196  0.8975 -0.5680
  461TMC3    C8 6871   4.343   0.749  10.003  0.3468  0.5635  0.4770
  461TMC3    O1 6872   4.155   1.172  10.051  0.6625  0.0749  0.3475
  461TMC3    O2 6873   4.439   0.706   9.943  0.9524 -0.2676  0.6081
  462TMC3    C1 6874   4.222   2.634   0.426  0.4421 -0.1223 -0.6738
  462TMC3    C2 6875   4.328   2.578   0.377  0.2176 -0.0281 -0.0326
  462TMC3    C3 6876   4.315   2.458   0.320  0.6626  0.6425  0.6187
  462TMC3    C4 6877   4.103   2.577   0.456 -0.4305  0.1517  0.4269
  462TMC3    C5 6878   4.099   2.448   0.409 -0.3167  0.5404 -0.1491
  462TMC3    C6 6879   4.196   2.391   0.338 -0.1355  0.1237 -0.4205
  462TMC3     C 6880   4.239   2.783   0.443  0.1513 -0.3307  0.0046
  462TMC3     O 6881   4.351   2.830   0.457 -0.2213 -0.2998 -0.0346
  462TMC3     H 6882   4.424   2.628   0.368  0.9677 -1.2911  0.8765
  462TMC3    H1 6883   4.027   2.621   0.519 -0.6427  1.3480 -0.6759
  462TMC3    H2 6884   4.198   2.282   0.332  1.9797  0.3796 -4.5622
  462TMC3    C7 6885   3.998   2.354   0.453 -0.6954 -0.2773  0.4553
  462TMC3    C8 6886   4.434   2.391   0.274  0.7877 -0.6297 -0.8371
  462TMC3    O1 6887   4.032   2.238   0.463  0.0279  0.0419 -0.4835
  462TMC3    O2 6888   4.541   2.434   0.299  0.0762 -0.3876 -0.2895
  463MPD2     C 6889   0.453   0.447   2.277  0.2724  0.3395 -0.4352
  463MPD2    C1 6890   0.369   0.551   2.268  0.2771  0.1640 -0.3426
  463MPD2    C2 6891   0.424   0.676   2.236  0.3738 -0.0495  0.0392
  463MPD2    C3 6892   0.560   0.692   2.216  0.4430 -0.1555  0.5740
  463MPD2    C4 6893   0.640   0.578   2.207  0.1087 -0.8126  0.6739
  463MPD2    C5 6894   0.582   0.455   2.239 -0.2895 -0.0384  0.6370
  463MPD2     H 6895   0.359   0.762   2.249  2.3851  1.5271 -0.2950
  463MPD2    H1 6896   0.744   0.594   2.180 -0.0913 -0.0254  0.3668
  463MPD2    H2 6897   0.418   0.349   2.307 -0.1500  1.0333  1.3247
  463MPD2    H3 6898   0.645   0.367   2.240  1.1763  1.0330  1.6022
  463MPD2     N 6899   0.629   0.817   2.196  0.6531 -0.6983 -0.5300
  463MPD2    H5 6900   0.727   0.806   2.171  1.0076  2.2711 -0.4770
  463MPD2    N1 6901   0.236   0.542   2.301 -0.2290  0.0503 -0.2875
  463MPD2    H7 6902   0.188   0.631   2.298 -1.0965 -0.4679 -1.5042
  464TMC3    C1 6903   0.016   0.463   2.341  0.6696 -0.6811  0.6498
  464TMC3    C2 6904   4.697   0.586   2.291  0.6224  0.2551  0.7654
  464TMC3    C3 6905   4.561   0.601   2.289  0.1392 -0.4896  0.0283
  464TMC3    C4 6906   4.662   0.366   2.392 -0.3221 -0.8998  0.0025
  464TMC3    C5 6907   4.532   0.402   2.405  0.2728 -0.8538 -0.3932
  464TMC3    C6 6908   4.478   0.517   2.357 -0.0663 -0.0903 -0.1062
  464TMC3     C 6909   0.162   0.434   2.332  0.2468 -0.8820 -0.2908
  464TMC3     O 6910   0.197   0.324   2.377  0.0020 -0.2488 -0.5699
  464TMC3     H 6911   0.030   0.656   2.232 -0.4133  0.2078 -0.3039
  464TMC3    H1 6912   4.693   0.280   2.450  0.4098  0.7095  1.9854
  464TMC3    H2 6913   4.372   0.537   2.374 -0.2621  0.2170 -1.6913
  464TMC3    C7 6914   4.446   0.330   2.500 -0.1274  0.4150 -0.6275
  464TMC3    C8 6915   4.512   0.722   2.223  0.3541  0.3357  0.1568
  464TMC3    O1 6916   4.389   0.399   2.583 -0.0001  0.7433  0.5827
  464TMC3    O2 6917   4.591   0.790   2.160  0.5683  0.0474  0.8919
  465MPD2     C 6918   1.457   4.043  16.053 -0.5070 -0.0218  0.0839
  465MPD2    C1 6919   1.464   4.048  16.187 -0.2107  0.6972  0.1549
  465MPD2    C2 6920   1.371   4.123  16.261  0.7926  0.2669 -0.1612
  465MPD2    C3 6921   1.256   4.171  16.199 -0.2013  0.3040 -0.3723
  465MPD2    C4 6922   1.259   4.177  16.061 -0.1707  0.3589  0.0032
  465MPD2    C5 6923   1.354   4.108  15.990 -0.5446 -0.2901  0.6632
  465MPD2     H 6924   1.371   4.124  16.369 -0.6663  0.2050 -0.1596
  465MPD2    H1 6925   1.166   4.204  16.012  0.0921 -0.8125 -1.1341
  465MPD2    H2 6926   1.530   4.000  15.986  2.0766  1.3537  2.0418
  465MPD2    H3 6927   1.327   4.092  15.886  0.2319 -0.7137  0.5255
  465MPD2     N 6928   1.170   4.238  16.279 -0.4840  0.1081  0.0911
  465MPD2    H5 6929   1.191   4.239  16.378  1.3243 -1.4942 -0.2789
  465MPD2    N1 6930   1.570   3.990  16.258 -0.6038  0.0226  0.5764
  465MPD2    H7 6931   1.580   4.016  16.356  1.6544  0.7880  0.1624
  466TMC3    C1 6932   0.880   4.322  16.557 -0.2691  0.8829 -0.3919
  466TMC3    C2 6933   0.827   4.453  16.547  0.5220  0.7308  0.6332
  466TMC3    C3 6934   0.838   4.517  16.427 -0.0557 -0.6248  0.1344
  466TMC3    C4 6935   0.965   4.283  16.454  0.2651 -0.2409  0.2620
  466TMC3    C5 6936   0.977   4.357  16.337  0.3032  0.1155  0.1510
  466TMC3    C6 6937   0.901   4.467  16.318  0.1972 -0.8949  0.8621
  466TMC3     C 6938   0.878   4.248  16.682 -0.6415  0.1322  0.4151
  466TMC3     O 6939   0.829   4.306  16.775 -0.8505  0.7634  0.0185
  466TMC3     H 6940   0.754   4.479  16.623  0.0994  0.0622  0.4481
  466TMC3    H1 6941   1.017   4.188  16.455  1.2447  0.2945  0.5516
  466TMC3    H2 6942   0.902   4.532  16.231 -0.4217 -0.2184  1.3540
  466TMC3    C7 6943   1.068   4.321  16.234  0.1757  0.0197  0.4170
  466TMC3    C8 6944   0.763   4.646  16.411 -0.2093  0.9225  0.5957
  466TMC3    O1 6945   1.060   4.379  16.128  0.0951 -0.0066  0.0673
  466TMC3    O2 6946   0.744   4.682  16.297  0.2382 -0.1321 -0.1200
  467TMC3    C1 6947   2.134   3.124  13.839 -0.2484 -0.7492 -0.4279
  467TMC3    C2 6948   2.063   3.181  13.735 -0.1807 -0.0899 -0.7856
  467TMC3    C3 6949   1.922   3.168  13.730  0.2143 -0.0919  1.1250
  467TMC3    C4 6950   2.071   3.043  13.927 -0.1142 -0.4781  0.1276
  467TMC3    C5 6951   1.935   3.040  13.929  0.7921 -0.1777  0.2019
  467TMC3    C6 6952   1.856   3.097  13.828 -0.0576  0.0836  0.9801
  467TMC3     C 6953   2.273   3.140  13.849 -0.0431  0.3332 -0.7412
  467TMC3     O 6954   2.322   3.188  13.747 -0.6900  0.3189  0.6723
  467TMC3     H 6955   2.104   3.242  13.655  2.0029 -0.4549  0.0673
  467TMC3    H1 6956   2.118   2.986  14.007  1.1846  0.5794  0.1313
  467TMC3    H2 6957   1.753   3.070  13.808  0.1015  0.4837 -0.4012
  467TMC3    C7 6958   1.882   2.936  14.022  0.5742  0.2303 -0.5648
  467TMC3    C8 6959   1.851   3.270  13.652  0.3221  0.0125 -0.8116
  467TMC3    O1 6960   1.957   2.839  14.049  0.0105  0.9754  0.0741
  467TMC3    O2 6961   1.904   3.305  13.544  1.2952  0.0744 -0.1688
  468MPD2     C 6962   2.054   1.134  10.814 -0.0300 -0.1091  0.5432
  468MPD2    C1 6963   2.166   1.062  10.834 -0.1099 -0.1065  0.4159
  468MPD2    C2 6964   2.150   0.934  10.883 -0.3592 -0.0871  0.0644
  468MPD2    C3 6965   2.025   0.882  10.917  0.0419  0.0557 -0.3921
  468MPD2    C4 6966   1.911   0.962  10.906 -0.0806 -0.0222 -0.3444
  468MPD2    C5 6967   1.926   1.089  10.848  0.6365 -0.3146  0.8656
  468MPD2     H 6968   2.238   0.876  10.907 -1.7124 -0.9516  2.8792
  468MPD2    H1 6969   1.809   0.941  10.937 -0.0564  0.9115  0.3894
  468MPD2    H2 6970   2.060   1.225  10.756 -0.0022  0.0192  0.7461
  468MPD2    H3 6971   1.840   1.154  10.841  0.5230 -0.3299  2.1184
  468MPD2     N 6972   2.014   0.742  10.965 -0.2273 -0.4906 -0.1542
  468MPD2    H5 6973   2.103   0.695  10.974  0.5749  0.7270 -1.7799
  468MPD2    N1 6974   2.295   1.114  10.812 -0.3658  0.2166  0.0543
  468MPD2    H7 6975   2.373   1.061  10.851 -0.6875 -0.8306 -0.7248
  469TMC3    C1 6976   2.441   1.290  10.778 -0.3278 -0.2234  0.0892
  469TMC3    C2 6977   2.471   1.289  10.911 -0.8516 -0.0740 -0.2091
  469TMC3    C3 6978   2.524   1.404  10.964  0.3902 -0.8495  0.1976
  469TMC3    C4 6979   2.454   1.411  10.717 -0.1140 -0.3222  0.4692
  469TMC3    C5 6980   2.507   1.526  10.773 -0.0472  0.2148 -0.3983
  469TMC3    C6 6981   2.562   1.520  10.895  0.7405  0.3104 -0.2583
  469TMC3     C 6982   2.317   1.226  10.734  0.1110 -0.3190  0.2039
  469TMC3     O 6983   2.254   1.260  10.630  0.0072  0.7881 -0.2972
  469TMC3     H 6984   2.458   1.200  10.971 -0.2362  1.1172  1.6795
  469TMC3    H1 6985   2.413   1.426  10.618 -1.4545 -3.0919  0.5950
  469TMC3    H2 6986   2.614   1.593  10.956 -1.3726 -0.7314  2.8570
  469TMC3    C7 6987   2.479   1.653  10.711  0.1179 -1.1324 -0.1803
  469TMC3    C8 6988   2.605   1.389  11.081 -0.2281  0.3291 -0.4630
  469TMC3    O1 6989   2.576   1.724  10.698  0.6091  0.1654 -0.4887
  469TMC3    O2 6990   2.662   1.282  11.098  0.0079  0.5087  0.5760
  470TMC3    C1 6991   3.415   1.575   1.154 -0.2208  0.3193 -0.1329
  470TMC3    C2 6992   3.498   1.680   1.161 -0.0867  0.0507  0.1842
  470TMC3    C3 6993   3.546   1.723   1.285 -0.2735 -0.2684  0.3655
  470TMC3    C4 6994   3.385   1.490   1.263 -0.1513  1.1815 -0.2048
  470TMC3    C5 6995   3.447   1.528   1.378  0.0313 -0.9480 -0.6226
  470TMC3    C6 6996   3.535   1.640   1.390  0.4128 -0.5342  0.2954
  470TMC3     C 6997   3.348   1.542   1.029 -0.2629 -0.4538  0.4288
  470TMC3     O 6998   3.412   1.573   0.929  0.6224 -0.0494  0.3737
  470TMC3     H 6999   3.537   1.725   1.070 -1.0054 -0.2266 -0.3476
  470TMC3    H1 7000   3.329   1.400   1.243  1.7576  0.3383 -1.7782
  470TMC3    H2 7001   3.584   1.673   1.481  0.9201 -0.2854 -0.0685
  470TMC3    C7 7002   3.446   1.441   1.502 -0.1682 -0.3552 -0.7274
  470TMC3    C8 7003   3.627   1.845   1.300 -1.2284 -0.1485 -0.5438
  470TMC3    O1 7004   3.505   1.485   1.604 -0.3113  0.2893  0.7327
  470TMC3    O2 7005   3.620   1.895   1.410  0.8183 -0.1094 -0.3992
  471MPD2     C 7006   4.261   3.183  16.676  0.3076  0.4268  0.6049
  471MPD2    C1 7007   4.185   3.071  16.688 -1.2864  0.5099 -0.0004
  471MPD2    C2 7008   4.160   3.027  16.815 -0.1282  0.8507 -0.5161
  471MPD2    C3 7009   4.185   3.105  16.927  1.0521  0.1706  0.3216
  471MPD2    C4 7010   4.267   3.215  16.914  0.3968 -0.4204  0.0207
  471MPD2    C5 7011   4.301   3.254  16.786 -0.6487 -0.3712  0.2432
  471MPD2     H 7012   4.091   2.944  16.824  3.5053 -2.3553 -2.1444
  471MPD2    H1 7013   4.295   3.269  17.003  0.3153 -2.3612  1.2100
  471MPD2    H2 7014   4.296   3.218  16.579 -0.4262 -0.6131 -0.0408
  471MPD2    H3 7015   4.355   3.347  16.778 -1.3907 -0.0985 -1.4979
  471MPD2     N 7016   4.147   3.071  17.059  0.3543 -0.3234  0.5412
  471MPD2    H5 7017   4.203   3.117  17.130  0.9221  3.2620 -2.2994
  471MPD2    N1 7018   4.153   2.987  16.584 -0.2042 -0.0382 -0.4485
  471MPD2    H7 7019   4.108   2.900  16.608  0.0820 -0.1434 -0.2927
  472TMC3    C1 7020   4.121   2.924  16.361  0.0194 -0.1039 -0.5635
  472TMC3    C2 7021   4.055   2.969  16.249 -0.0355  0.4734 -0.1148
  472TMC3    C3 7022   3.998   2.874  16.162  0.1393 -0.1292  0.0257
  472TMC3    C4 7023   4.121   2.788  16.397 -0.3232 -0.0266 -0.3063
  472TMC3    C5 7024   4.048   2.703  16.324 -0.3557  0.7746 -0.1114
  472TMC3    C6 7025   3.992   2.747  16.206 -0.2705 -0.0130  0.0113
  472TMC3     C 7026   4.156   3.029  16.457  0.3447  0.0620 -0.1226
  472TMC3     O 7027   4.189   3.137  16.410 -0.1963 -0.4570 -0.0247
  472TMC3     H 7028   4.053   3.072  16.216  3.0979  0.0866 -1.4916
  472TMC3    H1 7029   4.156   2.762  16.496  2.8311 -0.2800 -1.4950
  472TMC3    H2 7030   3.941   2.681  16.137 -0.3239 -0.4485  0.4675
  472TMC3    C7 7031   4.008   2.581  16.394 -0.4068 -0.2382 -0.2223
  472TMC3    C8 7032   3.875   2.903  16.096 -0.9350  0.2484 -0.5148
  472TMC3    O1 7033   4.070   2.548  16.493  0.7339  0.4446 -0.1148
  472TMC3    O2 7034   3.874   2.892  15.976  0.4369 -0.4719  0.0454
  473MPD2     C 7035   3.812   0.593  13.769 -0.3043  0.8951  0.4167
  473MPD2    C1 7036   3.757   0.708  13.722 -0.3993 -0.0462 -0.1933
  473MPD2    C2 7037   3.807   0.829  13.769  0.0812 -0.6951 -0.0575
  473MPD2    C3 7038   3.914   0.833  13.863  0.3169  0.3819 -0.2142
  473MPD2    C4 7039   3.968   0.715  13.903 -0.4082  0.2205  0.6847
  473MPD2    C5 7040   3.916   0.600  13.856  0.1695  0.1853  0.0982
  473MPD2     H 7041   3.758   0.910  13.716  2.6082  1.1998  0.4706
  473MPD2    H1 7042   4.063   0.712  13.954 -0.7690 -0.4667  1.3160
  473MPD2    H2 7043   3.785   0.496  13.728  1.4495  0.1368  1.0458
  473MPD2    H3 7044   3.960   0.507  13.889 -4.1955 -1.8438  0.2301
  473MPD2     N 7045   3.977   0.956  13.900  0.1301  0.8089  0.2269
  473MPD2    H5 7046   4.046   0.948  13.974 -0.4906 -3.6978  0.3323
  473MPD2    N1 7047   3.670   0.707  13.607 -0.0402 -0.5418  0.3247
  473MPD2    H7 7048   3.658   0.802  13.575 -2.5315 -0.7424  0.6212
  474TMC3    C1 7049   4.037   1.195  13.908  0.6573 -0.1015 -0.1193
  474TMC3    C2 7050   3.978   1.319  13.902  0.0424  0.3702  0.0504
  474TMC3    C3 7051   4.017   1.412  13.989 -0.0163  0.2432  0.6074
  474TMC3    C4 7052   4.148   1.172  13.984 -0.2040 -0.0432 -0.3256
  474TMC3    C5 7053   4.183   1.270  14.073  0.6025 -0.0628 -0.2129
  474TMC3    C6 7054   4.122   1.391  14.078  0.1478 -0.1409 -0.0260
  474TMC3     C 7055   3.956   1.083  13.851 -0.8107 -0.8514 -0.8055
  474TMC3     O 7056   3.874   1.114  13.770  0.1116 -0.0533 -0.4076
  474TMC3     H 7057   3.890   1.330  13.839  0.0056 -0.0225  0.0343
  474TMC3    H1 7058   4.192   1.074  13.978 -0.7369 -0.2681 -0.5754
  474TMC3    H2 7059   4.155   1.463  14.152 -0.0107  0.0713 -0.1600
  474TMC3    C7 7060   4.296   1.235  14.148  0.5894  0.2259  0.4634
  474TMC3    C8 7061   3.912   1.519  14.016 -0.4494  0.0110  0.6765
  474TMC3    O1 7062   4.374   1.152  14.096  0.0962 -0.3785  0.8208
  474TMC3    O2 7063   3.803   1.513  13.957 -0.9368 -0.1169  0.0797
  475MPD2     C 7064   2.930   4.022  11.098 -0.4134 -0.0099  0.1515
  475MPD2    C1 7065   2.941   3.977  10.971  0.1970 -0.4796  1.2181
  475MPD2    C2 7066   2.821   3.957  10.908 -0.1947  0.4344 -0.1993
  475MPD2    C3 7067   2.698   3.977  10.966  0.4360 -0.1401 -0.0650
  475MPD2    C4 7068   2.694   4.028  11.093 -0.2658 -0.1337  0.1219
  475MPD2    C5 7069   2.809   4.060  11.156  0.5577  0.0158  0.5788
  475MPD2     H 7070   2.820   3.923  10.805  1.5067 -1.3643  0.3868
  475MPD2    H1 7071   2.600   4.056  11.139  1.0903  1.0394  2.1470
  475MPD2    H2 7072   3.019   4.041  11.157 -0.8920  0.4561  0.7199
  475MPD2    H3 7073   2.807   4.100  11.257  1.1385 -1.6760  1.2733
  475MPD2     N 7074   2.584   3.959  10.885  0.2649 -0.8367  0.2267
  475MPD2    H5 7075   2.597   3.922  10.791  1.5296  2.6227 -0.9496
  475MPD2    N1 7076   3.066   3.953  10.915  0.0524  0.7657 -0.3791
  475MPD2    H7 7077   3.142   3.977  10.977 -0.8691 -0.5183  1.2631
  476TMC3    C1 7078   3.239   3.888  10.767 -0.4125  0.3203 -0.1712
  476TMC3    C2 7079   3.296   3.886  10.640  0.1288  0.8876 -1.2113
  476TMC3    C3 7080   3.431   3.885  10.642  0.4517 -0.2552 -0.4723
  476TMC3    C4 7081   3.317   3.876  10.879 -0.4079 -0.1962  0.6401
  476TMC3    C5 7082   3.450   3.869  10.874 -0.2376  0.7227  0.4744
  476TMC3    C6 7083   3.512   3.883  10.751  1.3824  0.0612  0.8922
  476TMC3     C 7084   3.096   3.906  10.789  0.2180  0.7564 -0.0483
  476TMC3     O 7085   3.024   3.892  10.689 -0.4827  0.4417  0.3512
  476TMC3     H 7086   3.235   3.896  10.551 -0.4697  1.8421 -0.6973
  476TMC3    H1 7087   3.277   3.854  10.977  0.4431  2.3948  1.5719
  476TMC3    H2 7088   3.620   3.891  10.751  1.5580 -2.3609  1.0505
  476TMC3    C7 7089   3.543   3.909  10.982 -0.1084 -0.4829  1.1555
  476TMC3    C8 7090   3.505   3.871  10.519  0.6959  0.4528 -0.5255
  476TMC3    O1 7091   3.662   3.903  10.958 -0.2581  0.7052  0.6530
  476TMC3    O2 7092   3.623   3.899  10.533  0.0335 -0.0104 -0.3357
  477MPD2     C 7093   0.324   1.062  12.352  0.0004 -0.4140  0.4895
  477MPD2    C1 7094   0.325   0.978  12.249  0.2767 -0.5802  0.8322
  477MPD2    C2 7095   0.340   0.839  12.275  0.9788  0.6491 -0.2853
  477MPD2    C3 7096   0.360   0.792  12.408 -0.4603  0.2694  0.7285
  477MPD2    C4 7097   0.370   0.887  12.504 -0.4640  0.0406 -0.2366
  477MPD2    C5 7098   0.339   1.021  12.477  0.4459  0.2117 -0.0354
  477MPD2     H 7099   0.335   0.766  12.195  1.0435  0.2809  0.0444
  477MPD2    H1 7100   0.399   0.856  12.603  0.6251  1.3063 -0.1658
  477MPD2    H2 7101   0.304   1.167  12.339 -1.0037 -0.5906  0.6534
  477MPD2    H3 7102   0.343   1.088  12.563 -0.5194  2.7906 -1.9981
  477MPD2     N 7103   0.363   0.655  12.450 -0.3834 -0.2565  0.5348
  477MPD2    H5 7104   0.369   0.632  12.548  0.7906 -3.2037 -0.2350
  477MPD2    N1 7105   0.311   1.027  12.122 -0.1577 -0.1436 -0.1083
  477MPD2    H7 7106   0.315   1.129  12.116 -2.0871 -0.1168 -0.8197
  478TMC3    C1 7107   0.271   1.028  11.887  0.4113 -1.2434 -0.0708
  478TMC3    C2 7108   0.205   1.145  11.896  0.9384 -0.8377 -0.0341
  478TMC3    C3 7109   0.142   1.196  11.789  0.9595 -0.3276 -0.1238
  478TMC3    C4 7110   0.278   0.969  11.766 -0.0110  0.0043  0.2210
  478TMC3    C5 7111   0.213   1.021  11.656  0.4738  0.4511  0.2024
  478TMC3    C6 7112   0.144   1.139  11.667 -0.2656 -0.4601  0.1227
  478TMC3     C 7113   0.309   0.953  12.001  0.4014  0.3618  0.3935
  478TMC3     O 7114   0.312   0.829  11.981  0.3254  0.6360 -0.0211
  478TMC3     H 7115   0.189   1.196  11.990 -0.1028 -1.0612 -0.0923
  478TMC3    H1 7116   0.337   0.878  11.758  0.0363 -0.0477  1.0959
  478TMC3    H2 7117   0.086   1.177  11.583  2.8574 -1.5228 -2.5054
  478TMC3    C7 7118   0.244   0.979  11.525  0.7165 -0.2883 -0.0911
  478TMC3    C8 7119   0.055   1.308  11.811 -0.0685 -0.1229 -0.6016
  478TMC3    O1 7120   0.336   0.899  11.516 -0.3777 -0.0960  0.0970
  478TMC3    O2 7121   0.028   1.339  11.927  0.3411  0.4361  0.0467
  479MPD2     C 7122   3.883   2.705  14.796 -0.0934 -0.2659  0.1777
  479MPD2    C1 7123   3.826   2.642  14.907 -0.1921  0.1271 -0.1505
  479MPD2    C2 7124   3.876   2.680  15.032 -0.2472  0.3896  0.0635
  479MPD2    C3 7125   3.959   2.788  15.050  0.5452  0.0547 -0.3323
  479MPD2    C4 7126   4.002   2.855  14.934 -0.1117  0.6456 -0.6699
  479MPD2    C5 7127   3.973   2.806  14.810  0.7428  0.1395  0.3947
  479MPD2     H 7128   3.842   2.616  15.112  1.0934  1.2719  1.3431
  479MPD2    H1 7129   4.073   2.933  14.956 -0.1190  1.2442 -2.7285
  479MPD2    H2 7130   3.857   2.668  14.698 -0.7491 -1.0863  0.6619
  479MPD2    H3 7131   4.023   2.852  14.726  0.3461  0.9250  0.5933
  479MPD2     N 7132   4.008   2.830  15.181 -0.3540  0.2594  0.6367
  479MPD2    H5 7133   4.077   2.905  15.175  2.0023 -1.8093  2.0489
  479MPD2    N1 7134   3.735   2.538  14.891  0.5035  0.1172  0.7785
  479MPD2    H7 7135   3.718   2.508  14.796 -0.2928 -0.9005  1.2458
  480TMC3    C1 7136   3.676   2.652  15.469  0.1359  0.3811  0.9658
  480TMC3    C2 7137   3.573   2.711  15.394  0.2981  0.3748  0.4048
  480TMC3    C3 7138   3.606   2.798  15.296 -0.2492  0.1450  0.0314
  480TMC3    C4 7139   3.804   2.661  15.433  0.4833 -0.1609 -0.4482
  480TMC3    C5 7140   3.833   2.744  15.325  0.2054 -0.4100  0.1902
  480TMC3    C6 7141   3.737   2.818  15.263 -0.1072  0.6463  0.4989
  480TMC3     C 7142   3.643   2.550  15.566 -0.4593 -0.0768 -0.4144
  480TMC3     O 7143   3.538   2.488  15.551 -0.0562  0.3482  0.3158
  480TMC3     H 7144   3.473   2.685  15.427  0.4724 -0.9432 -0.1112
  480TMC3    H1 7145   3.885   2.609  15.482 -0.4418 -0.9312  0.2688
  480TMC3    H2 7146   3.773   2.893  15.193  3.6967 -0.6783  1.0264
  480TMC3    C7 7147   3.973   2.781  15.303  0.4241 -0.6728 -0.3878
  480TMC3    C8 7148   3.512   2.815  15.190 -0.1307  0.5361 -0.4808
  480TMC3    O1 7149   4.038   2.774  15.403  0.3591 -0.5414  0.1402
  480TMC3    O2 7150   3.396   2.784  15.214  0.3612  0.1617 -0.3525
  481MPD2     C 7151   0.883   2.239  14.156  1.0700 -0.1448 -0.3732
  481MPD2    C1 7152   0.750   2.210  14.145  0.1401  0.2732  0.0879
  481MPD2    C2 7153   0.692   2.144  14.254  0.0961  0.2861  0.5251
  481MPD2    C3 7154   0.765   2.103  14.366 -0.0537 -0.1082  0.4187
  481MPD2    C4 7155   0.897   2.141  14.375  0.4874  0.6089 -0.2298
  481MPD2    C5 7156   0.956   2.205  14.266 -0.6278 -0.2393 -0.1051
  481MPD2     H 7157   0.584   2.145  14.267 -0.0728  2.5093 -1.1026
  481MPD2    H1 7158   0.965   2.115  14.456 -1.7945 -3.9792  0.2031
  481MPD2    H2 7159   0.938   2.298  14.084 -0.3434 -0.1238 -1.4129
  481MPD2    H3 7160   1.063   2.221  14.262 -0.8330  0.9932 -0.9456
  481MPD2     N 7161   0.708   2.064  14.485  0.1734 -0.3052 -0.0726
  481MPD2    H5 7162   0.757   2.051  14.573  3.0603  4.6757 -0.9483
  481MPD2    N1 7163   0.674   2.263  14.038  0.0477 -0.4596 -0.3983
  481MPD2    H7 7164   0.720   2.320  13.968  0.8640 -0.2608  0.2999
  482TMC3    C1 7165   0.482   2.308  13.902 -0.0996  0.0534 -0.7509
  482TMC3    C2 7166   0.348   2.306  13.885  0.3531 -0.0862 -0.5365
  482TMC3    C3 7167   0.298   2.302  13.756 -0.4296  0.6225 -0.6934
  482TMC3    C4 7168   0.568   2.325  13.794  0.1495  0.6648 -0.3987
  482TMC3    C5 7169   0.518   2.316  13.674  0.2621 -0.4749  0.5303
  482TMC3    C6 7170   0.383   2.304  13.645 -0.4985  0.0442  0.1190
  482TMC3     C 7171   0.539   2.247  14.025  0.6027  0.8229  0.0198
  482TMC3     O 7172   0.455   2.197  14.091  0.1209  0.5098 -0.0814
  482TMC3     H 7173   0.279   2.277  13.964  1.1762  0.0153  0.2190
  482TMC3    H1 7174   0.676   2.327  13.811  0.1925  1.1895 -0.7731
  482TMC3    H2 7175   0.340   2.305  13.546  0.1311  2.5522 -0.1295
  482TMC3    C7 7176   0.611   2.353  13.568  0.1987  0.4354  0.7734
  482TMC3    C8 7177   0.183   2.218  13.743 -0.2446  1.0103 -1.0404
  482TMC3    O1 7178   0.735   2.352  13.579  0.2122  0.8414 -0.4344
  482TMC3    O2 7179   0.181   2.129  13.824  0.0700 -0.7366 -0.0446
  483TMC3    C1 7180   3.363   0.903   1.296  0.5180 -0.0249 -0.7006
  483TMC3    C2 7181   3.413   1.028   1.255 -0.2336  0.2908  0.5274
  483TMC3    C3 7182   3.533   1.060   1.310 -0.1431  0.1732 -0.0309
  483TMC3    C4 7183   3.428   0.825   1.387  0.1207 -0.0653 -0.2394
  483TMC3    C5 7184   3.547   0.864   1.430  0.5274 -0.0100  0.0201
  483TMC3    C6 7185   3.599   0.985   1.398  0.1325 -0.3406  0.8829
  483TMC3     C 7186   3.214   0.902   1.285  0.0426 -0.3546  0.8422
  483TMC3     O 7187   3.155   1.008   1.271  0.3600 -0.1141  0.4798
  483TMC3     H 7188   3.353   1.089   1.189 -0.4457  1.3330  1.6697
  483TMC3    H1 7189   3.371   0.742   1.427 -0.3922  1.0208  1.2715
  483TMC3    H2 7190   3.704   0.997   1.422 -0.3583  1.1030  2.3074
  483TMC3    C7 7191   3.605   0.780   1.536  0.2756  0.2647 -0.6897
  483TMC3    C8 7192   3.587   1.182   1.261  0.6897  0.0908  0.4817
  483TMC3    O1 7193   3.584   0.657   1.530 -0.7082 -0.0218 -0.4996
  483TMC3    O2 7194   3.514   1.240   1.182 -0.1762  0.5582 -0.5810
  484MPD2     C 7195   0.978   4.408  12.527 -0.3131  0.1550 -0.5022
  484MPD2    C1 7196   1.032   4.298  12.585 -0.1074 -0.9263  0.6752
  484MPD2    C2 7197   1.163   4.263  12.549  0.8540 -0.1774  0.5096
  484MPD2    C3 7198   1.244   4.349  12.473  0.1863 -0.2932  0.1026
  484MPD2    C4 7199   1.185   4.462  12.420  1.1026 -0.4649  0.9291
  484MPD2    C5 7200   1.054   4.485  12.446 -0.1134  0.1613  0.1664
  484MPD2     H 7201   1.211   4.170  12.578  0.3292 -1.0324 -1.3672
  484MPD2    H1 7202   1.240   4.526  12.353  0.4902 -0.0209  0.8549
  484MPD2    H2 7203   0.872   4.428  12.540 -0.5293 -1.5270  0.2397
  484MPD2    H3 7204   1.006   4.567  12.393  1.1482  1.0405  0.3860
  484MPD2     N 7205   1.376   4.327  12.440  1.1258 -0.6511  0.1755
  484MPD2    H5 7206   1.429   4.410  12.414 -2.3019  1.3765 -0.2811
  484MPD2    N1 7207   0.953   4.216  12.674  0.0385  0.1037  0.1919
  484MPD2    H7 7208   0.856   4.243  12.686  0.0325  0.5484 -0.8561
  485TMC3    C1 7209   1.579   4.247  12.429 -0.3082  0.5642  0.1623
  485TMC3    C2 7210   1.668   4.167  12.499  0.6546  0.6157  0.1259
  485TMC3    C3 7211   1.790   4.219  12.513 -0.5577 -0.0570 -0.1324
  485TMC3    C4 7212   1.613   4.359  12.375 -0.1865  0.4285 -0.4037
  485TMC3    C5 7213   1.739   4.391  12.367  0.5625  0.4718  0.3122
  485TMC3    C6 7214   1.830   4.338  12.452  0.3033 -0.9110  0.1685
  485TMC3     C 7215   1.447   4.210  12.449 -0.5114  0.1555 -0.3542
  485TMC3     O 7216   1.423   4.098  12.490 -0.0584 -0.1461  0.3790
  485TMC3     H 7217   1.646   4.061  12.512 -0.1589  0.7181 -0.3865
  485TMC3    H1 7218   1.542   4.424  12.325  1.3063  1.0479 -1.6925
  485TMC3    H2 7219   1.935   4.366  12.447  0.4647 -1.8732 -1.6293
  485TMC3    C7 7220   1.799   4.418  12.237  0.2931 -0.1085 -0.6213
  485TMC3    C8 7221   1.905   4.126  12.521  0.0933 -0.0661  0.3059
  485TMC3    O1 7222   1.818   4.537  12.203 -0.2940  0.8198 -0.0785
  485TMC3    O2 7223   1.997   4.160  12.450 -0.3850 -0.5569  0.7695
  486MPD2     C 7224   2.628   2.748  12.940  0.1177  1.1203 -0.1100
  486MPD2    C1 7225   2.678   2.765  12.808  0.0717  0.4788  0.0224
  486MPD2    C2 7226   2.705   2.893  12.766 -0.1150  0.3790 -0.0266
  486MPD2    C3 7227   2.676   3.006  12.834  0.3218 -0.5277  0.1908
  486MPD2    C4 7228   2.613   2.987  12.959  0.4748  0.4634 -0.6005
  486MPD2    C5 7229   2.586   2.857  13.005  0.2469 -0.2092  0.4428
  486MPD2     H 7230   2.762   2.913  12.676 -0.0489  1.6379  0.3029
  486MPD2    H1 7231   2.584   3.070  13.022 -0.4092 -2.3576  2.7058
  486MPD2    H2 7232   2.606   2.653  12.987 -1.2496 -0.2523 -3.4601
  486MPD2    H3 7233   2.536   2.847  13.101 -0.5303 -1.3245 -0.0773
  486MPD2     N 7234   2.725   3.124  12.781 -0.5671 -0.5059  0.5174
  486MPD2    H5 7235   2.760   3.122  12.686  1.9090  3.8399  1.3355
  486MPD2    N1 7236   2.727   2.646  12.753  0.5697  0.4817  0.4989
  486MPD2    H7 7237   2.709   2.558  12.801  0.2925  1.0852  1.5088
  487TMC3    C1 7238   2.887   2.522  12.665 -0.0729  0.8036 -0.4517
  487TMC3    C2 7239   2.822   2.413  12.720 -0.3452 -0.4767  0.3226
  487TMC3    C3 7240   2.888   2.332  12.809 -0.8288 -0.5888  0.0841
  487TMC3    C4 7241   3.012   2.554  12.714 -0.1925  0.3206 -0.1949
  487TMC3    C5 7242   3.081   2.463  12.794 -0.2010 -0.4988 -0.6309
  487TMC3    C6 7243   3.020   2.349  12.831 -0.1245 -0.0845  0.3490
  487TMC3     C 7244   2.806   2.636  12.644  0.1884 -0.3411  0.4926
  487TMC3     O 7245   2.842   2.709  12.552  0.1759 -0.1294  0.6357
  487TMC3     H 7246   2.715   2.396  12.709 -0.7012  1.5542  0.6343
  487TMC3    H1 7247   3.038   2.659  12.700 -0.1013  0.2533 -0.5372
  487TMC3    H2 7248   3.037   2.317  12.933 -1.1348 -0.1345  0.4947
  487TMC3    C7 7249   3.161   2.531  12.901 -0.1744 -0.0856  0.0260
  487TMC3    C8 7250   2.804   2.294  12.919 -0.5252 -0.3914  0.1419
  487TMC3    O1 7251   3.174   2.470  13.008 -0.5574  0.0473  0.5267
  487TMC3    O2 7252   2.710   2.368  12.944 -0.0761 -0.0455 -0.7079
  488MPD2     C 7253   3.596   4.127  16.523  0.1495 -0.3744  0.0597
  488MPD2    C1 7254   3.575   4.255  16.583 -0.0891 -0.4890 -0.1678
  488MPD2    C2 7255   3.541   4.247  16.711  0.2076 -0.1581 -0.1870
  488MPD2    C3 7256   3.512   4.136  16.787 -0.4081  0.0955 -0.1062
  488MPD2    C4 7257   3.514   4.015  16.716 -0.5770  0.6375  0.5858
  488MPD2    C5 7258   3.554   4.011  16.587 -0.3862 -0.4430  0.1910
  488MPD2     H 7259   3.536   4.343  16.762 -0.3019  1.3912 -3.1561
  488MPD2    H1 7260   3.479   3.925  16.767 -1.8530  0.2647 -0.9540
  488MPD2    H2 7261   3.634   4.115  16.422  0.1296 -0.6683  0.0884
  488MPD2    H3 7262   3.547   3.919  16.530  1.4875 -0.7025  0.3705
  488MPD2     N 7263   3.471   4.152  16.924  0.0001  0.1918 -0.2014
  488MPD2    H5 7264   3.492   4.240  16.969  0.2010  0.1447 -0.2026
  488MPD2    N1 7265   3.617   4.377  16.535  0.9471 -0.1715  0.6443
  488MPD2    H7 7266   3.606   4.451  16.603 -1.4502 -0.9988  1.1702
  489TMC3    C1 7267   3.368   4.131  17.129  0.6406  0.1400  0.7678
  489TMC3    C2 7268   3.441   4.243  17.166  0.1237  0.1549 -0.1111
  489TMC3    C3 7269   3.453   4.278  17.296  0.2114  0.9301 -0.2607
  489TMC3    C4 7270   3.316   4.050  17.222  0.0301 -0.3495  0.2370
  489TMC3    C5 7271   3.327   4.097  17.355  0.4852  0.2242 -0.7093
  489TMC3    C6 7272   3.398   4.207  17.393  0.1996  1.0768 -0.2302
  489TMC3     C 7273   3.396   4.067  17.001 -0.6639 -0.0486 -0.3064
  489TMC3     O 7274   3.342   3.963  16.979 -0.2980  0.2939  0.1776
  489TMC3     H 7275   3.462   4.316  17.088  0.2830 -0.4005 -0.5901
  489TMC3    H1 7276   3.258   3.962  17.197 -0.1606 -0.0024 -0.5570
  489TMC3    H2 7277   3.405   4.238  17.497  0.2261 -0.6069  0.2763
  489TMC3    C7 7278   3.275   4.002  17.462 -0.6176  0.9327 -0.0483
  489TMC3    C8 7279   3.492   4.410  17.328 -0.0008  0.1243 -0.0966
  489TMC3    O1 7280   3.241   4.057  17.566 -0.1310  0.5194  0.0393
  489TMC3    O2 7281   3.563   4.464  17.246 -0.1935  0.0342  0.2168
  490MPD2     C 7282   4.287   4.078  17.648  0.1538  0.1146  0.5958
  490MPD2    C1 7283   4.241   3.998   0.049  0.3601  0.3334  1.0932
  490MPD2    C2 7284   4.324   3.930   0.132 -0.2331 -0.3537  0.4555
  490MPD2    C3 7285   4.463   3.927   0.103  0.0248 -0.2495  0.4979
  490MPD2    C4 7286   4.508   4.008  17.697  0.1223  0.0140  0.4869
  490MPD2    C5 7287   4.419   4.088  17.627 -0.3895 -0.1906  0.5923
  490MPD2     H 7288   4.278   3.884   0.218  1.6077 -0.7538  1.2334
  490MPD2    H1 7289   4.615   4.016  17.680  0.4016 -2.5418  1.0920
  490MPD2    H2 7290   4.218   4.139  17.591  1.4928  2.2675  1.2794
  490MPD2    H3 7291   4.461   4.134  17.539 -0.7755  1.3787  1.2237
  490MPD2     N 7292   4.559   3.850   0.174 -0.1090  0.2928  0.4181
  490MPD2    H5 7293   4.651   3.848   0.131 -0.5127  1.5600 -0.4850
  490MPD2    N1 7294   4.105   3.966   0.072  0.5113 -0.0496 -0.3543
  490MPD2    H7 7295   4.088   3.898   0.145 -2.6985  0.4212 -0.6726
  491TMC3    C1 7296   3.906   3.876   0.005 -0.1828  0.4008 -0.1731
  491TMC3    C2 7297   3.908   3.822   0.126 -0.3428 -0.1468 -0.2133
  491TMC3    C3 7298   3.861   3.695   0.129  0.0303 -0.1143 -0.2056
  491TMC3    C4 7299   3.867   3.817  17.589 -0.4402 -0.7876  0.0812
  491TMC3    C5 7300   3.805   3.697  17.604 -1.1767 -0.1646 -0.0760
  491TMC3    C6 7301   3.816   3.626   0.025  0.7748  0.8900 -0.2443
  491TMC3     C 7302   3.999   3.986  17.688 -0.3958 -0.8064 -1.0021
  491TMC3     O 7303   3.987   4.050  17.586 -0.6681  0.0858  0.4515
  491TMC3     H 7304   3.918   3.882   0.215 -2.2080  1.1254 -0.8573
  491TMC3    H1 7305   3.858   3.868  17.494 -0.0582 -0.7711  0.0533
  491TMC3    H2 7306   3.744   3.545   0.027 -0.2101  1.7759  0.3322
  491TMC3    C7 7307   3.769   3.619  17.487  0.2264 -0.3169  0.3532
  491TMC3    C8 7308   3.814   3.658   0.261  0.2077 -0.2207  0.0919
  491TMC3    O1 7309   3.775   3.493  17.485 -0.4260  0.3166 -0.1566
  491TMC3    O2 7310   3.814   3.742   0.347 -0.3625  0.3882  0.5152
  492MPD2     C 7311   0.640   3.667  11.038 -0.0567  0.2053  0.7663
  492MPD2    C1 7312   0.518   3.603  11.005  0.0032 -0.3314  0.0914
  492MPD2    C2 7313   0.432   3.547  11.101 -0.4538 -0.0120  0.1189
  492MPD2    C3 7314   0.466   3.566  11.237  0.0789  0.2857 -0.5145
  492MPD2    C4 7315   0.581   3.639  11.268  0.2993 -0.1204  0.4043
  492MPD2    C5 7316   0.668   3.688  11.167  0.1890 -0.7608  0.1521
  492MPD2     H 7317   0.345   3.484  11.088 -1.2836  0.6599  2.4701
  492MPD2    H1 7318   0.610   3.652  11.372  0.0153  0.9990  0.3411
  492MPD2    H2 7319   0.698   3.718  10.962 -0.7229  1.7075  1.2720
  492MPD2    H3 7320   0.763   3.725  11.205  0.1851 -1.2391  0.6418
  492MPD2     N 7321   0.392   3.526  11.353 -0.2881  0.5368 -0.0175
  492MPD2    H5 7322   0.429   3.545  11.445  1.0602 -0.4580 -0.3616
  492MPD2    N1 7323   0.487   3.607  10.865  0.6482 -0.9310 -0.2286
  492MPD2    H7 7324   0.547   3.675  10.819 -0.5432 -0.3332 -0.9124
  493TMC3    C1 7325   0.363   3.613  10.667  0.0813  0.0557 -0.4076
  493TMC3    C2 7326   0.466   3.672  10.607  0.1499 -0.4785  0.1668
  493TMC3    C3 7327   0.441   3.755  10.495 -0.2575  0.2331  0.0066
  493TMC3    C4 7328   0.242   3.616  10.617 -0.3182 -0.1311 -0.4560
  493TMC3    C5 7329   0.217   3.701  10.512 -0.4027 -0.0276  0.0965
  493TMC3    C6 7330   0.315   3.774  10.448 -0.2227  0.3182  0.0959
  493TMC3     C 7331   0.369   3.569  10.805  0.5000  0.2392 -0.0283
  493TMC3     O 7332   0.277   3.508  10.859 -0.4252 -0.7311  0.1827
  493TMC3     H 7333   0.567   3.661  10.645  0.9886 -0.9519 -2.1950
  493TMC3    H1 7334   0.159   3.570  10.670  0.7149 -2.3401 -0.7737
  493TMC3    H2 7335   0.303   3.822  10.352  2.4243  3.1585  1.1687
  493TMC3    C7 7336   0.079   3.722  10.474 -0.0023 -0.1652 -0.1743
  493TMC3    C8 7337   0.549   3.848  10.468  0.2710  0.1077 -0.5255
  493TMC3    O1 7338   0.004   3.642  10.524  0.4027 -0.1634 -0.0069
  493TMC3    O2 7339   0.639   3.848  10.557 -0.5982  0.0199 -0.3140
  494TMC3    C1 7340   0.247   0.923   1.002 -0.0202  0.1829  0.5840
  494TMC3    C2 7341   0.256   0.792   0.984  0.1153  0.3299 -0.0397
  494TMC3    C3 7342   0.262   0.738   0.860  0.3307 -0.7613 -0.1266
  494TMC3    C4 7343   0.237   1.006   0.893 -0.0713  0.6413 -0.5460
  494TMC3    C5 7344   0.231   0.949   0.765  0.0013 -0.2566 -0.0315
  494TMC3    C6 7345   0.254   0.813   0.747 -0.2550  0.1035 -0.0095
  494TMC3     C 7346   0.174   0.971   1.118 -0.3327 -0.3676  0.2828
  494TMC3     O 7347   0.081   1.049   1.093  0.1914  0.9591 -0.0169
  494TMC3     H 7348   0.248   0.721   1.066 -3.8700  0.3316 -0.4392
  494TMC3    H1 7349   0.223   1.112   0.907  2.3638  0.9057 -0.0301
  494TMC3    H2 7350   0.252   0.767   0.649  1.0112 -1.1135  0.5343
  494TMC3    C7 7351   0.232   1.023   0.640 -0.5871  0.2341  0.0776
  494TMC3    C8 7352   0.241   0.597   0.852 -0.3117 -0.3029  0.1954
  494TMC3    O1 7353   0.307   0.969   0.559 -0.2012  0.1241 -0.4904
  494TMC3    O2 7354   0.212   0.530   0.946 -0.2877  0.5456 -0.3848
  495TMC3    C1 7355   3.866   2.992  14.359  0.0559 -0.5340  0.5334
  495TMC3    C2 7356   3.771   3.033  14.271  0.0303  0.1003  0.4552
  495TMC3    C3 7357   3.687   3.135  14.303 -0.1494 -0.7596 -0.2807
  495TMC3    C4 7358   3.883   3.057  14.475  0.5738 -0.0312  0.2566
  495TMC3    C5 7359   3.785   3.140  14.514  0.1519 -0.7493 -0.0733
  495TMC3    C6 7360   3.681   3.179  14.428  0.1519 -0.2937  0.5311
  495TMC3     C 7361   3.851   2.851  14.379 -0.5314 -0.6954  0.4479
  495TMC3     O 7362   3.737   2.810  14.362  0.0195  0.0987  0.0011
  495TMC3     H 7363   3.759   2.960  14.192  1.2105  1.8639 -1.3624
  495TMC3    H1 7364   3.933   3.000  14.552 -2.9207 -1.8768  1.1615
  495TMC3    H2 7365   3.606   3.255  14.446  1.7566  0.8746  2.2861
  495TMC3    C7 7366   3.731   3.101  14.646 -0.5710 -0.1817 -0.5262
  495TMC3    C8 7367   3.547   3.107  14.269 -0.2925  0.3066  0.2957
  495TMC3    O1 7368   3.811   3.072  14.740  0.1118 -0.2354  0.0278
  495TMC3    O2 7369   3.479   3.064  14.360  0.0028  0.3912 -0.5485
  496MPD2     C 7370   0.420   1.921  15.340  0.2372  0.6925 -0.2654
  496MPD2    C1 7371   0.457   2.045  15.391  0.3555  0.4854  0.0713
  496MPD2    C2 7372   0.446   2.078  15.523 -0.1768 -0.4125 -0.2069
  496MPD2    C3 7373   0.404   1.983  15.610  0.1851  1.0568 -0.2905
  496MPD2    C4 7374   0.356   1.864  15.559  0.0621  0.7799 -0.1988
  496MPD2    C5 7375   0.358   1.837  15.424 -0.0740  0.5303 -0.0912
  496MPD2     H 7376   0.489   2.169  15.562  0.1289 -0.4389 -0.4870
  496MPD2    H1 7377   0.310   1.795  15.628  0.3645  2.5013  1.7363
  496MPD2    H2 7378   0.427   1.890  15.236  1.4157 -1.8360  0.5610
  496MPD2    H3 7379   0.309   1.747  15.390  0.0507 -0.8083  3.2560
  496MPD2     N 7380   0.420   2.001  15.750  0.3851  0.4630 -0.1153
  496MPD2    H5 7381   0.407   1.925  15.816 -0.4425  0.8900  0.2197
  496MPD2    N1 7382   0.540   2.126  15.311 -0.5478 -0.2552  0.7086
  496MPD2    H7 7383   0.588   2.082  15.233 -1.6693  2.2358 -1.4175
  497TMC3    C1 7384   0.473   2.134  15.942  0.1953 -0.2087  0.2569
  497TMC3    C2 7385   0.544   2.024  15.989 -0.1766 -0.3160 -0.7820
  497TMC3    C3 7386   0.594   2.039  16.108 -0.0449  0.5410 -0.5471
  497TMC3    C4 7387   0.463   2.255  16.006  0.1054  0.5965  0.0756
  497TMC3    C5 7388   0.515   2.258  16.127  0.0865  0.3065 -0.6836
  497TMC3    C6 7389   0.585   2.155  16.177 -0.5612  0.6676 -0.8450
  497TMC3     C 7390   0.422   2.128  15.811 -0.3839 -1.1462 -0.7286
  497TMC3     O 7391   0.386   2.233  15.762  0.1177 -0.2815  0.4864
  497TMC3     H 7392   0.571   1.930  15.943  1.4010 -0.4274  0.3809
  497TMC3    H1 7393   0.415   2.345  15.966 -1.0001 -0.7325 -1.5914
  497TMC3    H2 7394   0.620   2.171  16.278 -0.6776 -1.9721 -0.3911
  497TMC3    C7 7395   0.510   2.382  16.201  0.4065 -0.3570  0.7223
  497TMC3    C8 7396   0.647   1.923  16.176  0.0309 -0.6394  0.0095
  497TMC3    O1 7397   0.399   2.434  16.204 -0.0674 -0.0213  0.7888
  497TMC3    O2 7398   0.586   1.818  16.156 -0.6586  0.1382 -0.1378
  498MPD2     C 7399   2.181   3.634   9.632  0.1217 -0.0192 -0.1352
  498MPD2    C1 7400   2.156   3.496   9.630  0.3670  0.2435  0.1315
  498MPD2    C2 7401   2.082   3.429   9.729  0.2371 -0.1798  0.3329
  498MPD2    C3 7402   2.036   3.503   9.834  0.1782 -0.6101 -0.3889
  498MPD2    C4 7403   2.052   3.640   9.832 -0.3018 -0.3365 -0.0100
  498MPD2    C5 7404   2.124   3.707   9.734  0.8980 -0.5314  0.0811
  498MPD2     H 7405   2.081   3.321   9.719 -1.3847 -0.2302  0.8895
  498MPD2    H1 7406   2.011   3.698   9.914  0.1391  0.2795 -0.2307
  498MPD2    H2 7407   2.244   3.691   9.564 -0.5177  0.7857 -0.0603
  498MPD2    H3 7408   2.138   3.815   9.736 -0.1875 -0.4082  0.9713
  498MPD2     N 7409   1.961   3.438   9.936  0.3507  0.1844 -0.6553
  498MPD2    H5 7410   1.952   3.338   9.927  0.6532  0.0458  0.5992
  498MPD2    N1 7411   2.222   3.415   9.533  0.3895  0.0983 -0.1511
  498MPD2    H7 7412   2.199   3.316   9.535  2.5211 -0.4495 -2.9930
  499TMC3    C1 7413   2.388   3.339   9.390  0.2010  0.4556  0.0379
  499TMC3    C2 7414   2.321   3.222   9.391  0.4523 -0.0327 -0.2866
  499TMC3    C3 7415   2.402   3.111   9.409  0.0998 -0.1382 -0.4843
  499TMC3    C4 7416   2.523   3.346   9.392  0.0990  0.6017 -0.0764
  499TMC3    C5 7417   2.598   3.235   9.431 -0.6558 -0.7962  0.1360
  499TMC3    C6 7418   2.533   3.117   9.438  0.4715  0.3914 -0.4048
  499TMC3     C 7419   2.318   3.454   9.449 -0.0647  0.1729  0.9077
  499TMC3     O 7420   2.384   3.554   9.457  0.2456 -0.6217  0.3441
  499TMC3     H 7421   2.215   3.215   9.369  0.1191 -1.9117  1.9242
  499TMC3    H1 7422   2.573   3.442   9.386  1.1722  0.0166 -0.5451
  499TMC3    H2 7423   2.590   3.026   9.454  0.1151  0.0995 -0.7876
  499TMC3    C7 7424   2.740   3.249   9.436 -0.1678  0.2144  0.3378
  499TMC3    C8 7425   2.347   2.983   9.382  0.6122 -0.2721 -0.1468
  499TMC3    O1 7426   2.784   3.340   9.367  0.2626 -0.4953  0.1292
  499TMC3    O2 7427   2.423   2.896   9.339 -0.0481  0.4403 -0.0265
  500MPD2     C 7428   4.098   0.025  10.887  0.4831 -0.0642  0.2231
  500MPD2    C1 7429   4.158   4.685  10.779 -0.4346 -0.1089 -0.4517
  500MPD2    C2 7430   4.075   4.625  10.689 -0.0035  1.3123 -0.2600
  500MPD2    C3 7431   3.937   4.619  10.707 -1.1659  0.2860 -0.3611
  500MPD2    C4 7432   3.885   4.675  10.823  0.1395  0.2730 -0.0241
  500MPD2    C5 7433   3.969   0.004  10.915  0.4214  0.5130 -0.2498
  500MPD2     H 7434   4.114   4.581  10.598  1.1656 -2.6898  2.1999
  500MPD2    H1 7435   3.778   4.670  10.837 -0.0486  1.5565 -1.0137
  500MPD2    H2 7436   4.153   0.068  10.970  0.6195  0.8425 -0.3355
  500MPD2    H3 7437   3.925   0.051  11.002 -1.0413 -1.7047  0.2003
  500MPD2     N 7438   3.850   4.537  10.632  0.5706 -0.1053 -0.0791
  500MPD2    H5 7439   3.754   4.542  10.663  0.3104  2.4074 -1.2415
  500MPD2    N1 7440   4.298   4.706  10.748 -0.0140  0.2414  0.2778
  500MPD2    H7 7441   4.331   4.687  10.654 -0.9371 -0.5084  0.1022
  501TMC3    C1 7442   4.512   0.055  10.757  0.7632  0.4368 -0.7974
  501TMC3    C2 7443   4.511   0.140  10.649  0.2646  0.5268 -0.1842
  501TMC3    C3 7444   4.630   0.203  10.620 -0.0739  0.2208 -0.3264
  501TMC3    C4 7445   4.620   0.052  10.843  0.1984  0.5315  0.1810
  501TMC3    C5 7446   0.005   0.111  10.812  0.4133 -0.1602 -0.1205
  501TMC3    C6 7447   0.022   0.183  10.697 -0.3469 -0.3732  0.2350
  501TMC3     C 7448   4.390   0.038  10.829 -0.0048 -0.6557  0.2228
  501TMC3     O 7449   4.381   0.053  10.950  0.1169 -0.2148 -0.2954
  501TMC3     H 7450   4.418   0.146  10.593  0.2268  0.7055 -0.1020
  501TMC3    H1 7451   4.620   4.720  10.935 -0.1790  1.3832  0.7139
  501TMC3    H2 7452   0.109   0.243  10.673  0.0543 -0.8923  0.3901
  501TMC3    C7 7453   0.114   0.110  10.911 -0.2412  0.0270 -0.5220
  501TMC3    C8 7454   4.607   0.343  10.580  0.9461 -0.0086 -0.0091
  501TMC3    O1 7455   0.085   0.061  11.017  0.3085 -0.6673 -0.1386
  501TMC3    O2 7456   4.673   0.429  10.640 -0.2961  0.1305  0.3308
  502TMC3    C1 7457   3.269   3.750  15.064 -0.3692 -0.9675  0.7005
  502TMC3    C2 7458   3.234   3.876  15.079 -0.0261 -0.8556  0.0429
  502TMC3    C3 7459   3.096   3.899  15.057  0.1103 -0.6960 -0.0453
  502TMC3    C4 7460   3.197   3.653  15.010  0.3693  0.3887  0.3672
  502TMC3    C5 7461   3.061   3.681  14.990  0.7923 -0.2680  0.4285
  502TMC3    C6 7462   3.009   3.807  15.010 -0.1659  0.0710  0.1211
  502TMC3     C 7463   3.382   3.714  15.138 -0.0204  0.2709 -0.0252
  502TMC3     O 7464   3.477   3.795  15.144 -0.0787 -0.4601  0.1576
  502TMC3     H 7465   3.290   3.945  15.141 -1.8357 -0.5216  1.3141
  502TMC3    H1 7466   3.232   3.550  15.005  1.1085  0.5815  1.5722
  502TMC3    H2 7467   2.904   3.832  14.997 -0.0491 -0.1424 -1.2883
  502TMC3    C7 7468   2.970   3.568  14.985 -0.8912 -0.0851 -0.6715
  502TMC3    C8 7469   3.063   4.037  15.042 -0.0232  0.4758 -0.0740
  502TMC3    O1 7470   3.010   3.470  14.929 -0.7341  0.0522 -0.5240
  502TMC3    O2 7471   3.160   4.112  15.040 -0.6644  0.1778 -0.3868
  503MPD2     C 7472   0.367   4.156  17.414 -0.4857 -0.8231 -0.7673
  503MPD2    C1 7473   0.418   4.197  17.529 -0.4931 -0.0711 -0.1135
  503MPD2    C2 7474   0.506   4.125  17.592  0.0566 -0.5654  0.1670
  503MPD2    C3 7475   0.551   4.004  17.540  0.2471 -0.1465  0.2588
  503MPD2    C4 7476   0.506   3.958  17.420  0.5700  0.0269 -0.2684
  503MPD2    C5 7477   0.402   4.031  17.363 -0.2229 -0.1490  0.4369
  503MPD2     H 7478   0.538   4.161  17.689 -1.2460 -0.7638  0.6777
  503MPD2    H1 7479   0.535   3.862  17.377 -2.0335 -0.7434 -0.3379
  503MPD2    H2 7480   0.300   4.214  17.351  2.5598  0.6896 -2.6372
  503MPD2    H3 7481   0.353   3.990  17.276  1.5993 -0.8624 -0.2456
  503MPD2     N 7482   0.654   3.935  17.612 -0.1041 -0.5401  0.2354
  503MPD2    H5 7483   0.692   3.985  17.692 -0.0763 -2.2450  1.2730
  503MPD2    N1 7484   0.383   4.325  17.581 -0.7304 -0.2253  0.7289
  503MPD2    H7 7485   0.431   4.341  17.669 -1.8497 -0.7592  1.4272
  504TMC3    C1 7486   0.796   3.762  17.674  0.0738  0.7277  0.0304
  504TMC3    C2 7487   0.795   3.635   0.029 -0.6137 -0.1567 -0.0264
  504TMC3    C3 7488   0.900   3.597   0.105 -0.5146  0.2486  0.5452
  504TMC3    C4 7489   0.896   3.849  17.701 -0.6046 -0.1787  0.4055
  504TMC3    C5 7490   1.006   3.801   0.068  0.4002  0.3195 -0.0480
  504TMC3    C6 7491   1.006   3.679   0.120  0.0570 -0.0033  0.4365
  504TMC3     C 7492   0.690   3.804  17.587 -0.4258 -0.3215  0.0113
  504TMC3     O 7493   0.642   3.711  17.522 -0.4071  0.2481  0.4693
  504TMC3     H 7494   0.724   3.559  17.700 -2.5355  1.8542 -0.5708
  504TMC3    H1 7495   0.894   3.943  17.646  0.8608  0.6038  1.6737
  504TMC3    H2 7496   1.100   3.650   0.165 -0.2155  0.5454  1.3760
  504TMC3    C7 7497   1.117   3.839  17.686 -0.0195  0.6059  0.5606
  504TMC3    C8 7498   0.896   3.462   0.166  0.1694  0.1830  1.1529
  504TMC3    O1 7499   1.098   3.874  17.570  0.3255  0.4187  1.0039
  504TMC3    O2 7500   0.837   3.373   0.104  0.4053 -0.5363 -0.2639
  505MPD2     C 7501   1.621   2.439  10.880 -0.0128 -0.2070  0.4209
  505MPD2    C1 7502   1.523   2.450  10.781  0.1951 -0.2012  0.5474
  505MPD2    C2 7503   1.540   2.392  10.660 -0.1733 -0.1285  0.6452
  505MPD2    C3 7504   1.650   2.313  10.636  0.2390  0.3912  0.9401
  505MPD2    C4 7505   1.748   2.296  10.736 -0.3218 -0.2529 -1.1184
  505MPD2    C5 7506   1.729   2.366  10.854  0.8203 -0.0225  0.2539
  505MPD2     H 7507   1.466   2.405  10.581 -3.4857 -2.3981  3.3690
  505MPD2    H1 7508   1.837   2.235  10.725 -0.8403 -1.1044 -0.6531
  505MPD2    H2 7509   1.617   2.496  10.972  0.2774 -2.5656  1.9058
  505MPD2    H3 7510   1.809   2.359  10.927 -0.0239 -1.3479  1.0592
  505MPD2     N 7511   1.662   2.262  10.505 -0.0098  0.0070 -0.4592
  505MPD2    H5 7512   1.584   2.284  10.444 -0.7130 -1.2894 -0.0415
  505MPD2    N1 7513   1.409   2.532  10.804 -0.8084  0.1214 -0.2136
  505MPD2    H7 7514   1.418   2.593  10.885 -0.3933  2.4158 -1.9663
  506TMC3    C1 7515   1.188   2.632  10.774  0.1493  0.6951  0.6660
  506TMC3    C2 7516   1.205   2.765  10.784 -0.2707 -0.8394 -0.2305
  506TMC3    C3 7517   1.106   2.849  10.737  0.3810  0.3269  0.0775
  506TMC3    C4 7518   1.082   2.582  10.703  0.4002  0.3431 -0.8193
  506TMC3    C5 7519   0.987   2.661  10.645  0.0330  0.1720  0.1777
  506TMC3    C6 7520   0.996   2.798  10.662  0.7011  0.3468  0.0281
  506TMC3     C 7521   1.298   2.554  10.725 -0.3291  1.1096  0.5285
  506TMC3     O 7522   1.257   2.482  10.632 -0.0948  0.0569 -0.0325
  506TMC3     H 7523   1.294   2.807  10.830 -0.3404  0.6625 -1.4628
  506TMC3    H1 7524   1.045   2.481  10.718  3.1991 -0.3176  1.7250
  506TMC3    H2 7525   0.942   2.870  10.602 -2.6180 -2.6488 -0.5942
  506TMC3    C7 7526   0.952   2.616  10.506  0.7477 -0.1198 -0.0084
  506TMC3    C8 7527   1.115   2.990  10.749 -0.0773  0.0036 -0.3627
  506TMC3    O1 7528   0.858   2.681  10.449 -0.8151  0.3864  0.0042
  506TMC3    O2 7529   1.023   3.060  10.786  0.2046  0.1708 -0.9836
  507TMC3    C1 7530   1.840   3.780  15.015 -0.2057  0.0707  0.2537
  507TMC3    C2 7531   1.834   3.681  14.919 -0.0783 -0.3829  0.1880
  507TMC3    C3 7532   1.914   3.700  14.806  0.9289  0.1740  0.0264
  507TMC3    C4 7533   1.920   3.885  15.005  0.1121 -0.9230 -0.7193
  507TMC3    C5 7534   1.994   3.908  14.888  0.6736  0.3517 -0.0469
  507TMC3    C6 7535   1.999   3.806  14.802 -0.1939 -0.4987  0.1173
  507TMC3     C 7536   1.744   3.782  15.125 -0.0059  0.2796  0.2005
  507TMC3     O 7537   1.763   3.869  15.208  0.6870  0.2504 -0.6684
  507TMC3     H 7538   1.777   3.591  14.938 -0.1330 -0.4623 -0.3671
  507TMC3    H1 7539   1.917   3.970  15.072  0.3058 -2.1458  0.8192
  507TMC3    H2 7540   2.069   3.811  14.720  0.5160 -1.5565  0.6580
  507TMC3    C7 7541   1.976   4.028  14.817  0.5278  0.0569  0.2810
  507TMC3    C8 7542   1.858   3.663  14.682  0.7626 -0.0129  0.2920
  507TMC3    O1 7543   1.947   4.022  14.699 -0.3514  0.3943 -0.0444
  507TMC3    O2 7544   1.769   3.576  14.676  0.1273  0.5541 -0.2261
  508MPD2     C 7545   1.915   1.758  16.207 -0.2279 -0.3652  0.0985
  508MPD2    C1 7546   2.035   1.730  16.148  0.2392  0.4814 -0.0590
  508MPD2    C2 7547   2.050   1.704  16.014 -0.1801  0.1966  0.2313
  508MPD2    C3 7548   1.933   1.699  15.937 -0.2188  0.2346 -0.0094
  508MPD2    C4 7549   1.810   1.709  15.996  0.2620  0.8574  0.4699
  508MPD2    C5 7550   1.800   1.743  16.132  0.2821  0.4112 -0.1276
  508MPD2     H 7551   2.147   1.697  15.968  0.0002  1.3223  0.4345
  508MPD2    H1 7552   1.721   1.694  15.936  0.1862 -0.7823  1.0045
  508MPD2    H2 7553   1.911   1.784  16.313 -1.0495 -1.3511  0.3076
  508MPD2    H3 7554   1.707   1.740  16.186  0.5986  0.7838  0.4436
  508MPD2     N 7555   1.954   1.704  15.798 -0.6289  1.1469 -0.2080
  508MPD2    H5 7556   2.051   1.716  15.772 -0.2290 -1.7645 -0.0233
  508MPD2    N1 7557   2.146   1.734  16.234 -0.1945  0.2143  0.0977
  508MPD2    H7 7558   2.140   1.757  16.332 -0.2567  1.0869 -0.1068
  509TMC3    C1 7559   1.898   1.818  15.374  1.1317 -0.3795 -0.2398
  509TMC3    C2 7560   2.036   1.813  15.364 -0.7417 -0.3057  0.3112
  509TMC3    C3 7561   2.107   1.737  15.452 -0.8843  0.4491  1.1051
  509TMC3    C4 7562   1.831   1.750  15.470 -0.1536 -0.1638  0.4222
  509TMC3    C5 7563   1.909   1.688  15.567 -0.3196  0.5468  0.1045
  509TMC3    C6 7564   2.048   1.677  15.562  0.1499  0.5478 -0.3032
  509TMC3     C 7565   1.822   1.906  15.292  0.0483  1.1021  0.0073
  509TMC3     O 7566   1.701   1.915  15.296  0.0721 -0.5144 -0.0730
  509TMC3     H 7567   2.082   1.845  15.272 -0.8496 -0.1814  0.2998
  509TMC3    H1 7568   1.726   1.766  15.491  0.3040  1.5540  1.4153
  509TMC3    H2 7569   2.105   1.612  15.627 -1.0302 -0.8149 -0.6199
  509TMC3    C7 7570   1.856   1.685  15.699  0.1027  0.3173  0.5726
  509TMC3    C8 7571   2.252   1.741  15.454  0.2969 -0.3501 -0.5345
  509TMC3    O1 7572   1.737   1.669  15.711 -0.4439 -0.1849 -0.2587
  509TMC3    O2 7573   2.315   1.644  15.491 -0.1252 -0.0063  0.1402
  510MPD2     C 7574   0.136   3.343  14.276  0.4892 -0.1528 -0.3519
  510MPD2    C1 7575   0.210   3.342  14.394 -0.7880 -0.7118  0.3019
  510MPD2    C2 7576   0.348   3.344  14.379 -0.2127  0.3260 -0.6818
  510MPD2    C3 7577   0.408   3.340  14.254 -0.7651  0.0786 -0.7147
  510MPD2    C4 7578   0.334   3.350  14.138  0.1747 -0.3655  0.6513
  510MPD2    C5 7579   0.200   3.351  14.152  0.0028 -0.0103  0.6407
  510MPD2     H 7580   0.412   3.348  14.467  0.3280  0.7434 -1.0964
  510MPD2    H1 7581   0.371   3.359  14.037  0.0656  1.6545  0.7892
  510MPD2    H2 7582   0.029   3.323  14.277  0.3428  0.6677  0.5765
  510MPD2    H3 7583   0.150   3.370  14.058 -2.8663  0.3226  2.2101
  510MPD2     N 7584   0.547   3.329  14.252 -0.0713  0.2916  0.2416
  510MPD2    H5 7585   0.583   3.298  14.341  0.0631 -1.2683 -0.3544
  510MPD2    N1 7586   0.144   3.316  14.512 -0.0685 -0.2001  0.6992
  510MPD2    H7 7587   0.049   3.279  14.511 -0.5188  0.9444  1.3466
  511TMC3    C1 7588   0.123   3.260  14.740 -0.5021  0.2648  0.2588
  511TMC3    C2 7589   0.108   3.303  14.871  0.0575  0.9678 -0.6553
  511TMC3    C3 7590   0.081   3.205  14.963  0.1947  0.3064  0.1177
  511TMC3    C4 7591   0.116   3.126  14.697 -0.2556  0.5999  0.1600
  511TMC3    C5 7592   0.092   3.034  14.799  0.5907 -0.5717 -0.1285
  511TMC3    C6 7593   0.067   3.072  14.932  0.2560 -0.2669 -0.5207
  511TMC3     C 7594   0.185   3.349  14.642 -0.7799  0.6129 -0.3316
  511TMC3     O 7595   0.276   3.429  14.681 -0.1227  0.1802  0.1817
  511TMC3     H 7596   0.115   3.408  14.899  1.3448  0.1730  1.9770
  511TMC3    H1 7597   0.140   3.084  14.600 -1.0114 -0.5394  0.4687
  511TMC3    H2 7598   0.042   2.992  15.001  1.5262 -0.7094 -0.5657
  511TMC3    C7 7599   0.114   2.893  14.757  0.0183 -0.9830 -0.0118
  511TMC3    C8 7600   0.023   3.248  15.093  0.2637 -0.1553 -0.5860
  511TMC3    O1 7601   0.190   2.874  14.662 -0.7191  0.2570 -0.1053
  511TMC3    O2 7602   4.682   3.347  15.088 -0.0152 -0.0891 -0.4761
  512TMC3    C1 7603   3.626   3.019  12.810  0.0316 -0.0130 -0.4444
  512TMC3    C2 7604   3.661   2.988  12.942 -0.0495 -0.5533 -0.3492
  512TMC3    C3 7605   3.668   2.849  12.967  0.7843 -0.1518 -0.3073
  512TMC3    C4 7606   3.601   2.925  12.709  0.1984  0.9291 -0.1165
  512TMC3    C5 7607   3.599   2.796  12.744 -0.3362  0.4122 -0.6743
  512TMC3    C6 7608   3.626   2.756  12.874  0.4008 -0.0273 -0.2077
  512TMC3     C 7609   3.592   3.155  12.779  0.6932  0.2557  0.0830
  512TMC3     O 7610   3.529   3.176  12.673  0.0168  0.1064  0.0147
  512TMC3     H 7611   3.683   3.065  13.015 -1.6537 -0.2223 -0.2187
  512TMC3    H1 7612   3.594   2.958  12.606  0.6584  0.3455 -0.3300
  512TMC3    H2 7613   3.627   2.652  12.905  1.2699  1.0221  3.2659
  512TMC3    C7 7614   3.602   2.691  12.634 -0.2629  0.0590  0.1451
  512TMC3    C8 7615   3.714   2.806  13.096 -0.5306  0.3375  0.2760
  512TMC3    O1 7616   3.556   2.717  12.527 -0.0269  0.3470 -0.0988
  512TMC3    O2 7617   3.698   2.689  13.128 -0.2040 -0.5180  0.1669
  513MPD2     C 7618   1.073   3.334  12.830  0.0411 -0.4042  0.0738
  513MPD2    C1 7619   0.967   3.257  12.869 -0.0418  0.1435 -0.5564
  513MPD2    C2 7620   0.978   3.188  12.987 -0.7112 -0.1653 -0.5844
  513MPD2    C3 7621   1.084   3.202  13.074  0.1961 -0.2089  0.2994
  513MPD2    C4 7622   1.187   3.291  13.038 -1.1315  0.0351  0.3754
  513MPD2    C5 7623   1.182   3.345  12.907 -0.4078  0.6422 -0.0192
  513MPD2     H 7624   0.910   3.106  13.008 -0.0611 -0.8466 -1.1260
  513MPD2    H1 7625   1.271   3.317  13.102  0.5296 -2.3932 -0.8451
  513MPD2    H2 7626   1.071   3.378  12.731 -2.2565 -1.1703 -0.2267
  513MPD2    H3 7627   1.273   3.383  12.863 -0.6840 -0.3345 -1.4132
  513MPD2     N 7628   1.081   3.134  13.196 -0.5489  0.0105 -0.3390
  513MPD2    H5 7629   0.990   3.104  13.230 -1.1240  1.6759 -0.4342
  513MPD2    N1 7630   0.853   3.246  12.789  0.4021 -0.7771 -0.4363
  513MPD2    H7 7631   0.863   3.287  12.697 -2.5003 -2.8887 -1.6575
  514TMC3    C1 7632   0.668   3.110  12.726  0.1198 -0.2334 -0.2148
  514TMC3    C2 7633   0.747   3.060  12.630  0.2155  0.0207 -0.8244
  514TMC3    C3 7634   0.729   2.924  12.615  0.5526 -0.4527 -0.3377
  514TMC3    C4 7635   0.570   3.043  12.797  0.3531  0.0731 -0.3893
  514TMC3    C5 7636   0.539   2.919  12.758  0.3312  1.0030 -0.3880
  514TMC3    C6 7637   0.618   2.858  12.663 -0.3279 -0.8797 -0.2648
  514TMC3     C 7638   0.741   3.179  12.828 -0.7134 -0.6951  0.2623
  514TMC3     O 7639   0.697   3.170  12.943 -0.2040  0.3929 -0.1993
  514TMC3     H 7640   0.836   3.112  12.597  0.8372 -1.0117 -0.7705
  514TMC3    H1 7641   0.510   3.109  12.859  1.8059  0.5720  0.4998
  514TMC3    H2 7642   0.603   2.753  12.643 -1.2824 -0.5347 -1.3207
  514TMC3    C7 7643   0.510   2.837  12.870 -0.9143 -0.4774 -0.6826
  514TMC3    C8 7644   0.843   2.846  12.584 -0.3785  0.2518 -0.4730
  514TMC3    O1 7645   0.424   2.753  12.870 -0.3954  0.0536 -0.1273
  514TMC3    O2 7646   0.845   2.734  12.625 -0.0659 -0.6491 -0.1567
  515MPD2     C 7647   3.830   4.344  15.260 -0.3295  0.1835 -0.3906
  515MPD2    C1 7648   3.888   4.341  15.134 -0.2224 -0.1894  0.4874
  515MPD2    C2 7649   3.953   4.454  15.094 -0.1971 -0.8360  0.6159
  515MPD2    C3 7650   3.989   4.557  15.184 -0.1820 -0.5375  0.0421
  515MPD2    C4 7651   3.935   4.556  15.313 -0.0740 -0.2274  0.2767
  515MPD2    C5 7652   3.846   4.455  15.344 -0.5193  0.0328 -0.1220
  515MPD2     H 7653   3.980   4.451  14.989  0.8496  0.9059  0.8291
  515MPD2    H1 7654   3.953   4.638  15.382  0.1690  0.2614 -0.3691
  515MPD2    H2 7655   3.758   4.271  15.298  0.3167  0.2134  0.8801
  515MPD2    H3 7656   3.817   4.437  15.447 -1.8044 -1.8214 -0.7968
  515MPD2     N 7657   4.074   4.655  15.151  0.3618 -0.5137 -0.2099
  515MPD2    H5 7658   4.107   4.713  15.229 -1.8292 -1.6651  1.5893
  515MPD2    N1 7659   3.870   4.239  15.039 -0.2283 -0.4442  0.6174
  515MPD2    H7 7660   3.887   4.257  14.941 -0.1155  2.1464  1.1064
  516TMC3    C1 7661   3.809   4.028  14.957  0.0361  0.8513  0.2821
  516TMC3    C2 7662   3.803   4.080  14.830  0.1799  0.4564 -0.6484
  516TMC3    C3 7663   3.774   3.988  14.734 -0.5556  0.1620  0.9843
  516TMC3    C4 7664   3.800   3.899  14.985 -1.1395 -0.0556  0.4595
  516TMC3    C5 7665   3.778   3.810  14.884  0.2575 -0.0276  0.3367
  516TMC3    C6 7666   3.767   3.854  14.754 -0.2463  0.2373 -0.2602
  516TMC3     C 7667   3.823   4.119  15.073 -0.1751 -0.4540  0.0291
  516TMC3     O 7668   3.795   4.072  15.187 -0.3206 -0.1134 -0.0260
  516TMC3     H 7669   3.797   4.187  14.811 -1.0062 -0.1377 -3.6238
  516TMC3    H1 7670   3.826   3.871  15.086  0.5582  0.2764  0.1177
  516TMC3    H2 7671   3.735   3.792  14.671 -0.4393  0.6675 -0.5024
  516TMC3    C7 7672   3.739   3.676  14.914  0.1492 -0.0203 -0.2716
  516TMC3    C8 7673   3.689   4.025  14.621 -0.1705 -0.1842  1.0103
  516TMC3    O1 7674   3.777   3.635  15.020  0.7425  0.6241 -0.6080
  516TMC3    O2 7675   3.585   3.965  14.606  0.5628 -0.1559  0.2554
  517MPD2     C 7676   3.355   1.074   0.284  0.1767  0.3042  0.6331
  517MPD2    C1 7677   3.489   1.064   0.313 -0.2543 -0.1908 -0.1372
  517MPD2    C2 7678   3.557   1.172   0.380 -0.7020  0.7535  0.1410
  517MPD2    C3 7679   3.485   1.290   0.402 -0.0114  0.1471 -0.9794
  517MPD2    C4 7680   3.354   1.297   0.367  0.8512  0.1098  0.2732
  517MPD2    C5 7681   3.293   1.189   0.308  0.4572 -0.1984  0.0152
  517MPD2     H 7682   3.663   1.170   0.400 -0.8687 -1.6042  0.8291
  517MPD2    H1 7683   3.296   1.382   0.400  0.3170 -0.6386  1.2915
  517MPD2    H2 7684   3.295   0.994   0.243  0.5255  0.4898 -0.2373
  517MPD2    H3 7685   3.189   1.198   0.278  0.4129 -0.7002  0.0178
  517MPD2     N 7686   3.538   1.402   0.465  0.0352 -0.8682  0.3538
  517MPD2    H5 7687   3.480   1.481   0.491  1.4136 -0.1358  1.1881
  517MPD2    N1 7688   3.567   0.952   0.280 -0.4205  0.0888  0.0877
  517MPD2    H7 7689   3.666   0.969   0.290 -0.3919  1.3170 -2.0402
  518TMC3    C1 7690   3.634   0.745   0.207  0.1009  0.6487  0.6979
  518TMC3    C2 7691   3.612   0.607   0.227  0.2228  1.0489 -0.4533
  518TMC3    C3 7692   3.706   0.513   0.201  0.4554  0.6776  0.2705
  518TMC3    C4 7693   3.757   0.792   0.176 -0.2191  0.7389  0.7395
  518TMC3    C5 7694   3.853   0.693   0.167 -0.1609 -0.0992  0.2548
  518TMC3    C6 7695   3.835   0.554   0.177 -0.2574 -0.4461 -0.7734
  518TMC3     C 7696   3.521   0.829   0.239  0.5750  0.7875  0.3854
  518TMC3     O 7697   3.406   0.794   0.233 -0.2388 -0.2086 -0.5810
  518TMC3     H 7698   3.509   0.578   0.239  1.0245 -1.7298 -0.1923
  518TMC3    H1 7699   3.775   0.897   0.155  0.8221  0.1222 -1.4185
  518TMC3    H2 7700   3.919   0.486   0.188  0.7113  0.9417  0.4631
  518TMC3    C7 7701   3.972   0.733   0.095  0.3020  0.0543  0.5132
  518TMC3    C8 7702   3.673   0.370   0.196  0.2681  0.5137  0.1437
  518TMC3    O1 7703   3.960   0.841   0.032 -0.4588  0.3942 -0.0711
  518TMC3    O2 7704   3.771   0.297   0.168 -1.0466  0.1421  0.5958
  519MPD2     C 7705   0.617   4.338  14.942  0.5417 -0.1462  0.1707
  519MPD2    C1 7706   0.547   4.355  14.824  0.5279  0.0567  0.0051
  519MPD2    C2 7707   0.593   4.292  14.712 -0.0077 -0.4548  0.0433
  519MPD2    C3 7708   0.706   4.205  14.708 -0.2923 -0.2674 -0.5812
  519MPD2    C4 7709   0.757   4.183  14.832  0.3569 -0.4176  0.2195
  519MPD2    C5 7710   0.725   4.251  14.943  0.1099 -0.0783 -0.2387
  519MPD2     H 7711   0.541   4.305  14.617  1.1063  1.4755 -0.3085
  519MPD2    H1 7712   0.827   4.101  14.836 -0.4433 -1.0095  2.0291
  519MPD2    H2 7713   0.600   4.387  15.037 -0.4131 -1.1132  0.5000
  519MPD2    H3 7714   0.770   4.240  15.041  1.4963  0.1605 -0.8532
  519MPD2     N 7715   0.763   4.153  14.591 -0.1160 -0.0847 -0.3496
  519MPD2    H5 7716   0.860   4.124  14.597 -0.4820 -1.1004  0.6472
  519MPD2    N1 7717   0.430   4.438  14.819  0.4036 -0.1309 -0.6096
  519MPD2    H7 7718   0.422   4.508  14.893  2.4374 -0.9174  0.3519
  520TMC3    C1 7719   0.788   4.124  14.354 -0.0953  0.1867 -0.4834
  520TMC3    C2 7720   0.743   4.169  14.232  0.0649  0.2285  0.4665
  520TMC3    C3 7721   0.823   4.147  14.126  0.3120  0.7759  0.1155
  520TMC3    C4 7722   0.897   4.050  14.369 -0.9486  0.0220  0.3846
  520TMC3    C5 7723   0.978   4.021  14.263 -0.0347 -0.3547 -1.3987
  520TMC3    C6 7724   0.941   4.075  14.139  0.4330 -0.1625 -0.0072
  520TMC3     C 7725   0.708   4.172  14.462 -0.1330  0.7979 -0.0210
  520TMC3     O 7726   0.594   4.198  14.427 -0.1818 -0.0013  0.3752
  520TMC3     H 7727   0.662   4.240  14.223  0.2454  0.1934 -1.4683
  520TMC3    H1 7728   0.926   4.021  14.469 -0.5852 -2.2683 -0.3804
  520TMC3    H2 7729   0.998   4.058  14.048 -0.7767 -0.5935 -0.6920
  520TMC3    C7 7730   1.083   3.920  14.280  0.0707 -0.2100  0.0146
  520TMC3    C8 7731   0.803   4.216  13.999  0.3458 -0.3041 -0.1944
  520TMC3    O1 7732   1.108   3.876  14.396 -0.5972 -0.0869  0.7294
  520TMC3    O2 7733   0.884   4.201  13.914 -0.2516 -0.8741 -0.4376
  521MPD2     C 7734   1.398   2.555   0.007 -0.0155 -0.0285 -0.9486
  521MPD2    C1 7735   1.340   2.445  17.652  0.5506 -0.7305 -0.4212
  521MPD2    C2 7736   1.392   2.397  17.539  0.2061 -0.5112  0.1196
  521MPD2    C3 7737   1.511   2.446  17.484 -0.3337  0.1537  0.0032
  521MPD2    C4 7738   1.579   2.548  17.557  0.5936 -0.0488  0.4525
  521MPD2    C5 7739   1.524   2.599  17.672  0.2281 -0.8813  0.4206
  521MPD2     H 7740   1.351   2.310  17.489 -0.1233  0.7835 -1.8622
  521MPD2    H1 7741   1.683   2.567  17.532  0.4439  0.4454  0.2208
  521MPD2    H2 7742   1.357   2.596   0.099 -0.5212  2.1842 -2.1484
  521MPD2    H3 7743   1.584   2.672   0.025  0.1603  0.3445 -1.1243
  521MPD2     N 7744   1.569   2.382  17.372 -0.4268 -0.0796 -0.1841
  521MPD2    H5 7745   1.522   2.300  17.336  0.9070 -2.0681  2.5927
  521MPD2    N1 7746   1.215   2.395  17.701  0.4574  0.3994  0.0361
  521MPD2    H7 7747   1.158   2.460   0.052 -1.2466 -1.4291  0.4674
  522TMC3    C1 7748   1.717   2.327  17.194  0.8347 -0.2131  0.4051
  522TMC3    C2 7749   1.828   2.362  17.126 -0.0304 -0.2682 -0.0936
  522TMC3    C3 7750   1.886   2.278  17.043  0.3363  0.2702 -0.3082
  522TMC3    C4 7751   1.664   2.201  17.183 -0.2636  0.4160 -0.0110
  522TMC3    C5 7752   1.732   2.113  17.099 -0.7567  0.5253  0.5015
  522TMC3    C6 7753   1.845   2.145  17.031 -0.1617 -0.3733  0.4218
  522TMC3     C 7754   1.680   2.420  17.303  0.1435 -0.1070 -0.1683
  522TMC3     O 7755   1.747   2.523  17.315 -0.3216  0.0833 -0.4955
  522TMC3     H 7756   1.884   2.454  17.137  1.1499 -0.8135 -1.4271
  522TMC3    H1 7757   1.572   2.172  17.231 -0.0395 -0.8406 -0.3415
  522TMC3    H2 7758   1.881   2.067  16.965 -1.5524  0.3343 -1.1824
  522TMC3    C7 7759   1.667   1.992  17.070 -0.1073  0.2595 -0.3835
  522TMC3    C8 7760   2.020   2.313  16.997  0.4348 -0.4908  0.3418
  522TMC3    O1 7761   1.736   1.908  17.015 -0.2408  0.7078  0.0930
  522TMC3    O2 7762   2.080   2.402  17.056 -0.3909 -0.2785 -0.3190
  523MPD2     C 7763   4.349   1.543  10.140 -0.4854  0.3069  0.3248
  523MPD2    C1 7764   4.294   1.428  10.074 -0.0779 -0.6791  0.5379
  523MPD2    C2 7765   4.217   1.441   9.961  0.3639  1.3012 -0.6766
  523MPD2    C3 7766   4.196   1.566   9.905 -0.8496 -0.3907 -1.2019
  523MPD2    C4 7767   4.262   1.675   9.963 -0.9117 -0.2816 -0.1992
  523MPD2    C5 7768   4.325   1.667  10.086 -0.2557 -0.3290  0.5855
  523MPD2     H 7769   4.176   1.349   9.921 -0.8531  2.1737 -1.4507
  523MPD2    H1 7770   4.256   1.776   9.923  0.5479 -0.8114 -1.7637
  523MPD2    H2 7771   4.393   1.536  10.239 -2.2873  1.2268  1.1796
  523MPD2    H3 7772   4.366   1.754  10.136  0.2237 -0.4293  0.3692
  523MPD2     N 7773   4.111   1.591   9.793 -0.0370 -1.0824  0.8117
  523MPD2    H5 7774   4.107   1.684   9.751 -3.1960 -2.1714 -1.3078
  523MPD2    N1 7775   4.321   1.310  10.143  0.8304  0.7337  0.5354
  523MPD2    H7 7776   4.391   1.301  10.216  2.0923  1.0507 -0.6319
  524TMC3    C1 7777   3.947   1.551   9.636 -0.1067  0.0455 -0.4506
  524TMC3    C2 7778   3.910   1.472   9.534 -0.7624  0.0187 -0.1848
  524TMC3    C3 7779   3.811   1.517   9.450 -0.2610  0.2692  0.7499
  524TMC3    C4 7780   3.900   1.677   9.664 -0.2366 -0.1706  1.0729
  524TMC3    C5 7781   3.811   1.725   9.571 -0.6227 -0.4300 -0.1381
  524TMC3    C6 7782   3.762   1.645   9.469 -0.3825  0.9642 -0.0224
  524TMC3     C 7783   4.033   1.492   9.736 -0.0046 -0.2093 -0.7587
  524TMC3     O 7784   4.041   1.369   9.740 -0.0055  0.2638  0.3343
  524TMC3     H 7785   3.915   1.364   9.544  0.3640 -0.0229 -1.2097
  524TMC3    H1 7786   3.909   1.727   9.760 -0.5268  0.2408  0.8859
  524TMC3    H2 7787   3.690   1.671   9.392  0.9281  0.7779 -1.3226
  524TMC3    C7 7788   3.756   1.861   9.599 -0.0877  0.3042  0.4211
  524TMC3    C8 7789   3.717   1.426   9.391 -0.5408 -0.0862  0.0858
  524TMC3    O1 7790   3.826   1.941   9.663  0.5716 -0.3163  0.2690
  524TMC3    O2 7791   3.599   1.458   9.386 -0.9558 -0.1238 -0.0326
  525MPD2     C 7792   2.066   3.419  14.596 -0.5162 -0.1061  0.1426
  525MPD2    C1 7793   2.155   3.450  14.691  0.5811  0.4206 -0.3925
  525MPD2    C2 7794   2.253   3.553  14.670  0.3831  0.0845 -0.8718
  525MPD2    C3 7795   2.244   3.623  14.548 -0.7712  0.2332 -0.5074
  525MPD2    C4 7796   2.142   3.597  14.461 -0.1540  0.1617 -0.9691
  525MPD2    C5 7797   2.056   3.493  14.484 -0.1748 -0.1639 -0.0554
  525MPD2     H 7798   2.321   3.581  14.749  0.7867  1.2810 -1.6388
  525MPD2    H1 7799   2.132   3.652  14.368  1.6716  0.2398 -1.1183
  525MPD2    H2 7800   1.991   3.342  14.613 -0.2043  0.0141  2.1269
  525MPD2    H3 7801   1.985   3.472  14.405 -0.5396  0.2748  0.1550
  525MPD2     N 7802   2.340   3.722  14.521 -0.5645 -0.7224 -0.2971
  525MPD2    H5 7803   2.317   3.789  14.448 -1.7914  0.9036  1.5906
  525MPD2    N1 7804   2.172   3.378  14.808 -0.0846  0.4854  0.7757
  525MPD2    H7 7805   2.254   3.382  14.868 -0.4597  0.6159  1.2844
  526TMC3    C1 7806   2.128   3.205  14.965 -0.1960  0.3168  0.2236
  526TMC3    C2 7807   2.035   3.144  15.045  0.7271  0.1076  0.7581
  526TMC3    C3 7808   2.065   3.065  15.147 -0.5664 -0.0305  0.8577
  526TMC3    C4 7809   2.262   3.192  14.994 -0.7812  0.3235 -0.3164
  526TMC3    C5 7810   2.287   3.110  15.101 -0.2580 -0.4595 -0.4966
  526TMC3    C6 7811   2.194   3.053  15.179  1.1485 -0.5098 -0.3653
  526TMC3     C 7812   2.075   3.287  14.855 -0.8292  0.1404 -0.6235
  526TMC3     O 7813   1.954   3.278  14.828  0.4636 -0.8363 -0.1411
  526TMC3     H 7814   1.933   3.181  15.038  1.4707  1.9411 -0.5895
  526TMC3    H1 7815   2.333   3.229  14.921  0.2182  1.1275  1.0595
  526TMC3    H2 7816   2.220   2.980  15.254 -1.6184 -1.8814 -0.7196
  526TMC3    C7 7817   2.417   3.040  15.105  0.5017  0.4373  0.2647
  526TMC3    C8 7818   1.977   3.058  15.263  0.4331  0.7097  0.3634
  526TMC3    O1 7819   2.450   2.983  15.208 -0.4993  0.3330  0.5119
  526TMC3    O2 7820   2.038   3.071  15.369 -0.4573 -0.1337  0.1193
  527MPD2     C 7821   4.489   1.621   1.867 -0.1432 -0.3995  0.8485
  527MPD2    C1 7822   4.516   1.494   1.912 -0.3557  0.0827  0.3507
  527MPD2    C2 7823   4.621   1.422   1.861 -0.3154 -0.1671 -0.0203
  527MPD2    C3 7824   4.695   1.473   1.761  0.4714  0.3381 -0.1073
  527MPD2    C4 7825   4.654   1.591   1.702  0.5598  0.2779  0.5421
  527MPD2    C5 7826   4.557   1.660   1.757 -0.4153 -0.5606  0.5923
  527MPD2     H 7827   4.639   1.323   1.901  0.5505 -0.4753 -1.1665
  527MPD2    H1 7828   4.695   1.636   1.612 -0.8418 -0.4719 -0.4685
  527MPD2    H2 7829   4.418   1.684   1.918 -1.1827 -0.2396 -0.8255
  527MPD2    H3 7830   4.531   1.757   1.715 -3.8123 -1.5754  0.4025
  527MPD2     N 7831   0.076   1.396   1.714  0.0627  0.1647 -0.0309
  527MPD2    H5 7832   0.126   1.335   1.778 -0.3540  0.5101  0.6363
  527MPD2    N1 7833   4.444   1.434   2.020 -0.4556 -0.2571 -0.0651
  527MPD2    H7 7834   4.473   1.339   2.040 -0.8955 -0.3274  0.2325
  528TMC3    C1 7835   4.279   1.377   2.169 -0.1374  0.0540 -0.0004
  528TMC3    C2 7836   4.374   1.290   2.228 -0.2272 -0.0929 -0.4196
  528TMC3    C3 7837   4.325   1.230   2.344 -0.7117 -0.3554  0.1739
  528TMC3    C4 7838   4.147   1.386   2.202  0.1274  0.0657 -0.5491
  528TMC3    C5 7839   4.110   1.320   2.317 -0.0980 -0.8223 -0.3560
  528TMC3    C6 7840   4.201   1.246   2.390 -0.1226 -0.1464  0.3316
  528TMC3     C 7841   4.322   1.468   2.065 -0.1283 -0.4749  0.2457
  528TMC3     O 7842   4.253   1.564   2.033 -0.2865  0.2503  0.5929
  528TMC3     H 7843   4.480   1.301   2.207  0.3254 -0.2653  2.2015
  528TMC3    H1 7844   4.075   1.451   2.153  0.2500 -0.8778 -1.9711
  528TMC3    H2 7845   4.166   1.190   2.476 -0.7504 -0.4883 -0.1518
  528TMC3    C7 7846   3.968   1.287   2.333  0.6848 -0.3940  0.3615
  528TMC3    C8 7847   4.420   1.142   2.410 -0.3312 -0.1831 -0.0728
  528TMC3    O1 7848   3.942   1.185   2.392  0.0079  0.1777 -0.0061
  528TMC3    O2 7849   4.535   1.156   2.379  0.0389 -0.8022  0.3928
  529MPD2     C 7850   3.109   4.350   0.914 -0.4997  0.1465 -0.1136
  529MPD2    C1 7851   2.971   4.376   0.913  0.3209  0.0617 -0.0470
  529MPD2    C2 7852   2.918   4.446   0.801 -0.0375  0.4395  0.2317
  529MPD2    C3 7853   3.007   4.481   0.698 -0.5664 -0.3661 -0.2783
  529MPD2    C4 7854   3.139   4.452   0.706 -0.2299  0.3608 -0.1883
  529MPD2    C5 7855   3.186   4.390   0.815  0.1311  0.1892  0.8635
  529MPD2     H 7856   2.811   4.464   0.793  0.4302  2.7996 -0.6859
  529MPD2    H1 7857   3.211   4.488   0.634 -0.1752  0.4350 -0.0969
  529MPD2    H2 7858   3.158   4.298   0.996  3.5957  3.3214 -0.5555
  529MPD2    H3 7859   3.292   4.369   0.815 -0.0833 -0.8748 -0.0810
  529MPD2     N 7860   2.958   4.538   0.582  0.0784 -0.3100  0.1628
  529MPD2    H5 7861   3.025   4.559   0.509 -1.1462 -1.5414 -1.3254
  529MPD2    N1 7862   2.880   4.326   1.017 -0.1353 -0.1225 -0.5969
  529MPD2    H7 7863   2.781   4.346   1.008 -0.5868 -1.8039  0.5100
  530TMC3    C1 7864   2.805   4.183   1.203  0.3006  0.2322  0.0924
  530TMC3    C2 7865   2.842   4.113   1.319 -0.2661 -0.1849  0.1455
  530TMC3    C3 7866   2.728   4.064   1.392  0.1551 -0.0010 -0.1748
  530TMC3    C4 7867   2.678   4.195   1.153 -0.4320  0.2819  0.2963
  530TMC3    C5 7868   2.576   4.141   1.232  0.1219 -0.8925 -0.9144
  530TMC3    C6 7869   2.597   4.075   1.351 -0.2198 -0.8351  0.8080
  530TMC3     C 7870   2.914   4.244   1.121 -0.1954  0.7546  0.2544
  530TMC3     O 7871   3.028   4.222   1.164 -0.9565 -0.3148 -0.5431
  530TMC3     H 7872   2.944   4.114   1.358  0.3002  1.7809 -1.3597
  530TMC3    H1 7873   2.658   4.234   1.055  0.9901 -0.8791 -0.4590
  530TMC3    H2 7874   2.524   4.024   1.412  0.9170 -1.4469  1.6585
  530TMC3    C7 7875   2.444   4.151   1.180  0.0128  0.6163 -0.0342
  530TMC3    C8 7876   2.751   4.023   1.528 -0.4789  0.0076 -0.0889
  530TMC3    O1 7877   2.414   4.240   1.098 -0.2539  0.6199  0.4653
  530TMC3    O2 7878   2.660   4.007   1.610 -0.3903  0.4480  0.0560
  531MPD2     C 7879   0.556   2.778  13.382 -0.0547 -0.4245  0.1604
  531MPD2    C1 7880   0.639   2.876  13.345 -0.0922 -0.6009  0.2593
  531MPD2    C2 7881   0.633   2.927  13.214 -0.0528  0.3485  0.4324
  531MPD2    C3 7882   0.551   2.871  13.115 -0.4746  0.2267  0.1226
  531MPD2    C4 7883   0.468   2.768  13.159  0.3060 -0.4431 -0.0634
  531MPD2    C5 7884   0.471   2.730  13.291 -0.0388 -0.6997  0.1173
  531MPD2     H 7885   0.696   3.006  13.176  0.0207  1.0834  2.0863
  531MPD2    H1 7886   0.400   2.717  13.093 -0.3211 -0.1601  0.3657
  531MPD2    H2 7887   0.551   2.740  13.483  0.2884 -0.4408  0.1705
  531MPD2    H3 7888   0.403   2.652  13.323  0.3995 -1.6554 -1.2769
  531MPD2     N 7889   0.572   2.903  12.975  0.4387 -0.7792  0.6818
  531MPD2    H5 7890   0.627   2.986  12.957  0.7763 -0.9227  1.0527
  531MPD2    N1 7891   0.732   2.925  13.439 -0.0345 -0.0703  0.3363
  531MPD2    H7 7892   0.729   2.888  13.533 -4.5186  0.8631  0.5888
  532TMC3    C1 7893   0.932   3.009  13.487  0.1828  0.0224 -0.0296
  532TMC3    C2 7894   1.017   3.101  13.445  0.9406  0.5457 -0.3800
  532TMC3    C3 7895   1.141   3.059  13.404 -0.0532 -0.2806  0.1040
  532TMC3    C4 7896   0.966   2.875  13.496 -0.8795 -0.0951 -0.4833
  532TMC3    C5 7897   1.091   2.837  13.459  0.3362 -0.0118 -0.1137
  532TMC3    C6 7898   1.183   2.934  13.419  0.3134 -0.1764 -0.7296
  532TMC3     C 7899   0.811   3.036  13.414 -0.2833  0.8194 -0.6122
  532TMC3     O 7900   0.805   3.133  13.339  0.4158 -0.0588  0.4172
  532TMC3     H 7901   0.986   3.205  13.448  0.5383  0.3946  0.5891
  532TMC3    H1 7902   0.901   2.790  13.510 -1.9549  1.3602  3.5495
  532TMC3    H2 7903   1.284   2.903  13.395  0.3678  0.6685 -1.5822
  532TMC3    C7 7904   1.148   2.712  13.517  0.0079 -0.1346  0.0192
  532TMC3    C8 7905   1.183   3.122  13.284  0.4964 -0.5335  1.0941
  532TMC3    O1 7906   1.102   2.665  13.621 -0.2531  0.3715  0.1014
  532TMC3    O2 7907   1.301   3.120  13.253  0.4484 -0.0022 -0.2398
  533TMC3    C1 7908   2.473   3.895  14.571  0.7427  0.2867  0.0103
  533TMC3    C2 7909   2.602   3.933  14.588 -0.3331  0.6528 -0.0752
  533TMC3    C3 7910   2.621   4.038  14.672  0.2935  0.1426 -0.5105
  533TMC3    C4 7911   2.372   3.966  14.624  0.4815  0.2596  0.9216
  533TMC3    C5 7912   2.393   4.061  14.714  0.3158 -0.2618 -0.2367
  533TMC3    C6 7913   2.519   4.109  14.734  0.0805  0.4295 -0.2666
  533TMC3     C 7914   2.452   3.758  14.595  0.1161  0.0488  0.5260
  533TMC3     O 7915   2.514   3.691  14.672 -0.2904  0.2527 -0.3945
  533TMC3     H 7916   2.686   3.890  14.535  0.8296 -1.6996  3.6991
  533TMC3    H1 7917   2.270   3.928  14.619  0.5186  0.3069 -0.1825
  533TMC3    H2 7918   2.540   4.188  14.806  1.3442  0.9754 -1.2346
  533TMC3    C7 7919   2.334   4.024  14.845 -0.1175 -0.0486  0.0348
  533TMC3    C8 7920   2.739   4.111  14.661 -0.7003  0.3433 -0.6964
  533TMC3    O1 7921   2.298   3.905  14.857  0.2476  0.1592 -0.5783
  533TMC3    O2 7922   2.728   4.230  14.683  0.6189 -0.5452  0.0383
  534MPD2     C 7923   4.328   0.120   2.674 -0.3818 -0.2186 -0.1301
  534MPD2    C1 7924   4.387   0.096   2.551  0.9698  0.2914 -0.1636
  534MPD2    C2 7925   4.378   4.687   2.499 -0.0386  0.2624 -0.1341
  534MPD2    C3 7926   4.312   4.582   2.569 -0.2640 -0.1302  0.7819
  534MPD2    C4 7927   4.262   4.616   2.696 -0.8438  0.0769 -0.9287
  534MPD2    C5 7928   4.275   0.019   2.750 -0.3133  0.8216 -0.1423
  534MPD2     H 7929   4.408   4.674   2.396  1.5037 -0.9100  0.4556
  534MPD2    H1 7930   4.214   4.536   2.751 -2.3451  0.4464 -1.7130
  534MPD2    H2 7931   4.322   0.219   2.718  3.2204 -0.2648  0.4399
  534MPD2    H3 7932   4.242   0.036   2.852  3.3956  0.5641  1.1282
  534MPD2     N 7933   4.281   4.454   2.512  0.4373 -0.3723  0.2816
  534MPD2    H5 7934   4.219   4.395   2.565  0.6254  1.1691  2.2082
  534MPD2    N1 7935   4.449   0.195   2.469  0.1854 -0.2082 -0.4321
  534MPD2    H7 7936   4.489   0.164   2.382  1.1548  1.6061 -0.6391
  535TMC3    C1 7937   4.266   4.307   2.328  0.1664 -0.4666  0.0220
  535TMC3    C2 7938   4.130   4.294   2.360  0.8960  0.3699  0.5512
  535TMC3    C3 7939   4.068   4.189   2.302 -0.4998 -0.2555  0.2389
  535TMC3    C4 7940   4.329   4.223   2.252  0.1510 -0.0848  0.2149
  535TMC3    C5 7941   4.260   4.110   2.207 -0.0993 -0.1330  0.4935
  535TMC3    C6 7942   4.125   4.091   2.234  1.0836 -0.4943  0.4109
  535TMC3     C 7943   4.330   4.418   2.389  0.0042 -0.9929  0.1299
  535TMC3     O 7944   4.421   4.466   2.327 -0.3314 -0.7605  0.6189
  535TMC3     H 7945   4.073   4.373   2.408 -0.0691 -0.7793  1.2712
  535TMC3    H1 7946   4.430   4.249   2.223 -0.2199  1.5385  0.3520
  535TMC3    H2 7947   4.077   3.997   2.208  0.0602 -0.3655  1.8850
  535TMC3    C7 7948   4.319   4.056   2.089  0.0795 -0.1503 -0.5449
  535TMC3    C8 7949   3.924   4.173   2.314  0.5242 -0.0783  0.1602
  535TMC3    O1 7950   4.413   4.113   2.036  0.0933 -0.6408  0.4465
  535TMC3    O2 7951   3.872   4.094   2.238 -0.6908 -0.8746  0.1183
  536MPD2     C 7952   3.740   3.212  16.407 -0.4146 -0.0911 -0.8972
  536MPD2    C1 7953   3.611   3.199  16.446 -0.1691  0.0178  0.3456
  536MPD2    C2 7954   3.518   3.181  16.343 -1.2800  0.0135 -0.5310
  536MPD2    C3 7955   3.547   3.217  16.216  0.2045  0.1660 -0.4012
  536MPD2    C4 7956   3.676   3.260  16.179  0.5323  0.1983 -0.0943
  536MPD2    C5 7957   3.779   3.242  16.275 -1.2658  0.5942 -0.3174
  536MPD2     H 7958   3.414   3.163  16.366 -0.8771  1.2702  2.1822
  536MPD2    H1 7959   3.703   3.296  16.080  1.0727 -0.0986 -0.0532
  536MPD2    H2 7960   3.819   3.201  16.479 -2.4601 -1.6540  1.0863
  536MPD2    H3 7961   3.880   3.263  16.242 -1.0541 -0.1010 -0.1144
  536MPD2     N 7962   3.455   3.222  16.110 -0.0150  0.0541 -0.2274
  536MPD2    H5 7963   3.495   3.256  16.023 -0.0700 -2.8821 -1.3827
  536MPD2    N1 7964   3.582   3.180  16.584 -0.1736 -0.0165  0.0480
  536MPD2    H7 7965   3.658   3.206  16.646  0.3228  2.2363 -1.4999
  537TMC3    C1 7966   3.448   3.116  16.779  0.1631 -0.0258  0.2412
  537TMC3    C2 7967   3.537   3.183  16.862  0.9560  0.6913 -0.0259
  537TMC3    C3 7968   3.507   3.182  16.994 -0.7904  1.0746  0.1866
  537TMC3    C4 7969   3.332   3.060  16.825  0.4676  0.0536 -0.3027
  537TMC3    C5 7970   3.312   3.071  16.956 -1.0418  0.8036  0.2354
  537TMC3    C6 7971   3.396   3.127  17.048 -0.0484  0.6065  0.6154
  537TMC3     C 7972   3.475   3.105  16.633 -0.3028  0.0033  0.0472
  537TMC3     O 7973   3.384   3.051  16.570  0.4422 -0.5254 -0.1143
  537TMC3     H 7974   3.626   3.234  16.827  1.2700  1.3502  1.7318
  537TMC3    H1 7975   3.264   3.010  16.757  0.0143  0.0453  0.1540
  537TMC3    H2 7976   3.364   3.134  17.151 -1.5576  0.4174  0.1712
  537TMC3    C7 7977   3.179   3.032  17.004 -0.6666  0.5694  0.0008
  537TMC3    C8 7978   3.554   3.294  17.075  0.5581  0.3601 -0.0074
  537TMC3    O1 7979   3.086   3.040  16.924  0.7595 -0.2075 -0.0092
  537TMC3    O2 7980   3.543   3.281  17.194 -0.3790 -0.4103 -0.0917
  538TMC3    C1 7981   0.036   2.141  10.949 -0.2810 -0.0331 -0.3007
  538TMC3    C2 7982   0.136   2.051  10.952 -1.0491  0.8129  0.4679
  538TMC3    C3 7983   0.172   1.991  10.835  0.6397  0.9754 -0.6242
  538TMC3    C4 7984   4.697   2.172  10.827  0.1157  0.1228 -1.3784
  538TMC3    C5 7985   4.724   2.096  10.714 -0.0158 -0.6838 -0.1956
  538TMC3    C6 7986   0.101   2.004  10.718  0.4398  0.4277 -0.1727
  538TMC3     C 7987   4.714   2.217  11.061 -0.4107 -0.7481  0.1931
  538TMC3     O 7988   4.625   2.302  11.056  0.1572  0.0751 -0.5578
  538TMC3     H 7989   0.194   2.034  11.042  0.2153 -2.6528 -0.9994
  538TMC3    H1 7990   4.634   2.260  10.826 -0.7888 -0.5305 -1.0123
  538TMC3    H2 7991   0.119   1.930  10.640  0.9430  1.8447 -1.3920
  538TMC3    C7 7992   4.636   2.097  10.606  0.4250 -0.0573 -0.1691
  538TMC3    C8 7993   0.301   1.927  10.844 -0.3189 -0.0224 -0.0527
  538TMC3    O1 7994   4.676   2.062  10.497 -0.2750 -0.2862  0.3735
  538TMC3    O2 7995   0.357   1.918  10.953  0.5313 -0.3198 -0.4006
  539MPD2     C 7996   4.537   1.478  11.819 -0.7383 -0.0639 -0.6307
  539MPD2    C1 7997   4.635   1.476  11.718  0.7652 -0.2462  0.2796
  539MPD2    C2 7998   4.625   1.570  11.615 -0.0417  0.2864  0.2721
  539MPD2    C3 7999   4.516   1.662  11.607 -0.1044 -0.2343  0.0354
  539MPD2    C4 8000   4.416   1.651  11.707  0.0996 -0.0561  0.6972
  539MPD2    C5 8001   4.435   1.564  11.816  0.2163  0.3914 -0.8506
  539MPD2     H 8002   4.702   1.561  11.540 -1.0994 -1.6004 -0.5526
  539MPD2    H1 8003   4.331   1.718  11.701 -0.2465 -0.6211 -0.8594
  539MPD2    H2 8004   4.539   1.415  11.907 -1.1479 -1.3769 -1.5617
  539MPD2    H3 8005   4.367   1.567  11.900  1.4657 -0.0995  0.1934
  539MPD2     N 8006   4.497   1.761  11.511  0.1261 -0.5532  0.0488
  539MPD2    H5 8007   4.415   1.821  11.515 -0.0164 -0.8701  1.5510
  539MPD2    N1 8008   0.005   1.372  11.701  0.3644  0.3112 -0.8010
  539MPD2    H7 8009   0.035   1.356  11.606 -1.7394 -0.4466 -1.3476
  540TMC3    C1 8010   4.532   1.892  11.333  0.6000 -0.1057 -0.8685
  540TMC3    C2 8011   4.536   1.871  11.199 -0.0320  0.3483  0.6839
  540TMC3    C3 8012   4.478   1.970  11.118  0.0047  0.1075  0.0544
  540TMC3    C4 8013   4.472   1.997  11.384 -0.0554 -0.5163 -0.8168
  540TMC3    C5 8014   4.429   2.100  11.302  1.0680 -0.5094 -0.1030
  540TMC3    C6 8015   4.420   2.083  11.166 -0.4199 -0.4670 -1.1025
  540TMC3     C 8016   4.581   1.781  11.410  0.3978 -0.2999  0.2309
  540TMC3     O 8017   4.674   1.711  11.366 -0.3880  0.2020 -0.0542
  540TMC3     H 8018   4.584   1.783  11.157  2.2088  1.5967  0.6103
  540TMC3    H1 8019   4.464   2.008  11.491 -1.9812 -0.3615 -0.9829
  540TMC3    H2 8020   4.352   2.137  11.102 -0.7196  0.8379  0.3270
  540TMC3    C7 8021   4.348   2.210  11.354  0.1358  0.4281  0.0491
  540TMC3    C8 8022   4.435   1.939  10.988  0.1560 -0.7586  0.4279
  540TMC3    O1 8023   4.281   2.180  11.456 -0.4482 -0.0586  0.5246
  540TMC3    O2 8024   4.439   2.030  10.900  0.1863 -0.6568 -0.2232
  541MPD2     C 8025   2.034   2.743  13.582  0.4862 -0.0945  0.5083
  541MPD2    C1 8026   2.105   2.661  13.501 -0.0607 -0.3067 -0.4470
  541MPD2    C2 8027   2.157   2.721  13.385  0.2576 -0.1257 -0.0550
  541MPD2    C3 8028   2.147   2.860  13.359  0.1854  0.0170 -0.4195
  541MPD2    C4 8029   2.072   2.931  13.450  0.3729  0.5750 -0.0563
  541MPD2    C5 8030   2.010   2.872  13.551  0.6114  0.1385 -0.3982
  541MPD2     H 8031   2.212   2.648  13.325 -0.2277  0.2226 -0.9188
  541MPD2    H1 8032   2.055   3.038  13.442  0.4000  0.5854  0.0263
  541MPD2    H2 8033   1.991   2.699  13.671  1.8418 -0.8942  0.7525
  541MPD2    H3 8034   1.945   2.934  13.612  0.0154  0.0707 -0.9599
  541MPD2     N 8035   2.189   2.923  13.235  0.0456 -0.1990 -0.5190
  541MPD2    H5 8036   2.154   3.016  13.214 -0.6724 -0.3847 -0.1566
  541MPD2    N1 8037   2.114   2.518  13.527 -0.0018  0.3103 -0.0143
  541MPD2    H7 8038   2.063   2.469  13.600  0.2290 -0.7252 -0.5508
  542TMC3    C1 8039   2.265   2.955  13.019  0.2063  0.1813  0.3628
  542TMC3    C2 8040   2.284   2.890  12.899  0.3719 -0.1647  0.6094
  542TMC3    C3 8041   2.295   2.973  12.782 -0.5206 -0.0148  0.4479
  542TMC3    C4 8042   2.274   3.090  13.034  0.1479  0.0666  0.2269
  542TMC3    C5 8043   2.295   3.165  12.917  0.4446 -0.4959 -0.3885
  542TMC3    C6 8044   2.297   3.110  12.789  0.0075  0.6186 -0.5616
  542TMC3     C 8045   2.244   2.866  13.128 -0.1920 -1.0077 -0.0726
  542TMC3     O 8046   2.297   2.754  13.119  0.3440 -0.4904  0.1094
  542TMC3     H 8047   2.290   2.782  12.899 -1.6822 -0.2749  1.1642
  542TMC3    H1 8048   2.261   3.140  13.129 -0.8198  0.9282 -0.3651
  542TMC3    H2 8049   2.282   3.164  12.697  1.0005 -0.1539 -1.1808
  542TMC3    C7 8050   2.353   3.296  12.939 -0.5703 -0.3350 -0.1589
  542TMC3    C8 8051   2.334   2.906  12.659  0.2412  0.2893  0.1473
  542TMC3    O1 8052   2.351   3.340  13.055  0.1200  0.6389  0.6372
  542TMC3    O2 8053   2.366   2.973  12.561  0.2242  0.0806 -0.1775
  543TMC3    C1 8054   2.127   4.053  17.464  0.5252  0.5317  0.2314
  543TMC3    C2 8055   2.128   3.922  17.509  0.4859 -0.5015  0.1386
  543TMC3    C3 8056   2.082   3.892  17.638  0.3338  0.0779 -0.2263
  543TMC3    C4 8057   2.087   4.149  17.556 -1.2155  0.1338  0.0225
  543TMC3    C5 8058   2.057   4.118  17.688 -0.3387 -0.4889  0.1279
  543TMC3    C6 8059   2.036   3.989   0.018 -0.2561  0.1265 -0.3440
  543TMC3     C 8060   2.167   4.101  17.331 -1.0285 -0.0783 -0.4065
  543TMC3     O 8061   2.126   4.216  17.301  0.5607  0.2431 -0.6599
  543TMC3     H 8062   2.163   3.845  17.442 -0.5574 -1.2461  0.4569
  543TMC3    H1 8063   2.097   4.251  17.520 -0.1466 -0.4067 -1.1858
  543TMC3    H2 8064   1.974   3.963   0.103 -0.2811 -0.9285 -0.6818
  543TMC3    C7 8065   1.979   4.213   0.062  0.6079  0.9099  0.1253
  543TMC3    C8 8066   2.029   3.756  17.646 -0.5195 -0.2597 -0.2473
  543TMC3    O1 8067   1.933   4.302  17.699 -1.2175  0.2406  0.1450
  543TMC3    O2 8068   2.007   3.706  17.538 -0.3781  0.6372  0.0425
  544MPD2     C 8069   1.779   3.407   0.201  0.0583 -0.0598 -0.0793
  544MPD2    C1 8070   1.813   3.407   0.073  1.0699  0.2607 -0.1509
  544MPD2    C2 8071   1.867   3.520   0.023  0.0153  0.3124 -0.1166
  544MPD2    C3 8072   1.902   3.630   0.110  0.7259 -0.7179 -0.3858
  544MPD2    C4 8073   1.865   3.632   0.243  0.3528 -0.0956  0.4162
  544MPD2    C5 8074   1.794   3.518   0.286  0.0084  0.0938  0.4499
  544MPD2     H 8075   1.902   3.515  17.623 -0.4400 -1.5390 -0.1922
  544MPD2    H1 8076   1.892   3.702   0.320 -0.0659  0.8612 -0.3026
  544MPD2    H2 8077   1.732   3.319   0.244  2.4819 -0.9275  0.7879
  544MPD2    H3 8078   1.766   3.511   0.391 -0.6920  0.6445  0.2986
  544MPD2     N 8079   1.979   3.737   0.070 -0.1315  0.3035 -0.5173
  544MPD2    H5 8080   2.017   3.801   0.139 -0.6836 -0.0610  0.1187
  544MPD2    N1 8081   1.797   3.289  17.699  0.0804  0.4109 -0.9458
  544MPD2    H7 8082   1.744   3.215   0.042  2.6078 -0.2928  0.8420
  545TMC3    C1 8083   1.801   3.128  17.525 -0.3977 -0.1252  0.2731
  545TMC3    C2 8084   1.823   3.095  17.394  0.7088 -0.3056 -0.0198
  545TMC3    C3 8085   1.814   2.963  17.360 -0.2493 -0.2174  0.1357
  545TMC3    C4 8086   1.781   3.035  17.621 -0.7247  0.1265 -0.4035
  545TMC3    C5 8087   1.793   2.901  17.578 -0.9914  0.2022  0.0797
  545TMC3    C6 8088   1.796   2.860  17.452  0.0417  0.0215  0.3509
  545TMC3     C 8089   1.828   3.266  17.566 -0.2534  0.1904  0.2867
  545TMC3     O 8090   1.876   3.339  17.479 -0.5062 -0.0215 -0.1265
  545TMC3     H 8091   1.813   3.168  17.315  1.3688 -2.9119 -2.5153
  545TMC3    H1 8092   1.771   3.054   0.025 -0.2229 -0.0462 -0.3283
  545TMC3    H2 8093   1.808   2.758  17.417  1.9163  0.3719 -0.0570
  545TMC3    C7 8094   1.819   2.801  17.678 -0.1344 -0.2609  0.5062
  545TMC3    C8 8095   1.751   2.926  17.240  0.7064  0.0819 -0.0232
  545TMC3    O1 8096   1.773   2.822   0.088 -0.3558  0.7699 -0.8101
  545TMC3    O2 8097   1.787   2.998  17.150 -0.0023  0.0560 -0.1192
  546MPD2     C 8098   3.447   3.581   0.190  0.7978 -0.1355 -0.9331
  546MPD2    C1 8099   3.463   3.605   0.060 -0.3380  0.0425  0.6888
  546MPD2    C2 8100   3.501   3.734   0.011  0.1209 -0.4852 -0.2370
  546MPD2    C3 8101   3.522   3.838   0.108  0.4552  0.4726  0.1060
  546MPD2    C4 8102   3.511   3.798   0.241 -0.3690  0.1984  0.1375
  546MPD2    C5 8103   3.478   3.675   0.282 -0.2213 -0.1291  0.0900
  546MPD2     H 8104   3.511   3.752  17.606  1.3630 -0.3103 -0.0943
  546MPD2    H1 8105   3.518   3.872   0.321 -0.9942 -0.6190  0.9414
  546MPD2    H2 8106   3.419   3.484   0.229 -2.5641  1.2705  0.0649
  546MPD2    H3 8107   3.462   3.649   0.386  1.6414  0.5756  0.5541
  546MPD2     N 8108   3.560   3.969   0.077 -0.9441  0.3486 -0.0295
  546MPD2    H5 8109   3.575   4.030   0.157  3.8845 -1.8521  0.7666
  546MPD2    N1 8110   3.432   3.494  17.676  0.8460 -0.4009  0.1113
  546MPD2    H7 8111   3.386   3.420   0.027  3.2937 -0.6024  1.9528
  547TMC3    C1 8112   3.364   3.380  17.482  0.3417 -0.4458 -0.4460
  547TMC3    C2 8113   3.284   3.381  17.374  0.1775 -0.0964 -0.2017
  547TMC3    C3 8114   3.197   3.275  17.349  0.7237  0.6010 -0.1351
  547TMC3    C4 8115   3.387   3.267  17.553 -0.3424 -0.0948 -0.5057
  547TMC3    C5 8116   3.310   3.157  17.518  0.2315 -0.1918 -0.2527
  547TMC3    C6 8117   3.207   3.161  17.427  0.3341 -0.9593  0.5202
  547TMC3     C 8118   3.418   3.501  17.534 -0.9079 -0.6438 -0.1350
  547TMC3     O 8119   3.430   3.596  17.457 -0.4314  0.2143 -0.6644
  547TMC3     H 8120   3.268   3.476  17.324  0.8948  0.0158 -0.2120
  547TMC3    H1 8121   3.454   3.263  17.638  0.7468  1.0306 -1.3073
  547TMC3    H2 8122   3.147   3.077  17.395  0.5956 -1.4746  1.3848
  547TMC3    C7 8123   3.304   3.039  17.607  0.0417  0.1151 -0.0688
  547TMC3    C8 8124   3.079   3.291  17.268 -0.8030 -0.1263 -0.7454
  547TMC3    O1 8125   3.207   2.965  17.594 -0.7633  0.3250  0.2475
  547TMC3    O2 8126   3.079   3.390  17.192 -0.0184  0.9354 -0.6052
  548MPD2     C 8127   3.584   4.646  12.447  0.2976 -0.3924  0.1502
  548MPD2    C1 8128   3.523   4.536  12.496 -0.1438 -0.1627 -0.6287
  548MPD2    C2 8129   3.595   4.416  12.502  0.6234  0.4726  0.2081
  548MPD2    C3 8130   3.730   4.409  12.475 -0.4002  0.0623  0.1347
  548MPD2    C4 8131   3.783   4.517  12.409  0.8276  0.0107  0.6344
  548MPD2    C5 8132   3.711   4.630  12.399  0.3322 -0.3733 -0.5500
  548MPD2     H 8133   3.543   4.330  12.543 -0.7981  0.9540 -0.5863
  548MPD2    H1 8134   3.884   4.506  12.371 -0.1149  1.2693 -2.1974
  548MPD2    H2 8135   3.527   0.012  12.433 -1.2717 -1.3802  0.1331
  548MPD2    H3 8136   3.759   4.712  12.347  1.6364 -0.0641  1.1437
  548MPD2     N 8137   3.798   4.286  12.494 -0.3355  0.5254  0.1465
  548MPD2    H5 8138   3.738   4.207  12.517 -0.5639  0.9613  1.0427
  548MPD2    N1 8139   3.392   4.550  12.545 -0.2073 -0.0080  0.4505
  548MPD2    H7 8140   3.361   4.646  12.554  0.1193  0.1906 -0.5959
  549TMC3    C1 8141   3.172   4.487  12.620  0.4631 -0.0305  0.0306
  549TMC3    C2 8142   3.121   4.610  12.580 -0.1074  0.4613  0.2746
  549TMC3    C3 8143   2.985   4.633  12.601 -0.7651 -0.6168 -0.2111
  549TMC3    C4 8144   3.094   4.386  12.670 -0.4538  0.8102 -0.2101
  549TMC3    C5 8145   2.963   4.412  12.688  0.0193  1.1311  0.2071
  549TMC3    C6 8146   2.902   4.538  12.657 -0.3589  0.1249 -0.4263
  549TMC3     C 8147   3.310   4.443  12.584 -0.6147  0.3259  0.6808
  549TMC3     O 8148   3.326   4.322  12.588 -0.0413  0.7206 -0.2417
  549TMC3     H 8149   3.190   4.685  12.542  1.2564 -0.0694  1.7076
  549TMC3    H1 8150   3.141   4.295  12.707  0.3552  0.6107 -1.7318
  549TMC3    H2 8151   2.797   4.556  12.677  0.1660 -0.5397  2.9937
  549TMC3    C7 8152   2.874   4.319  12.754 -0.3022 -0.2820 -0.3508
  549TMC3    C8 8153   2.925   0.040  12.580  0.5776 -0.3509  0.2970
  549TMC3    O1 8154   2.764   4.362  12.790 -0.1158  0.6048 -0.2641
  549TMC3    O2 8155   2.803   0.045  12.584  0.0293  0.2310  0.0999
  550TMC3    C1 8156   1.664   2.163  12.671 -0.1982 -0.9978  0.1575
  550TMC3    C2 8157   1.677   2.210  12.798 -0.4650  0.8917 -0.1078
  550TMC3    C3 8158   1.766   2.303  12.832  0.1361 -1.0094  0.0835
  550TMC3    C4 8159   1.753   2.197  12.573  0.2603 -0.3149 -0.2344
  550TMC3    C5 8160   1.847   2.291  12.605 -0.4887 -0.1429 -0.3070
  550TMC3    C6 8161   1.840   2.355  12.730 -0.2280 -0.0258 -0.0344
  550TMC3     C 8162   1.527   2.148  12.623  0.8267 -0.8942  0.4286
  550TMC3     O 8163   1.438   2.123  12.698  0.6031  0.4888  0.5259
  550TMC3     H 8164   1.621   2.153  12.870  0.2244  0.4592  0.0881
  550TMC3    H1 8165   1.767   2.152  12.475 -1.0638 -1.2902  0.0176
  550TMC3    H2 8166   1.898   2.446  12.740  3.2071 -2.5052  2.4536
  550TMC3    C7 8167   1.852   2.376  12.495  0.1750  0.0857  0.0997
  550TMC3    C8 8168   1.714   2.386  12.938 -0.1830  0.0028  0.2847
  550TMC3    O1 8169   1.755   2.367  12.421  0.2252  0.2876 -0.0877
  550TMC3    O2 8170   1.753   2.362  13.052  0.6758  0.4434 -0.4843
  551TMC3    C1 8171   4.466   0.281  13.899 -0.8021 -0.3708 -0.2138
  551TMC3    C2 8172   4.577   0.238  13.834  0.0155  0.9725 -0.1213
  551TMC3    C3 8173   4.700   0.271  13.881  0.6813 -0.3017  0.8873
  551TMC3    C4 8174   4.474   0.363  14.002 -0.3546 -0.3204 -0.3108
  551TMC3    C5 8175   4.600   0.401  14.048  1.1324  0.0971  0.8452
  551TMC3    C6 8176   4.714   0.352  13.985 -0.1139  0.8619 -0.3191
  551TMC3     C 8177   4.355   0.288  13.810 -0.2310 -0.0958  0.0926
  551TMC3     O 8178   4.331   0.185  13.752 -0.6307  0.3364  0.4640
  551TMC3     H 8179   4.572   0.179  13.744  0.5357  0.8937 -0.0995
  551TMC3    H1 8180   4.380   0.401  14.041  0.9254  1.7355  0.7729
  551TMC3    H2 8181   0.086   0.391  14.016 -1.5609  3.2012  1.2109
  551TMC3    C7 8182   4.623   0.490  14.164 -0.5162  0.1708 -0.1663
  551TMC3    C8 8183   0.067   0.294  13.764 -0.0545  0.0984 -0.0826
  551TMC3    O1 8184   0.009   0.472  14.222 -0.3183  0.6815 -0.0131
  551TMC3    O2 8185   0.119   0.200  13.699 -0.5718 -0.1234 -0.4405
  552MPD2     C 8186   1.183   2.430  13.894  0.4237 -0.3530 -0.0709
  552MPD2    C1 8187   1.231   2.300  13.886  0.2016  0.6155 -0.6951
  552MPD2    C2 8188   1.365   2.274  13.906 -0.9071  0.1323  0.8217
  552MPD2    C3 8189   1.448   2.383  13.953 -0.0302  0.0344  0.5507
  552MPD2    C4 8190   1.403   2.518  13.943 -0.8673 -0.2010 -0.0870
  552MPD2    C5 8191   1.267   2.538  13.909  0.0369  0.0619  0.2876
  552MPD2     H 8192   1.400   2.172  13.902 -1.7801 -0.1626  0.6307
  552MPD2    H1 8193   1.471   2.601  13.961 -2.5107  0.9306  0.8677
  552MPD2    H2 8194   1.078   2.450  13.878  0.4232  0.0957  0.4799
  552MPD2    H3 8195   1.222   2.635  13.894 -0.3143 -0.2101 -0.4055
  552MPD2     N 8196   1.583   2.367  13.997  0.5300  0.1053  0.0855
  552MPD2    H5 8197   1.634   2.452  14.018 -3.0432  2.0974  0.7055
  552MPD2    N1 8198   1.140   2.191  13.868 -0.3498  1.0464 -0.5847
  552MPD2    H7 8199   1.193   2.104  13.868 -0.2645  1.1035 -3.5767
  553TMC3    C1 8200   0.941   2.083  13.830  0.4101  0.0953  0.0162
  553TMC3    C2 8201   0.853   2.065  13.727  0.1712  0.0866  0.1725
  553TMC3    C3 8202   0.810   1.939  13.688 -0.7150 -0.6777 -0.1068
  553TMC3    C4 8203   0.989   1.981  13.909 -0.1379 -0.6738  0.2478
  553TMC3    C5 8204   0.929   1.861  13.884  0.5756 -0.4252 -0.4917
  553TMC3    C6 8205   0.854   1.834  13.771  0.1119 -0.3228  0.2553
  553TMC3     C 8206   1.004   2.206  13.849 -0.0363 -0.8078  0.0647
  553TMC3     O 8207   0.932   2.299  13.806  0.4562  0.4530 -1.4131
  553TMC3     H 8208   0.826   2.146  13.660 -0.4136 -0.5939 -0.4217
  553TMC3    H1 8209   1.048   2.000  13.999  1.2798  0.8118 -0.9804
  553TMC3    H2 8210   0.823   1.731  13.753 -0.0214 -0.3408  0.5717
  553TMC3    C7 8211   1.011   1.745  13.916  0.0291 -0.3854 -0.2379
  553TMC3    C8 8212   0.834   1.923  13.543 -0.2153  0.0096 -0.6307
  553TMC3    O1 8213   0.957   1.636  13.902 -0.2510  0.4715 -0.1274
  553TMC3    O2 8214   0.870   2.023  13.480 -0.8708 -0.6304  0.9086
  554TMC3    C1 8215   3.620   1.594  11.917  0.3993  0.3140  0.0370
  554TMC3    C2 8216   3.573   1.512  11.817 -0.3401  0.6277  0.1833
  554TMC3    C3 8217   3.626   1.523  11.691  0.2144  0.5616 -0.0301
  554TMC3    C4 8218   3.721   1.686  11.891 -0.5959  0.9984  0.6981
  554TMC3    C5 8219   3.759   1.699  11.764 -0.5875  0.0189 -0.3558
  554TMC3    C6 8220   3.704   1.626  11.663 -0.2301 -0.5040 -0.2519
  554TMC3     C 8221   3.605   1.559  12.055  0.0584 -0.5072 -0.8414
  554TMC3     O 8222   3.614   1.653  12.127  0.2659  0.2006 -0.0892
  554TMC3     H 8223   3.485   1.450  11.830  1.0196 -1.4235 -0.4908
  554TMC3    H1 8224   3.762   1.741  11.975  2.6043  0.0298 -0.2094
  554TMC3    H2 8225   3.749   1.619  11.565 -2.3323  0.5218 -1.2827
  554TMC3    C7 8226   3.827   1.817  11.728 -0.4414 -0.7005  0.4212
  554TMC3    C8 8227   3.589   1.437  11.587  0.1354  0.2922 -0.4460
  554TMC3    O1 8228   3.867   1.893  11.822  0.3472  0.3667  0.1515
  554TMC3    O2 8229   3.603   1.481  11.475  0.2453  0.3029  0.1050
  555TMC3    C1 8230   2.546   0.467  15.328 -0.0032 -0.0090 -0.1930
  555TMC3    C2 8231   2.663   0.397  15.359 -0.7093  0.6046 -0.3729
  555TMC3    C3 8232   2.688   0.359  15.488 -0.1921 -0.3029  0.3387
  555TMC3    C4 8233   2.458   0.491  15.429 -0.0651  0.0801 -0.7366
  555TMC3    C5 8234   2.484   0.445  15.554  0.5515 -0.5810 -0.6313
  555TMC3    C6 8235   2.590   0.364  15.588  1.4498 -0.3244  0.5837
  555TMC3     C 8236   2.551   0.550  15.213 -0.1123  0.2571 -1.0547
  555TMC3     O 8237   2.629   0.514  15.121 -0.8130 -0.0433  0.0214
  555TMC3     H 8238   2.746   0.383  15.291  0.2394 -1.0453  1.1132
  555TMC3    H1 8239   2.365   0.542  15.413  0.6607  1.5548 -0.2251
  555TMC3    H2 8240   2.607   0.297  15.672 -0.8518 -1.0085  0.4979
  555TMC3    C7 8241   2.364   0.433  15.644  0.5388  0.2800  0.0485
  555TMC3    C8 8242   2.809   0.295  15.508  0.7236  0.0888 -0.2934
  555TMC3    O1 8243   2.255   0.405  15.591  0.2134 -0.0880 -0.1019
  555TMC3    O2 8244   2.868   0.251  15.411 -0.1436 -0.2075 -0.5410
  556MPD2     C 8245   0.259   2.296  10.606 -0.6892  0.0779 -0.2074
  556MPD2    C1 8246   0.372   2.224  10.638 -0.5258 -0.6429  0.3075
  556MPD2    C2 8247   0.432   2.152  10.544  0.0847  0.1673  0.1859
  556MPD2    C3 8248   0.378   2.125  10.418 -0.0373  0.2624 -0.0302
  556MPD2    C4 8249   0.263   2.197  10.393  0.5257 -0.1794 -0.4075
  556MPD2    C5 8250   0.207   2.281  10.488 -0.3858 -0.3411  0.1711
  556MPD2     H 8251   0.516   2.087  10.564  0.7565  1.3716  1.3199
  556MPD2    H1 8252   0.215   2.196  10.296  0.0307  0.5673 -0.1784
  556MPD2    H2 8253   0.208   2.372  10.664 -2.5910 -0.5291 -1.0961
  556MPD2    H3 8254   0.120   2.341  10.463  1.4811  2.1909 -0.2444
  556MPD2     N 8255   0.440   2.030  10.332 -0.1724  0.1591 -0.4744
  556MPD2    H5 8256   0.534   2.000  10.356 -0.3820  0.2797  0.4996
  556MPD2    N1 8257   0.432   2.236  10.763  0.4003  0.0623  0.0009
  556MPD2    H7 8258   0.522   2.192  10.776  0.4132 -0.2228 -0.9861
  557TMC3    C1 8259   0.477   1.901  10.129 -0.1529  0.0883  0.3485
  557TMC3    C2 8260   0.413   1.829  10.038 -0.5921  0.6821 -0.5760
  557TMC3    C3 8261   0.453   1.704  10.006  0.9865 -0.3983 -0.0626
  557TMC3    C4 8262   0.589   1.843  10.185  0.6112 -0.1563 -0.2670
  557TMC3    C5 8263   0.635   1.716  10.161 -1.3555 -0.9529  0.3830
  557TMC3    C6 8264   0.559   1.644  10.071  0.5370  0.0625  0.5417
  557TMC3     C 8265   0.392   2.001  10.205 -1.1784  0.7736 -0.0765
  557TMC3     O 8266   0.286   2.027  10.153 -0.0803 -0.0714  0.9191
  557TMC3     H 8267   0.326   1.870   9.988 -2.1222  1.5677  2.7796
  557TMC3    H1 8268   0.645   1.899  10.259  0.7405 -2.2746  1.2292
  557TMC3    H2 8269   0.572   1.538  10.052  1.5195  0.0407  1.3195
  557TMC3    C7 8270   0.663   1.657  10.283  0.1935  0.2606 -0.3098
  557TMC3    C8 8271   0.363   1.622   9.931  0.1265 -0.1273  0.6155
  557TMC3    O1 8272   0.779   1.624  10.312 -0.2089  0.2801 -0.3536
  557TMC3    O2 8273   0.249   1.662   9.939 -0.0577 -0.1952  0.2762
  558TMC3    C1 8274   3.777   4.373  10.473  0.4241  0.4173 -0.0645
  558TMC3    C2 8275   3.651   4.375  10.524  0.0368 -0.1456 -0.5557
  558TMC3    C3 8276   3.560   4.289  10.466 -0.2829  0.4075 -0.6179
  558TMC3    C4 8277   3.813   4.290  10.376  0.0323 -0.3119  0.2030
  558TMC3    C5 8278   3.723   4.200  10.331  0.4855  0.5277 -0.2249
  558TMC3    C6 8279   3.594   4.189  10.370 -0.5272  0.6378  0.3750
  558TMC3     C 8280   3.883   4.464  10.525  0.2983 -0.0077 -0.2999
  558TMC3     O 8281   3.995   4.453  10.471 -0.1942  1.0304 -0.1399
  558TMC3     H 8282   3.618   4.444  10.601  1.8782 -0.7125  0.7484
  558TMC3    H1 8283   3.910   4.299  10.328 -0.4144  2.7117 -0.1416
  558TMC3    H2 8284   3.531   4.106  10.342  0.1993  0.6206 -1.2232
  558TMC3    C7 8285   3.782   4.114  10.231  1.0411 -0.2544 -0.3647
  558TMC3    C8 8286   3.425   4.271  10.528 -0.1268  0.4858  0.4610
  558TMC3    O1 8287   3.904   4.098  10.224 -0.0931  0.6656  0.1177
  558TMC3    O2 8288   3.361   4.179  10.484  0.1113  0.0269 -0.2587
  559MPD2     C 8289   3.474   0.795  10.622 -0.5541 -0.5206  0.1363
  559MPD2    C1 8290   3.409   0.727  10.722  0.1732  0.1493 -0.5169
  559MPD2    C2 8291   3.492   0.701  10.831 -0.0364  0.1849 -0.0335
  559MPD2    C3 8292   3.628   0.734  10.842 -0.6460  0.3791 -0.4109
  559MPD2    C4 8293   3.691   0.777  10.732 -0.0222  0.0255  0.9476
  559MPD2    C5 8294   3.609   0.821  10.625 -0.3072  0.1279  0.6466
  559MPD2     H 8295   3.454   0.641  10.913 -2.5944  1.3907 -0.3470
  559MPD2    H1 8296   3.798   0.790  10.725  0.1180 -0.8664  1.4058
  559MPD2    H2 8297   3.415   0.820  10.535 -2.4644  0.1374  1.6167
  559MPD2    H3 8298   3.657   0.873  10.543 -2.6527  2.6097  0.8392
  559MPD2     N 8299   3.693   0.703  10.958  0.3238  0.5645  0.1406
  559MPD2    H5 8300   3.644   0.648  11.028 -0.3072  1.2494  0.2254
  559MPD2    N1 8301   3.272   0.703  10.707 -0.1254  0.2883  0.1622
  559MPD2    H7 8302   3.227   0.742  10.625 -0.9012  0.9223  0.8918
  560TMC3    C1 8303   3.867   0.731  11.122  0.6087  1.1210  0.4151
  560TMC3    C2 8304   3.860   0.596  11.158 -0.3397  0.7794  0.4619
  560TMC3    C3 8305   3.921   0.563  11.273 -0.1689  0.4764  0.0334
  560TMC3    C4 8306   3.936   0.826  11.193  0.2508 -0.0942 -0.2495
  560TMC3    C5 8307   4.007   0.785  11.303 -0.5787  0.3875  0.6206
  560TMC3    C6 8308   3.999   0.651  11.342 -0.0694 -0.3073  0.0870
  560TMC3     C 8309   3.799   0.776  10.998  0.5380 -1.2354  0.1241
  560TMC3     O 8310   3.834   0.885  10.958  0.3775  0.9767 -0.7556
  560TMC3     H 8311   3.822   0.518  11.092  0.5776 -1.1636  2.2203
  560TMC3    H1 8312   3.937   0.929  11.162  1.5640 -0.0913 -0.1865
  560TMC3    H2 8313   4.035   0.620  11.439 -0.9587 -5.5696 -1.2635
  560TMC3    C7 8314   4.112   0.861  11.366 -0.1373  0.1553  0.8903
  560TMC3    C8 8315   3.932   0.425  11.320 -0.4950 -0.8812 -0.0041
  560TMC3    O1 8316   4.172   0.794  11.452 -0.0824 -0.5018 -0.2636
  560TMC3    O2 8317   4.019   0.392  11.403 -0.1523 -0.3531 -0.2472
  561TMC3    C1 8318   1.292   4.501  11.768 -0.6191 -0.1796  1.1721
  561TMC3    C2 8319   1.207   4.484  11.869  0.3273 -0.0348 -0.6479
  561TMC3    C3 8320   1.140   4.598  11.910  0.1730 -0.3369  0.5554
  561TMC3    C4 8321   1.314   4.624  11.708 -0.5539 -0.2081 -0.3839
  561TMC3    C5 8322   1.243   0.006  11.749  0.0939  0.3783  0.2741
  561TMC3    C6 8323   1.152   4.724  11.852 -0.3332  0.0193 -0.3457
  561TMC3     C 8324   1.350   4.379  11.718  0.6135  0.0332 -0.1077
  561TMC3     O 8325   1.316   4.274  11.768  0.9166  0.3796 -0.6932
  561TMC3     H 8326   1.193   4.386  11.913  1.3136  1.2803  2.5839
  561TMC3    H1 8327   1.411   4.631  11.659  0.0037 -1.2795  0.5637
  561TMC3    H2 8328   1.103   0.081  11.903  1.2323  0.4969  0.3960
  561TMC3    C7 8329   1.259   0.138  11.697  0.2395  0.0188  0.6831
  561TMC3    C8 8330   1.064   4.586  12.031 -0.0115  0.3498 -0.1057
  561TMC3    O1 8331   1.244   0.230  11.776 -0.6237 -0.3438 -0.2047
  561TMC3    O2 8332   1.103   4.495  12.107 -0.3479 -0.1869  0.4662
  562TMC3    C1 8333   1.704   1.315  16.155 -0.5992 -0.3158 -0.7686
  562TMC3    C2 8334   1.601   1.393  16.121  0.7583 -0.0123  0.4197
  562TMC3    C3 8335   1.609   1.438  15.994 -0.0877  0.0858  0.3112
  562TMC3    C4 8336   1.802   1.274  16.073 -0.0268  0.8990 -0.0755
  562TMC3    C5 8337   1.814   1.333  15.951 -0.1673  0.4496 -0.8176
  562TMC3    C6 8338   1.706   1.407  15.898 -0.4989  0.0703  0.6990
  562TMC3     C 8339   1.662   1.223  16.258  0.1883 -1.1254  0.1433
  562TMC3     O 8340   1.569   1.255  16.328  0.5267 -0.7335  0.1507
  562TMC3     H 8341   1.517   1.416  16.185  2.2891 -0.8846  2.7366
  562TMC3    H1 8342   1.880   1.202  16.098 -0.2903  0.1135 -1.4928
  562TMC3    H2 8343   1.693   1.437  15.795  3.2854 -1.8288 -0.3131
  562TMC3    C7 8344   1.932   1.333  15.868 -0.0943 -0.0747 -0.0982
  562TMC3    C8 8345   1.483   1.500  15.953 -0.2995  1.4038 -0.2405
  562TMC3    O1 8346   1.908   1.362  15.750  0.0745  0.4133  0.2221
  562TMC3    O2 8347   1.398   1.519  16.036  0.6062  0.5053 -0.7285
  563MPD2     C 8348   4.530   1.910  15.598 -0.1012  1.0220 -0.1317
  563MPD2    C1 8349   4.469   1.992  15.689 -0.8888 -0.1880  0.4905
  563MPD2    C2 8350   4.546   2.045  15.793 -0.1067 -0.4415 -0.2547
  563MPD2    C3 8351   4.675   2.000  15.819 -0.3162  0.3295 -0.1923
  563MPD2    C4 8352   0.007   1.915  15.733 -0.0401  0.6867  0.1109
  563MPD2    C5 8353   4.663   1.874  15.620 -0.4255 -0.4047  0.1712
  563MPD2     H 8354   4.498   2.118  15.857 -1.2388 -0.5785 -0.9304
  563MPD2    H1 8355   0.113   1.899  15.717 -0.4489 -0.9068 -1.0451
  563MPD2    H2 8356   4.476   1.882  15.508  0.6847 -1.3427  0.1222
  563MPD2    H3 8357   4.703   1.809  15.543  0.4018 -0.4317  0.6288
  563MPD2     N 8358   0.020   2.051  15.940  0.1332 -0.4452 -0.5559
  563MPD2    H5 8359   4.699   2.126  15.989  0.1317 -1.4363  0.9558
  563MPD2    N1 8360   4.333   2.031  15.672  0.9328 -0.1955  0.1322
  563MPD2    H7 8361   4.301   2.089  15.750  0.3949  1.8547 -1.6138
  564TMC3    C1 8362   4.123   2.052  15.617  0.1914  0.7029  0.3452
  564TMC3    C2 8363   4.027   1.957  15.636 -0.0197 -0.0137  0.2838
  564TMC3    C3 8364   3.926   1.980  15.725  0.2225  1.0146 -1.2254
  564TMC3    C4 8365   4.135   2.165  15.685  0.4811  0.4787 -1.1767
  564TMC3    C5 8366   4.050   2.179  15.787 -0.4384 -0.0099  0.0701
  564TMC3    C6 8367   3.944   2.087  15.806 -0.0139 -0.5293 -0.2451
  564TMC3     C 8368   4.243   1.994  15.574  0.3253 -0.6780  0.1342
  564TMC3     O 8369   4.237   1.894  15.504 -0.3722 -0.9759 -0.0699
  564TMC3     H 8370   4.038   1.870  15.573  0.3733 -0.6908  1.2789
  564TMC3    H1 8371   4.209   2.242  15.669  1.5427 -0.0145  1.4087
  564TMC3    H2 8372   3.883   2.106  15.894 -0.4377  0.5009 -0.7620
  564TMC3    C7 8373   4.120   2.185  15.911 -0.6628 -0.8208 -0.3341
  564TMC3    C8 8374   3.865   1.870  15.796  0.9626 -0.3490  0.1743
  564TMC3    O1 8375   4.117   2.082  15.981  0.0607 -1.0303 -0.0413
  564TMC3    O2 8376   3.853   1.875  15.921 -0.2862  0.3367  0.1622
  565TMC3    C1 8377   4.570   3.897   9.409 -0.3215 -0.7703  0.0403
  565TMC3    C2 8378   4.581   3.776   9.466  0.5909  0.1829 -0.3549
  565TMC3    C3 8379   4.707   3.722   9.466 -0.8929 -0.0921  0.0073
  565TMC3    C4 8380   4.667   3.956   9.330 -0.4673 -0.2062 -0.0793
  565TMC3    C5 8381   0.060   3.897   9.335 -0.1994 -0.9049 -0.4425
  565TMC3    C6 8382   0.086   3.777   9.396 -0.2256  0.4278 -0.0766
  565TMC3     C 8383   4.439   3.960   9.406 -0.1662  0.3072 -0.4411
  565TMC3     O 8384   4.431   4.067   9.352  0.6112 -0.2563  0.0864
  565TMC3     H 8385   4.506   3.741   9.537  0.3583 -1.8225 -1.5816
  565TMC3    H1 8386   4.650   4.055   9.288  0.6185  0.1485  0.3225
  565TMC3    H2 8387   0.183   3.729   9.385  0.1214  0.3491  3.1563
  565TMC3    C7 8388   0.143   3.918   9.217  1.1640  0.4517  0.0106
  565TMC3    C8 8389   0.007   3.622   9.569 -0.2879 -0.1564  0.3944
  565TMC3    O1 8390   0.090   3.965   9.117  0.1205  0.2344 -0.3076
  565TMC3    O2 8391   0.129   3.622   9.596 -0.1490  0.1225 -0.2007
  566MPD2     C 8392   1.745   0.762  14.776 -0.4764 -0.0602 -0.4521
  566MPD2    C1 8393   1.801   0.842  14.677 -0.6204  0.4674 -0.1207
  566MPD2    C2 8394   1.731   0.861  14.560  0.1446  0.3715  0.3190
  566MPD2    C3 8395   1.607   0.809  14.543  0.0238  0.5442 -0.1972
  566MPD2    C4 8396   1.558   0.731  14.640  0.0430 -0.3037  0.4982
  566MPD2    C5 8397   1.620   0.708  14.756  0.1577 -0.4349 -1.0407
  566MPD2     H 8398   1.776   0.906  14.472 -1.2601  1.3809  0.1247
  566MPD2    H1 8399   1.459   0.691  14.618  1.3025 -1.4045 -3.0888
  566MPD2    H2 8400   1.780   0.745  14.878 -1.5161  0.4095 -0.0185
  566MPD2    H3 8401   1.570   0.645  14.828  0.9488  0.2358  0.0992
  566MPD2     N 8402   1.535   0.823  14.424  0.3092  0.1680 -0.4366
  566MPD2    H5 8403   1.464   0.758  14.394  0.9626 -0.2168 -1.1493
  566MPD2    N1 8404   1.934   0.888  14.692  0.3423 -0.1948  0.0964
  566MPD2    H7 8405   1.975   0.849  14.776  0.5052 -0.9259 -0.3222
  567TMC3    C1 8406   2.152   0.988  14.633 -0.4717  0.0329 -0.4895
  567TMC3    C2 8407   2.210   1.066  14.539  0.4536 -0.0907 -0.1741
  567TMC3    C3 8408   2.327   1.024  14.499  0.5337  0.1878  0.3098
  567TMC3    C4 8409   2.204   0.870  14.684  0.6828  0.4191  0.5848
  567TMC3    C5 8410   2.335   0.851  14.655  0.1915 -0.4386  0.2594
  567TMC3    C6 8411   2.397   0.922  14.559 -0.9372 -0.1086  0.0671
  567TMC3     C 8412   2.005   0.971  14.611 -0.1091 -0.0782  0.5334
  567TMC3     O 8413   1.961   1.030  14.510  0.1615 -0.3199 -0.3375
  567TMC3     H 8414   2.160   1.152  14.497  1.5715  0.3984 -0.5109
  567TMC3    H1 8415   2.143   0.806  14.746  1.3070 -1.6602 -0.9341
  567TMC3    H2 8416   2.487   0.882  14.516 -0.8222 -0.7820  0.9558
  567TMC3    C7 8417   2.379   0.717  14.677  0.0473 -0.1831  0.8037
  567TMC3    C8 8418   2.370   1.092  14.375 -0.4284  0.1980 -0.8548
  567TMC3    O1 8419   2.484   0.691  14.623 -0.2684  0.4293  0.6761
  567TMC3    O2 8420   2.301   1.181  14.324 -0.0942 -0.8763  0.1718
  568MPD2     C 8421   4.408   0.713  16.620  0.1721  0.6670 -0.2146
  568MPD2    C1 8422   4.326   0.756  16.715  0.1549  0.3910  0.7292
  568MPD2    C2 8423   4.235   0.856  16.682 -0.0320  0.1882 -0.0401
  568MPD2    C3 8424   4.208   0.895  16.552 -0.5474 -0.6436  0.3502
  568MPD2    C4 8425   4.289   0.836  16.457 -0.3669 -0.3449 -0.7341
  568MPD2    C5 8426   4.389   0.747  16.488 -0.0312 -0.5681  0.8780
  568MPD2     H 8427   4.193   0.912  16.765 -0.2570 -0.9523  0.6229
  568MPD2    H1 8428   4.268   0.851  16.351  1.2648 -1.7042 -1.2474
  568MPD2    H2 8429   4.483   0.640  16.649  0.2406  0.4020 -1.0431
  568MPD2    H3 8430   4.455   0.695  16.419 -2.0474 -0.7330 -0.9134
  568MPD2     N 8431   4.113   0.997  16.529  0.1038  0.5120 -0.2615
  568MPD2    H5 8432   4.076   1.036  16.615  1.4363  1.6752 -0.2104
  568MPD2    N1 8433   4.331   0.691  16.849  0.2378  0.5205 -0.8748
  568MPD2    H7 8434   4.411   0.629  16.862  0.7362  1.8681  2.4372
  569TMC3    C1 8435   3.985   1.149  16.398 -0.3112  0.4347  0.3398
  569TMC3    C2 8436   4.000   1.255  16.485 -0.0969 -0.6475  0.0931
  569TMC3    C3 8437   3.957   1.380  16.444  0.1753 -0.2738 -0.1531
  569TMC3    C4 8438   3.927   1.163  16.275  0.2936 -0.0739  0.1127
  569TMC3    C5 8439   3.876   1.285  16.243 -0.2216  0.1790  0.2368
  569TMC3    C6 8440   3.897   1.396  16.325 -0.0898  0.1614 -0.5370
  569TMC3     C 8441   4.093   1.051  16.403 -0.8142 -0.4261 -0.9768
  569TMC3     O 8442   4.150   1.025  16.296 -0.5588 -0.1416 -0.6809
  569TMC3     H 8443   4.046   1.246  16.582  0.7382  1.5564 -0.1021
  569TMC3    H1 8444   3.923   1.074  16.213  1.0108  1.0135 -1.4930
  569TMC3    H2 8445   3.871   1.495  16.288  0.9323  0.6823  0.1263
  569TMC3    C7 8446   3.823   1.294  16.108 -0.2674 -0.0424  0.1019
  569TMC3    C8 8447   4.021   1.493  16.513 -0.3223  0.5686 -0.3033
  569TMC3    O1 8448   3.805   1.185  16.051  0.6105 -0.1300  0.0612
  569TMC3    O2 8449   4.093   1.468  16.607  0.7189 -0.1003 -0.0563
  570TMC3    C1 8450   3.725   4.541  16.402  0.0816 -0.0717  0.1263
  570TMC3    C2 8451   3.814   4.566  16.305 -0.6836 -0.2133 -0.0228
  570TMC3    C3 8452   3.846   4.689  16.279 -0.2470  0.7833 -0.0039
  570TMC3    C4 8453   3.669   4.634  16.482  0.1305  0.2219 -0.1193
  570TMC3    C5 8454   3.707   0.034  16.460 -0.2997 -0.0658  0.2090
  570TMC3    C6 8455   3.797   0.066  16.360 -0.2618 -0.0068  0.0937
  570TMC3     C 8456   3.692   4.399  16.422  0.1574 -0.4677  0.0661
  570TMC3     O 8457   3.750   4.313  16.357  0.4831  0.0022  0.0488
  570TMC3     H 8458   3.841   4.482  16.242 -0.9722 -1.3680  1.3700
  570TMC3    H1 8459   3.598   4.608  16.559  0.3049 -1.2288 -0.4427
  570TMC3    H2 8460   3.822   0.168  16.331 -0.2140 -0.3971 -1.2357
  570TMC3    C7 8461   3.679   0.136  16.562 -1.0248 -0.3236  0.6176
  570TMC3    C8 8462   3.892   0.005  16.145 -0.3603  0.1750  0.0872
  570TMC3    O1 8463   3.623   0.083  16.662 -0.0548 -0.1419 -0.1191
  570TMC3    O2 8464   3.928   0.123  16.140 -0.2347 -0.2769 -0.7540
  571MPD2     C 8465   1.258   1.592  17.397  0.4262  0.3495  0.2333
  571MPD2    C1 8466   1.352   1.659  17.479 -0.8613  0.1375  0.1849
  571MPD2    C2 8467   1.324   1.719  17.601 -0.4762 -0.0186 -0.2117
  571MPD2    C3 8468   1.194   1.708  17.653 -0.1216  0.5224 -0.8176
  571MPD2    C4 8469   1.104   1.660  17.567 -1.1024 -0.4059  0.1686
  571MPD2    C5 8470   1.130   1.591  17.448 -0.3674 -0.0775 -0.1165
  571MPD2     H 8471   1.398   1.769  17.662  0.8236 -0.6812 -1.2373
  571MPD2    H1 8472   1.004   1.663  17.606 -1.3719  0.6002 -0.6020
  571MPD2    H2 8473   1.282   1.548  17.301 -0.0333 -0.8477  0.6650
  571MPD2    H3 8474   1.054   1.539  17.391 -0.8794 -0.2202  0.7016
  571MPD2     N 8475   1.151   1.764   0.072 -0.4444  0.1152  0.0436
  571MPD2    H5 8476   1.049   1.763   0.079 -0.3228  0.7811  1.8588
  571MPD2    N1 8477   1.487   1.664  17.419 -0.4038  0.4087 -0.8029
  571MPD2    H7 8478   1.505   1.613  17.333  0.2901 -1.9723  0.7518
  572TMC3    C1 8479   1.143   1.928   0.244  0.7487  0.1553  0.5134
  572TMC3    C2 8480   1.013   1.894   0.266 -0.2805  0.6165 -0.4041
  572TMC3    C3 8481   0.937   1.981   0.339  0.0949  0.8329  1.0929
  572TMC3    C4 8482   1.195   2.049   0.274 -0.1764  0.8701  0.0539
  572TMC3    C5 8483   1.114   2.132   0.344 -0.2321  0.6162  0.1393
  572TMC3    C6 8484   0.984   2.103   0.377 -0.3392 -1.0589  0.6644
  572TMC3     C 8485   1.225   1.842   0.156 -0.0227 -0.4327  0.5967
  572TMC3     O 8486   1.345   1.849   0.174  0.2397 -0.0298 -0.6308
  572TMC3     H 8487   0.981   1.790   0.261 -0.8003  0.6551  1.7535
  572TMC3    H1 8488   1.298   2.074   0.250 -0.4595  0.2442 -1.8725
  572TMC3    H2 8489   0.923   2.170   0.435 -1.3258 -0.7045 -0.7816
  572TMC3    C7 8490   1.152   2.274   0.357  0.3449  0.5763  0.8662
  572TMC3    C8 8491   0.833   1.921   0.425 -0.2166 -0.2111  0.1343
  572TMC3    O1 8492   1.065   2.350   0.315 -0.0143 -0.0380  0.3334
  572TMC3    O2 8493   0.851   1.803   0.451  0.2416  0.0891  0.5154
  573MPD2     C 8494   2.538   1.681   0.529  0.4699 -0.7897  1.3646
  573MPD2    C1 8495   2.558   1.815   0.524 -0.3462 -0.7305  0.1394
  573MPD2    C2 8496   2.544   1.881   0.403 -0.0849  0.0792 -0.2189
  573MPD2    C3 8497   2.512   1.808   0.291 -0.4781 -0.4105 -0.4189
  573MPD2    C4 8498   2.495   1.677   0.297 -0.0194  0.5036 -0.6020
  573MPD2    C5 8499   2.505   1.613   0.416 -0.3748 -0.0868 -0.5027
  573MPD2     H 8500   2.552   1.989   0.394  1.9174 -0.1903 -1.5757
  573MPD2    H1 8501   2.471   1.611   0.215  1.1022 -0.6996  0.0257
  573MPD2    H2 8502   2.536   1.633   0.626 -2.6644  1.1736  2.3020
  573MPD2    H3 8503   2.481   1.507   0.414 -0.3051 -0.0380 -3.5537
  573MPD2     N 8504   2.487   1.871   0.166  0.2121 -0.2714 -0.2941
  573MPD2    H5 8505   2.458   1.806   0.094 -1.6106  0.6778 -0.4314
  573MPD2    N1 8506   2.598   1.875   0.648  0.2268 -0.3598 -0.4585
  573MPD2    H7 8507   2.616   1.821   0.732 -2.1400 -0.1994  0.1647
  574TMC3    C1 8508   2.458   2.025  17.699 -0.3976  0.1713  0.0659
  574TMC3    C2 8509   2.321   2.020   0.001  0.2695  0.3812  0.4550
  574TMC3    C3 8510   2.256   2.101  17.612 -0.2616  0.1832  0.7469
  574TMC3    C4 8511   2.523   2.118  17.611  0.1081  0.9970  1.0235
  574TMC3    C5 8512   2.453   2.198  17.535 -0.7629 -0.3865  0.0435
  574TMC3    C6 8513   2.314   2.199  17.528  0.6226  0.5110 -0.8633
  574TMC3     C 8514   2.518   1.997   0.126  0.3398  0.1213  0.6770
  574TMC3     O 8515   2.590   2.084   0.177 -0.5275  0.3686  0.3095
  574TMC3     H 8516   2.273   1.965   0.081 -1.5553 -1.5106 -1.9603
  574TMC3    H1 8517   2.631   2.124  17.618  0.1796  0.9229  0.0940
  574TMC3    H2 8518   2.258   2.253  17.453 -0.7472 -0.0967 -0.2663
  574TMC3    C7 8519   2.520   2.271  17.431  0.2724 -0.6633  0.3132
  574TMC3    C8 8520   2.123   2.133  17.664  0.4267  0.4336  0.2611
  574TMC3    O1 8521   2.618   2.214  17.379 -0.4196  0.1402 -0.1564
  574TMC3    O2 8522   2.087   2.074   0.059  0.6358  0.4641 -0.2370
  575TMC3    C1 8523   0.576   3.247  10.105  0.7518 -0.1206 -0.3357
  575TMC3    C2 8524   0.536   3.168  10.206  0.1606  0.5780  0.2177
  575TMC3    C3 8525   0.415   3.101  10.195 -0.2625  0.2398 -0.1402
  575TMC3    C4 8526   0.485   3.288  10.004  0.4752 -0.2553 -0.3035
  575TMC3    C5 8527   0.359   3.235  10.009  0.5111  0.2374  0.1023
  575TMC3    C6 8528   0.319   3.147  10.110 -0.0931 -0.2223 -0.9202
  575TMC3     C 8529   0.718   3.268  10.102  0.6149  0.1603  0.4336
  575TMC3     O 8530   0.792   3.211  10.182 -0.1654  0.1593  0.4351
  575TMC3     H 8531   0.604   3.128  10.280 -0.5385 -1.2981 -0.1690
  575TMC3    H1 8532   0.513   3.351   9.921 -0.5720 -0.6104 -0.9351
  575TMC3    H2 8533   0.220   3.103  10.105 -1.3016  2.4508 -0.2366
  575TMC3    C7 8534   0.267   3.289   9.914 -0.2891  0.3470  0.0373
  575TMC3    C8 8535   0.397   2.985  10.273 -0.2793 -0.0805  0.3560
  575TMC3    O1 8536   0.308   3.375   9.838  0.1843 -0.3849  0.5617
  575TMC3    O2 8537   0.449   3.000  10.385  0.2091 -0.4229 -0.0635
  576MPD2     C 8538   0.185   0.378  13.067  0.2847  0.3500 -0.3385
  576MPD2    C1 8539   0.140   0.451  12.956  0.1714 -0.2657 -0.4563
  576MPD2    C2 8540   0.061   0.565  12.975 -0.2077  0.5457  0.1953
  576MPD2    C3 8541   0.009   0.587  13.102  0.8148 -0.4796  0.4077
  576MPD2    C4 8542   0.055   0.509  13.208 -0.0539  0.8751 -0.3624
  576MPD2    C5 8543   0.142   0.405  13.192  0.0216 -0.1509 -0.0877
  576MPD2     H 8544   0.033   0.629  12.892 -0.4738 -0.2800 -0.3530
  576MPD2    H1 8545   0.022   0.529  13.310 -1.6171 -0.8257 -0.5340
  576MPD2    H2 8546   0.265   0.305  13.067 -0.2328 -0.2327  0.6228
  576MPD2    H3 8547   0.190   0.353  13.274 -0.0273  1.2235  0.8141
  576MPD2     N 8548   4.652   0.702  13.115 -0.5834  1.1265 -0.6955
  576MPD2    H5 8549   4.643   0.768  13.039 -2.0560  0.5734 -1.0111
  576MPD2    N1 8550   0.182   0.433  12.825  0.2152  0.4151 -0.5042
  576MPD2    H7 8551   0.158   0.513  12.768 -1.2282 -0.4620 -1.1041
  577TMC3    C1 8552   0.304   0.328  12.644 -0.6165 -0.1326 -0.9024
  577TMC3    C2 8553   0.391   0.227  12.616  0.2861  0.5028  0.4407
  577TMC3    C3 8554   0.461   0.231  12.493  0.0648  0.3319  0.3746
  577TMC3    C4 8555   0.283   0.431  12.559  0.0148 -0.5146 -0.4248
  577TMC3    C5 8556   0.350   0.428  12.434 -0.1728  0.2621 -0.5045
  577TMC3    C6 8557   0.435   0.327  12.399  0.3552  0.0863  0.4532
  577TMC3     C 8558   0.244   0.321  12.777 -0.2900 -0.1304  1.2657
  577TMC3     O 8559   0.254   0.217  12.838 -0.4954 -0.3367 -0.1801
  577TMC3     H 8560   0.404   0.150  12.691  1.4769  1.4277  1.1766
  577TMC3    H1 8561   0.219   0.513  12.589  0.7660 -0.4415  1.0118
  577TMC3    H2 8562   0.485   0.325  12.304  0.5707  0.3880  0.5599
  577TMC3    C7 8563   0.357   0.550  12.363  0.0098  0.5412  0.5297
  577TMC3    C8 8564   0.527   0.108  12.460 -0.6159  0.1817  0.3936
  577TMC3    O1 8565   0.398   0.542  12.249  0.3433  0.0047 -0.1674
  577TMC3    O2 8566   0.502   0.018  12.537  0.4266  0.1008  0.5306
  578MPD2     C 8567   2.603   4.466   1.584  0.1772 -0.1235 -0.3490
  578MPD2    C1 8568   2.729   4.484   1.531 -0.2906 -1.1266 -0.6013
  578MPD2    C2 8569   2.836   4.433   1.598  0.0183 -0.1115 -0.1997
  578MPD2    C3 8570   2.821   4.360   1.717 -0.8241  0.0234  0.3851
  578MPD2    C4 8571   2.695   4.348   1.772  0.0268 -0.1961  0.2080
  578MPD2    C5 8572   2.586   4.394   1.697  0.1755  0.2853 -0.1797
  578MPD2     H 8573   2.934   4.450   1.555  0.4141 -0.3750  0.5881
  578MPD2    H1 8574   2.676   4.286   1.859 -1.9575  1.7591  1.1605
  578MPD2    H2 8575   2.511   4.500   1.537  0.7521  2.3989  0.3495
  578MPD2    H3 8576   2.485   4.376   1.731  0.1767 -2.1496 -1.4278
  578MPD2     N 8577   2.942   4.300   1.776 -0.2682 -0.0727  0.0692
  578MPD2    H5 8578   3.034   4.310   1.732 -0.7359  2.7366 -0.2659
  578MPD2    N1 8579   2.739   4.559   1.406 -0.6627  0.5565  0.3626
  578MPD2    H7 8580   2.651   4.595   1.370  0.2750  2.5967  0.0929
  579TMC3    C1 8581   3.086   4.218   1.940 -0.4469 -0.6936  0.2278
  579TMC3    C2 8582   3.126   4.238   2.069 -0.4279 -0.7515 -0.4355
  579TMC3    C3 8583   3.260   4.205   2.087 -0.6078  0.0810  0.3901
  579TMC3    C4 8584   3.163   4.145   1.847  0.0151  0.3421 -0.0368
  579TMC3    C5 8585   3.294   4.122   1.877 -0.0484 -0.0010 -0.2345
  579TMC3    C6 8586   3.349   4.161   1.995 -1.2445 -0.2423  0.3851
  579TMC3     C 8587   2.948   4.255   1.901  0.0998 -0.3205  0.2746
  579TMC3     O 8588   2.859   4.261   1.988 -0.2525 -0.0732  0.5027
  579TMC3     H 8589   3.064   4.279   2.148  0.2738  1.7832 -1.1928
  579TMC3    H1 8590   3.119   4.116   1.752 -0.8002  1.1395  0.0945
  579TMC3    H2 8591   3.449   4.126   2.017 -0.7448  0.5102 -0.6862
  579TMC3    C7 8592   3.386   4.110   1.766 -0.6140  0.1311 -1.1363
  579TMC3    C8 8593   3.314   4.262   2.209  0.4687  0.4017  0.3611
  579TMC3    O1 8594   3.496   4.152   1.793  0.0953  0.2948  0.6494
  579TMC3    O2 8595   3.231   4.330   2.268 -0.4950  0.4474 -0.0366
  580TMC3    C1 8596   2.727   4.385  12.126  0.4237 -0.9313 -0.2960
  580TMC3    C2 8597   2.796   4.462  12.222  0.3462  0.1449  0.0241
  580TMC3    C3 8598   2.893   4.411  12.299 -0.0876 -0.3938  0.8736
  580TMC3    C4 8599   2.764   4.253  12.117  0.5993 -0.3847 -0.0324
  580TMC3    C5 8600   2.851   4.199  12.212 -0.3676 -0.1555 -0.0997
  580TMC3    C6 8601   2.922   4.276  12.294  0.5396  0.2889 -0.2135
  580TMC3     C 8602   2.713   4.441  11.991  0.2929 -0.9321  0.1114
  580TMC3     O 8603   2.648   4.380  11.912 -0.3511  0.6528  0.1118
  580TMC3     H 8604   2.778   4.569  12.225 -0.0202  0.0461  1.1406
  580TMC3    H1 8605   2.738   4.193  12.030 -0.3017  0.1904 -0.1578
  580TMC3    H2 8606   2.987   4.232  12.369  0.5512 -0.7393 -0.8233
  580TMC3    C7 8607   2.864   4.061  12.227  0.0477  0.6852  0.3836
  580TMC3    C8 8608   3.014   4.490  12.283  0.4744 -0.4366  0.5652
  580TMC3    O1 8609   2.953   4.024  12.302 -0.5482 -0.3633 -0.1247
  580TMC3    O2 8610   3.002   4.610  12.261  0.3451 -0.4225  0.1645
  581MPD2     C 8611   0.832   3.682  14.944 -0.4330  0.0151  0.0801
  581MPD2    C1 8612   0.791   3.705  15.065 -0.1564 -0.1496  0.0258
  581MPD2    C2 8613   0.673   3.776  15.086 -0.2038 -0.9286 -0.2586
  581MPD2    C3 8614   0.597   3.823  14.976  0.0314 -0.6934  0.4538
  581MPD2    C4 8615   0.650   3.803  14.852  0.2356  0.2211  0.0208
  581MPD2    C5 8616   0.764   3.729  14.837  0.2184 -1.4301 -0.1917
  581MPD2     H 8617   0.646   3.811  15.185  0.9571 -0.8801  0.0490
  581MPD2    H1 8618   0.615   3.839  14.756 -0.1908 -0.6570 -0.1594
  581MPD2    H2 8619   0.930   3.637  14.929  0.4718  2.4253 -1.2082
  581MPD2    H3 8620   0.801   3.722  14.735  0.3544  1.7573 -0.3643
  581MPD2     N 8621   0.480   3.900  14.993 -0.4793 -0.7993 -0.2275
  581MPD2    H5 8622   0.433   3.936  14.910 -0.0704 -3.1529 -1.4732
  581MPD2    N1 8623   0.881   3.672  15.164  0.1467 -0.7376 -0.2550
  581MPD2    H7 8624   0.961   3.625  15.124 -1.0490 -0.7978 -2.5686
  582TMC3    C1 8625   0.966   3.635  15.377 -0.1987 -0.0457 -0.2037
  582TMC3    C2 8626   0.962   3.665  15.514  0.3442  0.9113  0.2084
  582TMC3    C3 8627   0.966   3.562  15.606  0.2621  0.1811 -0.3501
  582TMC3    C4 8628   0.989   3.504  15.342  0.4373  0.0668  0.0199
  582TMC3    C5 8629   0.964   3.401  15.431 -0.0306 -0.7325  0.6378
  582TMC3    C6 8630   0.954   3.433  15.561 -0.7136  0.3406  0.0200
  582TMC3     C 8631   0.887   3.719  15.292 -0.0356  0.0989  0.4712
  582TMC3     O 8632   0.837   3.818  15.343  0.5170 -0.4130 -0.6466
  582TMC3     H 8633   0.965   3.769  15.547 -1.2400  1.0704 -0.1846
  582TMC3    H1 8634   1.003   3.479  15.237  0.2206 -0.3351  0.0862
  582TMC3    H2 8635   0.939   3.358  15.638  1.9879 -2.3635 -2.0714
  582TMC3    C7 8636   0.854   3.318  15.389  0.2202 -0.4522 -0.5669
  582TMC3    C8 8637   0.938   3.589  15.746  0.3060 -0.2310 -0.1273
  582TMC3    O1 8638   0.875   3.241  15.294 -0.2173  0.3286 -0.3445
  582TMC3    O2 8639   0.870   3.693  15.768 -0.1543  0.2913 -0.4118
  583MPD2     C 8640   0.304   0.587  17.046 -0.4540 -0.2550 -0.0766
  583MPD2    C1 8641   0.333   0.714  17.004 -0.5971  0.3987 -0.7837
  583MPD2    C2 8642   0.336   0.818  17.096  0.1142  0.3535 -0.1539
  583MPD2    C3 8643   0.308   0.789  17.228 -0.1309  0.1382  0.4081
  583MPD2    C4 8644   0.284   0.663  17.272 -0.5373  0.0145 -0.2128
  583MPD2    C5 8645   0.278   0.564  17.177 -0.6810 -0.2120  0.0965
  583MPD2     H 8646   0.373   0.918  17.076 -0.9945  0.2687 -2.6489
  583MPD2    H1 8647   0.277   0.634  17.376 -1.0155  0.1054 -0.2167
  583MPD2    H2 8648   0.299   0.505  16.976  1.1014 -0.2046 -0.2438
  583MPD2    H3 8649   0.255   0.461  17.201 -1.0881 -0.4910 -1.4751
  583MPD2     N 8650   0.319   0.903  17.320 -0.5422 -0.5710  0.1666
  583MPD2    H5 8651   0.344   0.996  17.286 -0.5119 -0.9206 -0.7893
  583MPD2    N1 8652   0.368   0.745  16.866  0.8621  0.2493  0.1073
  583MPD2    H7 8653   0.394   0.840  16.841 -0.1368  0.6999  0.7620
  584TMC3    C1 8654   0.342   1.022  17.517 -0.2179 -0.5857 -0.3868
  584TMC3    C2 8655   0.388   1.129  17.445 -0.0629  0.8238 -0.1385
  584TMC3    C3 8656   0.453   1.228  17.516 -0.5629  0.1500  0.6077
  584TMC3    C4 8657   0.358   1.013  17.653  0.3183 -0.3673 -0.0052
  584TMC3    C5 8658   0.411   1.118   0.013 -0.6867  0.4082 -0.5244
  584TMC3    C6 8659   0.467   1.225  17.649  0.1674 -0.3745  0.1856
  584TMC3     C 8660   0.278   0.909  17.450  0.0304 -0.5209  0.0895
  584TMC3     O 8661   0.230   0.828  17.528  0.1739  0.4050 -0.7300
  584TMC3     H 8662   0.397   1.136  17.338  2.2221  0.1231  0.0250
  584TMC3    H1 8663   0.317   0.931   0.009  0.1407 -0.4274 -0.2182
  584TMC3    H2 8664   0.532   1.290   0.004  0.3990  0.1007 -0.6136
  584TMC3    C7 8665   0.376   1.132   0.154  0.0062  0.5866 -0.1176
  584TMC3    C8 8666   0.503   1.335  17.433  0.4938  0.0086 -0.1249
  584TMC3    O1 8667   0.379   1.026   0.209 -0.7695  0.5268 -0.7012
  584TMC3    O2 8668   0.471   1.345  17.316  0.6237 -0.3032 -0.2604
  585MPD2     C 8669   4.647   3.417   1.069  0.6483  0.3912 -0.4960
  585MPD2    C1 8670   4.659   3.540   1.020 -0.1611  0.3483  0.1164
  585MPD2    C2 8671   4.669   3.568   0.888  0.0324  0.1106  0.7103
  585MPD2    C3 8672   4.682   3.466   0.800  0.7014  0.1833 -0.3322
  585MPD2    C4 8673   4.687   3.332   0.848 -0.2924 -0.2888  0.6178
  585MPD2    C5 8674   4.667   3.310   0.984  0.4167  0.3036 -0.3134
  585MPD2     H 8675   4.647   3.669   0.856 -0.4161 -0.0025  0.6595
  585MPD2    H1 8676   0.000   3.252   0.786  0.8558 -1.2563  2.5758
  585MPD2    H2 8677   4.643   3.398   1.176 -2.1931 -3.0118 -1.2241
  585MPD2    H3 8678   4.668   3.207   1.017  1.0695  0.1461 -0.8167
  585MPD2     N 8679   4.698   3.502   0.664  0.3030  0.1455  0.1262
  585MPD2    H5 8680   4.719   3.598   0.640  1.0437  0.0967  0.5566
  585MPD2    N1 8681   4.664   3.642   1.113  0.5337  0.3548  0.2388
  585MPD2    H7 8682   4.643   3.625   1.210 -0.2739  0.6676  0.1205
  586TMC3    C1 8683   4.692   3.483   0.425  0.3387 -0.6636 -0.6681
  586TMC3    C2 8684   0.018   3.413   0.322 -0.4550 -0.2682  0.5795
  586TMC3    C3 8685   0.012   3.474   0.199 -1.1826  0.0698  0.0446
  586TMC3    C4 8686   4.647   3.613   0.417  0.6955 -0.4335 -0.5511
  586TMC3    C5 8687   4.644   3.672   0.297  0.5002  0.7851 -0.6852
  586TMC3    C6 8688   4.672   3.600   0.178 -0.0097 -0.6633  0.2358
  586TMC3     C 8689   4.702   3.413   0.559  0.7175 -0.6697 -0.0373
  586TMC3     O 8690   4.701   3.293   0.558  0.3887  0.1532 -0.3330
  586TMC3     H 8691   0.049   3.310   0.333  0.7334  0.1552  1.0821
  586TMC3    H1 8692   4.595   3.663   0.497 -0.3953 -1.9369 -0.3336
  586TMC3    H2 8693   4.672   3.655   0.085  1.5204 -0.5363  0.3088
  586TMC3    C7 8694   4.538   3.769   0.284  0.4577 -0.5209 -0.3585
  586TMC3    C8 8695   0.076   3.394   0.097 -0.2584 -0.3232 -0.6574
  586TMC3    O1 8696   4.433   3.769   0.349  0.5615  0.1394  0.4404
  586TMC3    O2 8697   0.123   3.284   0.130 -0.0694 -0.3464  0.1110
  587TMC3    C1 8698   2.151   3.059  16.613  0.1313 -0.2293 -0.1983
  587TMC3    C2 8699   2.163   3.157  16.702 -0.9304 -0.3642  0.5651
  587TMC3    C3 8700   2.279   3.221  16.722  0.4274 -0.2292  0.4511
  587TMC3    C4 8701   2.258   3.035  16.525 -0.3939  0.0322  0.2737
  587TMC3    C5 8702   2.384   3.086  16.558  0.5618  0.1492 -0.4470
  587TMC3    C6 8703   2.397   3.183  16.658 -0.2902  0.2196 -0.1972
  587TMC3     C 8704   2.016   3.008  16.592  0.5628  0.5508  0.1314
  587TMC3     O 8705   1.936   3.035  16.678  0.5708  0.4330 -0.4014
  587TMC3     H 8706   2.082   3.162  16.774 -0.2767 -1.5390  1.3847
  587TMC3    H1 8707   2.243   2.965  16.444 -0.2707 -2.6429  2.5856
  587TMC3    H2 8708   2.490   3.224  16.693  0.4657  2.7210 -5.2233
  587TMC3    C7 8709   2.495   3.030  16.480 -0.3870  0.5022  0.2048
  587TMC3    C8 8710   2.293   3.313  16.830  0.0412  0.0755 -0.4929
  587TMC3    O1 8711   2.461   2.944  16.399 -0.4584 -0.3187  0.5188
  587TMC3    O2 8712   2.400   3.316  16.885  0.3129  0.0936  0.4141
  588TMC3    C1 8713   0.046   0.745   9.491 -0.2773 -0.2053 -0.7367
  588TMC3    C2 8714   0.029   0.623   9.430  0.2567  0.4131  0.1355
  588TMC3    C3 8715   0.138   0.551   9.395  0.3211 -0.0922  0.0267
  588TMC3    C4 8716   0.167   0.801   9.516 -0.2561  0.0095 -0.0943
  588TMC3    C5 8717   0.275   0.734   9.460  0.2966  0.1438 -0.9072
  588TMC3    C6 8718   0.265   0.604   9.417 -0.0984 -0.4372  0.2693
  588TMC3     C 8719   4.660   0.791   9.563 -0.0336  0.1514 -0.1355
  588TMC3     O 8720   4.545   0.755   9.533  0.4248  0.1736  0.3931
  588TMC3     H 8721   4.656   0.578   9.419  0.0222  0.7171  1.0007
  588TMC3    H1 8722   0.175   0.905   9.542 -3.2419  0.0537  0.6428
  588TMC3    H2 8723   0.351   0.556   9.374 -1.3612 -2.7983  0.3842
  588TMC3    C7 8724   0.401   0.775   9.501 -0.1413 -0.4364  0.2844
  588TMC3    C8 8725   0.117   0.412   9.346  0.0665  0.0713 -0.1442
  588TMC3    O1 8726   0.493   0.779   9.423 -0.0791  0.1912  0.5164
  588TMC3    O2 8727   0.008   0.373   9.295 -0.3053  0.5808 -0.4869
  589TMC3    C1 8728   3.403   2.664   1.431  0.2467  0.2136 -0.0786
  589TMC3    C2 8729   3.492   2.737   1.505 -0.4242  0.3604 -0.6727
  589TMC3    C3 8730   3.628   2.701   1.516  0.3535  0.6833  0.3607
  589TMC3    C4 8731   3.450   2.549   1.369 -0.3658 -0.7937 -0.3941
  589TMC3    C5 8732   3.581   2.509   1.388  0.0886  0.3164  0.4295
  589TMC3    C6 8733   3.670   2.577   1.466  0.1208  0.6145 -0.6742
  589TMC3     C 8734   3.292   2.739   1.372  0.4473 -0.7286 -0.0629
  589TMC3     O 8735   3.234   2.687   1.282 -0.3722  0.9586  0.0706
  589TMC3     H 8736   3.470   2.827   1.561 -1.0164 -0.4243  0.3485
  589TMC3    H1 8737   3.392   2.496   1.295 -1.1053  0.4266 -0.6795
  589TMC3    H2 8738   3.772   2.543   1.483  0.2774  1.0981 -0.6346
  589TMC3    C7 8739   3.608   2.380   1.339 -0.4500  0.0380 -0.4412
  589TMC3    C8 8740   3.715   2.799   1.575  0.1855 -0.2803  0.3175
  589TMC3    O1 8741   3.515   2.305   1.328 -0.2115 -0.2370 -0.1244
  589TMC3    O2 8742   3.673   2.909   1.614  0.8263  0.6982 -0.8274
  590MPD2     C 8743   2.988   1.592  16.573 -0.2869 -0.4381  0.4847
  590MPD2    C1 8744   2.932   1.611  16.451 -0.0460 -0.0715  0.0098
  590MPD2    C2 8745   3.020   1.633  16.341  0.1477 -0.2540  0.5093
  590MPD2    C3 8746   3.157   1.644  16.358 -0.5379 -0.2856 -0.3208
  590MPD2    C4 8747   3.205   1.618  16.480 -0.1105  0.2154 -0.2387
  590MPD2    C5 8748   3.122   1.596  16.583  0.6289  0.9648 -0.0869
  590MPD2     H 8749   2.982   1.657  16.242  0.4869  0.5074  0.5636
  590MPD2    H1 8750   3.309   1.627  16.508  0.2905 -2.4986 -0.8828
  590MPD2    H2 8751   2.925   1.576  16.660 -1.5007 -2.2845 -0.7516
  590MPD2    H3 8752   3.166   1.573  16.679  1.4530  0.2906 -0.6271
  590MPD2     N 8753   3.235   1.684  16.247  0.1142 -0.7321  0.3735
  590MPD2    H5 8754   3.184   1.681  16.159 -2.5031  0.3352  1.8609
  590MPD2    N1 8755   2.789   1.606  16.436 -0.1995  0.2964  0.0907
  590MPD2    H7 8756   2.735   1.597  16.521 -0.1187 -0.0837  0.1009
  591TMC3    C1 8757   3.388   1.808  16.123 -0.0572  0.0143 -0.4160
  591TMC3    C2 8758   3.356   1.765  16.001 -1.2822  0.4694 -0.5346
  591TMC3    C3 8759   3.394   1.829  15.890  0.2683 -0.0395 -0.4084
  591TMC3    C4 8760   3.479   1.910  16.142  0.0774 -0.3559  0.1095
  591TMC3    C5 8761   3.518   1.976  16.027  0.2745 -0.3248 -0.6897
  591TMC3    C6 8762   3.479   1.942  15.898 -0.1477  0.0720 -0.1382
  591TMC3     C 8763   3.359   1.738  16.247 -0.0104  0.4820  0.6361
  591TMC3     O 8764   3.434   1.752  16.342  0.1861  0.0755 -0.9052
  591TMC3     H 8765   3.289   1.680  15.993 -2.2753  1.1470  0.5423
  591TMC3    H1 8766   3.503   1.929  16.246 -1.0846 -2.0330  0.6863
  591TMC3    H2 8767   3.550   1.966  15.819 -0.0407 -2.8222 -0.9181
  591TMC3    C7 8768   3.611   2.085  16.042  0.2142 -0.0434 -0.1014
  591TMC3    C8 8769   3.388   1.750  15.773  0.6454  0.1915  0.4719
  591TMC3    O1 8770   3.674   2.097  16.149  0.0229  0.5044 -0.5090
  591TMC3    O2 8771   3.356   1.634  15.789  0.0328 -0.2395 -0.3719
  592MPD2     C 8772   4.184   3.557  11.521 -0.2317 -0.0508 -0.1865
  592MPD2    C1 8773   4.137   3.616  11.635  0.5288  0.2057  0.0585
  592MPD2    C2 8774   4.030   3.559  11.697  0.9169  0.2865 -0.4721
  592MPD2    C3 8775   3.957   3.460  11.633  0.5133  0.1524  0.4770
  592MPD2    C4 8776   4.008   3.411  11.514  0.2928  0.4075 -0.6679
  592MPD2    C5 8777   4.116   3.462  11.458  0.3882  0.0740 -0.0910
  592MPD2     H 8778   4.006   3.589  11.798 -1.3941 -0.6610 -0.7368
  592MPD2    H1 8779   3.964   3.322  11.471  2.0599  0.3399 -2.3417
  592MPD2    H2 8780   4.277   3.589  11.477 -0.2413 -1.0642 -0.9384
  592MPD2    H3 8781   4.153   3.405  11.373  0.1342  0.0297 -0.1712
  592MPD2     N 8782   3.850   3.404  11.707 -0.6453  0.2408 -0.9091
  592MPD2    H5 8783   3.836   3.441  11.801 -1.5159 -0.5660 -0.7222
  592MPD2    N1 8784   4.220   3.713  11.700  0.4975  0.1666  0.2863
  592MPD2    H7 8785   4.308   3.735  11.654  0.6656  1.6836  1.3213
  593TMC3    C1 8786   4.294   3.859  11.875 -0.9103  0.2320 -0.2168
  593TMC3    C2 8787   4.254   3.949  11.969  0.2480  0.5508  0.2319
  593TMC3    C3 8788   4.348   4.026  12.030  0.5751  0.3112 -0.1010
  593TMC3    C4 8789   4.424   3.843  11.839  0.1897  0.2213 -0.6337
  593TMC3    C5 8790   4.516   3.918  11.904  0.2718 -0.6542  0.2757
  593TMC3    C6 8791   4.481   4.008  11.993 -0.7715  0.3991  0.0840
  593TMC3     C 8792   4.186   3.780  11.818 -0.2313 -0.2272 -0.1060
  593TMC3     O 8793   4.081   3.771  11.882  0.0602 -0.2644 -0.3233
  593TMC3     H 8794   4.150   3.950  11.999  0.4345 -0.3846  0.8949
  593TMC3    H1 8795   4.459   3.773  11.764  0.9500  0.0029 -0.0666
  593TMC3    H2 8796   4.552   4.075  12.039  1.6831 -3.0324  1.2940
  593TMC3    C7 8797   4.652   3.880  11.884  1.0152  0.1866  0.3227
  593TMC3    C8 8798   4.296   4.132  12.109 -0.4284  0.0200 -0.5280
  593TMC3    O1 8799   4.663   3.769  11.836 -0.1880 -0.2264 -0.1549
  593TMC3    O2 8800   4.200   4.110  12.185 -0.7220  0.4989  0.5069
  594MPD2     C 8801   2.132   2.624  13.924  0.3707  0.0955  0.6229
  594MPD2    C1 8802   2.165   2.553  14.035 -0.2810 -0.4381  0.5340
  594MPD2    C2 8803   2.287   2.592  14.106 -0.1840 -0.1211 -0.4489
  594MPD2    C3 8804   2.374   2.682  14.046 -0.0488  0.4196  0.8026
  594MPD2    C4 8805   2.348   2.748  13.926 -0.3887  1.1172  0.8152
  594MPD2    C5 8806   2.224   2.718  13.875 -0.4929  0.0092 -0.5307
  594MPD2     H 8807   2.319   2.533  14.191  1.0890  0.9133 -0.2094
  594MPD2    H1 8808   2.416   2.823  13.888 -0.4163  1.4548  1.4207
  594MPD2    H2 8809   2.033   2.620  13.880  0.8345 -1.3337 -0.2839
  594MPD2    H3 8810   2.200   2.770  13.783  0.8593 -0.5677 -1.2094
  594MPD2     N 8811   2.493   2.710  14.118  0.4048  0.0339  0.1710
  594MPD2    H5 8812   2.501   2.664  14.208 -2.0360 -2.6920 -1.0362
  594MPD2    N1 8813   2.063   2.472  14.088 -0.2218 -0.3134  0.2931
  594MPD2    H7 8814   1.975   2.480  14.036 -0.6442  1.1588  1.2419
  595TMC3    C1 8815   2.890   2.921  14.231  0.3976 -0.5036 -0.5445
  595TMC3    C2 8816   2.828   2.843  14.147  0.4967 -0.3165 -0.1201
  595TMC3    C3 8817   2.705   2.795  14.185 -0.3148  0.7111  0.5224
  595TMC3    C4 8818   2.844   2.934  14.358 -0.1534 -0.5059  0.2873
  595TMC3    C5 8819   2.727   2.881  14.391 -0.3099 -0.0918  0.0292
  595TMC3    C6 8820   2.650   2.803  14.305 -0.7183 -0.0544  0.0308
  595TMC3     C 8821   3.028   2.945  14.203  0.3445 -0.3768 -0.2268
  595TMC3     O 8822   3.113   2.914  14.290  0.0502 -1.0325  0.5947
  595TMC3     H 8823   2.859   2.825  14.045 -1.2555  0.6829 -0.8330
  595TMC3    H1 8824   2.902   2.980  14.437 -0.3183  1.9249 -1.0188
  595TMC3    H2 8825   2.549   2.780  14.338 -1.7366  2.1762 -1.5301
  595TMC3    C7 8826   2.678   2.906  14.524  0.0466 -0.4480 -0.1514
  595TMC3    C8 8827   2.602   2.782  14.076  0.0820  0.2772 -0.0518
  595TMC3    O1 8828   2.560   2.884  14.537 -0.4817 -0.0789 -0.0454
  595TMC3    O2 8829   2.643   2.816  13.964 -0.4578 -0.2154 -0.1515
  596MPD2     C 8830   1.273   0.162  17.124 -0.1894 -0.3606  0.6935
  596MPD2    C1 8831   1.286   0.291  17.073  0.2462  0.1272  0.0625
  596MPD2    C2 8832   1.295   0.309  16.936 -0.0957  0.4295 -0.2767
  596MPD2    C3 8833   1.297   0.200  16.850  0.0967  0.3639 -0.2534
  596MPD2    C4 8834   1.279   0.073  16.899  0.7698  0.1704  0.0991
  596MPD2    C5 8835   1.271   0.056  17.033  0.8669 -0.0575 -0.2930
  596MPD2     H 8836   1.326   0.405  16.897 -1.5170  0.8875 -0.2575
  596MPD2    H1 8837   1.278   4.710  16.837 -0.3219  0.4146 -0.2284
  596MPD2    H2 8838   1.278   0.134  17.228  1.8162 -1.3045  0.3404
  596MPD2    H3 8839   1.273   4.682  17.076  0.6694 -1.2394 -3.0368
  596MPD2     N 8840   1.310   0.207  16.710  0.3769  0.4400  0.4589
  596MPD2    H5 8841   1.335   0.121  16.662  1.9649  1.4657 -0.5375
  596MPD2    N1 8842   1.299   0.407  17.158  0.6980  0.1841  0.6470
  596MPD2    H7 8843   1.308   0.495  17.108 -1.8592  0.2721  0.3341
  597TMC3    C1 8844   1.312   0.554  17.348  0.3169 -0.8502  0.7345
  597TMC3    C2 8845   1.384   0.639  17.278  0.4061 -0.1033 -0.1274
  597TMC3    C3 8846   1.385   0.772  17.312  0.2503 -0.6929  0.0376
  597TMC3    C4 8847   1.227   0.601  17.442  0.8885  0.0461 -0.7130
  597TMC3    C5 8848   1.215   0.734  17.460  0.0929 -0.2508 -0.6047
  597TMC3    C6 8849   1.289   0.825  17.393 -0.0929 -0.0717 -0.5021
  597TMC3     C 8850   1.286   0.414  17.298  0.2499  0.5436 -0.2570
  597TMC3     O 8851   1.261   0.322  17.375  0.4471  0.0099 -0.0856
  597TMC3     H 8852   1.461   0.609  17.208 -0.1119  2.6230 -1.8441
  597TMC3    H1 8853   1.176   0.531  17.508 -0.4557 -1.4956 -3.3841
  597TMC3    H2 8854   1.291   0.929  17.424 -0.5589  0.0328 -0.8237
  597TMC3    C7 8855   1.105   0.762  17.553  0.0924 -0.4613 -0.5574
  597TMC3    C8 8856   1.427   0.858  17.203  0.1724 -0.4708  0.7082
  597TMC3    O1 8857   1.054   0.668  17.615  0.4900  0.0737  0.3268
  597TMC3    O2 8858   1.525   0.826  17.134 -0.0731  0.4003 -0.9668
  598TMC3    C1 8859   4.463   2.172  15.284 -0.5631  0.4791 -0.3146
  598TMC3    C2 8860   4.362   2.085  15.256 -0.1612 -0.3466 -0.0725
  598TMC3    C3 8861   4.356   2.043  15.128  0.0710 -0.3025 -0.1185
  598TMC3    C4 8862   4.552   2.220  15.196  0.1917  0.1051 -0.0811
  598TMC3    C5 8863   4.539   2.178  15.071  0.1126  0.5218 -0.3353
  598TMC3    C6 8864   4.440   2.092  15.031 -0.0349  0.1570  0.3817
  598TMC3     C 8865   4.441   2.258  15.395  0.0255  0.1147 -0.9550
  598TMC3     O 8866   4.326   2.269  15.436  0.0111  0.0451 -0.5082
  598TMC3     H 8867   4.280   2.066  15.325  1.5729 -1.1636  1.7658
  598TMC3    H1 8868   4.630   2.287  15.232 -0.4613  0.0366  1.4665
  598TMC3    H2 8869   4.434   2.067  14.926 -0.0489  1.0050  0.1815
  598TMC3    C7 8870   4.625   2.227  14.966 -0.0148  0.2261  0.0463
  598TMC3    C8 8871   4.240   1.966  15.083  0.3435 -0.8170 -0.7861
  598TMC3    O1 8872   4.641   2.148  14.874  0.0597  0.1147 -0.7143
  598TMC3    O2 8873   4.147   1.963  15.166 -0.5078  0.3989  0.3046
  599MPD2     C 8874   4.420   4.142  15.845  0.1020  0.2861  0.6713
  599MPD2    C1 8875   4.468   4.094  15.963 -0.4970 -0.5096  0.0147
  599MPD2    C2 8876   4.393   4.106  16.078 -0.3370  0.3801  0.6478
  599MPD2    C3 8877   4.279   4.183  16.077  0.5760 -0.6701 -0.5563
  599MPD2    C4 8878   4.244   4.248  15.957  0.2319  0.0589  0.8707
  599MPD2    C5 8879   4.313   4.226  15.841  0.3012 -0.2617 -0.1379
  599MPD2     H 8880   4.425   4.057  16.169 -0.4155 -0.7369  0.0637
  599MPD2    H1 8881   4.154   4.308  15.950 -0.2907 -0.8179  0.1240
  599MPD2    H2 8882   4.451   4.104  15.748 -0.4393  0.9038  0.2530
  599MPD2    H3 8883   4.277   4.254  15.743 -2.2135 -1.5428  0.4038
  599MPD2     N 8884   4.222   4.202  16.201  0.5076  0.2643 -0.2343
  599MPD2    H5 8885   4.262   4.152  16.281 -1.0789 -1.0914 -0.2876
  599MPD2    N1 8886   4.591   4.017  15.955 -0.8845  0.2220  0.6802
  599MPD2    H7 8887   4.645   4.022  15.869 -0.2481 -0.1280  1.0542
  600TMC3    C1 8888   4.096   4.323  16.371  1.0606  0.7895 -0.8656
  600TMC3    C2 8889   4.075   4.211  16.441 -0.1949  0.0730 -0.2976
  600TMC3    C3 8890   4.037   4.220  16.576 -0.1290  0.1147 -0.7155
  600TMC3    C4 8891   4.075   4.448  16.421 -0.2069  0.7038  0.1732
  600TMC3    C5 8892   4.036   4.456  16.552 -0.0060 -0.0692 -0.3223
  600TMC3    C6 8893   4.020   4.347  16.628 -0.3661 -0.2414  0.3429
  600TMC3     C 8894   4.148   4.311  16.231  0.4385  0.3000  0.6730
  600TMC3     O 8895   4.099   4.401  16.161  0.0010  0.0038 -0.0702
  600TMC3     H 8896   4.100   4.110  16.409  1.1298  1.4613 -3.6069
  600TMC3    H1 8897   4.078   4.533  16.354  0.0681  1.7186  1.4638
  600TMC3    H2 8898   4.011   4.357  16.735 -2.1995 -0.1789  0.1835
  600TMC3    C7 8899   4.018   4.582  16.626 -1.0943 -0.5267  0.2666
  600TMC3    C8 8900   3.977   4.114  16.648 -0.3229  0.4289 -0.4414
  600TMC3    O1 8901   3.939   4.584  16.722  0.1208 -0.2839  0.2163
  600TMC3    O2 8902   3.944   4.142  16.764  0.3267  0.0584  0.2786
  601MPD2     C 8903   1.501   2.657   0.355  0.0029 -1.0875 -0.2236
  601MPD2    C1 8904   1.366   2.657   0.333 -0.2566  0.0661  0.5548
  601MPD2    C2 8905   1.295   2.541   0.346  0.4723 -0.4612  0.0568
  601MPD2    C3 8906   1.356   2.416   0.377 -0.0918  0.9077 -0.2448
  601MPD2    C4 8907   1.497   2.414   0.384  0.6635  0.4806 -0.9491
  601MPD2    C5 8908   1.563   2.535   0.382 -0.2550 -0.5178  0.7860
  601MPD2     H 8909   1.190   2.542   0.319  0.8618  1.0863 -1.4669
  601MPD2    H1 8910   1.553   2.327   0.416  2.4465  0.8082 -3.1582
  601MPD2    H2 8911   1.568   2.742   0.347  3.2970 -3.7823 -0.9672
  601MPD2    H3 8912   1.670   2.535   0.400 -0.0248  0.7471 -0.5968
  601MPD2     N 8913   1.286   2.293   0.388  0.2170 -0.2345 -0.2866
  601MPD2    H5 8914   1.348   2.215   0.407 -3.1455 -3.0536 -0.8769
  601MPD2    N1 8915   1.301   2.776   0.293 -0.2388 -0.4808  0.2800
  601MPD2    H7 8916   1.201   2.774   0.275 -0.3504 -0.0981  0.8665
  602TMC3    C1 8917   1.261   2.998   0.243  0.5549 -0.4670  0.3144
  602TMC3    C2 8918   1.309   3.129   0.225  0.0123 -0.6518  0.3341
  602TMC3    C3 8919   1.244   3.213   0.136 -0.4265 -0.1792  0.3127
  602TMC3    C4 8920   1.147   2.955   0.187  0.5536  0.1842  0.1820
  602TMC3    C5 8921   1.079   3.049   0.107  0.0953  0.4089  0.2681
  602TMC3    C6 8922   1.128   3.172   0.082 -0.8007  1.1007  1.1394
  602TMC3     C 8923   1.361   2.899   0.277 -0.6616 -0.5680  0.1261
  602TMC3     O 8924   1.481   2.933   0.266  0.9233 -0.4347  0.4509
  602TMC3     H 8925   1.413   3.139   0.256 -0.3567  4.6098 -0.1476
  602TMC3    H1 8926   1.113   2.853   0.176  0.5979  0.0120  1.7444
  602TMC3    H2 8927   1.067   3.239   0.022 -0.3782  1.3000  0.9351
  602TMC3    C7 8928   1.001   2.990  17.700 -0.5649 -0.0047  0.5327
  602TMC3    C8 8929   1.315   3.328   0.091  0.1082 -1.4122 -0.0769
  602TMC3    O1 8930   0.907   2.924   0.031  0.4644 -1.0949  0.2544
  602TMC3    O2 8931   1.425   3.354   0.141  0.0782  0.4041  0.2374
  603TMC3    C1 8932   0.094   2.893  10.763 -0.0221  0.2201  0.0756
  603TMC3    C2 8933   0.102   2.889  10.899 -0.6388  0.2048 -0.1618
  603TMC3    C3 8934   0.196   2.965  10.959 -0.2094 -0.2517  0.5758
  603TMC3    C4 8935   0.167   2.980  10.691 -0.7007  0.1479  0.5369
  603TMC3    C5 8936   0.240   3.071  10.756 -0.3737 -0.1804  0.1216
  603TMC3    C6 8937   0.261   3.065  10.886 -0.1034  0.3269 -0.0847
  603TMC3     C 8938   4.699   2.835  10.701  0.5790 -0.0591 -0.5999
  603TMC3     O 8939   4.656   2.890  10.600  0.0689  0.1736 -0.0240
  603TMC3     H 8940   0.054   2.811  10.957  1.1638 -1.4851 -0.9190
  603TMC3    H1 8941   0.156   2.980  10.583 -0.1306  1.7761  0.4859
  603TMC3    H2 8942   0.342   3.127  10.923 -0.2578 -0.2848  1.2911
  603TMC3    C7 8943   0.309   3.178  10.680 -0.3355 -0.4038 -0.1533
  603TMC3    C8 8944   0.197   2.978  11.099 -0.0938  0.4087 -0.0634
  603TMC3    O1 8945   0.411   3.231  10.719  0.0250 -0.0478 -0.7583
  603TMC3    O2 8946   0.114   2.905  11.154 -0.2279 -0.3489 -0.2884
  604MPD2     C 8947   0.146   1.374  16.568  0.3881  0.8343  0.4252
  604MPD2    C1 8948   0.100   1.440  16.457  0.0157 -0.8884  0.1685
  604MPD2    C2 8949   0.156   1.411  16.334  0.5550 -0.1405  0.1955
  604MPD2    C3 8950   0.254   1.311  16.308  0.5153 -0.2336  0.8106
  604MPD2    C4 8951   0.305   1.257  16.428 -0.0729 -0.1183 -0.3704
  604MPD2    C5 8952   0.248   1.282  16.555  0.4414 -0.3189  0.0506
  604MPD2     H 8953   0.124   1.467  16.247  1.9274  1.6226  0.8347
  604MPD2    H1 8954   0.378   1.177  16.417 -0.7610 -0.6785 -0.9025
  604MPD2    H2 8955   0.103   1.371  16.668  0.0198  0.6002  0.2602
  604MPD2    H3 8956   0.269   1.218  16.640 -2.5722 -1.2580  0.1022
  604MPD2     N 8957   0.305   1.285  16.175  0.2395 -0.2924  0.0810
  604MPD2    H5 8958   0.251   1.322  16.098 -1.1157  0.9226  1.6061
  604MPD2    N1 8959   0.016   1.551  16.486 -0.0733  0.0241 -0.2589
  604MPD2    H7 8960   4.713   1.566  16.582 -1.3097  0.8269 -0.7386
  605TMC3    C1 8961   4.659   1.766  16.459  0.4644  0.1916  0.3425
  605TMC3    C2 8962   4.718   1.831  16.571 -0.6903  0.0174 -0.1795
  605TMC3    C3 8963   4.695   1.957  16.598 -0.2934 -0.1585 -0.3029
  605TMC3    C4 8964   4.587   1.840  16.372  0.1075 -0.2319  0.1632
  605TMC3    C5 8965   4.564   1.969  16.407 -0.5134  0.0050  0.6137
  605TMC3    C6 8966   4.610   2.032  16.522 -0.2632 -0.3776  0.4171
  605TMC3     C 8967   4.711   1.643  16.394  0.1068 -0.8116 -0.1356
  605TMC3     O 8968   0.011   1.649  16.276 -0.3221 -0.4196  0.4327
  605TMC3     H 8969   0.070   1.784  16.631  0.1083  2.5767  0.7978
  605TMC3    H1 8970   4.551   1.800  16.278  1.6542 -0.2314 -0.4300
  605TMC3    H2 8971   4.597   2.138  16.540 -4.8167 -1.0170  0.7092
  605TMC3    C7 8972   4.478   2.046  16.315 -0.5645 -0.8956 -0.8007
  605TMC3    C8 8973   0.062   2.025  16.691  0.2728  0.5305  0.3226
  605TMC3    O1 8974   4.438   1.988  16.216 -0.0990 -0.1766  0.2867
  605TMC3    O2 8975   0.105   1.950  16.776  0.0414 -1.0418 -0.2895
  606TMC3    C1 8976   1.984   4.499  17.235 -0.1038  1.1115 -0.3648
  606TMC3    C2 8977   2.073   4.529  17.331 -0.1199  0.3348  0.0893
  606TMC3    C3 8978   2.029   4.534  17.461 -0.3208  0.7329  0.0873
  606TMC3    C4 8979   1.853   4.480  17.266  1.5258  0.2670  0.2760
  606TMC3    C5 8980   1.813   4.481  17.398  0.1062  0.4403  0.5664
  606TMC3    C6 8981   1.894   4.520  17.500  0.0919 -0.1960  0.0956
  606TMC3     C 8982   2.034   4.490  17.104  0.4017 -0.2007  1.0354
  606TMC3     O 8983   2.151   4.519  17.089  0.6036 -0.2577 -0.5972
  606TMC3     H 8984   2.181   4.532  17.321 -0.1969  1.7366 -0.2749
  606TMC3    H1 8985   1.772   4.454  17.199  2.1688  1.0551 -0.7956
  606TMC3    H2 8986   1.858   4.511  17.602 -1.8236  0.2736 -0.5480
  606TMC3    C7 8987   1.687   4.408  17.424  0.0217 -0.0290 -0.1351
  606TMC3    C8 8988   2.134   4.575  17.561  0.4656 -0.3002 -0.5711
  606TMC3    O1 8989   1.598   4.414  17.340  0.4007 -0.0603  0.2278
  606TMC3    O2 8990   2.247   4.599  17.519  0.5796  0.3214 -0.1822
  607MPD2     C 8991   4.323   3.294  11.688  0.2122 -0.7920 -0.5042
  607MPD2    C1 8992   4.412   3.384  11.742 -0.0424 -0.1178 -0.1597
  607MPD2    C2 8993   4.382   3.460  11.853 -0.0697  0.4650  0.5316
  607MPD2    C3 8994   4.266   3.428  11.922  0.0458  0.5405 -0.2364
  607MPD2    C4 8995   4.168   3.343  11.868  0.2512 -0.1248  0.0551
  607MPD2    C5 8996   4.200   3.282  11.750 -0.8501  0.1820  0.5893
  607MPD2     H 8997   4.456   3.533  11.884  0.4753 -0.5900  1.7534
  607MPD2    H1 8998   4.072   3.312  11.910  1.0823 -2.5765  0.1769
  607MPD2    H2 8999   4.350   3.230  11.605  0.4303 -1.6692  0.2434
  607MPD2    H3 9000   4.144   3.198  11.710 -1.4950  0.4848  0.8566
  607MPD2     N 9001   4.251   3.499  12.042 -0.2186  0.3254  0.1748
  607MPD2    H5 9002   4.323   3.561  12.076 -0.0300  1.3283 -2.0564
  607MPD2    N1 9003   4.532   3.410  11.673  0.5354 -0.2276 -0.2304
  607MPD2    H7 9004   4.590   3.476  11.725  0.2030 -1.0528  1.1868
  608TMC3    C1 9005   0.004   3.383  11.574  0.1317 -0.0046 -0.0577
  608TMC3    C2 9006   0.060   3.400  11.698 -0.1721  1.0636 -0.7660
  608TMC3    C3 9007   0.193   3.448  11.706 -0.2485  0.3959 -0.3292
  608TMC3    C4 9008   0.073   3.401  11.456  0.6323  0.7798 -0.6301
  608TMC3    C5 9009   0.200   3.453  11.472  0.0045  0.1777  0.4386
  608TMC3    C6 9010   0.264   3.479  11.590 -1.4732  0.3222  0.3727
  608TMC3     C 9011   4.593   3.344  11.576  1.0941  0.3814 -0.2327
  608TMC3     O 9012   4.555   3.263  11.492 -0.1499 -0.4707 -0.5459
  608TMC3     H 9013   0.020   3.357  11.790 -2.7339  2.8650 -1.0216
  608TMC3    H1 9014   0.021   3.388  11.362 -2.3063  1.1348  0.9539
  608TMC3    H2 9015   0.360   3.528  11.593 -0.3856 -1.8630  0.8576
  608TMC3    C7 9016   0.272   3.457  11.343 -0.5633 -0.6061 -0.0410
  608TMC3    C8 9017   0.245   3.482  11.834 -0.2548  0.0044 -0.5957
  608TMC3    O1 9018   0.202   3.436  11.244  0.1249  0.5631 -0.2959
  608TMC3    O2 9019   0.359   3.448  11.856 -0.0120 -0.4601 -0.0212
  609TMC3    C1 9020   2.483   1.486   9.398  0.0940 -0.3173 -0.6477
  609TMC3    C2 9021   2.482   1.614   9.339 -0.2782 -0.2687  0.0426
  609TMC3    C3 9022   2.605   1.656   9.297  0.5117 -0.9160  0.0988
  609TMC3    C4 9023   2.592   1.402   9.385 -0.1498  0.1994  0.7435
  609TMC3    C5 9024   2.707   1.452   9.338  0.0107  0.4210 -0.2035
  609TMC3    C6 9025   2.716   1.578   9.286 -0.3025  0.2479  0.3735
  609TMC3     C 9026   2.368   1.455   9.475 -0.2037  0.0817 -0.1970
  609TMC3     O 9027   2.336   1.337   9.472 -0.3293  0.0411 -0.5233
  609TMC3     H 9028   2.388   1.669   9.337 -0.9042 -1.4497 -3.3701
  609TMC3    H1 9029   2.579   1.305   9.431 -0.1136 -2.2071 -4.2673
  609TMC3    H2 9030   2.806   1.612   9.237  0.0500  0.8009  1.4046
  609TMC3    C7 9031   2.830   1.373   9.337 -0.4557  0.4228  0.3550
  609TMC3    C8 9032   2.604   1.780   9.224  0.1289  0.3127  0.8186
  609TMC3    O1 9033   2.936   1.437   9.315 -0.0181 -0.8318 -0.2422
  609TMC3    O2 9034   2.494   1.812   9.183 -0.5820  0.8872  0.1789
  610TMC3    C1 9035   0.533   3.055  11.934  0.4354  0.0266  0.4049
  610TMC3    C2 9036   0.533   2.983  11.818  0.3643  0.2550 -0.0668
  610TMC3    C3 9037   0.437   2.879  11.803 -0.3994  0.7125  0.1804
  610TMC3    C4 9038   0.458   3.016  12.041  0.1172 -0.1797 -0.7106
  610TMC3    C5 9039   0.364   2.915  12.022  0.9429 -0.7358 -0.3698
  610TMC3    C6 9040   0.357   2.834  11.909  0.1051 -0.0650  0.1480
  610TMC3     C 9041   0.620   3.177  11.951 -0.1895 -0.5008  0.8430
  610TMC3     O 9042   0.693   3.198  11.857 -0.4546  0.6260  0.4136
  610TMC3     H 9043   0.593   3.015  11.734 -2.1831  0.6893 -1.7158
  610TMC3    H1 9044   0.462   3.072  12.134 -0.6967 -1.6160  0.1814
  610TMC3    H2 9045   0.291   2.748  11.899 -0.3360  0.2255  0.5480
  610TMC3    C7 9046   0.305   2.857  12.149 -0.1412  0.4230  0.8556
  610TMC3    C8 9047   0.406   2.835  11.671 -0.4631 -0.4328  0.1191
  610TMC3    O1 9048   0.288   2.738  12.145  0.4447  0.0662 -0.0447
  610TMC3    O2 9049   0.292   2.783  11.654  0.4125  0.4781  0.5828
  611MPD2     C 9050   4.090   3.106  10.261  0.5043  0.2278  0.1224
  611MPD2    C1 9051   4.058   3.239  10.250 -0.6222  0.8724 -0.3279
  611MPD2    C2 9052   4.150   3.329  10.202 -0.1008 -0.2011  0.5022
  611MPD2    C3 9053   4.273   3.283  10.164 -0.8574 -0.2220 -0.5226
  611MPD2    C4 9054   4.310   3.154  10.174 -0.0724 -1.1388 -0.1996
  611MPD2    C5 9055   4.218   3.064  10.229 -0.1524 -0.3671  0.6469
  611MPD2     H 9056   4.120   3.432  10.188 -0.2243 -0.2047  0.7640
  611MPD2    H1 9057   4.409   3.124  10.139  0.3253 -0.5014  0.3869
  611MPD2    H2 9058   4.022   3.031  10.299  0.8130  0.1624  0.5494
  611MPD2    H3 9059   4.252   2.963  10.248 -1.3084 -0.6014  1.4624
  611MPD2     N 9060   4.372   3.379  10.130  0.2305 -0.0726  0.6807
  611MPD2    H5 9061   4.470   3.353  10.138  0.5515  0.4722 -1.4172
  611MPD2    N1 9062   3.930   3.271  10.301  0.4771  0.2969  0.5734
  611MPD2    H7 9063   3.875   3.192  10.331 -1.6700  0.1407 -3.8213
  612TMC3    C1 9064   4.479   3.569  10.057 -0.5406 -0.5838  0.4234
  612TMC3    C2 9065   4.599   3.518  10.096  0.7763 -0.6424  0.1627
  612TMC3    C3 9066   4.712   3.571  10.041 -0.0655 -0.0852  0.0386
  612TMC3    C4 9067   4.476   3.673   9.970 -0.5206  0.2953  0.4045
  612TMC3    C5 9068   4.589   3.728   9.916 -0.0995  0.3825 -0.1187
  612TMC3    C6 9069   4.708   3.677   9.951  0.6231  0.1151  0.4220
  612TMC3     C 9070   4.354   3.507  10.090  0.2281 -0.7075 -0.2611
  612TMC3     O 9071   4.246   3.563  10.069  0.0324 -0.0824  0.4833
  612TMC3     H 9072   4.606   3.463  10.189 -0.6073  1.1374  1.2955
  612TMC3    H1 9073   4.381   3.710   9.935 -1.3676 -2.7657 -0.5310
  612TMC3    H2 9074   0.073   3.718   9.909 -1.0726 -0.0610 -3.3724
  612TMC3    C7 9075   4.581   3.836   9.817 -0.3129  0.6238  0.2678
  612TMC3    C8 9076   0.110   3.565  10.115  0.3522 -0.3295  0.1489
  612TMC3    O1 9077   4.468   3.880   9.806 -0.1649 -0.1871  0.1766
  612TMC3    O2 9078   0.183   3.666  10.104 -0.1839  0.1857 -0.2654
  613MPD2     C 9079   3.494   1.014  16.148  0.0973 -0.5414  0.3186
  613MPD2    C1 9080   3.401   0.963  16.238 -0.3850 -0.0795 -0.0707
  613MPD2    C2 9081   3.289   1.038  16.261 -0.0601  0.0569  0.1138
  613MPD2    C3 9082   3.267   1.163  16.196  0.0364  0.2828  0.8716
  613MPD2    C4 9083   3.373   1.214  16.115  0.3281  0.4483  0.1538
  613MPD2    C5 9084   3.474   1.133  16.087  0.4364 -0.1585  0.0483
  613MPD2     H 9085   3.206   1.006  16.323  0.8174 -0.4695  1.0192
  613MPD2    H1 9086   3.367   1.311  16.067 -4.6742 -0.4011 -0.9383
  613MPD2    H2 9087   3.587   0.960  16.132  1.5531  2.2079 -0.5845
  613MPD2    H3 9088   3.556   1.171  16.027 -0.7539  3.4382  0.6379
  613MPD2     N 9089   3.143   1.219  16.206 -0.0381  0.2771 -0.0951
  613MPD2    H5 9090   3.076   1.170  16.264  0.0264  0.5682  0.2263
  613MPD2    N1 9091   3.413   0.842  16.309  0.2077  0.2131 -0.4977
  613MPD2    H7 9092   3.338   0.823  16.375 -0.1244 -1.2089 -1.2724
  614TMC3    C1 9093   3.422   0.609  16.296 -0.7492 -0.3821  0.1062
  614TMC3    C2 9094   3.311   0.623  16.373 -0.3356 -0.4245 -0.0893
  614TMC3    C3 9095   3.194   0.563  16.337  0.0480  0.0116  0.5423
  614TMC3    C4 9096   3.419   0.529  16.188  0.9884  0.5443 -0.1307
  614TMC3    C5 9097   3.302   0.471  16.153 -0.3508 -0.2134  0.2924
  614TMC3    C6 9098   3.185   0.485  16.226  0.4824  1.0718 -0.1660
  614TMC3     C 9099   3.494   0.729  16.275 -0.1595  1.1034  0.3816
  614TMC3     O 9100   3.591   0.722  16.201 -0.0676 -0.1954 -0.2669
  614TMC3     H 9101   3.321   0.673  16.469 -1.4227  0.6369 -0.5280
  614TMC3    H1 9102   3.507   0.515  16.127  2.0777 -1.8399  1.9842
  614TMC3    H2 9103   3.106   0.413  16.210 -0.7520  2.4728 -0.2425
  614TMC3    C7 9104   3.309   0.400  16.027  0.0222  0.1705 -0.4100
  614TMC3    C8 9105   3.085   0.658  16.356  0.2118 -0.6758  0.0680
  614TMC3    O1 9106   3.420   0.376  15.983  0.0663 -0.2395 -0.2550
  614TMC3    O2 9107   3.123   0.765  16.394  0.1893 -0.2126  0.2414
  615MPD2     C 9108   2.338   2.146  16.239 -0.2857  0.9472 -0.1686
  615MPD2    C1 9109   2.214   2.201  16.271 -0.6859 -0.0584  0.7260
  615MPD2    C2 9110   2.107   2.162  16.190  0.0489 -0.0126  0.1689
  615MPD2    C3 9111   2.125   2.080  16.078 -0.2610  0.2967 -0.0262
  615MPD2    C4 9112   2.250   2.024  16.052  0.0253 -0.1115 -0.0252
  615MPD2    C5 9113   2.352   2.062  16.135  0.4487  0.0489 -0.1991
  615MPD2     H 9114   2.008   2.196  16.216 -0.2280 -0.7862  0.1202
  615MPD2    H1 9115   2.285   1.980  15.959  2.1633 -2.1657  1.7456
  615MPD2    H2 9116   2.427   2.170  16.297 -1.4802  0.0001  2.0744
  615MPD2    H3 9117   2.450   2.035  16.097  0.1904 -1.5426  0.2577
  615MPD2     N 9118   2.016   2.051  15.990  0.2181 -0.0559 -0.2452
  615MPD2    H5 9119   2.035   1.996  15.906 -0.2397 -0.5792 -0.0086
  615MPD2    N1 9120   2.206   2.310  16.363  0.7255  0.4276  0.2441
  615MPD2    H7 9121   2.108   2.331  16.377  0.8528  0.4410  1.1119
  616TMC3    C1 9122   2.243   2.447  16.539  0.3220  0.5612  0.1383
  616TMC3    C2 9123   2.313   2.543  16.603  0.9278  0.0969 -0.1971
  616TMC3    C3 9124   2.249   2.625  16.689  0.3862  0.3817  0.2939
  616TMC3    C4 9125   2.107   2.428  16.561  0.6737 -0.3163 -0.2655
  616TMC3    C5 9126   2.051   2.520  16.649 -0.2002  0.1794  0.3463
  616TMC3    C6 9127   2.114   2.623  16.716 -0.3144 -0.1636  1.0561
  616TMC3     C 9128   2.306   2.380  16.429  0.4147 -0.0852  0.4625
  616TMC3     O 9129   2.428   2.386  16.416  0.8643  0.8744 -0.1521
  616TMC3     H 9130   2.420   2.547  16.589  1.0895 -1.3511  0.6191
  616TMC3    H1 9131   2.041   2.346  16.533 -0.3282  0.5910 -0.5286
  616TMC3    H2 9132   2.071   2.693  16.787 -0.7517 -0.6543  1.2702
  616TMC3    C7 9133   1.920   2.492  16.697 -0.4419 -0.5206 -0.3467
  616TMC3    C8 9134   2.324   2.732  16.763  0.4523 -0.0724  0.2136
  616TMC3    O1 9135   1.895   2.531  16.810 -0.4872 -0.1011  0.8689
  616TMC3    O2 9136   2.266   2.806  16.841 -0.1494 -0.2037 -0.9553
  617MPD2     C 9137   0.817   0.447  14.302 -0.1548 -0.4552  0.3760
  617MPD2    C1 9138   0.796   0.394  14.427 -0.8011  0.3997  0.3072
  617MPD2    C2 9139   0.667   0.379  14.473  1.0846  0.6341 -0.4104
  617MPD2    C3 9140   0.560   0.417  14.395 -1.0413  0.0114  1.0761
  617MPD2    C4 9141   0.581   0.465  14.269  0.0018  0.3827 -0.2187
  617MPD2    C5 9142   0.706   0.478  14.225  0.2337 -0.3614  0.1096
  617MPD2     H 9143   0.652   0.338  14.572  0.5798 -1.2214 -1.2563
  617MPD2    H1 9144   0.502   0.497  14.203  2.0375  0.7559 -2.4853
  617MPD2    H2 9145   0.914   0.466  14.257  1.0026 -1.5022  2.4842
  617MPD2    H3 9146   0.729   0.513  14.125 -1.2139 -1.0958 -0.4864
  617MPD2     N 9147   0.419   0.399  14.433 -0.1337  0.3091  0.2019
  617MPD2    H5 9148   0.353   0.428  14.362 -1.5774  0.5794  1.6459
  617MPD2    N1 9149   0.906   0.326  14.490  0.3586 -0.1154  0.6114
  617MPD2    H7 9150   0.991   0.305  14.439  0.1928 -0.9756  0.6898
  618TMC3    C1 9151   1.018   0.232  14.661  0.5395 -0.3183 -0.3028
  618TMC3    C2 9152   1.046   0.117  14.592 -0.5647 -0.1745  0.7423
  618TMC3    C3 9153   1.176   0.083  14.570 -0.0520  0.2362 -0.2206
  618TMC3    C4 9154   1.110   0.313  14.713 -0.3929  0.4408 -0.5036
  618TMC3    C5 9155   1.242   0.281  14.681 -0.0203  0.4308  0.0004
  618TMC3    C6 9156   1.283   0.164  14.616 -0.6091  0.0646  0.3903
  618TMC3     C 9157   0.907   0.303  14.624 -0.4562  0.5711  0.4319
  618TMC3     O 9158   0.841   0.362  14.708  0.3217 -0.5099  0.1891
  618TMC3     H 9159   0.960   0.061  14.556 -0.5848  0.0822  0.3950
  618TMC3    H1 9160   1.092   0.415  14.745  1.4136  0.8377 -0.7627
  618TMC3    H2 9161   1.389   0.158  14.593 -0.7213  2.4428 -0.6883
  618TMC3    C7 9162   1.345   0.364  14.739 -0.2243 -1.2662  0.3722
  618TMC3    C8 9163   1.189   0.012  14.443  0.8601  0.1220  0.3502
  618TMC3    O1 9164   1.335   0.405  14.859 -0.2675 -0.1173 -0.1197
  618TMC3    O2 9165   1.080   4.709  14.389 -1.2772  0.6632  0.1573
  619MPD2     C 9166   1.525   1.811  13.531 -0.4745  0.3001 -0.1094
  619MPD2    C1 9167   1.427   1.766  13.443 -0.1209  0.3278  0.1125
  619MPD2    C2 9168   1.336   1.667  13.486 -0.6939  0.4787  0.3640
  619MPD2    C3 9169   1.347   1.603  13.611 -0.6312  0.1331  0.4124
  619MPD2    C4 9170   1.444   1.654  13.700  0.0635 -0.1761  0.5344
  619MPD2    C5 9171   1.525   1.763  13.660  0.4906  0.7993  0.1658
  619MPD2     H 9172   1.258   1.642  13.415 -0.5129  1.6387 -0.2382
  619MPD2    H1 9173   1.458   1.602  13.794  0.5805 -1.2910 -0.1570
  619MPD2    H2 9174   1.602   1.880  13.501  0.7073 -1.0511 -0.2165
  619MPD2    H3 9175   1.606   1.785  13.728  0.7596  0.7518 -0.1394
  619MPD2     N 9176   1.258   1.510  13.659 -0.3553  0.5429 -0.5894
  619MPD2    H5 9177   1.261   1.489  13.759 -0.2918  0.3060 -0.6397
  619MPD2    N1 9178   1.423   1.804  13.305 -0.3037 -0.4431 -0.1266
  619MPD2    H7 9179   1.355   1.749  13.254 -0.9282 -0.1316  0.3802
  620TMC3    C1 9180   1.466   1.919  13.107 -0.2197 -0.0036  0.4587
  620TMC3    C2 9181   1.348   1.857  13.078  0.5836  0.1998  0.1009
  620TMC3    C3 9182   1.248   1.936  13.023 -0.1033 -0.8154 -0.4692
  620TMC3    C4 9183   1.488   2.052  13.082 -0.0260  0.7591  0.2553
  620TMC3    C5 9184   1.394   2.121  13.030 -0.5063 -0.1684 -1.0215
  620TMC3    C6 9185   1.273   2.069  12.997  0.5425  0.2051 -0.4095
  620TMC3     C 9186   1.510   1.888  13.240  0.5109  0.5767 -0.4906
  620TMC3     O 9187   1.578   1.967  13.304  0.0922  0.3363  0.0016
  620TMC3     H 9188   1.345   1.749  13.070 -2.2916  0.3283 -0.3725
  620TMC3    H1 9189   1.576   2.107  13.114  0.4395 -1.4489  2.7628
  620TMC3    H2 9190   1.192   2.135  12.969 -1.9370 -2.9550 -0.6607
  620TMC3    C7 9191   1.374   2.251  13.098 -0.2760 -0.6242 -1.0965
  620TMC3    C8 9192   1.132   1.926  13.101 -0.4051  0.5046  0.0072
  620TMC3    O1 9193   1.293   2.323  13.049  0.0984 -0.1741 -0.1865
  620TMC3    O2 9194   1.099   2.016  13.177 -0.4610  0.2005  0.3316
  621MPD2     C 9195   2.049   2.076  10.036  0.0906 -0.0716 -0.2859
  621MPD2    C1 9196   2.145   2.053  10.136 -0.1266 -0.3097 -0.3040
  621MPD2    C2 9197   2.252   2.143  10.145  0.4763 -0.4245 -0.1929
  621MPD2    C3 9198   2.270   2.248  10.059  0.3360  0.0706 -0.1506
  621MPD2    C4 9199   2.170   2.265   9.963 -0.2527  0.1492  0.7863
  621MPD2    C5 9200   2.061   2.183   9.952  0.0065  1.0529 -0.2526
  621MPD2     H 9201   2.319   2.114  10.224 -0.8138  1.0008  1.4124
  621MPD2    H1 9202   2.158   2.339   9.884  2.1611 -2.3497 -1.9240
  621MPD2    H2 9203   1.973   2.000  10.021  1.7827 -1.6466 -0.8607
  621MPD2    H3 9204   1.984   2.205   9.879 -1.0672  0.2985  0.6604
  621MPD2     N 9205   2.393   2.321  10.057  0.1036  0.5927  0.2631
  621MPD2    H5 9206   2.463   2.295  10.125  0.5144  0.7177 -0.1175
  621MPD2    N1 9207   2.151   1.936  10.211  0.1653  0.2669 -0.6903
  621MPD2    H7 9208   2.243   1.914  10.246  0.0111  1.7589  0.6625
  622TMC3    C1 9209   2.079   1.725  10.286  0.6007  0.6738  0.4624
  622TMC3    C2 9210   2.004   1.681  10.389  0.0041 -0.2589  0.1029
  622TMC3    C3 9211   2.057   1.577  10.465  0.1513  0.2958  0.0547
  622TMC3    C4 9212   2.206   1.681  10.257 -0.0211  0.4166  0.3592
  622TMC3    C5 9213   2.253   1.585  10.343 -0.0675 -0.3121 -0.2522
  622TMC3    C6 9214   2.178   1.525  10.440  0.0769  0.2054 -0.5179
  622TMC3     C 9215   2.041   1.864  10.249  0.1511 -0.2723 -0.7847
  622TMC3     O 9216   1.929   1.901  10.240 -0.2553  0.1664 -0.1682
  622TMC3     H 9217   1.928   1.748  10.428 -0.8724  0.7859 -3.3319
  622TMC3    H1 9218   2.273   1.714  10.178  1.8316 -0.5854  1.5143
  622TMC3    H2 9219   2.225   1.454  10.508 -1.2480 -1.1858 -1.0433
  622TMC3    C7 9220   2.381   1.539  10.298 -0.2287  0.0501  0.6133
  622TMC3    C8 9221   1.981   1.530  10.578 -0.9077 -1.3209  0.1167
  622TMC3    O1 9222   2.468   1.615  10.265  0.7344 -0.2425  0.1249
  622TMC3    O2 9223   2.045   1.464  10.659 -0.0741  0.6512  0.4073
  623MPD2     C 9224   0.325   1.681  16.577  0.3789  0.0802 -0.3839
  623MPD2    C1 9225   0.393   1.794  16.549  0.0113 -0.4522 -0.0555
  623MPD2    C2 9226   0.477   1.842  16.649  0.3820 -0.5741  0.1111
  623MPD2    C3 9227   0.482   1.783  16.774  0.6397 -0.4097  0.2458
  623MPD2    C4 9228   0.417   1.665  16.788  0.1214  0.0412  0.2368
  623MPD2    C5 9229   0.335   1.607  16.696 -0.6450  0.4034  0.2128
  623MPD2     H 9230   0.535   1.930  16.623 -0.7727  0.3679  0.7597
  623MPD2    H1 9231   0.410   1.608  16.880 -0.3497 -1.2004 -0.5628
  623MPD2    H2 9232   0.252   1.641  16.508  0.0604 -0.3590  0.2077
  623MPD2    H3 9233   0.279   1.518  16.720 -1.1563 -0.0764 -2.6744
  623MPD2     N 9234   0.569   1.842  16.869  0.2413 -0.5306 -0.3531
  623MPD2    H5 9235   0.636   1.906  16.827  0.1755  1.0623  1.9550
  623MPD2    N1 9236   0.355   1.867  16.432  0.5483  0.1401 -0.4472
  623MPD2    H7 9237   0.306   1.818  16.358 -0.1029  0.0291  0.0581
  624TMC3    C1 9238   0.873   1.978  17.020  0.3780 -0.7450 -0.0384
  624TMC3    C2 9239   0.820   2.104  17.025 -0.6876  0.8285 -0.4723
  624TMC3    C3 9240   0.690   2.115  17.029  0.0297 -0.8864  0.7113
  624TMC3    C4 9241   0.802   1.869  17.039 -0.4108 -0.0479  0.0640
  624TMC3    C5 9242   0.674   1.883  17.064  0.0505 -0.0996 -0.2351
  624TMC3    C6 9243   0.614   2.003  17.058 -0.4287  0.4495 -0.6707
  624TMC3     C 9244   1.015   1.977  17.019 -0.6796 -0.2278 -0.0906
  624TMC3     O 9245   1.062   2.084  17.056 -0.2190  0.4192 -0.0249
  624TMC3     H 9246   0.872   2.197  17.005  0.2595  0.1983 -0.9613
  624TMC3    H1 9247   0.846   1.769  17.030 -1.1029 -0.4504  1.2059
  624TMC3    H2 9248   0.514   2.011  17.098  0.5222 -1.9019  2.2401
  624TMC3    C7 9249   0.601   1.785  16.991  0.0253  0.1317 -0.2322
  624TMC3    C8 9250   0.631   2.213  16.939  1.2632 -0.3112 -0.6744
  624TMC3    O1 9251   0.543   1.697  17.054  0.0043 -0.7382 -0.3282
  624TMC3    O2 9252   0.695   2.315  16.919  0.0076 -0.4876 -0.3252
  625MPD2     C 9253   1.588   2.777   1.038 -0.1381 -0.4349  0.5316
  625MPD2    C1 9254   1.667   2.885   0.999  0.4780 -0.2341 -0.0152
  625MPD2    C2 9255   1.801   2.869   0.988  0.1480 -0.6589 -1.0701
  625MPD2    C3 9256   1.861   2.743   0.981 -0.2517 -0.1052  0.3714
  625MPD2    C4 9257   1.781   2.637   1.020 -0.1164  0.0619  0.1564
  625MPD2    C5 9258   1.651   2.656   1.050  0.9425  0.3748  0.0932
  625MPD2     H 9259   1.866   2.951   0.961 -1.4767  1.7055  2.3000
  625MPD2    H1 9260   1.818   2.535   1.014 -0.8045 -0.1644 -0.1928
  625MPD2    H2 9261   1.482   2.791   1.055  0.3614  1.5718  1.8809
  625MPD2    H3 9262   1.594   2.573   1.089 -0.0538  1.7405  1.5815
  625MPD2     N 9263   2.003   2.735   0.958  0.1100 -0.1153  0.1135
  625MPD2    H5 9264   2.062   2.817   0.957 -0.3157  0.1744 -1.4461
  625MPD2    N1 9265   1.620   3.014   0.977  0.2109 -0.1825  0.2340
  625MPD2    H7 9266   1.689   3.089   0.972 -1.3466  1.2976  0.6514
  626TMC3    C1 9267   1.478   3.179   0.927  0.0636 -0.0542 -0.7295
  626TMC3    C2 9268   1.384   3.203   0.837  0.4022 -0.0988  0.3310
  626TMC3    C3 9269   1.365   3.339   0.803 -0.1309  0.5297  0.1717
  626TMC3    C4 9270   1.553   3.275   0.989 -0.3173  0.1904 -0.4568
  626TMC3    C5 9271   1.525   3.408   0.952 -0.2134 -0.3261 -0.1500
  626TMC3    C6 9272   1.435   3.442   0.857  0.1243 -0.5106  0.8005
  626TMC3     C 9273   1.486   3.046   0.970 -0.3692 -0.0736  0.0983
  626TMC3     O 9274   1.382   2.985   0.966  0.5407  0.0366  0.1015
  626TMC3     H 9275   1.354   3.120   0.775  0.4546  1.5694 -1.9055
  626TMC3    H1 9276   1.615   3.246   1.073  0.0702  2.4282  0.0212
  626TMC3    H2 9277   1.423   3.544   0.822  1.7692 -0.5835  0.0626
  626TMC3    C7 9278   1.515   3.503   1.065  0.0085 -0.2076 -0.2326
  626TMC3    C8 9279   1.265   3.363   0.701  0.4847  0.4194 -0.1644
  626TMC3    O1 9280   1.606   3.545   1.130  0.0608 -0.1479  0.3999
  626TMC3    O2 9281   1.252   3.481   0.666  0.5886 -0.1720 -0.2563
  627MPD2     C 9282   4.609   3.996  14.627  0.1918  0.0467  0.4103
  627MPD2    C1 9283   4.631   3.926  14.745  0.4444 -0.1330  0.4033
  627MPD2    C2 9284   4.574   3.803  14.758 -0.0413 -0.7511 -0.0520
  627MPD2    C3 9285   4.483   3.759  14.662  0.0764  0.1562 -0.1040
  627MPD2    C4 9286   4.464   3.830  14.549  0.1440 -0.5761  0.3325
  627MPD2    C5 9287   4.542   3.942  14.532  0.2250 -0.1463  0.0873
  627MPD2     H 9288   4.577   3.740  14.846  0.9117  0.2253  0.6234
  627MPD2    H1 9289   4.426   3.790  14.456 -0.2942  1.6641 -0.4406
  627MPD2    H2 9290   4.659   4.090  14.606 -1.2999  1.0255  1.2309
  627MPD2    H3 9291   4.547   3.988  14.434 -0.1438  1.0974  0.6606
  627MPD2     N 9292   4.410   3.639  14.682  0.1365  0.5813  0.4747
  627MPD2    H5 9293   4.411   3.594  14.773  1.1083  1.1734  0.7553
  627MPD2    N1 9294   0.002   3.967  14.835  0.0454 -0.0188 -0.1077
  627MPD2    H7 9295   0.014   3.903  14.914  2.6181 -0.6414 -1.0075
  628TMC3    C1 9296   0.150   4.112  14.956  0.8115 -0.6977 -0.3284
  628TMC3    C2 9297   0.224   4.002  15.000 -0.4428 -0.2310 -0.4432
  628TMC3    C3 9298   0.314   4.033  15.096 -0.3225 -0.0244 -0.0529
  628TMC3    C4 9299   0.166   4.237  15.010 -0.5210  0.6234  0.0705
  628TMC3    C5 9300   0.250   4.250  15.115 -0.3756 -0.7665 -0.0480
  628TMC3    C6 9301   0.323   4.153  15.167 -0.0501  0.3628  0.1535
  628TMC3     C 9302   0.057   4.098  14.845 -0.2538  0.5898 -0.4162
  628TMC3     O 9303   0.026   4.199  14.781  0.3849  0.6338  0.0778
  628TMC3     H 9304   0.217   3.900  14.963 -0.9309 -0.3104 -0.1257
  628TMC3    H1 9305   0.098   4.309  14.967  0.2160  1.4028  0.2242
  628TMC3    H2 9306   0.398   4.175  15.242  0.0627 -2.3765  0.8510
  628TMC3    C7 9307   0.268   4.381  15.175  0.4480 -0.0427  0.0191
  628TMC3    C8 9308   0.426   3.951  15.115 -0.4051 -0.2682 -1.0917
  628TMC3    O1 9309   0.360   4.395  15.252 -0.5435  0.7797 -0.2843
  628TMC3    O2 9310   0.458   3.932  15.229  0.2681 -0.4513  0.5044
  629MPD2     C 9311   2.742   2.997  16.856 -0.3478  1.0086 -0.1408
  629MPD2    C1 9312   2.782   2.891  16.780 -0.1352 -0.9656  0.1671
  629MPD2    C2 9313   2.678   2.815  16.727 -0.5223  0.1055 -0.4731
  629MPD2    C3 9314   2.548   2.837  16.760 -0.1560  0.1860 -0.7050
  629MPD2    C4 9315   2.512   2.933  16.851  0.6930 -0.1248  0.1951
  629MPD2    C5 9316   2.613   3.019  16.891  0.6930 -0.3788  0.1454
  629MPD2     H 9317   2.707   2.735  16.660 -0.3181 -0.6746  0.5480
  629MPD2    H1 9318   2.411   2.956  16.883  0.2286 -1.4466 -0.2863
  629MPD2    H2 9319   2.822   3.065  16.883  0.7365 -1.3927  2.6954
  629MPD2    H3 9320   2.595   3.095  16.966 -1.0457 -1.6954  1.0621
  629MPD2     N 9321   2.452   2.749  16.714  0.2030 -0.0180 -0.2831
  629MPD2    H5 9322   2.487   2.684  16.644  1.4397  0.2188  0.1128
  629MPD2    N1 9323   2.917   2.866  16.746  0.3939 -0.0941 -0.5759
  629MPD2    H7 9324   2.993   2.907  16.799  1.5815 -1.7788 -0.9637
  630TMC3    C1 9325   3.112   2.746  16.683  0.3308  0.3210 -0.4750
  630TMC3    C2 9326   3.183   2.718  16.575  0.3967 -0.0752  0.4028
  630TMC3    C3 9327   3.311   2.680  16.586 -0.0090 -0.3254 -0.8803
  630TMC3    C4 9328   3.154   2.731  16.812  0.8870  0.6965  0.3892
  630TMC3    C5 9329   3.276   2.666  16.820 -0.3268 -0.0679 -0.2860
  630TMC3    C6 9330   3.364   2.653  16.707 -0.1786  0.1692 -0.2182
  630TMC3     C 9331   2.962   2.771  16.663 -0.2735 -0.3487  1.1619
  630TMC3     O 9332   2.909   2.711  16.573 -0.1525  0.1742  0.5618
  630TMC3     H 9333   3.138   2.731  16.477  0.0615  1.0632  0.7176
  630TMC3    H1 9334   3.077   2.721  16.888 -1.4479  0.7371 -1.9861
  630TMC3    H2 9335   3.463   2.611  16.721  0.3547  1.7669  0.7528
  630TMC3    C7 9336   3.302   2.598  16.950  0.5980  0.1903 -0.1618
  630TMC3    C8 9337   3.411   2.721  16.492  0.7002  0.2862  0.6057
  630TMC3    O1 9338   3.236   2.635  17.047  0.6459  0.6058 -0.2587
  630TMC3    O2 9339   3.529   2.713  16.522 -0.1213 -0.2272 -0.6658
  631MPD2     C 9340   0.965   2.062  15.770 -0.1306  0.4638 -0.0490
  631MPD2    C1 9341   1.034   2.121  15.664  0.0234 -0.2536  0.7120
  631MPD2    C2 9342   1.171   2.120  15.669  0.8607  0.1452  0.4379
  631MPD2    C3 9343   1.242   2.056  15.763  0.3378 -0.1270  0.2298
  631MPD2    C4 9344   1.170   1.996  15.865 -0.1581  0.4632  0.0145
  631MPD2    C5 9345   1.035   2.007  15.872  0.1446  0.0890  0.5337
  631MPD2     H 9346   1.231   2.167  15.593  3.2125  0.4510  2.5077
  631MPD2    H1 9347   1.216   1.942  15.947 -1.6479 -0.7386  0.0421
  631MPD2    H2 9348   0.857   2.077  15.769 -0.0197  1.2654  2.4228
  631MPD2    H3 9349   0.986   1.964  15.959  0.5190  0.5926  0.9927
  631MPD2     N 9350   1.380   2.053  15.748  0.7656 -0.6696 -0.0407
  631MPD2    H5 9351   1.422   2.089  15.663 -0.0376  1.1457  0.3279
  631MPD2    N1 9352   0.963   2.188  15.566 -0.0856 -0.4090 -0.2687
  631MPD2    H7 9353   0.864   2.202  15.580  0.2073 -0.4602  1.9064
  632TMC3    C1 9354   0.913   2.311  15.370  0.5419  0.5394 -0.0705
  632TMC3    C2 9355   0.802   2.238  15.340 -0.5376  0.5627 -0.0497
  632TMC3    C3 9356   0.692   2.305  15.280  0.6519  0.4048 -0.0644
  632TMC3    C4 9357   0.926   2.436  15.328 -1.0755 -1.0424 -0.2764
  632TMC3    C5 9358   0.816   2.505  15.274  0.1677  0.1977 -0.3073
  632TMC3    C6 9359   0.699   2.437  15.247 -0.0640 -0.2375  0.6204
  632TMC3     C 9360   1.015   2.256  15.458  0.8685  0.2855 -0.3739
  632TMC3     O 9361   1.128   2.298  15.454  0.4577  0.0059 -0.2256
  632TMC3     H 9362   0.789   2.137  15.376  0.1094  0.3888 -0.3195
  632TMC3    H1 9363   1.019   2.491  15.332 -1.5248 -0.3011  0.1491
  632TMC3    H2 9364   0.612   2.490  15.210 -1.0368 -0.5246  2.4828
  632TMC3    C7 9365   0.832   2.638  15.206 -0.5213  0.4336 -0.0091
  632TMC3    C8 9366   0.566   2.256  15.336 -0.9875  0.5955  0.4750
  632TMC3    O1 9367   0.765   2.667  15.110 -0.8897  0.9033  0.6308
  632TMC3    O2 9368   0.510   2.333  15.412  0.0568  0.0056 -0.3912
  633MPD2     C 9369   0.707   0.184  17.628 -0.7837 -0.3820  0.4618
  633MPD2    C1 9370   0.673   0.119  17.507 -0.8818  0.0474 -0.1471
  633MPD2    C2 9371   0.685   4.706  17.499 -0.6815  0.2522 -0.2659
  633MPD2    C3 9372   0.721   4.635  17.605  0.5797  0.1774  0.8607
  633MPD2    C4 9373   0.755   4.703   0.020 -0.2472  0.2154 -0.4143
  633MPD2    C5 9374   0.759   0.112   0.024  0.2456  0.0050 -0.1478
  633MPD2     H 9375   0.665   4.669  17.400  3.3781  1.5557 -1.5903
  633MPD2    H1 9376   0.801   4.655   0.107 -1.1318  0.5914  0.2603
  633MPD2    H2 9377   0.718   0.292  17.634  0.9509 -0.5257 -0.3004
  633MPD2    H3 9378   0.805   0.162   0.109 -0.4854  0.2511  0.1057
  633MPD2     N 9379   0.740   4.495  17.606 -0.0145 -0.4486  0.1099
  633MPD2    H5 9380   0.786   4.449  17.685  1.6152  1.7792  0.4499
  633MPD2    N1 9381   0.616   0.182  17.396  0.6720 -0.1186 -0.2784
  633MPD2    H7 9382   0.618   0.134  17.307  4.2207 -0.9547  0.2279
  634TMC3    C1 9383   0.569   0.366  17.255 -0.0457  0.0246 -0.7809
  634TMC3    C2 9384   0.531   0.280  17.159  0.1277 -0.0184 -0.1563
  634TMC3    C3 9385   0.537   0.325  17.030 -0.2479  0.2504  0.4839
  634TMC3    C4 9386   0.611   0.495  17.230  0.5359  0.4449 -1.1089
  634TMC3    C5 9387   0.628   0.531  17.098 -0.4613  0.0839  0.3013
  634TMC3    C6 9388   0.592   0.443  16.997 -0.5478 -0.3371  0.3381
  634TMC3     C 9389   0.585   0.315  17.391 -0.4373 -0.2990 -0.4094
  634TMC3     O 9390   0.576   0.398  17.482 -0.0850  0.3031 -0.6547
  634TMC3     H 9391   0.496   0.184  17.194  1.0455 -0.3549 -0.1678
  634TMC3    H1 9392   0.648   0.557  17.311  0.2056 -0.7820 -0.0276
  634TMC3    H2 9393   0.617   0.468  16.895 -2.3197 -0.0346 -0.0245
  634TMC3    C7 9394   0.659   0.665  17.061 -0.4637  0.1680 -0.4004
  634TMC3    C8 9395   0.519   0.228  16.933  0.7501 -0.5944  0.6348
  634TMC3    O1 9396   0.714   0.681  16.952  0.1456 -0.3170  0.1922
  634TMC3    O2 9397   0.536   0.110  16.965  0.0436  0.2585 -0.0368
  635TMC3    C1 9398   1.714   1.681  17.408  0.6890 -0.0283  0.5633
  635TMC3    C2 9399   1.727   1.564  17.333 -0.7754 -0.0405 -0.3005
  635TMC3    C3 9400   1.843   1.544  17.256 -0.1648 -1.1684  0.5951
  635TMC3    C4 9401   1.816   1.769  17.395  0.2681 -0.0640 -0.6428
  635TMC3    C5 9402   1.931   1.746  17.328  0.8103 -0.4174  0.1392
  635TMC3    C6 9403   1.943   1.639  17.246 -0.0718  0.4908 -0.4308
  635TMC3     C 9404   1.599   1.722  17.478 -0.4710  0.0388 -0.0346
  635TMC3     O 9405   1.611   1.823  17.547 -0.2063 -0.0249 -0.4791
  635TMC3     H 9406   1.655   1.483  17.336 -0.3561 -0.3932  0.0474
  635TMC3    H1 9407   1.817   1.852  17.465 -1.6708 -0.5970  0.0312
  635TMC3    H2 9408   2.022   1.616  17.175  0.5277  0.1830  0.3439
  635TMC3    C7 9409   2.008   1.860  17.306 -0.5822 -0.4953 -1.1281
  635TMC3    C8 9410   1.840   1.426  17.175  0.3977 -0.8277  0.2952
  635TMC3    O1 9411   1.965   1.971  17.331  0.6209  0.3050  0.2090
  635TMC3    O2 9412   1.782   1.328  17.216 -0.3540  0.5420  0.2897
  636MPD2     C 9413   2.201   1.348  15.746  0.0306  0.0715 -0.6528
  636MPD2    C1 9414   2.179   1.362  15.878  0.4678 -0.9207  0.8948
  636MPD2    C2 9415   2.293   1.365  15.955 -0.5262 -0.3416 -0.0815
  636MPD2    C3 9416   2.424   1.378  15.909 -0.4271 -0.1714  0.8259
  636MPD2    C4 9417   2.439   1.369  15.768 -0.1602  0.0618  0.0860
  636MPD2    C5 9418   2.325   1.361  15.690 -0.4750 -0.5183 -0.4874
  636MPD2     H 9419   2.272   1.352  16.061  2.4973  0.1769  0.5617
  636MPD2    H1 9420   2.537   1.373  15.724  0.7180 -2.0106  1.8463
  636MPD2    H2 9421   2.115   1.357  15.680 -0.7747  0.3920  0.4480
  636MPD2    H3 9422   2.334   1.363  15.582  0.5463 -1.6605 -0.4250
  636MPD2     N 9423   2.527   1.375  16.005 -0.1295  0.3174  0.3502
  636MPD2    H5 9424   2.489   1.369  16.099 -0.9276 -1.2652 -0.0720
  636MPD2    N1 9425   2.055   1.330  15.941  0.6693 -0.3238  0.2106
  636MPD2    H7 9426   2.056   1.319  16.042  1.9159 -1.6631  0.0486
  637TMC3    C1 9427   2.749   1.344  16.081  0.3653 -0.2835 -0.0410
  637TMC3    C2 9428   2.882   1.381  16.070 -0.3617 -0.2417  0.2161
  637TMC3    C3 9429   2.961   1.363  16.178  0.3258 -0.7206  0.1655
  637TMC3    C4 9430   2.704   1.270  16.190  0.0218 -0.0902  1.1431
  637TMC3    C5 9431   2.796   1.251  16.290  0.0499  0.0569 -0.0915
  637TMC3    C6 9432   2.922   1.300  16.290 -0.1079 -0.8795 -0.0121
  637TMC3     C 9433   2.662   1.377  15.971 -0.0043  0.4918  0.0940
  637TMC3     O 9434   2.707   1.387  15.858  0.3432 -0.1274 -0.1052
  637TMC3     H 9435   2.923   1.425  15.980  0.3032 -0.0576  0.6097
  637TMC3    H1 9436   2.601   1.235  16.199  0.2952 -0.9171  1.0703
  637TMC3    H2 9437   2.978   1.302  16.383 -1.7194  1.7236  0.9176
  637TMC3    C7 9438   2.818   1.112  16.322 -0.4710  0.2886 -0.6328
  637TMC3    C8 9439   3.101   1.334  16.145 -0.4065  0.5127  0.3353
  637TMC3    O1 9440   2.937   1.092  16.330 -0.0448 -0.4334  0.0241
  637TMC3    O2 9441   3.150   1.397  16.055 -0.2343  0.5830 -0.1960
  638MPD2     C 9442   2.249   4.232  15.134 -0.4845 -0.1385  0.3930
  638MPD2    C1 9443   2.291   4.119  15.069  0.2774 -0.9130  0.0418
  638MPD2    C2 9444   2.282   3.997  15.134  0.0202  0.1042 -0.0041
  638MPD2    C3 9445   2.236   3.986  15.258 -0.4137  1.0192  0.5270
  638MPD2    C4 9446   2.183   4.090  15.323  0.5835 -0.2306 -0.0305
  638MPD2    C5 9447   2.187   4.214  15.258  0.8821 -0.2459 -1.0410
  638MPD2     H 9448   2.316   3.905  15.088  0.8410  1.7009 -2.6410
  638MPD2    H1 9449   2.150   4.083  15.426  0.4252 -1.4499 -0.1663
  638MPD2    H2 9450   2.238   4.332  15.095 -2.8057 -0.9361 -0.9929
  638MPD2    H3 9451   2.148   4.304  15.305 -0.4189 -1.7149  0.6681
  638MPD2     N 9452   2.221   3.849  15.303  0.0103  0.3344  0.4809
  638MPD2    H5 9453   2.260   3.780  15.240 -2.3402 -0.1459 -0.4549
  638MPD2    N1 9454   2.326   4.129  14.932  0.0121  0.2450  0.1386
  638MPD2    H7 9455   2.344   4.226  14.906  0.1901  0.1090 -0.2587
  639TMC3    C1 9456   2.129   3.672  15.408  0.5607  0.0272 -0.1850
  639TMC3    C2 9457   2.008   3.612  15.405  0.6514 -0.3795  0.6742
  639TMC3    C3 9458   2.005   3.478  15.376 -0.2881 -0.3178 -0.5717
  639TMC3    C4 9459   2.249   3.598  15.401 -0.0793 -0.2212  0.2940
  639TMC3    C5 9460   2.240   3.462  15.376 -0.0174  0.3535 -0.4400
  639TMC3    C6 9461   2.119   3.399  15.362  0.0108  0.5472  0.2866
  639TMC3     C 9462   2.133   3.814  15.406 -0.3755  0.1962 -0.4781
  639TMC3     O 9463   2.061   3.884  15.477  0.1259 -0.3601 -0.1312
  639TMC3     H 9464   1.918   3.671  15.420  2.3706  2.1630  1.0403
  639TMC3    H1 9465   2.348   3.637  15.422 -0.4079  1.3225 -1.0107
  639TMC3    H2 9466   2.104   3.301  15.320 -0.5628  1.5756 -1.8815
  639TMC3    C7 9467   2.363   3.391  15.342 -0.1720 -0.4426 -0.5215
  639TMC3    C8 9468   1.931   3.448  15.258 -0.3437 -0.7560 -0.3693
  639TMC3    O1 9469   2.362   3.270  15.359 -0.4893 -0.2008  0.0470
  639TMC3    O2 9470   1.994   3.431  15.157 -0.2006 -0.8105  0.6349
  640MPD2     C 9471   3.572   2.556   9.765 -0.3773  0.9249  0.5621
  640MPD2    C1 9472   3.441   2.568   9.806 -0.5267  0.1712  0.4126
  640MPD2    C2 9473   3.395   2.694   9.824 -0.9002  0.7019  0.3562
  640MPD2    C3 9474   3.464   2.807   9.797 -0.0593 -0.4335  0.0070
  640MPD2    C4 9475   3.592   2.795   9.753 -0.5817  0.6682  0.5764
  640MPD2    C5 9476   3.648   2.668   9.748 -0.3413  0.2402 -0.3301
  640MPD2     H 9477   3.297   2.715   9.866 -0.9047 -1.1542  1.2895
  640MPD2    H1 9478   3.654   2.883   9.740  0.9759 -0.5454 -0.2492
  640MPD2    H2 9479   3.624   2.461   9.753  0.9895  1.7790 -0.2942
  640MPD2    H3 9480   3.753   2.662   9.721  0.0060  0.7361  0.9054
  640MPD2     N 9481   3.406   2.937   9.799  0.1823  0.1510 -0.2831
  640MPD2    H5 9482   3.471   3.014   9.786 -1.2619  1.5971  1.0601
  640MPD2    N1 9483   3.362   2.451   9.821  0.0572 -0.2902 -0.0151
  640MPD2    H7 9484   3.407   2.360   9.828 -1.9227 -1.2218  0.5566
  641TMC3    C1 9485   3.181   2.306   9.834  0.6146  0.1368 -0.1491
  641TMC3    C2 9486   3.267   2.201   9.863  0.0994 -0.2341  0.4091
  641TMC3    C3 9487   3.206   2.078   9.881 -0.3839 -0.2612 -0.6044
  641TMC3    C4 9488   3.051   2.297   9.839 -0.2084  0.3892  0.1798
  641TMC3    C5 9489   2.991   2.172   9.858 -0.5529 -0.0842  0.2052
  641TMC3    C6 9490   3.067   2.059   9.873  0.2540 -0.4094 -0.0202
  641TMC3     C 9491   3.222   2.445   9.820 -0.0527  0.0698 -0.9365
  641TMC3     O 9492   3.141   2.537   9.828  0.1462 -0.6064  0.4643
  641TMC3     H 9493   3.374   2.200   9.844 -0.5816  2.4267 -3.4587
  641TMC3    H1 9494   2.985   2.382   9.829  0.4416  0.9752  0.8725
  641TMC3    H2 9495   3.031   1.959   9.895 -1.5199  1.2584  4.4660
  641TMC3    C7 9496   2.848   2.173   9.843  0.0953  0.8177 -0.1052
  641TMC3    C8 9497   3.288   1.956   9.879  0.0445  1.2778  0.1421
  641TMC3    O1 9498   2.791   2.262   9.784  0.6389 -0.0648  0.2525
  641TMC3    O2 9499   3.223   1.858   9.845  0.1793  0.4681 -0.1741
  642TMC3    C1 9500   3.984   4.143  12.473  0.2830  0.1657 -0.2211
  642TMC3    C2 9501   4.120   4.120  12.496  0.3646  0.2950 -0.0018
  642TMC3    C3 9502   4.156   3.989  12.513 -0.4188  0.2579 -0.7433
  642TMC3    C4 9503   3.896   4.038  12.440  0.4926  0.3502 -0.2763
  642TMC3    C5 9504   3.943   3.912  12.447 -0.3077 -0.6990 -0.2835
  642TMC3    C6 9505   4.072   3.886  12.481  0.3461  0.1594  0.6291
  642TMC3     C 9506   3.939   4.273  12.498  0.2195 -1.2086  0.4708
  642TMC3     O 9507   4.014   4.370  12.516  0.0664  0.1280  0.5327
  642TMC3     H 9508   4.186   4.203  12.518 -2.6048  2.4158  0.9291
  642TMC3    H1 9509   3.799   4.070  12.404  0.7933  3.1966  1.4452
  642TMC3    H2 9510   4.105   3.783  12.485 -0.7620 -0.3089 -2.3159
  642TMC3    C7 9511   3.860   3.806  12.399 -0.4230  0.9612 -0.3337
  642TMC3    C8 9512   4.293   3.946  12.508  0.6119  0.0853 -0.6580
  642TMC3    O1 9513   3.777   3.835  12.312  0.2568 -0.0494 -0.1943
  642TMC3    O2 9514   4.322   3.841  12.570  0.3973  0.0979  0.1310
  643TMC3    C1 9515   2.853   2.710   0.529  0.2084  0.2724  0.0505
  643TMC3    C2 9516   2.743   2.701   0.439 -0.9617 -0.1233  0.5577
  643TMC3    C3 9517   2.743   2.647   0.315  0.0323  0.1143  0.2130
  643TMC3    C4 9518   2.977   2.675   0.482 -0.1805 -0.7264  0.0247
  643TMC3    C5 9519   2.981   2.623   0.355  0.5912  0.3843 -0.2946
  643TMC3    C6 9520   2.866   2.598   0.278 -0.3958 -0.3126  0.0174
  643TMC3     C 9521   2.859   2.822   0.617  0.8880 -0.4833  0.4082
  643TMC3     O 9522   2.788   2.919   0.593 -0.0175 -0.7020  0.5502
  643TMC3     H 9523   2.646   2.729   0.479  0.2232  2.2020  1.8220
  643TMC3    H1 9524   3.066   2.711   0.534 -0.3278 -0.1202 -0.1434
  643TMC3    H2 9525   2.867   2.553   0.180 -0.5623  0.1215 -0.1805
  643TMC3    C7 9526   3.088   2.666   0.256  0.0274  0.0203  0.0707
  643TMC3    C8 9527   2.685   2.721   0.208  0.2026 -0.2208 -0.0077
  643TMC3    O1 9528   3.055   2.674   0.139  0.0168  0.4491 -0.3001
  643TMC3    O2 9529   2.707   2.683   0.093  0.2744  0.3798  0.1850
  644MPD2     C 9530   2.772   2.777   9.653 -0.4063 -0.4627  0.1207
  644MPD2    C1 9531   2.695   2.678   9.602 -0.0620 -0.0311 -0.3235
  644MPD2    C2 9532   2.559   2.702   9.597 -1.1566  0.4271  0.1433
  644MPD2    C3 9533   2.504   2.812   9.663  0.2179  1.2063 -0.1385
  644MPD2    C4 9534   2.587   2.909   9.723 -0.8215  0.6692  0.4812
  644MPD2    C5 9535   2.719   2.892   9.712  1.0032  0.2701  0.3132
  644MPD2     H 9536   2.491   2.629   9.555 -0.6370 -0.2101  0.4093
  644MPD2    H1 9537   2.547   2.998   9.769 -1.2907  1.1464 -0.8355
  644MPD2    H2 9538   2.880   2.776   9.643 -0.4382 -0.0870 -0.2507
  644MPD2    H3 9539   2.787   2.970   9.745 -0.0665  1.1968  0.3516
  644MPD2     N 9540   2.363   2.813   9.672  0.8214 -0.3668  0.5738
  644MPD2    H5 9541   2.317   2.733   9.629  1.2747  0.7533 -2.0148
  644MPD2    N1 9542   2.755   2.560   9.550 -0.1002  0.1307 -0.2836
  644MPD2    H7 9543   2.856   2.547   9.560  0.0621  0.4650 -1.5675
  645TMC3    C1 9544   2.145   2.876   9.743 -0.4754  0.2031  0.3739
  645TMC3    C2 9545   2.059   2.982   9.769 -1.0282 -0.1969  0.6334
  645TMC3    C3 9546   1.924   2.949   9.775 -0.1059  0.7692 -0.1236
  645TMC3    C4 9547   2.098   2.745   9.721  0.1770 -0.0700 -0.2418
  645TMC3    C5 9548   1.960   2.724   9.725  0.2037  0.5356 -0.6195
  645TMC3    C6 9549   1.873   2.820   9.767  0.2653  0.1767  0.2741
  645TMC3     C 9550   2.283   2.911   9.731 -0.1008 -0.2378  0.0874
  645TMC3     O 9551   2.315   3.023   9.768 -0.3954 -0.4983  0.3246
  645TMC3     H 9552   2.105   3.078   9.786 -0.5246 -0.5406  1.2185
  645TMC3    H1 9553   2.175   2.670   9.731 -0.0834 -0.2531  0.3575
  645TMC3    H2 9554   1.766   2.804   9.778 -0.1070  2.0786 -0.7053
  645TMC3    C7 9555   1.913   2.590   9.735  0.4158  0.3187 -0.4901
  645TMC3    C8 9556   1.844   3.071   9.798  0.6820 -0.5832  0.4629
  645TMC3    O1 9557   1.792   2.580   9.764  0.4782 -0.4647 -0.3002
  645TMC3    O2 9558   1.908   3.175   9.781 -0.1046 -0.2342  0.1920
  646MPD2     C 9559   2.242   2.830  14.457  0.7391  0.3419  0.0871
  646MPD2    C1 9560   2.194   2.853  14.579 -0.1869  0.2812 -0.1537
  646MPD2    C2 9561   2.080   2.934  14.590 -0.0684  0.4724 -0.2029
  646MPD2    C3 9562   2.025   3.004  14.484 -0.4062 -0.3113  0.5366
  646MPD2    C4 9563   2.084   2.985  14.361  0.7217  0.3384  0.8399
  646MPD2    C5 9564   2.185   2.892  14.348 -0.0333  0.1657  0.1936
  646MPD2     H 9565   2.032   2.958  14.685  0.9631  1.0153  0.1917
  646MPD2    H1 9566   2.047   3.039  14.275  0.9296 -0.8145  0.0291
  646MPD2    H2 9567   2.317   2.755  14.432 -0.2552 -1.1428  1.5208
  646MPD2    H3 9568   2.219   2.873  14.247 -1.1575  0.9441 -0.3280
  646MPD2     N 9569   1.914   3.080  14.507  0.2551 -0.1144 -0.6162
  646MPD2    H5 9570   1.860   3.065  14.591 -0.0835 -2.4575 -1.2282
  646MPD2    N1 9571   2.252   2.782  14.681  0.4296  0.2753  0.2096
  646MPD2    H7 9572   2.326   2.715  14.660  1.2995  0.7054  1.9442
  647TMC3    C1 9573   2.297   2.704  14.895  0.1267 -0.6251  0.5937
  647TMC3    C2 9574   2.216   2.623  14.976 -0.3163 -0.4277  0.2423
  647TMC3    C3 9575   2.269   2.506  15.030 -0.0520 -0.2234  0.1123
  647TMC3    C4 9576   2.425   2.674  14.863 -0.3574  0.2102  0.4504
  647TMC3    C5 9577   2.482   2.569  14.933 -0.1481 -0.3304  0.1752
  647TMC3    C6 9578   2.409   2.487  15.017  0.3357 -0.7612 -0.1956
  647TMC3     C 9579   2.217   2.790  14.809  0.2220 -0.3446  0.0021
  647TMC3     O 9580   2.115   2.837  14.859  0.2857 -0.4977 -0.5994
  647TMC3     H 9581   2.109   2.635  14.974 -0.2515  0.1063  0.0245
  647TMC3    H1 9582   2.486   2.747  14.811 -2.7282  0.3274 -2.2148
  647TMC3    H2 9583   2.463   2.400  15.050  3.4053  0.6660 -1.4826
  647TMC3    C7 9584   2.606   2.512  14.888 -0.9501 -0.3553 -0.1303
  647TMC3    C8 9585   2.192   2.390  15.057  0.1424 -0.2423 -0.0782
  647TMC3    O1 9586   2.675   2.443  14.965 -0.3060  0.2295 -0.3485
  647TMC3    O2 9587   2.245   2.296  15.114  0.2811  0.4449  0.0882
  648TMC3    C1 9588   1.313   0.308  16.495 -0.1439  0.0980 -0.3050
  648TMC3    C2 9589   1.369   0.195  16.447 -0.0717  0.1810 -0.6587
  648TMC3    C3 9590   1.345   0.167  16.313 -0.3419 -0.1707  0.1272
  648TMC3    C4 9591   1.248   0.393  16.420 -0.2970 -0.1147  0.5993
  648TMC3    C5 9592   1.239   0.359  16.284 -0.3303 -0.7195 -0.9879
  648TMC3    C6 9593   1.294   0.258  16.223 -0.7833  0.2782 -0.0272
  648TMC3     C 9594   1.296   0.321  16.638 -0.5568  0.2639  0.1952
  648TMC3     O 9595   1.266   0.432  16.677 -0.2488  0.1232 -0.4841
  648TMC3     H 9596   1.417   0.121  16.509 -0.7675  0.8642  0.6830
  648TMC3    H1 9597   1.192   0.474  16.464 -0.5022 -0.2004  0.4953
  648TMC3    H2 9598   1.279   0.230  16.119  1.1861  0.5489 -0.3835
  648TMC3    C7 9599   1.149   0.427  16.192 -0.1661  0.4625  0.0037
  648TMC3    C8 9600   1.423   0.069  16.248  0.3751  0.5432  0.3631
  648TMC3    O1 9601   1.104   0.363  16.094  0.3579  0.2818  0.2381
  648TMC3    O2 9602   1.452   0.082  16.133  0.3013  0.1941  0.1617
  649TMC3    C1 9603   0.244   1.704  12.761  0.5247  0.2451  0.1098
  649TMC3    C2 9604   0.377   1.699  12.731  0.0203 -0.1278 -0.2404
  649TMC3    C3 9605   0.460   1.653  12.833  1.2073  0.1591  0.3349
  649TMC3    C4 9606   0.188   1.672  12.883 -0.9910 -0.0771  0.5240
  649TMC3    C5 9607   0.280   1.627  12.976 -0.2263 -0.2327 -0.5753
  649TMC3    C6 9608   0.410   1.609  12.956 -0.0562  0.2820  0.1469
  649TMC3     C 9609   0.153   1.773  12.676  0.0861  0.2115  0.8855
  649TMC3     O 9610   0.049   1.810  12.721 -0.3708 -0.2912 -0.2203
  649TMC3     H 9611   0.414   1.714  12.630  0.6458 -0.2662 -0.0286
  649TMC3    H1 9612   0.083   1.665  12.906 -1.5263  4.0134 -0.6953
  649TMC3    H2 9613   0.470   1.586  13.043  1.9542  0.1850 -1.2457
  649TMC3    C7 9614   0.225   1.563  13.095  0.3344 -0.3757 -0.4037
  649TMC3    C8 9615   0.598   1.695  12.827 -0.6000 -0.1850  0.6042
  649TMC3    O1 9616   0.107   1.587  13.121 -0.2001  0.3816 -0.1862
  649TMC3    O2 9617   0.673   1.644  12.906  0.4322 -0.6534  0.9561
  650TMC3    C1 9618   2.780   3.355  12.767 -1.0565  0.1028  0.3121
  650TMC3    C2 9619   2.857   3.452  12.830 -0.2209  0.5570  0.4008
  650TMC3    C3 9620   2.935   3.522  12.743  0.7111  0.3874 -0.1313
  650TMC3    C4 9621   2.777   3.335  12.630  0.1756  0.2769 -0.1590
  650TMC3    C5 9622   2.865   3.403  12.550  0.7212 -0.5541  0.0781
  650TMC3    C6 9623   2.949   3.487  12.610  0.4280  0.0660  0.6477
  650TMC3     C 9624   2.734   3.244  12.850  0.8630  0.0495 -0.0995
  650TMC3     O 9625   2.720   3.273  12.965 -0.1125 -0.5713 -0.1383
  650TMC3     H 9626   2.862   3.463  12.938 -0.3289  1.2667  0.3325
  650TMC3    H1 9627   2.691   3.285  12.585  0.6401  0.2580 -1.0294
  650TMC3    H2 9628   3.010   3.543  12.540  0.0794  0.0519  0.3327
  650TMC3    C7 9629   2.821   3.427  12.417 -0.6097  0.1160 -0.2624
  650TMC3    C8 9630   2.940   3.668  12.762 -0.6506  0.3106  0.0917
  650TMC3    O1 9631   2.767   3.333  12.352  0.8110 -0.0152  0.3856
  650TMC3    O2 9632   2.973   3.732  12.663 -0.1730  0.1711 -0.2157
  651MPD2     C 9633   2.364   0.116  10.852 -0.3321  0.1722  0.2203
  651MPD2    C1 9634   2.344   0.251  10.882  0.3880 -0.5300  0.5681
  651MPD2    C2 9635   2.448   0.340  10.857 -0.4657 -0.2806 -0.5260
  651MPD2    C3 9636   2.568   0.295  10.801  0.5382  1.5134  0.7383
  651MPD2    C4 9637   2.582   0.160  10.763 -0.3250  0.0756 -0.0730
  651MPD2    C5 9638   2.475   0.076  10.781  0.2126 -0.4416  0.0571
  651MPD2     H 9639   2.441   0.447  10.874 -0.2437 -0.2556 -0.5914
  651MPD2    H1 9640   2.666   0.128  10.702 -1.3248 -2.7490  0.0536
  651MPD2    H2 9641   2.278   0.051  10.859 -1.0533  1.3747  2.4791
  651MPD2    H3 9642   2.479   4.700  10.742  0.4446  0.8270 -3.1470
  651MPD2     N 9643   2.667   0.388  10.789  0.1085  0.1997 -0.5343
  651MPD2    H5 9644   2.648   0.487  10.801  0.9016  0.2410  0.4225
  651MPD2    N1 9645   2.217   0.300  10.925 -0.2020  1.2620 -0.0483
  651MPD2    H7 9646   2.209   0.400  10.910  0.3852  1.5357  1.4536
  652TMC3    C1 9647   3.064   0.605  10.748  0.1028 -0.2760 -0.1506
  652TMC3    C2 9648   2.996   0.494  10.786 -0.6958 -0.1625 -0.8579
  652TMC3    C3 9649   2.868   0.472  10.738 -0.2717  0.1653  0.3082
  652TMC3    C4 9650   2.993   0.705  10.680  0.3086  0.0645  0.1624
  652TMC3    C5 9651   2.857   0.685  10.649  0.0974 -0.4818  0.6333
  652TMC3    C6 9652   2.793   0.568  10.679 -0.1567  0.5405 -0.1525
  652TMC3     C 9653   3.204   0.609  10.776 -0.5209  0.1928  0.4307
  652TMC3     O 9654   3.253   0.526  10.850 -0.1178  0.1931  0.0668
  652TMC3     H 9655   3.046   0.415  10.840 -0.1952 -1.0203 -2.5583
  652TMC3    H1 9656   3.045   0.800  10.677  0.3992  0.0095 -0.0892
  652TMC3    H2 9657   2.695   0.552  10.634 -0.5209  0.3783  0.7015
  652TMC3    C7 9658   2.782   0.802  10.602  0.4790 -0.1665  0.3287
  652TMC3    C8 9659   2.802   0.354  10.780  0.0734 -0.4792 -0.7532
  652TMC3    O1 9660   2.682   0.770  10.543 -0.3880 -0.0734 -0.3830
  652TMC3    O2 9661   2.862   0.252  10.805 -0.3886 -0.4392  0.4916
  653MPD2     C 9662   0.635   0.300   0.556  0.4861 -0.0894 -0.3091
  653MPD2    C1 9663   0.604   0.387   0.451 -0.1001  0.8700  0.5504
  653MPD2    C2 9664   0.566   0.324   0.333 -0.1559  0.0015  0.2540
  653MPD2    C3 9665   0.538   0.193   0.321  0.1286 -0.0729  0.7169
  653MPD2    C4 9666   0.564   0.109   0.430 -0.0182  0.5762  0.4477
  653MPD2    C5 9667   0.623   0.166   0.543 -0.2670  0.5476  0.9568
  653MPD2     H 9668   0.533   0.398   0.261  1.1183  1.0947  0.7938
  653MPD2    H1 9669   0.562   0.001   0.419  3.4707  0.6840 -1.0498
  653MPD2    H2 9670   0.664   0.336   0.654  1.4204  2.0939 -1.3911
  653MPD2    H3 9671   0.652   0.101   0.624 -0.7990 -0.5709  0.2456
  653MPD2     N 9672   0.484   0.147   0.197 -0.1500  0.3197  0.7540
  653MPD2    H5 9673   0.474   0.217   0.124  1.8033  1.3613  1.5016
  653MPD2    N1 9674   0.624   0.535   0.453 -0.3856 -0.0295  0.0951
  653MPD2    H7 9675   0.592   0.583   0.369 -0.3326 -0.5624 -0.2355
  654TMC3    C1 9676   0.402   4.704   0.042 -0.6385 -0.2532  0.6237
  654TMC3    C2 9677   0.362   0.082  17.659  0.0716  0.1472 -1.3111
  654TMC3    C3 9678   0.302   0.053  17.545 -0.1352  0.4723 -1.0450
  654TMC3    C4 9679   0.380   4.572   0.013  0.7976 -0.3805  0.4457
  654TMC3    C5 9680   0.305   4.550  17.599  0.0213 -1.1028  0.4561
  654TMC3    C6 9681   0.267   4.652  17.514  1.2254 -0.7951 -0.6613
  654TMC3     C 9682   0.445   0.012   0.173  0.4577  0.2307  0.4104
  654TMC3     O 9683   0.436   4.636   0.243 -0.3983 -1.0194 -0.0783
  654TMC3     H 9684   0.363   0.188  17.683 -0.6480 -0.2913  0.6538
  654TMC3    H1 9685   0.415   4.497   0.083 -0.3322  0.7059  2.1892
  654TMC3    H2 9686   0.208   4.627  17.427 -1.9215  0.0262  1.2420
  654TMC3    C7 9687   0.302   4.418  17.529 -0.7181 -0.1221  0.1615
  654TMC3    C8 9688   0.230   0.155  17.475 -0.5447  0.1677  0.1845
  654TMC3    O1 9689   0.234   4.417  17.430 -0.0234  0.1541  0.5610
  654TMC3    O2 9690   0.179   0.250  17.529  0.0103  0.0062  0.0993
  655MPD2     C 9691   1.949   0.647  16.068 -0.2204 -0.6085  0.0183
  655MPD2    C1 9692   1.831   0.642  15.999 -0.2857  1.4846  0.6506
  655MPD2    C2 9693   1.833   0.594  15.867 -0.5259  0.2811  0.0584
  655MPD2    C3 9694   1.953   0.554  15.803 -0.2516 -0.1667 -0.3762
  655MPD2    C4 9695   2.066   0.567  15.878 -0.5088 -0.1251  0.0969
  655MPD2    C5 9696   2.066   0.611  16.005 -0.7194 -0.0336 -0.1540
  655MPD2     H 9697   1.739   0.579  15.815 -0.5528 -0.2027  0.2481
  655MPD2    H1 9698   2.157   0.545  15.824  0.4450  1.1554  1.1790
  655MPD2    H2 9699   1.950   0.697  16.164 -1.6199  1.3068 -0.9591
  655MPD2    H3 9700   2.161   0.606  16.057 -3.3583 -1.9961  4.4710
  655MPD2     N 9701   1.969   0.497  15.676 -0.3651  0.1352  0.0253
  655MPD2    H5 9702   2.063   0.466  15.653  0.6724  1.8538  1.9792
  655MPD2    N1 9703   1.713   0.687  16.056  0.4907  0.4824 -0.5811
  655MPD2    H7 9704   1.635   0.710  15.995 -1.4795  0.0210  1.7622
  656TMC3    C1 9705   1.558   0.758  16.215  0.1536  0.1664  0.0399
  656TMC3    C2 9706   1.498   0.746  16.335 -0.6629  0.3100  0.4345
  656TMC3    C3 9707   1.420   0.840  16.386 -0.1488  0.1383 -0.3959
  656TMC3    C4 9708   1.541   0.860  16.134 -0.5288  0.3624 -0.1531
  656TMC3    C5 9709   1.455   0.960  16.177 -0.6170  0.2285 -0.1049
  656TMC3    C6 9710   1.385   0.945  16.296  0.2355 -0.2199  0.2440
  656TMC3     C 9711   1.680   0.685  16.187 -0.9076 -0.1174  0.1201
  656TMC3     O 9712   1.735   0.628  16.281  0.0583 -0.6789  0.2927
  656TMC3     H 9713   1.530   0.665  16.400 -1.7767  0.8661  1.6861
  656TMC3    H1 9714   1.590   0.870  16.038 -0.9463  0.5475 -0.3481
  656TMC3    H2 9715   1.321   1.024  16.333 -0.6045 -0.3244 -1.0233
  656TMC3    C7 9716   1.409   1.065  16.089 -0.0661  0.5544 -0.0121
  656TMC3    C8 9717   1.309   0.802  16.470  0.8819  1.0113 -0.5616
  656TMC3    O1 9718   1.492   1.099  16.002 -0.3457 -0.0164  0.1820
  656TMC3    O2 9719   1.244   0.712  16.424 -0.0596 -0.3444 -0.4261
  657TMC3    C1 9720   1.342   4.682  14.925  0.2801  1.0190  0.5101
  657TMC3    C2 9721   1.223   0.006  14.972 -0.4478 -0.1043 -0.0965
  657TMC3    C3 9722   1.221   0.102  15.068  0.3971 -0.1117  0.9045
  657TMC3    C4 9723   1.462   0.022  14.956  0.2993 -0.5141  0.2475
  657TMC3    C5 9724   1.460   0.129  15.042 -0.3811 -0.1366  0.1929
  657TMC3    C6 9725   1.342   0.161  15.100 -0.2508 -0.2331 -0.1898
  657TMC3     C 9726   1.347   4.548  14.876  0.1724  0.9081 -0.3498
  657TMC3     O 9727   1.253   4.499  14.808  0.0214 -0.3293  0.0053
  657TMC3     H 9728   1.131   4.677  14.955  0.2893 -1.2002 -0.5978
  657TMC3    H1 9729   1.559   4.709  14.924  1.0267  1.1235  0.5296
  657TMC3    H2 9730   1.342   0.241  15.172 -0.3168 -0.8018  0.4443
  657TMC3    C7 9731   1.566   0.231  15.050  0.2721  0.3160 -0.4204
  657TMC3    C8 9732   1.103   0.182  15.068  0.7018  0.0431  0.3910
  657TMC3    O1 9733   1.571   0.292  15.159 -0.3332  0.2829 -0.6191
  657TMC3    O2 9734   1.020   0.146  14.987 -0.1513  0.2880  0.3192
  658MPD2     C 9735   2.314   0.287  14.920  0.4404 -0.2327  0.8292
  658MPD2    C1 9736   2.256   0.377  14.996 -0.0626 -0.0038  0.5046
  658MPD2    C2 9737   2.267   0.508  14.948 -0.5083 -0.1175  0.4469
  658MPD2    C3 9738   2.343   0.544  14.837  0.6401 -0.6246 -0.1620
  658MPD2    C4 9739   2.399   0.444  14.760  0.2392  0.4211 -0.1772
  658MPD2    C5 9740   2.389   0.315  14.808  0.4841 -0.0605  0.4608
  658MPD2     H 9741   2.208   0.588  14.991 -1.6950 -0.0111 -1.3820
  658MPD2    H1 9742   2.466   0.467  14.678  0.4594  0.9855  0.1675
  658MPD2    H2 9743   2.302   0.182  14.942 -0.2053 -0.6931 -1.7703
  658MPD2    H3 9744   2.435   0.233  14.754  1.6128 -0.1867  1.6147
  658MPD2     N 9745   2.325   0.672  14.787 -0.3798  0.0702 -0.4478
  658MPD2    H5 9746   2.266   0.732  14.844  0.2016 -0.9283  1.2060
  658MPD2    N1 9747   2.174   0.333  15.103 -0.2114 -0.4962  0.0333
  658MPD2    H7 9748   2.166   0.233  15.119 -3.4141 -0.1779  0.5100
  659TMC3    C1 9749   2.031   0.358  15.293  0.3115 -1.0447 -0.0175
  659TMC3    C2 9750   2.013   0.433  15.408 -0.5666  0.4061 -0.0049
  659TMC3    C3 9751   1.902   0.402  15.481 -0.3003  0.3325  0.2847
  659TMC3    C4 9752   1.960   0.240  15.264 -0.2049  0.8431  0.1044
  659TMC3    C5 9753   1.845   0.226  15.336 -0.2326  0.6571 -0.2815
  659TMC3    C6 9754   1.809   0.309  15.441  0.0486 -0.8890  0.4901
  659TMC3     C 9755   2.129   0.414  15.205 -0.9317  0.0976 -0.2922
  659TMC3     O 9756   2.175   0.523  15.233 -0.3362  0.0080 -0.0350
  659TMC3     H 9757   2.069   0.523  15.428  0.4172 -0.2817  0.3448
  659TMC3    H1 9758   1.974   0.177  15.177  0.0775  1.9982 -0.6866
  659TMC3    H2 9759   1.725   0.284  15.505 -0.5031  2.8832  1.2151
  659TMC3    C7 9760   1.773   0.102  15.307 -0.1374  0.2534 -0.5056
  659TMC3    C8 9761   1.866   0.482  15.588 -0.0761  0.0179 -0.0672
  659TMC3    O1 9762   1.831   0.022  15.229 -0.1720  0.0573 -0.1929
  659TMC3    O2 9763   1.750   0.489  15.619 -0.3580  0.1509 -0.4472
  660MPD2     C 9764   0.336   4.457  12.798 -0.2237  0.4342  0.2752
  660MPD2    C1 9765   0.223   4.534  12.786  0.4328  0.6042 -0.7466
  660MPD2    C2 9766   0.108   4.505  12.866 -0.3582  0.3163 -0.0193
  660MPD2    C3 9767   0.115   4.399  12.960  0.6542 -0.7380  0.3050
  660MPD2    C4 9768   0.235   4.342  12.979 -0.3746 -0.4422 -0.3219
  660MPD2    C5 9769   0.343   4.366  12.900  0.5922  0.8539 -0.2212
  660MPD2     H 9770   0.019   4.564  12.849 -1.3136 -0.6367  1.5755
  660MPD2    H1 9771   0.243   4.267  13.056  0.2035  0.6409  0.6834
  660MPD2    H2 9772   0.419   4.467  12.729 -0.2095 -3.1721 -0.2126
  660MPD2    H3 9773   0.436   4.310  12.908 -1.9826 -2.8545  3.6406
  660MPD2     N 9774   0.004   4.359  13.037  0.1723  0.2444  0.2841
  660MPD2    H5 9775   0.012   4.269  13.082  2.7003  0.4463  0.2630
  660MPD2    N1 9776   0.213   4.630  12.680  0.6725 -0.0531  0.6869
  660MPD2    H7 9777   0.294   4.639  12.619 -0.5784  1.6253 -0.7211
  661TMC3    C1 9778   0.096   0.039  12.525  0.2933  0.4519  0.4583
  661TMC3    C2 9779   0.178   4.710  12.429 -0.3778  0.0168  0.3847
  661TMC3    C3 9780   0.144   0.013  12.299 -0.1084 -0.6029  0.4749
  661TMC3    C4 9781   4.704   0.086  12.494 -0.1675  0.3445 -0.6245
  661TMC3    C5 9782   4.665   0.092  12.360  0.3322 -0.3645 -0.4026
  661TMC3    C6 9783   0.023   0.061  12.252 -0.1139  0.2434 -0.1259
  661TMC3     C 9784   0.105   4.713  12.660 -0.3641 -0.6819  0.0264
  661TMC3     O 9785   0.009   0.013  12.730 -0.1636 -0.7099 -0.1422
  661TMC3     H 9786   0.275   4.661  12.440 -0.1499 -0.4482 -3.6934
  661TMC3    H1 9787   4.631   0.113  12.569 -1.7722 -1.5315 -1.5165
  661TMC3    H2 9788   4.713   0.065  12.150 -1.5230 -0.5203  0.3226
  661TMC3    C7 9789   4.531   0.049  12.339 -0.1297 -0.9244 -0.3856
  661TMC3    C8 9790   0.253   0.024  12.215 -0.6491 -0.4097 -0.1876
  661TMC3    O1 9791   4.443   0.104  12.400  0.3084 -0.0101  0.4711
  661TMC3    O2 9792   0.329   4.658  12.220  0.1422  0.2289 -0.0211
  662MPD2     C 9793   0.222   3.254  17.339 -0.4352 -0.0470 -0.1480
  662MPD2    C1 9794   0.292   3.262  17.459  0.1890  0.2628  0.3421
  662MPD2    C2 9795   0.234   3.331  17.560 -0.1866 -0.5167  0.2949
  662MPD2    C3 9796   0.103   3.371  17.556  0.1167  0.0467  0.2531
  662MPD2    C4 9797   0.035   3.366  17.436 -0.3588  0.0603  0.1726
  662MPD2    C5 9798   0.098   3.310  17.329 -0.8113  0.3777 -0.4121
  662MPD2     H 9799   0.282   3.337  17.657 -1.8950 -1.9321  1.2309
  662MPD2    H1 9800   4.655   3.392  17.428 -0.1223  1.3033  1.1457
  662MPD2    H2 9801   0.265   3.208  17.251  0.1516 -1.1775  0.7314
  662MPD2    H3 9802   0.043   3.300  17.236 -0.5812 -1.4931 -0.3296
  662MPD2     N 9803   0.041   3.430  17.668  0.1982  0.0767 -0.2894
  662MPD2    H5 9804   4.686   3.489  17.646 -1.0822 -0.6023  2.6660
  662MPD2    N1 9805   0.420   3.202  17.499  0.9807 -0.2488  0.2183
  662MPD2    H7 9806   0.444   3.215  17.596 -0.5482 -0.4362  0.6110
  663TMC3    C1 9807   0.584   3.050  17.512 -0.5396  0.1354 -0.2528
  663TMC3    C2 9808   0.623   3.138  17.613 -0.0675  0.6804 -0.1649
  663TMC3    C3 9809   0.605   3.115   0.048 -0.5246 -0.7198  0.2992
  663TMC3    C4 9810   0.527   2.933  17.545 -0.8770 -0.2795  0.3408
  663TMC3    C5 9811   0.528   2.905  17.676  0.1468 -0.4204 -0.0780
  663TMC3    C6 9812   0.565   2.989   0.073 -0.0183 -0.1646  0.4509
  663TMC3     C 9813   0.489   3.110  17.421 -0.2726 -0.3410 -0.3275
  663TMC3     O 9814   0.462   3.053  17.317 -0.0981 -0.1849  0.1168
  663TMC3     H 9815   0.647   3.237  17.577  0.7075  0.9182  0.9947
  663TMC3    H1 9816   0.482   2.876  17.465 -3.0316  0.0723  1.2925
  663TMC3    H2 9817   0.530   2.961   0.172  0.1029 -0.1465  0.4990
  663TMC3    C7 9818   0.483   2.775   0.009 -0.2686  0.0208  0.0173
  663TMC3    C8 9819   0.529   3.222   0.113  0.0155  0.0725 -0.0256
  663TMC3    O1 9820   0.545   2.716   0.097  0.6479  0.1374 -0.2866
  663TMC3    O2 9821   0.514   3.321   0.046 -0.2349 -0.0275  0.3006
  664MPD2     C 9822   2.847   1.879  17.661  0.0528 -0.0265  0.3388
  664MPD2    C1 9823   2.916   1.961   0.048 -0.0553  0.4141  0.7685
  664MPD2    C2 9824   2.936   1.917   0.174  0.6869 -0.4069 -0.0398
  664MPD2    C3 9825   2.898   1.789   0.220  0.7571  0.8318 -0.1594
  664MPD2    C4 9826   2.822   1.712   0.133  0.5523 -0.0727  0.3092
  664MPD2    C5 9827   2.801   1.758   0.007 -0.4305 -0.3512 -0.6374
  664MPD2     H 9828   2.991   1.982   0.241 -0.2202 -1.4443  1.6974
  664MPD2    H1 9829   2.784   1.614   0.159  1.8612 -0.2084  1.7109
  664MPD2    H2 9830   2.828   1.902  17.557  2.2474 -1.2661 -0.3467
  664MPD2    H3 9831   2.750   1.687  17.644  2.3219 -0.8923 -2.2272
  664MPD2     N 9832   2.925   1.762   0.354  0.1828  0.1031  0.5192
  664MPD2    H5 9833   2.958   1.843   0.406 -1.2847 -0.5633  2.4676
  664MPD2    N1 9834   2.962   2.095   0.017  0.1835 -0.2041  1.0823
  664MPD2    H7 9835   3.018   2.148   0.084  0.1693  3.8007 -2.0818
  665TMC3    C1 9836   2.909   1.666   0.562  0.2910  0.1860 -0.0123
  665TMC3    C2 9837   2.838   1.583   0.638 -0.0258  0.2454 -0.0310
  665TMC3    C3 9838   2.850   1.591   0.777  0.1097 -0.4902 -0.5645
  665TMC3    C4 9839   3.014   1.742   0.611 -0.5385  0.2442 -0.7631
  665TMC3    C5 9840   3.022   1.744   0.749 -0.2336 -0.1424  0.1471
  665TMC3    C6 9841   2.939   1.679   0.835  0.0033 -0.7065  0.2028
  665TMC3     C 9842   2.897   1.642   0.421 -0.4657 -0.3301 -0.7957
  665TMC3     O 9843   2.859   1.535   0.375  0.3329 -0.4251 -0.7478
  665TMC3     H 9844   2.754   1.542   0.584  0.7975 -0.7073 -0.5851
  665TMC3    H1 9845   3.084   1.789   0.544  1.0287  1.9900  2.0758
  665TMC3    H2 9846   2.951   1.681   0.943 -2.4900 -0.9324  0.4913
  665TMC3    C7 9847   3.147   1.788   0.807  0.1926  0.5558  0.8107
  665TMC3    C8 9848   2.747   1.542   0.863 -0.0114 -0.4332  0.3308
  665TMC3    O1 9849   3.245   1.793   0.731  0.6393  0.6849 -0.9462
  665TMC3    O2 9850   2.721   1.622   0.952  0.0568 -0.1667 -0.3802
  666TMC3    C1 9851   2.573   2.463   9.992  0.2772  0.2054 -0.1228
  666TMC3    C2 9852   2.659   2.373  10.048  0.1761  0.4236  1.1484
  666TMC3    C3 9853   2.771   2.429  10.105  0.1280 -0.0121  0.4228
  666TMC3    C4 9854   2.583   2.599  10.004 -0.5990  0.0744 -0.5825
  666TMC3    C5 9855   2.692   2.646  10.057 -0.3537 -0.2466 -0.3886
  666TMC3    C6 9856   2.789   2.563  10.102  0.3127  0.6851 -0.7481
  666TMC3     C 9857   2.434   2.418   9.968 -0.0856 -0.0782  0.2677
  666TMC3     O 9858   2.361   2.477   9.893  0.4942  0.4692 -0.0363
  666TMC3     H 9859   2.639   2.267  10.036 -0.5835  0.9046 -1.8930
  666TMC3    H1 9860   2.508   2.661   9.956 -0.6530 -0.3529 -1.0475
  666TMC3    H2 9861   2.874   2.606  10.154 -0.8017  0.3557  1.3748
  666TMC3    C7 9862   2.708   2.789  10.057 -0.5936 -0.0004  0.5400
  666TMC3    C8 9863   2.867   2.341  10.163  0.3248  0.5473  0.0249
  666TMC3    O1 9864   2.607   2.853  10.055  0.5990  0.5237  0.2523
  666TMC3    O2 9865   2.830   2.222  10.176 -0.6647  0.2549 -0.4424
  667MPD2     C 9866   4.270   2.044  14.587  0.5282  0.2908 -0.0079
  667MPD2    C1 9867   4.156   2.081  14.656  0.3503  0.2283 -0.2145
  667MPD2    C2 9868   4.033   2.028  14.620  0.2490 -0.6540  0.7489
  667MPD2    C3 9869   4.022   1.921  14.534 -0.1484  0.1270 -0.4854
  667MPD2    C4 9870   4.144   1.872  14.483 -0.5665  0.6125 -0.6310
  667MPD2    C5 9871   4.261   1.942  14.489 -0.3047 -0.2804 -0.0024
  667MPD2     H 9872   3.941   2.067  14.663 -0.1143  0.6045 -1.1564
  667MPD2    H1 9873   4.127   1.791  14.413 -0.9431  0.1089  0.0397
  667MPD2    H2 9874   4.364   2.095  14.602 -0.2165  1.8752 -0.8081
  667MPD2    H3 9875   4.349   1.907  14.437 -1.7444 -0.0765 -2.5690
  667MPD2     N 9876   3.901   1.864  14.504 -0.2100  0.5118 -0.4683
  667MPD2    H5 9877   3.899   1.768  14.470 -1.1997  0.5158 -0.4159
  667MPD2    N1 9878   4.150   2.175  14.766 -0.1694  0.8179  0.0147
  667MPD2    H7 9879   4.066   2.180  14.822 -0.0871  2.4103 -0.0081
  668TMC3    C1 9880   4.242   2.326  14.925 -0.2023 -0.3725  0.6373
  668TMC3    C2 9881   4.307   2.450  14.929  0.0405  0.3978  0.2932
  668TMC3    C3 9882   4.278   2.532  15.037 -1.0098 -0.3509  0.2528
  668TMC3    C4 9883   4.141   2.289  15.016 -0.3381  0.4292 -0.8005
  668TMC3    C5 9884   4.110   2.377  15.110  0.3276  0.5222  0.0346
  668TMC3    C6 9885   4.180   2.498  15.129 -0.2507  0.6669  0.5523
  668TMC3     C 9886   4.256   2.252  14.798 -0.5967 -0.8597  0.7815
  668TMC3     O 9887   4.360   2.285  14.738 -0.1777  0.0026  0.2545
  668TMC3     H 9888   4.388   2.472  14.861  0.4987 -2.2867 -0.0244
  668TMC3    H1 9889   4.103   2.187  15.023 -0.3303  0.3796 -1.4266
  668TMC3    H2 9890   4.138   2.569  15.199  1.1972  1.2599  0.8230
  668TMC3    C7 9891   4.001   2.355  15.208  0.0218  0.3031  0.1164
  668TMC3    C8 9892   4.317   2.671  15.019  0.2351 -0.3959 -0.1314
  668TMC3    O1 9893   3.975   2.439  15.290 -0.2922 -0.0333  0.0804
  668TMC3    O2 9894   4.288   2.749  15.107  0.1930  0.6788  0.6819
  669TMC3    C1 9895   1.821   2.171  14.347 -0.0929 -0.2014  0.0118
  669TMC3    C2 9896   1.722   2.188  14.250  0.7285 -0.1240 -0.1033
  669TMC3    C3 9897   1.740   2.261  14.138  0.4872 -0.4272 -0.0179
  669TMC3    C4 9898   1.944   2.225  14.317 -0.6585  0.1317 -0.8832
  669TMC3    C5 9899   1.957   2.296  14.195 -0.2121  0.3139  0.2900
  669TMC3    C6 9900   1.862   2.307  14.100 -0.4478 -0.4457  0.1691
  669TMC3     C 9901   1.779   2.116  14.471 -0.0282  0.5659  0.3126
  669TMC3     O 9902   1.659   2.091  14.488 -0.0056 -0.3195  0.0554
  669TMC3     H 9903   1.623   2.144  14.257  2.1373 -3.1045  1.3400
  669TMC3    H1 9904   2.025   2.242  14.388 -3.1566 -1.6598  2.3976
  669TMC3    H2 9905   1.866   2.370  14.012 -0.8663 -0.6381  0.0132
  669TMC3    C7 9906   2.075   2.387  14.197 -0.3434 -0.1995  0.0216
  669TMC3    C8 9907   1.637   2.250  14.035  0.3419 -0.1025  0.1707
  669TMC3    O1 9908   2.160   2.380  14.284  0.0742 -0.7014  0.4832
  669TMC3    O2 9909   1.585   2.141  14.031 -0.1283  0.2359  0.1187
  670MPD2     C 9910   0.510   0.241  13.992  0.3237 -0.5463  0.0422
  670MPD2    C1 9911   0.588   0.198  14.095 -0.7402 -0.8582 -1.1990
  670MPD2    C2 9912   0.532   0.134  14.202  0.3976 -0.2522 -0.6584
  670MPD2    C3 9913   0.390   0.114  14.198  0.2371  0.3394  0.0614
  670MPD2    C4 9914   0.313   0.173  14.102  0.5486 -0.1168  0.1869
  670MPD2    C5 9915   0.373   0.241  13.996  0.3581  0.4212 -0.2807
  670MPD2     H 9916   0.593   0.097  14.284 -4.5902 -1.1442  2.6589
  670MPD2    H1 9917   0.206   0.153  14.096  0.5801  0.8670 -3.1587
  670MPD2    H2 9918   0.552   0.263  13.894 -0.2110  0.5504  0.0583
  670MPD2    H3 9919   0.316   0.281  13.913  0.8746  3.9213  1.0518
  670MPD2     N 9920   0.316   0.047  14.304 -0.2738 -0.2470 -0.1027
  670MPD2    H5 9921   0.216   0.034  14.291  0.0426 -3.2256  0.3160
  670MPD2    N1 9922   0.730   0.178  14.090 -0.1783 -0.0029  0.1149
  670MPD2    H7 9923   0.768   0.131  14.172  1.3289  0.8854 -0.0833
  671TMC3    C1 9924   0.272   4.655  14.505 -0.0288  0.5138 -0.0200
  671TMC3    C2 9925   0.311   4.616  14.633  0.7383  0.1409  0.1414
  671TMC3    C3 9926   0.242   4.513  14.689 -0.2011 -0.2297 -0.5515
  671TMC3    C4 9927   0.164   4.603  14.438 -0.4612 -0.2997  0.1740
  671TMC3    C5 9928   0.095   4.508  14.505  0.0119 -0.4799 -0.6537
  671TMC3    C6 9929   0.133   4.462  14.627  0.2084 -0.1359  0.0327
  671TMC3     C 9930   0.373   4.721  14.421 -0.1398  0.0883  0.5078
  671TMC3     O 9931   0.479   0.027  14.473 -0.4571  0.1527 -0.1513
  671TMC3     H 9932   0.407   4.652  14.667  0.1174  2.4402 -0.5323
  671TMC3    H1 9933   0.132   4.627  14.337  0.8151 -0.5492 -0.2911
  671TMC3    H2 9934   0.076   4.385  14.677 -1.8108  0.3292 -1.5490
  671TMC3    C7 9935   0.031   4.403  14.422  0.0257  0.6453 -0.3367
  671TMC3    C8 9936   0.327   4.405  14.734 -0.7128 -0.4616 -0.2098
  671TMC3    O1 9937   4.693   4.450  14.329 -0.4031 -1.0340 -0.1361
  671TMC3    O2 9938   0.312   4.298  14.678 -0.1791  0.2454  0.6461
  672MPD2     C 9939   4.570   0.173   1.451 -0.5344  0.5162 -0.3023
  672MPD2    C1 9940   4.685   0.093   1.459  0.8398  0.2955  0.1124
  672MPD2    C2 9941   0.047   0.108   1.564 -0.3876 -1.2669  0.3083
  672MPD2    C3 9942   0.017   0.189   1.667 -0.2362  0.2443  0.2936
  672MPD2    C4 9943   4.630   0.271   1.655 -0.5649  0.3344  0.2280
  672MPD2    C5 9944   4.548   0.264   1.550 -0.2171 -0.0390  0.3989
  672MPD2     H 9945   0.141   0.054   1.554  0.9025  0.3995  3.2272
  672MPD2    H1 9946   4.594   0.339   1.732  2.4041  1.5286  0.5524
  672MPD2    H2 9947   4.510   0.181   1.362  0.0507 -1.0286 -0.8369
  672MPD2    H3 9948   4.466   0.334   1.542  0.0999  0.6487  2.9455
  672MPD2     N 9949   0.123   0.215   1.754 -0.0552 -0.1102 -0.2375
  672MPD2    H5 9950   0.110   0.304   1.800  1.2368  0.5402 -1.1517
  672MPD2    N1 9951   4.721   0.020   1.348  0.2409  0.3481  0.0186
  672MPD2    H7 9952   0.095   0.002   1.335 -0.5720 -1.9200 -3.1014
  673TMC3    C1 9953   4.719   4.643   1.132 -0.1772  0.2209 -0.2752
  673TMC3    C2 9954   0.045   4.517   1.145 -0.7498 -0.5121 -0.1169
  673TMC3    C3 9955   0.064   4.445   1.029 -0.9534  0.1732 -0.2926
  673TMC3    C4 9956   4.725   4.704   1.005  0.1764  1.2431  0.2974
  673TMC3    C5 9957   0.029   4.628   0.898  0.4278  0.5187 -0.2024
  673TMC3    C6 9958   0.061   4.496   0.903  0.0380 -0.3515 -0.2773
  673TMC3     C 9959   4.644   4.702   1.245  0.4752  0.4911  0.1182
  673TMC3     O 9960   4.525   0.008   1.219  0.0314 -0.1610 -0.1624
  673TMC3     H 9961   0.039   4.468   1.241 -1.0024  1.0693  0.6775
  673TMC3    H1 9962   4.682   0.077   0.990 -2.4115 -0.2136 -1.8249
  673TMC3    H2 9963   0.100   4.436   0.821  0.6297  0.0960 -0.3185
  673TMC3    C7 9964   0.091   4.690   0.790  0.3947  0.3680  0.5167
  673TMC3    C8 9965   0.116   4.307   1.032 -0.2890  0.8260 -0.3994
  673TMC3    O1 9966   0.133   4.626   0.698 -0.4389  0.5351 -0.3798
  673TMC3    O2 9967   0.126   4.253   0.923 -0.5689 -0.2942  0.0510
  674MPD2     C 9968   4.429   4.545   0.863  0.8997 -0.1390 -0.1082
  674MPD2    C1 9969   4.494   4.435   0.805 -0.0070 -0.3105  0.6271
  674MPD2    C2 9970   4.512   4.317   0.887  0.1529 -0.3194 -0.4085
  674MPD2    C3 9971   4.469   4.321   1.018  0.3573 -0.1660 -0.2956
  674MPD2    C4 9972   4.422   4.437   1.072  0.0862 -0.2530 -0.4912
  674MPD2    C5 9973   4.389   4.544   0.993 -0.3603  0.0468 -0.7281
  674MPD2     H 9974   4.560   4.226   0.852 -0.7873  0.2871 -3.3284
  674MPD2    H1 9975   4.394   4.458   1.175  0.2614  0.7153 -0.6430
  674MPD2    H2 9976   4.398   4.624   0.795  1.5296  0.1144 -0.0974
  674MPD2    H3 9977   4.335   4.622   1.045  1.3787 -0.1411  1.3963
  674MPD2     N 9978   4.497   4.198   1.090 -0.0558 -0.3608  0.2129
  674MPD2    H5 9979   4.520   4.119   1.031  0.1526  0.0243 -0.2199
  674MPD2    N1 9980   4.542   4.447   0.674 -0.5216 -0.2559 -0.4946
  674MPD2    H7 9981   4.543   4.544   0.644 -1.7746 -0.2451 -0.4766
  675TMC3    C1 9982   4.705   4.402   0.503 -0.0358  0.1200  0.6905
  675TMC3    C2 9983   0.079   4.315   0.471  0.1711  0.0006  0.8488
  675TMC3    C3 9984   0.165   4.356   0.373 -0.1627  0.1309 -0.4031
  675TMC3    C4 9985   4.692   4.522   0.437 -0.1560 -0.6012  0.2843
  675TMC3    C5 9986   0.057   4.553   0.341  0.1739  0.2307  0.2745
  675TMC3    C6 9987   0.154   4.471   0.294 -0.2348 -0.2855  0.4317
  675TMC3     C 9988   4.620   4.356   0.610 -0.2105  0.1747 -0.4489
  675TMC3     O 9989   4.630   4.239   0.642  0.0444 -0.2967  0.3418
  675TMC3     H 9990   0.080   4.215   0.515 -1.2786 -0.7604 -0.8369
  675TMC3    H1 9991   4.604   4.585   0.445  0.2474  0.2244 -1.6671
  675TMC3    H2 9992   0.224   4.497   0.216 -0.9642  0.2763 -0.0252
  675TMC3    C7 9993   0.049   4.684   0.273  0.1587 -0.5410 -0.1049
  675TMC3    C8 9994   0.264   4.262   0.338  0.0992  0.1151  0.4194
  675TMC3    O1 9995   0.115   4.700   0.170  0.1721  0.2072  0.7738
  675TMC3    O2 9996   0.315   4.276   0.222 -0.1387  0.0055  0.5153
  676MPD2     C 9997   3.365   3.264  11.171  1.2938  0.9695  0.0767
  676MPD2    C1 9998   3.237   3.228  11.204 -0.2539 -0.9347  0.1360
  676MPD2    C2 9999   3.170   3.141  11.123 -0.7033  0.8154  0.4541
  676MPD2    C310000   3.233   3.066  11.024  0.6054  0.1206 -0.0822
  676MPD2    C410001   3.364   3.086  11.005 -0.4395 -0.3002 -0.2281
  676MPD2    C510002   3.426   3.187  11.077 -0.0222  0.0313  0.0394
  676MPD2     H10003   3.066   3.123  11.150 -0.6238  3.4201  2.5219
  676MPD2    H110004   3.413   3.034  10.923 -0.7443 -1.4373  0.3163
  676MPD2    H210005   3.424   3.334  11.230  1.5154  0.8894 -0.0509
  676MPD2    H310006   3.533   3.203  11.068 -0.0225 -0.5412 -1.0573
  676MPD2     N10007   3.173   2.966  10.941  0.2279  0.1764 -0.4180
  676MPD2    H510008   3.232   2.912  10.878  0.4892  0.8446 -0.7436
  676MPD2    N110009   3.169   3.288  11.313  0.2012  0.8308 -0.0486
  676MPD2    H710010   3.072   3.262  11.327  0.6158 -1.3400 -1.1511
  677TMC3    C110011   3.131   3.401  11.518 -0.4311 -0.8056 -0.2436
  677TMC3    C210012   3.003   3.352  11.524 -0.8871 -0.2854  0.0477
  677TMC3    C310013   2.941   3.364  11.642 -0.6163  0.0262  0.2597
  677TMC3    C410014   3.189   3.470  11.621  0.1453 -0.7297 -0.0269
  677TMC3    C510015   3.111   3.482  11.739 -0.4415 -0.2774  0.1360
  677TMC3    C610016   2.986   3.429  11.749 -1.2931  0.1691  0.1056
  677TMC3     C10017   3.222   3.387  11.402 -0.4556  0.1646  0.1034
  677TMC3     O10018   3.333   3.441  11.401  0.6011 -0.9166  0.3681
  677TMC3     H10019   2.935   3.328  11.444 -2.8605  3.9610  0.4398
  677TMC3    H110020   3.296   3.486  11.614  0.0241 -0.5913 -1.5633
  677TMC3    H210021   2.919   3.430  11.833 -2.5435 -0.0454 -0.8825
  677TMC3    C710022   3.181   3.501  11.864 -0.0054  0.2578  0.5462
  677TMC3    C810023   2.812   3.305  11.663 -0.2853  0.5097  0.5848
  677TMC3    O110024   3.138   3.425  11.954  0.4145  0.0563  0.7441
  677TMC3    O210025   2.732   3.340  11.576 -0.6274 -0.4249  0.0027
  678MPD2     C10026   4.199   2.947   1.714  0.1313  0.1206  0.4818
  678MPD2    C110027   4.195   2.810   1.703 -0.3507  0.4743 -1.0238
  678MPD2    C210028   4.076   2.762   1.649  0.6997 -0.2295 -0.2354
  678MPD2    C310029   3.960   2.835   1.634 -0.0945  0.2148 -0.4045
  678MPD2    C410030   3.962   2.970   1.658 -0.3919 -0.8363 -0.1704
  678MPD2    C510031   4.084   3.024   1.684 -0.2342  0.5579  0.3589
  678MPD2     H10032   4.069   2.657   1.621  2.2556 -0.1876 -0.7414
  678MPD2    H110033   3.876   3.029   1.627  1.8565  1.4316 -2.1583
  678MPD2    H210034   4.282   2.990   1.770 -0.7059  2.0651  0.2157
  678MPD2    H310035   4.082   3.131   1.704 -1.7020  0.3231  1.4984
  678MPD2     N10036   3.848   2.760   1.583 -0.8027 -0.1037 -0.4079
  678MPD2    H510037   3.867   2.671   1.539  1.8845 -0.4753  1.4946
  678MPD2    N110038   4.308   2.732   1.740  0.0819  0.5106  0.4910
  678MPD2    H710039   4.389   2.784   1.774 -0.0362  1.2798 -0.4137
  679TMC3    C110040   4.606   2.381   1.777 -0.8263 -0.1911  0.2745
  679TMC3    C210041   4.480   2.433   1.801 -0.3556  1.2275  0.0599
  679TMC3    C310042   4.448   2.558   1.751 -0.4177 -0.3278  0.4151
  679TMC3    C410043   4.700   2.448   1.700 -0.3595  0.6526  0.8461
  679TMC3    C510044   4.655   2.565   1.645  1.0525  0.3164 -0.2175
  679TMC3    C610045   4.531   2.617   1.656  0.4455 -0.8281 -0.4256
  679TMC3     C10046   4.644   2.258   1.840 -0.3030  0.2618 -0.7919
  679TMC3     O10047   0.038   2.233   1.826 -0.4666 -0.2976 -0.4788
  679TMC3     H10048   4.413   2.380   1.869  0.1405  2.8690  1.8247
  679TMC3    H110049   0.081   2.427   1.706 -0.2966  0.8958  0.5769
  679TMC3    H210050   4.502   2.707   1.604 -1.4099 -1.2027 -0.0563
  679TMC3    C710051   0.028   2.638   1.568  0.4311  0.4515 -1.0237
  679TMC3    C810052   4.313   2.598   1.743 -0.7046 -0.3233  0.5930
  679TMC3    O110053   0.005   2.757   1.552  0.4541  0.5003  0.7405
  679TMC3    O210054   4.224   2.513   1.731  0.0680 -0.2753 -0.0623
  680MPD2     C10055   4.489   2.045  13.492  0.6023 -0.0090 -0.7911
  680MPD2    C110056   4.558   1.988  13.599 -0.3891 -0.7009 -0.0541
  680MPD2    C210057   4.678   2.048  13.641 -0.4600  0.0352  1.0241
  680MPD2    C310058   4.724   2.161  13.581 -0.1540 -0.2752  0.9283
  680MPD2    C410059   4.651   2.212  13.475 -0.5360 -0.0202 -0.0662
  680MPD2    C510060   4.538   2.151  13.429 -0.7954  0.1308  0.7784
  680MPD2     H10061   0.008   2.007  13.725  0.1282 -0.7028  0.2837
  680MPD2    H110062   4.678   2.308  13.431  2.2379 -1.3267 -1.2053
  680MPD2    H210063   4.396   2.005  13.452 -0.2803  0.2432  1.0263
  680MPD2    H310064   4.475   2.191  13.351  0.0678 -1.8408 -0.9298
  680MPD2     N10065   0.108   2.242  13.634  0.1337 -0.3967  0.0753
  680MPD2    H510066   0.133   2.327  13.584  1.1861  0.5416  2.1834
  680MPD2    N110067   4.526   1.875  13.674  0.2800  0.4609 -0.5408
  680MPD2    H710068   4.593   1.842  13.742 -0.4635  0.2868  0.0991
  681TMC3    C110069   4.441   1.663  13.707  0.2616  0.3829 -0.2309
  681TMC3    C210070   4.398   1.659  13.837 -0.0071  0.8510  0.8623
  681TMC3    C310071   4.472   1.599  13.937 -0.5035  0.4635  0.9059
  681TMC3    C410072   4.570   1.622  13.695 -0.2552 -0.5462  0.5046
  681TMC3    C510073   4.608   1.515  13.766 -0.7414 -1.3202  0.2092
  681TMC3    C610074   4.569   1.507  13.899  0.2410 -0.4356  0.3869
  681TMC3     C10075   4.420   1.790  13.645 -0.5694  0.1108 -0.9623
  681TMC3     O10076   4.308   1.812  13.601  0.5357 -0.7688 -0.3750
  681TMC3     H10077   4.313   1.721  13.863 -2.3472 -1.2993 -1.6236
  681TMC3    H110078   4.628   1.656  13.610 -0.9317 -0.1809  0.1863
  681TMC3    H210079   4.594   1.421  13.960  0.3187 -0.4707  0.3066
  681TMC3    C710080   0.004   1.438  13.720 -0.0790  0.0352 -0.0502
  681TMC3    C810081   4.431   1.624  14.073  0.2800 -0.3607  0.3113
  681TMC3    O110082   0.083   1.396  13.803  0.8467  0.3602 -0.8925
  681TMC3    O210083   4.309   1.642  14.089 -0.4854 -0.1116  0.2203
  682MPD2     C10084   2.535   3.634  10.954 -0.2078 -0.3970 -0.2793
  682MPD2    C110085   2.488   3.520  10.899  0.2929 -0.0042  0.9201
  682MPD2    C210086   2.413   3.425  10.968  0.2188  0.3045  0.3463
  682MPD2    C310087   2.380   3.458  11.096  0.4957  0.3243 -0.3673
  682MPD2    C410088   2.419   3.577  11.153  0.4697 -0.7611 -0.0199
  682MPD2    C510089   2.497   3.669  11.083 -0.7005  0.8676 -0.3685
  682MPD2     H10090   2.375   3.338  10.916 -0.1070 -0.0360  1.1546
  682MPD2    H110091   2.395   3.596  11.257 -0.7346  0.0248 -0.4385
  682MPD2    H210092   2.590   3.708  10.897  1.4041  0.0531  1.8582
  682MPD2    H310093   2.525   3.762  11.131  0.6369  0.3285 -0.0965
  682MPD2     N10094   2.294   3.387  11.178 -0.3510  1.2638  0.5354
  682MPD2    H510095   2.275   3.425  11.270 -1.5830  0.9757  0.4027
  682MPD2    N110096   2.490   3.495  10.754  0.0637  0.2279  0.7431
  682MPD2    H710097   2.448   3.408  10.724  3.0033 -0.3720 -1.6949
  683TMC3    C110098   2.167   3.170  11.502 -0.7960  0.7129  0.2963
  683TMC3    C210099   2.090   3.058  11.487  0.6401 -0.5556  0.4761
  683TMC3    C310100   2.058   3.010  11.365 -0.5025 -0.6338  0.2462
  683TMC3    C410101   2.208   3.242  11.393  0.2907 -0.0837 -0.7963
  683TMC3    C510102   2.169   3.202  11.271 -0.1335 -0.1077  0.4459
  683TMC3    C610103   2.101   3.086  11.259 -0.1266  0.1760 -0.3741
  683TMC3     C10104   2.200   3.218  11.628  0.3315  0.1841 -0.1865
  683TMC3     O10105   2.244   3.335  11.630  0.7160  0.4173 -0.1848
  683TMC3     H10106   2.084   2.990  11.570 -0.8576 -1.6001 -0.4904
  683TMC3    H110107   2.284   3.318  11.408  0.4117 -0.6034  1.2631
  683TMC3    H210108   2.083   3.060  11.155 -0.0512  0.8352 -0.5566
  683TMC3    C710109   2.227   3.269  11.155  0.4423 -0.2835 -0.2159
  683TMC3    C810110   2.033   2.868  11.340  0.3426  0.3519 -0.1508
  683TMC3    O110111   2.235   3.200  11.054 -0.2681  0.1332  0.5588
  683TMC3    O210112   2.049   2.828  11.223 -0.5441  0.5671  0.4790
  684MPD2     C10113   0.034   2.624  16.459  0.0071  0.1146  0.4996
  684MPD2    C110114   0.110   2.589  16.351 -0.2514  0.0315  0.1703
  684MPD2    C210115   0.192   2.683  16.298 -0.2443  0.3975 -0.6082
  684MPD2    C310116   0.197   2.809  16.349  0.5086  0.1182  0.3875
  684MPD2    C410117   0.125   2.841  16.458  0.1205 -0.1492 -0.5131
  684MPD2    C510118   0.046   2.748  16.518 -0.2142 -0.4300 -0.1652
  684MPD2     H10119   0.260   2.660  16.217 -0.9282 -2.2121 -0.4214
  684MPD2    H110120   0.114   2.941  16.498 -1.3017  0.5085 -2.6040
  684MPD2    H210121   4.697   2.552  16.511 -0.1058  0.7373  1.2327
  684MPD2    H310122   4.713   2.774  16.605  0.5631 -2.5661  0.9856
  684MPD2     N10123   0.302   2.901  16.312 -0.0970  0.1973 -0.2236
  684MPD2    H510124   0.318   2.978  16.376 -2.3972  0.3658  0.1281
  684MPD2    N110125   0.127   2.463  16.295 -0.4887 -0.0662 -0.6827
  684MPD2    H710126   0.205   2.458  16.231  0.4491 -0.1972  0.4586
  685TMC3    C110127   0.141   2.231  16.279 -0.6998  0.3264 -0.7693
  685TMC3    C210128   0.087   2.164  16.176 -0.2213 -0.2587 -0.0527
  685TMC3    C310129   0.154   2.049  16.134  0.9782  0.4346 -0.9638
  685TMC3    C410130   0.253   2.190  16.349 -0.1411  0.3127 -0.2147
  685TMC3    C510131   0.312   2.073  16.311  0.1198  0.4358 -0.9762
  685TMC3    C610132   0.259   1.998  16.208 -0.7989 -0.6273 -0.2484
  685TMC3     C10133   0.070   2.345  16.335  0.2303  0.2022 -0.2253
  685TMC3     O10134   4.711   2.320  16.425 -0.0651 -0.3654  0.4024
  685TMC3     H10135   4.720   2.202  16.133  0.2397 -1.2917 -1.9603
  685TMC3    H110136   0.279   2.249  16.436 -0.2854 -1.3361  0.9475
  685TMC3    H210137   0.321   1.919  16.167 -1.8630 -1.2849 -0.5914
  685TMC3    C710138   0.373   2.002  16.415 -0.1931 -0.0657  0.8373
  685TMC3    C810139   0.117   1.983  16.011 -0.2852 -0.1862  0.4529
  685TMC3    O110140   0.398   2.082  16.506 -0.1454 -0.3291 -0.0412
  685TMC3    O210141   0.166   1.872  15.988  0.1804  0.6173  0.2738
  686MPD2     C10142   1.345   2.502  15.667  0.2442  0.0173  0.0401
  686MPD2    C110143   1.413   2.421  15.761  0.3054 -0.2591 -0.4900
  686MPD2    C210144   1.542   2.380  15.727 -0.1431  0.1011 -0.2865
  686MPD2    C310145   1.581   2.393  15.596 -0.1697 -0.2359 -0.4009
  686MPD2    C410146   1.508   2.473  15.513 -0.1184 -0.0328 -0.0862
  686MPD2    C510147   1.391   2.534  15.550  0.9672 -0.2134  0.1983
  686MPD2     H10148   1.611   2.338  15.799 -0.6503 -0.6825 -0.2538
  686MPD2    H110149   1.547   2.489  15.413 -2.0973  0.6542 -0.7478
  686MPD2    H210150   1.247   2.543  15.689  0.0734 -1.4117  1.9379
  686MPD2    H310151   1.333   2.598  15.485 -0.8239 -0.0285  1.9799
  686MPD2     N10152   1.706   2.347  15.536  0.6817 -0.6741 -0.4531
  686MPD2    H510153   1.739   2.395  15.453  3.4774  0.9880  1.5993
  686MPD2    N110154   1.344   2.400  15.884  0.0640  0.0828  0.0868
  686MPD2    H710155   1.249   2.434  15.897  0.0953  0.3147 -0.2996
  687TMC3    C110156   1.760   2.164  15.695 -0.2012 -0.0986 -0.4802
  687TMC3    C210157   1.644   2.095  15.690  0.4430 -0.3800  0.5053
  687TMC3    C310158   1.605   2.018  15.801  0.3774 -0.5512  0.3999
  687TMC3    C410159   1.855   2.134  15.786  0.1262  0.0608 -0.7912
  687TMC3    C510160   1.813   2.057  15.893 -0.3673  0.3006  0.4706
  687TMC3    C610161   1.691   2.006  15.912 -0.1017 -0.4819  0.0906
  687TMC3     C10162   1.793   2.253  15.586 -0.4539 -0.0406 -0.3280
  687TMC3     O10163   1.910   2.239  15.555  0.3584  0.6185 -0.2804
  687TMC3     H10164   1.582   2.109  15.602 -0.1244 -0.4329  0.9010
  687TMC3    H110165   1.950   2.185  15.782  0.1847  0.4829  6.0137
  687TMC3    H210166   1.666   1.957  16.005 -0.1380  1.3868  1.0834
  687TMC3    C710167   1.884   2.074  16.016  0.7157  0.7108  0.0613
  687TMC3    C810168   1.469   1.995  15.834 -0.9532 -0.4050 -0.2800
  687TMC3    O110169   1.829   2.120  16.113  0.3767  0.0097 -0.0344
  687TMC3    O210170   1.443   1.940  15.942 -0.1381 -0.3046 -0.2247
  688MPD2     C10171   0.757   1.109   0.031 -0.1782 -0.7839  0.2129
  688MPD2    C110172   0.800   0.988   0.081  0.2673  0.3326  0.1925
  688MPD2    C210173   0.897   0.916   0.017  0.1259  0.2555 -0.3616
  688MPD2    C310174   0.957   0.959  17.602  0.3641  0.0133  0.0450
  688MPD2    C410175   0.911   1.086  17.556  0.0008  0.1081 -0.2696
  688MPD2    C510176   0.813   1.154  17.620  0.0138 -0.3268 -0.3726
  688MPD2     H10177   0.921   0.815   0.048 -0.1979 -0.0734 -1.1869
  688MPD2    H110178   0.954   1.129  17.466  1.1377  0.6784  0.5562
  688MPD2    H210179   0.660   1.146   0.064  0.5506 -0.4986  1.9851
  688MPD2    H310180   0.776   1.250  17.586 -3.0955 -0.3769  2.8412
  688MPD2     N10181   1.056   0.888  17.528  0.5104 -0.6011 -0.1639
  688MPD2    H510182   1.090   0.923  17.439  1.2573 -0.2597  0.2555
  688MPD2    N110183   0.738   0.932   0.194  0.2219  0.2527  0.3106
  688MPD2    H710184   0.740   0.832   0.215 -1.5606  0.6387  2.3608
  689TMC3    C110185   0.663   0.941   0.414 -0.4419 -0.3547 -0.7311
  689TMC3    C210186   0.663   1.020   0.525  0.0953 -0.0744  0.1736
  689TMC3    C310187   0.647   0.968   0.648  0.6234 -0.0585  0.5221
  689TMC3    C410188   0.643   0.806   0.419  0.3085  0.0815  0.3151
  689TMC3    C510189   0.634   0.755   0.545  0.4098  0.1149 -0.2433
  689TMC3    C610190   0.636   0.830   0.658 -0.2082  0.5793 -0.8423
  689TMC3     C10191   0.687   1.010   0.289  0.4838  0.9505  1.2771
  689TMC3     O10192   0.687   1.131   0.296  0.1456 -0.4746 -0.2636
  689TMC3     H10193   0.680   1.127   0.521 -0.4975 -0.0306 -1.1682
  689TMC3    H110194   0.642   0.739   0.334  0.6333 -0.8338  1.0365
  689TMC3    H210195   0.597   0.780   0.745  2.4100 -2.0741 -1.2131
  689TMC3    C710196   0.645   0.616   0.563  1.2107 -0.4618  0.4449
  689TMC3    C810197   0.600   1.046   0.758  0.3519 -0.8897 -0.1095
  689TMC3    O110198   0.646   0.566   0.675  0.3942  0.3838 -0.0559
  689TMC3    O210199   0.585   0.983   0.865  0.2286  0.2054 -0.2825
  690MPD2     C10200   3.010   2.843  15.907  0.5410 -0.2218 -0.5248
  690MPD2    C110201   2.979   2.846  15.777 -0.0030  0.2911  0.3880
  690MPD2    C210202   3.063   2.908  15.688 -0.0909 -0.3852 -0.1696
  690MPD2    C310203   3.186   2.953  15.723  0.4115 -0.3941  0.2870
  690MPD2    C410204   3.217   2.953  15.858  0.6275 -0.3257  0.0906
  690MPD2    C510205   3.129   2.898  15.950  0.3721 -0.5492 -0.2161
  690MPD2     H10206   3.034   2.892  15.585 -0.6951 -0.5389  0.0218
  690MPD2    H110207   3.309   2.981  15.907  0.3845 -0.1089  0.4277
  690MPD2    H210208   2.961   2.782  15.981 -0.1618  0.5538 -0.3568
  690MPD2    H310209   3.154   2.907  16.055  2.2405  2.1240 -0.9077
  690MPD2     N10210   3.282   2.987  15.618 -0.3072  0.2014 -0.0296
  690MPD2    H510211   3.265   2.968  15.520 -1.1594 -0.7658  0.3059
  690MPD2    N110212   2.865   2.778  15.729 -0.1792 -1.2981  0.2742
  690MPD2    H710213   2.855   2.769  15.628  0.0732 -3.0623  0.4030
  691TMC3    C110214   2.661   2.658  15.749 -0.3530  0.2781  0.4236
  691TMC3    C210215   2.533   2.674  15.789  0.0498  0.2007  0.3006
  691TMC3    C310216   2.442   2.582  15.735  0.5198 -0.0005 -0.2455
  691TMC3    C410217   2.711   2.544  15.683  0.0382  0.2920  0.3092
  691TMC3    C510218   2.618   2.465  15.625  0.8461  0.0534  0.8278
  691TMC3    C610219   2.479   2.482  15.647 -0.0244  0.3826 -0.4800
  691TMC3     C10220   2.759   2.747  15.809  0.2379 -0.2337  0.7745
  691TMC3     O10221   2.725   2.780  15.923 -0.9363  0.2547 -0.2933
  691TMC3     H10222   2.514   2.753  15.860  1.1671 -0.8377  1.7711
  691TMC3    H110223   2.817   2.544  15.665 -0.0812  0.8507 -0.3683
  691TMC3    H210224   2.407   2.412  15.605 -2.2991  2.4401 -0.0098
  691TMC3    C710225   2.666   2.340  15.569  0.1404  0.0894 -0.5645
  691TMC3    C810226   2.304   2.581  15.780 -0.3629  0.7576  0.0852
  691TMC3    O110227   2.784   2.314  15.584 -0.4667  0.0520 -0.3794
  691TMC3    O210228   2.225   2.493  15.741 -0.7931  0.0046  0.0872
  692TMC3    C110229   0.077   3.920  16.019  0.0681 -0.4130  0.0400
  692TMC3    C210230   0.169   3.926  16.122  0.3152  0.9038  0.7278
  692TMC3    C310231   0.299   3.892  16.095  0.3793 -0.3688  0.3860
  692TMC3    C410232   0.092   3.859  15.903  0.2880  0.3824 -0.2643
  692TMC3    C510233   0.218   3.813  15.884  1.1874  0.6109  0.2472
  692TMC3    C610234   0.322   3.820  15.977 -0.1429 -0.0851  0.6600
  692TMC3     C10235   4.668   3.970  16.057 -0.0968 -0.6965  0.5141
  692TMC3     O10236   4.648   3.982  16.178 -1.0397 -0.4547 -0.5016
  692TMC3     H10237   0.149   4.005  16.193 -1.9577  1.1651 -0.1834
  692TMC3    H110238   0.013   3.844  15.831 -1.8183 -1.2745  2.3670
  692TMC3    H210239   0.426   3.826  15.946 -0.4413  0.4290 -0.2589
  692TMC3    C710240   0.232   3.721  15.773  0.2255  0.2059  0.1909
  692TMC3    C810241   0.357   3.808  16.204 -0.2475 -0.3089  0.2631
  692TMC3    O110242   0.139   3.712  15.696  0.2492  0.6800  0.1394
  692TMC3    O210243   0.423   3.705  16.178  0.0662  0.1742  0.1044
  693MPD2     C10244   4.163   2.156  10.395 -0.3298  0.2842  0.2924
  693MPD2    C110245   4.163   2.200  10.527 -0.3995  0.0865  0.5874
  693MPD2    C210246   4.276   2.192  10.596  0.3908 -0.4218  0.4376
  693MPD2    C310247   4.400   2.157  10.540  0.5659 -0.4333 -0.0163
  693MPD2    C410248   4.406   2.142  10.401  0.5925  0.3628  0.3798
  693MPD2    C510249   4.283   2.141  10.334 -0.2145  0.8214  0.2772
  693MPD2     H10250   4.278   2.205  10.703  1.7267 -0.6154  0.4399
  693MPD2    H110251   4.501   2.138  10.350  0.7571 -1.9210  0.8398
  693MPD2    H210252   4.068   2.159  10.343  0.7634 -0.7541 -1.7735
  693MPD2    H310253   4.295   2.135  10.226 -1.5441  2.5101  0.0177
  693MPD2     N10254   4.509   2.142  10.631 -0.3262  0.2638  0.4039
  693MPD2    H510255   4.500   2.143  10.732 -1.2619 -1.3701  0.3300
  693MPD2    N110256   4.031   2.219  10.582  0.6464 -0.6145 -0.0843
  693MPD2    H710257   3.956   2.203  10.515  0.7914 -1.5687 -0.0148
  694TMC3    C110258   3.862   2.199  10.757  0.2369  0.6024 -0.7504
  694TMC3    C210259   3.815   2.076  10.718  0.1881  0.0438  0.0052
  694TMC3    C310260   3.738   2.002  10.807  0.0125  0.5280  0.0565
  694TMC3    C410261   3.830   2.248  10.877 -0.0607 -0.1737 -0.5055
  694TMC3    C510262   3.756   2.179  10.964 -0.0038 -0.0147  0.0195
  694TMC3    C610263   3.693   2.057  10.928  0.1053  0.1564 -0.4833
  694TMC3     C10264   4.005   2.233  10.711 -0.4417  0.0422  0.1031
  694TMC3     O10265   4.082   2.270  10.799 -0.7678 -0.2754  0.0567
  694TMC3     H10266   3.871   2.024  10.641 -0.3880 -1.8533  0.8723
  694TMC3    H110267   3.880   2.337  10.916  0.0897 -0.1480 -0.7573
  694TMC3    H210268   3.644   1.995  11.003  1.3503  1.6826  1.5887
  694TMC3    C710269   3.786   2.206  11.102  0.1820 -0.5914  0.4311
  694TMC3    C810270   3.701   1.869  10.773  0.2722 -0.4058  0.2850
  694TMC3    O110271   3.859   2.305  11.119 -0.6346 -0.1163 -0.1477
  694TMC3    O210272   3.681   1.795  10.870 -0.1587  0.6553  0.1473
  695MPD2     C10273   0.657   4.315  13.765 -0.5186  0.0295 -0.0134
  695MPD2    C110274   0.596   4.289  13.888 -1.4436 -0.3091  0.1705
  695MPD2    C210275   0.463   4.304  13.908 -0.6512  0.5470 -0.2391
  695MPD2    C310276   0.385   4.363  13.807  0.2409  0.1691  0.4650
  695MPD2    C410277   0.441   4.396  13.689 -0.4105  0.1483 -0.1241
  695MPD2    C510278   0.576   4.362  13.666 -0.3705  0.1012 -0.3884
  695MPD2     H10279   0.429   4.292  14.010 -2.7535  0.5645 -0.9363
  695MPD2    H110280   0.384   4.429  13.602 -1.7234 -0.9487  0.3176
  695MPD2    H210281   0.762   4.296  13.747 -0.3153  1.3054 -0.1086
  695MPD2    H310282   0.623   4.378  13.569  2.1676  0.7541  0.9630
  695MPD2     N10283   0.246   4.364  13.829  0.5525  0.3566  0.2495
  695MPD2    H510284   0.210   4.307  13.905 -0.6527  2.1178  0.9969
  695MPD2    N110285   0.671   4.242  13.996 -0.3654 -0.0128 -0.4919
  695MPD2    H710286   0.618   4.211  14.077 -1.8665 -0.2702 -1.5697
  696TMC3    C110287   0.014   4.376  13.790  0.0531  0.2038  0.4111
  696TMC3    C210288   4.716   4.245  13.815 -0.2337 -0.4926 -0.1617
  696TMC3    C310289   4.587   4.213  13.844  0.3406 -0.5661 -0.4237
  696TMC3    C410290   4.645   4.474  13.779 -0.3282  0.6481  0.2113
  696TMC3    C510291   4.515   4.436  13.801 -0.2740  0.1109 -0.4354
  696TMC3    C610292   4.487   4.302  13.822  0.8247  0.0185  0.0123
  696TMC3     C10293   0.150   4.412  13.746  0.0673 -0.6298 -0.7971
  696TMC3     O10294   0.162   4.500  13.665 -0.1786  0.1116 -0.6906
  696TMC3     H10295   0.076   4.181  13.834  1.3268  0.5760 -3.5414
  696TMC3    H110296   4.670   4.579  13.775 -1.6958  1.0416  2.0099
  696TMC3    H210297   4.384   4.278  13.846  1.5383 -1.0577  1.9607
  696TMC3    C710298   4.421   4.527  13.876  0.1429 -0.3627  0.1381
  696TMC3    C810299   4.580   4.171  13.990  0.0749 -0.5112 -0.4572
  696TMC3    O110300   4.303   4.520  13.846 -0.3086  0.2626 -0.8111
  696TMC3    O210301   4.506   4.235  14.066 -0.5639  0.1071  0.6794
  697MPD2     C10302   3.937   0.987  15.530 -0.9073  0.4012  0.7405
  697MPD2    C110303   4.043   0.936  15.451  0.3121 -0.1195  0.1547
  697MPD2    C210304   4.111   1.016  15.358  0.1626 -0.1959  0.0884
  697MPD2    C310305   4.065   1.144  15.334 -0.7286 -0.4064  0.4811
  697MPD2    C410306   3.960   1.194  15.406  0.0375 -0.8832  0.2076
  697MPD2    C510307   3.898   1.115  15.508  0.0679 -0.2326  0.1437
  697MPD2     H10308   4.193   0.971  15.304 -2.6024 -1.3049 -3.2049
  697MPD2    H110309   3.928   1.297  15.401 -1.0672 -1.1396  1.6826
  697MPD2    H210310   3.896   0.931  15.614  0.5733 -0.9082  0.5920
  697MPD2    H310311   3.824   1.164  15.570 -1.4347 -2.1247 -0.1616
  697MPD2     N10312   4.121   1.232  15.228  0.0052 -0.3049 -0.8271
  697MPD2    H510313   4.207   1.191  15.192  0.5982 -0.7433  1.0606
  697MPD2    N110314   4.080   0.799  15.471 -0.5417 -0.3964  0.0639
  697MPD2    H710315   4.146   0.766  15.402 -0.2623 -0.8709  0.5625
  698TMC3    C110316   4.203   1.425  15.127  0.6636  0.5639  0.5361
  698TMC3    C210317   4.279   1.524  15.166 -0.5629 -0.2479  0.2991
  698TMC3    C310318   4.390   1.564  15.088  0.0545 -0.0101 -0.0137
  698TMC3    C410319   4.227   1.359  15.009 -0.0743 -0.1453 -0.0325
  698TMC3    C510320   4.323   1.404  14.928  0.1834  0.4804  0.3922
  698TMC3    C610321   4.417   1.508  14.958  0.3781 -0.0923 -0.4270
  698TMC3     C10322   4.103   1.368  15.214  0.0509  0.8167  0.2582
  698TMC3     O10323   4.040   1.454  15.267  0.7075 -0.1117  0.4537
  698TMC3     H10324   4.276   1.552  15.271  1.5430  2.0682 -0.2540
  698TMC3    H110325   4.168   1.275  14.975 -0.4021  0.1482 -0.1908
  698TMC3    H210326   4.506   1.526  14.900 -0.2879  1.1556 -1.0646
  698TMC3    C710327   4.320   1.347  14.791  0.9852  0.0445  0.2473
  698TMC3    C810328   4.475   1.656  15.149  0.1649 -0.5563  0.5488
  698TMC3    O110329   4.210   1.319  14.753 -0.0155 -0.1962  0.0480
  698TMC3    O210330   4.465   1.677  15.270  0.6002 -0.4131  0.5210
  699TMC3    C110331   4.520   4.394  13.139 -0.3205 -0.4560  0.2142
  699TMC3    C210332   4.545   4.274  13.205 -0.1934  0.2240  0.1422
  699TMC3    C310333   4.437   4.219  13.268 -0.0396  0.4025  0.4637
  699TMC3    C410334   4.395   4.446  13.121 -0.4428 -0.0140 -0.3655
  699TMC3    C510335   4.292   4.388  13.197 -0.4463 -0.0638 -0.2907
  699TMC3    C610336   4.316   4.277  13.273 -1.0139  0.0739 -1.1992
  699TMC3     C10337   4.625   4.448  13.057 -0.5605 -0.1490  0.7323
  699TMC3     O10338   4.609   4.562  13.025 -0.1545  0.2602 -0.8187
  699TMC3     H10339   4.644   4.238  13.230 -0.2507  0.8990  1.3351
  699TMC3    H110340   4.368   4.531  13.059 -2.4311 -0.0189  0.5011
  699TMC3    H210341   4.229   4.236  13.323 -0.9111  1.0873 -0.1828
  699TMC3    C710342   4.155   4.440  13.181 -0.0239 -0.2705  0.1400
  699TMC3    C810343   4.429   4.096  13.344 -0.4430 -0.3410  0.3217
  699TMC3    O110344   4.125   4.489  13.069 -0.0097 -0.0589  0.4450
  699TMC3    O210345   4.342   4.078  13.426 -0.3798 -0.0936  0.6732
  700TMC3    C110346   3.484   1.085  17.311 -0.3344  0.3372 -0.1735
  700TMC3    C210347   3.442   0.961  17.351  0.3456  0.4555 -0.2304
  700TMC3    C310348   3.423   0.940  17.484 -0.3656 -0.2324  0.0515
  700TMC3    C410349   3.509   1.183  17.404  0.5060  0.0288  0.2492
  700TMC3    C510350   3.481   1.160  17.530 -0.1488  0.6701  0.4586
  700TMC3    C610351   3.434   1.042  17.574 -0.3383 -0.8366 -0.4353
  700TMC3     C10352   3.442   1.130  17.176 -0.0881  1.3056  0.1438
  700TMC3     O10353   3.343   1.074  17.124 -0.4373 -0.1941  0.0303
  700TMC3     H10354   3.424   0.886  17.275  2.4726 -1.4094  1.1364
  700TMC3    H110355   3.521   1.289  17.385  0.1163 -0.0083 -0.2130
  700TMC3    H210356   3.409   1.015  17.676  0.3593 -0.3347 -0.1372
  700TMC3    C710357   3.478   1.273  17.616  1.0528  0.2445 -0.1119
  700TMC3    C810358   3.481   0.815  17.531  0.7740 -0.5749  0.7973
  700TMC3    O110359   3.573   1.353  17.602 -0.4607  0.0193 -0.5090
  700TMC3    O210360   3.431   0.766  17.632 -0.0684  0.0242  0.0899
  701TMC3    C110361   3.594   0.022  15.882 -0.4379 -1.0157 -0.3515
  701TMC3    C210362   3.572   4.652  15.785  0.4251  0.1303  0.2698
  701TMC3    C310363   3.572   4.696  15.655 -0.9682  0.2116  0.0792
  701TMC3    C410364   3.611   0.157  15.850  0.0591  0.7594 -0.2288
  701TMC3    C510365   3.613   0.192  15.719 -0.3282 -0.1522  0.2719
  701TMC3    C610366   3.596   0.095  15.619  0.5308 -0.0518 -0.4677
  701TMC3     C10367   3.552   4.703  16.012 -0.1974  0.4805 -0.0376
  701TMC3     O10368   3.560   4.585  16.036  0.6513  0.4252  0.3102
  701TMC3     H10369   3.543   4.554  15.821  0.0017  0.8004  1.7622
  701TMC3    H110370   3.630   0.232  15.926  1.7725  1.8458 -1.7091
  701TMC3    H210371   3.605   0.115  15.513 -1.0533 -2.4153 -1.0429
  701TMC3    C710372   3.603   0.336  15.680 -0.0733 -0.9070 -0.4464
  701TMC3    C810373   3.560   4.590  15.557 -0.6540 -0.1606 -0.4523
  701TMC3    O110374   3.566   0.359  15.566  0.1980 -0.0855 -0.2888
  701TMC3    O210375   3.587   4.478  15.597  0.0517  0.1313 -0.0265
  702MPD2     C10376   3.249   2.767  10.268  0.0006  0.1401 -0.3349
  702MPD2    C110377   3.224   2.867  10.357  0.0367  0.3425 -0.6543
  702MPD2    C210378   3.293   2.984  10.353 -0.1441  0.0385 -0.3333
  702MPD2    C310379   3.391   3.007  10.267  0.4896 -0.1279  0.6881
  702MPD2    C410380   3.424   2.910  10.169  0.0182  0.2046  0.1130
  702MPD2    C510381   3.350   2.792  10.170 -0.4733  0.3796 -0.4228
  702MPD2     H10382   3.254   3.058  10.421 -0.8540 -1.6689  1.1198
  702MPD2    H110383   3.492   2.937  10.089  1.4220 -1.9683  0.5758
  702MPD2    H210384   3.189   2.677  10.261  0.6544  0.0587 -4.9788
  702MPD2    H310385   3.371   2.708  10.104  1.4006  0.9930 -0.5919
  702MPD2     N10386   3.469   3.125  10.266  0.7907 -0.8195 -0.4007
  702MPD2    H510387   3.558   3.127  10.217  1.9427  0.9386  1.7523
  702MPD2    N110388   3.128   2.852  10.456  0.5028 -0.4895 -0.6587
  702MPD2    H710389   3.118   2.927  10.524  1.7966  0.7814 -1.8677
  703TMC3    C110390   3.535   3.320  10.377 -1.3499 -0.0210  0.1017
  703TMC3    C210391   3.498   3.411  10.469 -0.2623 -0.5045  0.5718
  703TMC3    C310392   3.590   3.501  10.515 -0.5830 -0.5064 -0.2754
  703TMC3    C410393   3.662   3.316  10.321  0.0908  1.5333  0.7295
  703TMC3    C510394   3.755   3.405  10.369 -0.0781 -0.5579 -0.4475
  703TMC3    C610395   3.718   3.501  10.461 -0.0539  0.1846 -0.0044
  703TMC3     C10396   3.428   3.240  10.333  0.0321  0.0005  0.4537
  703TMC3     O10397   3.313   3.270  10.361  0.2378  0.2275 -0.4046
  703TMC3     H10398   3.404   3.400  10.521  0.0169  1.5197  1.4848
  703TMC3    H110399   3.688   3.258  10.234 -1.2512  2.1051 -0.0470
  703TMC3    H210400   3.786   3.577  10.496 -1.1960  1.7916 -1.2865
  703TMC3    C710401   3.884   3.401  10.316  0.0940  0.4584 -0.4948
  703TMC3    C810402   3.584   3.555  10.650  0.0410 -0.7934  0.6036
  703TMC3    O110403   3.951   3.503  10.321 -0.1057 -0.0137  0.5131
  703TMC3    O210404   3.688   3.579  10.709 -0.0773  0.2662  0.2262
  704TMC3    C110405   0.740   1.070  12.838  0.3040  0.3296  0.1377
  704TMC3    C210406   0.854   1.099  12.771 -0.1091  0.7183 -0.3691
  704TMC3    C310407   0.973   1.110  12.842  0.1336  0.2136  0.0292
  704TMC3    C410408   0.740   1.057  12.969  0.0664 -0.6657  0.2319
  704TMC3    C510409   0.860   1.038  13.031 -0.5283  0.8495  0.6817
  704TMC3    C610410   0.977   1.087  12.979 -0.2680 -0.2806  0.5620
  704TMC3     C10411   0.655   0.972  12.772 -0.4555 -0.7264 -0.5765
  704TMC3     O10412   0.554   0.934  12.831  0.1170  0.3286 -0.3128
  704TMC3     H10413   0.846   1.125  12.666 -1.7737  0.6121 -0.2672
  704TMC3    H110414   0.644   1.040  13.017  1.0629 -1.4359  1.9458
  704TMC3    H210415   1.064   1.080  13.044 -0.5457 -0.0725  0.9592
  704TMC3    C710416   0.881   0.899  13.070  0.5601 -0.0775  0.1054
  704TMC3    C810417   1.095   1.092  12.761 -0.1947  0.1440  0.8795
  704TMC3    O110418   0.985   0.841  13.050  0.0666 -0.0563 -0.2208
  704TMC3    O210419   1.080   1.085  12.640  0.2243  0.8594 -0.0892
  705MPD2     C10420   0.548   3.590  17.103  0.2877 -0.1232  0.5989
  705MPD2    C110421   0.483   3.677  17.018  0.1519 -0.3547  1.0424
  705MPD2    C210422   0.357   3.727  17.057  0.3211 -0.1187  0.1291
  705MPD2    C310423   0.296   3.678  17.171  0.7692  0.7216  0.0846
  705MPD2    C410424   0.363   3.592  17.253 -0.2053  0.3254  1.0553
  705MPD2    C510425   0.497   3.561  17.229  0.2070  0.7508  0.6450
  705MPD2     H10426   0.300   3.797  16.997  0.6132 -0.6601 -0.7731
  705MPD2    H110427   0.313   3.553  17.341 -3.3222 -1.4497 -1.4999
  705MPD2    H210428   0.646   3.548  17.085  0.5392  0.4069  0.7127
  705MPD2    H310429   0.546   3.494  17.300 -1.0994 -1.1492 -0.2544
  705MPD2     N10430   0.166   3.703  17.219  0.2138 -0.5927 -0.0052
  705MPD2    H510431   0.145   3.689  17.318  2.7218 -0.3787  0.5457
  705MPD2    N110432   0.532   3.720  16.896 -0.2286 -0.1908 -0.0103
  705MPD2    H710433   0.483   3.798  16.854  1.1577  0.4848 -0.3745
  706TMC3    C110434   0.719   3.632  16.477 -0.1801  0.2594 -0.0233
  706TMC3    C210435   0.705   3.760  16.433  0.5160  0.1353  0.5908
  706TMC3    C310436   0.661   3.853  16.523 -0.5943  0.1541  0.1093
  706TMC3    C410437   0.702   3.598  16.604  0.4839  0.2894  0.3419
  706TMC3    C510438   0.671   3.698  16.696 -0.0525  0.0141 -0.3089
  706TMC3    C610439   0.657   3.825  16.658 -0.2105  0.3993  0.1264
  706TMC3     C10440   0.807   3.536  16.404  0.2358 -0.0703  0.3050
  706TMC3     O10441   0.843   3.437  16.468  0.3184  0.6402  0.3766
  706TMC3     H10442   0.701   3.790  16.329  0.2972  0.6361  0.7445
  706TMC3    H110443   0.735   3.502  16.642  0.1085 -0.1636 -0.4932
  706TMC3    H210444   0.630   3.902  16.729  0.9261 -0.9237  2.0012
  706TMC3    C710445   0.641   3.653  16.830  0.6889 -1.0630  0.1829
  706TMC3    C810446   0.615   3.982  16.473 -0.2211  0.4535 -0.2879
  706TMC3    O110447   0.700   3.550  16.868  0.4646 -0.4176 -0.6176
  706TMC3    O210448   0.616   3.997  16.352 -0.4881  0.2511  0.0847
  707TMC3    C110449   1.887   2.451   1.366 -0.4112 -0.4977  0.0717
  707TMC3    C210450   1.918   2.439   1.497  0.5762  0.1666 -0.4279
  707TMC3    C310451   1.838   2.355   1.572 -0.2705 -0.1673  0.1557
  707TMC3    C410452   1.780   2.386   1.313  0.9840  0.3628  1.0165
  707TMC3    C510453   1.696   2.314   1.399  0.2529  0.3184 -1.3476
  707TMC3    C610454   1.726   2.294   1.525 -0.1205 -0.1965  0.0732
  707TMC3     C10455   2.004   2.461   1.282  0.3782  0.1098 -0.0286
  707TMC3     O10456   2.006   2.386   1.185 -0.0140  0.2338  0.0817
  707TMC3     H10457   2.008   2.485   1.536  0.1040  0.8974 -0.2001
  707TMC3    H110458   1.768   2.376   1.205  2.9967  0.2976  0.8074
  707TMC3    H210459   1.658   2.233   1.583  0.0754  1.6011  2.2018
  707TMC3    C710460   1.548   2.331   1.372 -0.2486  0.0198 -0.2089
  707TMC3    C810461   1.904   2.277   1.674 -0.1765 -0.0342  1.0881
  707TMC3    O110462   1.516   2.427   1.301  0.2009 -0.2087 -0.1233
  707TMC3    O210463   1.989   2.337   1.743 -0.1385  0.1563 -0.0755
  708MPD2     C10464   3.670   2.694  13.908  0.1547  0.4298  0.5783
  708MPD2    C110465   3.555   2.621  13.889  0.3965 -0.1245  0.6409
  708MPD2    C210466   3.538   2.487  13.939  0.8115 -0.0888 -0.2402
  708MPD2    C310467   3.634   2.442  14.025  0.6068  0.6925 -0.1784
  708MPD2    C410468   3.743   2.521  14.053  0.3360  0.0684 -0.7051
  708MPD2    C510469   3.759   2.645  13.999  0.3125  0.0069 -0.9592
  708MPD2     H10470   3.450   2.428  13.913 -0.0471  0.8766  0.5122
  708MPD2    H110471   3.822   2.496  14.123  0.2441  0.0959 -0.5913
  708MPD2    H210472   3.680   2.796  13.875 -2.0953  0.5672  0.3702
  708MPD2    H310473   3.852   2.694  14.027  0.5198 -1.3886  0.7912
  708MPD2     N10474   3.624   2.317  14.094  0.6019  0.1635 -0.1000
  708MPD2    H510475   3.693   2.303  14.168  0.2109  0.4829  0.3232
  708MPD2    N110476   3.442   2.680  13.834 -0.3144  0.1162 -1.0118
  708MPD2    H710477   3.363   2.617  13.844  0.5916 -0.5064  2.1556
  709TMC3    C110478   3.291   2.813  13.713  0.9554 -0.5875  0.1563
  709TMC3    C210479   3.270   2.843  13.579  0.4308 -0.2995 -0.2929
  709TMC3    C310480   3.158   2.784  13.526 -0.4106 -0.4749  0.9033
  709TMC3    C410481   3.192   2.757  13.795  0.0138 -0.8559 -0.0423
  709TMC3    C510482   3.073   2.722  13.737  0.1690 -0.4555  0.4278
  709TMC3    C610483   3.052   2.731  13.598  0.2495 -0.0847  0.5292
  709TMC3     C10484   3.425   2.796  13.758 -0.1491  0.7792  0.2809
  709TMC3     O10485   3.504   2.880  13.711  0.7658  0.1047  0.1554
  709TMC3     H10486   3.358   2.879  13.527  0.7168 -1.1002 -0.3626
  709TMC3    H110487   3.218   2.751  13.901 -0.7890  1.2087  0.2797
  709TMC3    H210488   2.963   2.677  13.566  1.1757 -1.4784  0.2970
  709TMC3    C710489   2.984   2.635  13.824 -0.5917 -0.1311  0.5318
  709TMC3    C810490   3.160   2.761  13.380  0.4701 -0.6293 -0.4057
  709TMC3    O110491   2.872   2.601  13.781  0.3460 -0.2399 -0.4412
  709TMC3    O210492   3.078   2.682  13.341 -0.8509  0.1614  0.2845
  710TMC3    C110493   0.257   3.315   1.096 -0.4774 -0.4650 -0.1593
  710TMC3    C210494   0.268   3.324   0.955  0.5537 -0.6127  0.1363
  710TMC3    C310495   0.277   3.205   0.891 -0.2482  0.2897  0.5040
  710TMC3    C410496   0.262   3.201   1.169  0.4196  0.2106 -0.0512
  710TMC3    C510497   0.269   3.083   1.100 -0.1880  0.4388 -0.2784
  710TMC3    C610498   0.272   3.089   0.963 -0.5829  0.3360 -0.6913
  710TMC3     C10499   0.239   3.444   1.159  0.7912  0.0773  0.1512
  710TMC3     O10500   0.280   3.543   1.097  0.0634  0.4262  0.6571
  710TMC3     H10501   0.246   3.415   0.900  0.3960 -0.8640 -0.2218
  710TMC3    H110502   0.249   3.197   1.277 -1.4011 -0.6641 -0.2935
  710TMC3    H210503   0.255   3.000   0.903 -0.0584 -0.9027  0.9822
  710TMC3    C710504   0.208   2.972   1.168 -0.1917 -0.0300  0.5409
  710TMC3    C810505   0.338   3.203   0.754 -0.4665  0.1590 -0.6220
  710TMC3    O110506   0.133   2.996   1.262 -0.1712 -0.2146  0.7771
  710TMC3    O210507   0.350   3.094   0.696  0.3674 -0.2928  0.5790
  711TMC3    C110508   4.260   0.014  15.048  0.4451 -0.1332  0.3273
  711TMC3    C210509   4.289   0.052  15.176  0.5373 -0.3376  0.5521
  711TMC3    C310510   4.415   0.034  15.229 -0.6567  0.2280 -0.4357
  711TMC3    C410511   4.356   4.669  14.979 -0.7433 -0.3820 -0.1734
  711TMC3    C510512   4.476   4.637  15.037  0.3394  0.1361 -0.1610
  711TMC3    C610513   4.512   4.690  15.161 -0.5070 -0.3786  0.8284
  711TMC3     C10514   4.138   4.676  15.033  0.4223 -0.4065 -0.5005
  711TMC3     O10515   4.121   4.624  14.923 -0.0803 -0.2792  0.5071
  711TMC3     H10516   4.218   0.106  15.238 -0.6214  0.7479 -1.7251
  711TMC3    H110517   4.334   4.629  14.881  0.0428 -0.9997 -0.0926
  711TMC3    H210518   4.599   4.648  15.209  1.3411  0.7714 -1.5294
  711TMC3    C710519   4.520   4.504  15.030 -0.1271  0.2230 -0.1547
  711TMC3    C810520   4.404   0.026  15.372 -0.1644  0.0618  0.4271
  711TMC3    O110521   4.636   4.479  15.066 -0.2207 -0.2218  0.0466
  711TMC3    O210522   4.295   0.018  15.425  0.3143 -0.6095  0.1161
  712MPD2     C10523   1.320   0.652  13.722 -0.2324  0.0757  0.4086
  712MPD2    C110524   1.191   0.660  13.764  0.0016 -0.1864 -0.2235
  712MPD2    C210525   1.146   0.782  13.815  0.5476  0.2154  0.2599
  712MPD2    C310526   1.219   0.906  13.794 -0.2793 -0.1074 -0.2606
  712MPD2    C410527   1.345   0.894  13.736 -0.4755  0.6288  0.0877
  712MPD2    C510528   1.394   0.768  13.705 -0.3692 -0.0325  0.3041
  712MPD2     H10529   1.047   0.788  13.860 -0.0405 -2.0199 -0.7303
  712MPD2    H110530   1.412   0.976  13.716  2.7900 -1.9416  0.5196
  712MPD2    H210531   1.357   0.553  13.696  0.9696  1.2486 -2.4047
  712MPD2    H310532   1.500   0.757  13.685 -0.5974 -2.6453  0.6051
  712MPD2     N10533   1.168   1.038  13.822  0.1175  0.4024  0.0744
  712MPD2    H510534   1.238   1.110  13.807 -0.9645  1.8340  1.8475
  712MPD2    N110535   1.104   0.546  13.767  0.5034  0.0602  0.6770
  712MPD2    H710536   1.127   0.473  13.700 -1.3777  0.5520 -0.5015
  713TMC3    C110537   1.012   1.216  13.848  0.0251  0.7063  0.5761
  713TMC3    C210538   1.109   1.278  13.774 -0.0387  0.3637  0.3581
  713TMC3    C310539   1.075   1.359  13.672 -0.2018  0.5623 -0.2853
  713TMC3    C410540   0.879   1.237  13.824  0.0737  0.4011  0.1952
  713TMC3    C510541   0.848   1.318  13.717  0.4147 -0.4230  0.4934
  713TMC3    C610542   0.943   1.372  13.636 -0.1980 -0.1602 -0.9968
  713TMC3     C10543   1.043   1.076  13.869  0.3698  0.1784 -0.3672
  713TMC3     O10544   0.953   0.998  13.903  0.0576  0.5864 -0.1487
  713TMC3     H10545   1.213   1.285  13.807  1.0409 -1.7122 -2.6099
  713TMC3    H110546   0.795   1.198  13.881  1.6375 -1.2753  1.3507
  713TMC3    H210547   0.915   1.441  13.556 -1.1103  0.2544 -0.3240
  713TMC3    C710548   0.718   1.365  13.684 -0.1748 -0.3007  0.1759
  713TMC3    C810549   1.161   1.448  13.592 -0.2418  0.2757 -0.0713
  713TMC3    O110550   0.684   1.375  13.567 -0.4058 -0.1353  0.4845
  713TMC3    O210551   1.156   1.448  13.468 -0.6459  0.1153 -0.3321
  714MPD2     C10552   3.032   3.865   1.925  0.4996 -0.7732  0.2544
  714MPD2    C110553   3.101   3.838   1.810 -1.1216  0.3903  0.3800
  714MPD2    C210554   3.051   3.879   1.683 -0.5756 -0.0919  0.0103
  714MPD2    C310555   2.922   3.936   1.680 -1.5324  0.4611 -0.2505
  714MPD2    C410556   2.858   3.946   1.794 -0.0553  0.4990 -0.1208
  714MPD2    C510557   2.905   3.903   1.910  0.0006  0.2054 -0.8125
  714MPD2     H10558   3.110   3.861   1.594 -3.3583 -0.0947 -1.8550
  714MPD2    H110559   2.753   3.969   1.804 -0.2681 -0.0233 -1.1113
  714MPD2    H210560   3.053   3.828   2.025 -0.5956 -0.6016  0.5469
  714MPD2    H310561   2.842   3.896   1.998 -2.1880 -2.4094 -2.5897
  714MPD2     N10562   2.878   3.980   1.551  0.1034 -0.3768  0.2192
  714MPD2    H510563   2.949   3.987   1.479 -0.1683  1.1477  0.0987
  714MPD2    N110564   3.228   3.774   1.832 -0.1059  0.5748  0.1768
  714MPD2    H710565   3.254   3.765   1.929 -1.7447 -0.9006  0.4757
  715TMC3    C110566   3.454   3.690   1.799  0.2604  0.4272 -0.8816
  715TMC3    C210567   3.542   3.612   1.726 -0.0026  0.1702  0.4220
  715TMC3    C310568   3.660   3.584   1.780 -0.1839 -0.5969  0.5462
  715TMC3    C410569   3.484   3.737   1.920  0.2729 -0.2537  0.7252
  715TMC3    C510570   3.607   3.696   1.976 -0.1677 -0.4509  0.4535
  715TMC3    C610571   3.698   3.620   1.907 -0.4302 -0.3143  0.0187
  715TMC3     C10572   3.324   3.728   1.742 -1.6479  1.1607  0.2411
  715TMC3     O10573   3.305   3.721   1.621  0.4137 -0.1024 -0.2809
  715TMC3     H10574   3.517   3.585   1.624  0.1147  0.4639  0.3175
  715TMC3    H110575   3.414   3.792   1.982 -1.4202 -1.6334  0.0426
  715TMC3    H210576   3.787   3.600   1.967  0.1612  2.4859  0.0801
  715TMC3    C710577   3.639   3.733   2.106 -0.2464  0.8353  0.9786
  715TMC3    C810578   3.771   3.545   1.701 -0.0108 -0.1632 -0.1301
  715TMC3    O110579   3.754   3.744   2.137 -0.0479 -0.4763  0.1026
  715TMC3    O210580   3.882   3.576   1.736 -0.8159  0.0582 -0.3548
  716MPD2     C10581   3.634   1.899  10.007 -0.0006 -0.3004  0.6719
  716MPD2    C110582   3.519   1.877   9.931  0.0289  0.6515 -0.0576
  716MPD2    C210583   3.503   1.752   9.872 -0.0233 -0.3395 -0.6067
  716MPD2    C310584   3.593   1.651   9.903  0.6074 -0.1723 -0.4589
  716MPD2    C410585   3.703   1.673   9.981 -0.4522  0.1147  0.0840
  716MPD2    C510586   3.721   1.798  10.034 -0.1541 -0.2261 -0.4493
  716MPD2     H10587   3.425   1.737   9.799 -0.0122 -1.2912 -0.4225
  716MPD2    H110588   3.767   1.592  10.011 -1.6089  0.0142  2.2630
  716MPD2    H210589   3.651   1.995  10.053 -3.5786  1.1098 -0.9230
  716MPD2    H310590   3.793   1.823  10.111 -0.2668 -0.0550 -0.4005
  716MPD2     N10591   3.581   1.532   9.828 -0.2111 -0.0442 -0.4626
  716MPD2    H510592   3.496   1.524   9.772 -1.6943  1.7149  1.5575
  716MPD2    N110593   3.412   1.973   9.930  0.2533  0.2280  0.0410
  716MPD2    H710594   3.431   2.066   9.966  2.3114  0.2697 -1.1544
  717TMC3    C110595   3.610   1.326   9.733 -0.4722 -0.2486  0.0626
  717TMC3    C210596   3.484   1.332   9.686  0.0385 -0.3106  0.4736
  717TMC3    C310597   3.443   1.224   9.614 -0.0378  0.1313 -0.8087
  717TMC3    C410598   3.701   1.239   9.684  0.1180  0.0337 -0.3627
  717TMC3    C510599   3.661   1.137   9.603 -0.0769 -0.2557  0.5909
  717TMC3    C610600   3.527   1.122   9.575  0.3685 -0.4739 -0.0107
  717TMC3     C10601   3.663   1.423   9.828  0.5279 -0.0238  0.3867
  717TMC3     O10602   3.768   1.398   9.884  0.0529 -0.6086  0.1036
  717TMC3     H10603   3.406   1.397   9.724 -0.0507 -1.1803  1.7988
  717TMC3    H110604   3.803   1.253   9.719  0.8231 -1.4406 -1.7901
  717TMC3    H210605   3.490   1.036   9.521  0.1731  0.3873 -1.2577
  717TMC3    C710606   3.759   1.047   9.546 -0.1824 -0.6546 -0.0914
  717TMC3    C810607   3.310   1.234   9.553 -0.3784  0.0997  0.1992
  717TMC3    O110608   3.873   1.085   9.523 -0.6643 -0.6251  0.3058
  717TMC3    O210609   3.258   1.341   9.545 -0.2808 -0.4474 -0.4450
  718MPD2     C10610   3.097   1.376  12.496 -0.1626 -0.0153  0.2639
  718MPD2    C110611   3.072   1.497  12.560 -0.3919  0.6171  0.2641
  718MPD2    C210612   2.986   1.499  12.669  0.1856  0.2594  0.1407
  718MPD2    C310613   2.918   1.385  12.708 -0.3346  0.1551 -0.2427
  718MPD2    C410614   2.949   1.265  12.653 -0.4306  0.3763 -0.2878
  718MPD2    C510615   3.036   1.259  12.550  0.1451  0.0917  0.2096
  718MPD2     H10616   2.963   1.594  12.715  0.1666 -0.1849  1.0400
  718MPD2    H110617   2.902   1.173  12.688  1.7276 -0.3411  0.7231
  718MPD2    H210618   3.157   1.358  12.408 -1.5554  1.1376 -0.9125
  718MPD2    H310619   3.049   1.168  12.492 -2.4164  0.3338 -0.7372
  718MPD2     N10620   2.829   1.399  12.810  0.4642  0.0246 -0.6497
  718MPD2    H510621   2.820   1.496  12.839  2.1363  0.5071 -1.7700
  718MPD2    N110622   3.120   1.623  12.519 -0.0964 -1.1229  1.1391
  718MPD2    H710623   3.109   1.693  12.591 -0.5963 -1.4827  1.4171
  719TMC3    C110624   3.211   1.792  12.380 -0.1838 -0.1285  0.3730
  719TMC3    C210625   3.104   1.868  12.429  0.1402 -0.3886  0.8584
  719TMC3    C310626   3.101   1.999  12.401 -0.3648  0.4454 -0.0337
  719TMC3    C410627   3.314   1.853  12.314  0.0047  0.2839 -0.0943
  719TMC3    C510628   3.307   1.985  12.290  0.0523  0.6690  0.1307
  719TMC3    C610629   3.198   2.057  12.329 -0.1640  0.4217  0.0148
  719TMC3     C10630   3.201   1.647  12.403  0.7924  0.3508  0.0074
  719TMC3     O10631   3.240   1.575  12.317  0.1186  0.5272  0.0451
  719TMC3     H10632   3.015   1.815  12.461  0.0816  0.0914  1.5000
  719TMC3    H110633   3.402   1.806  12.273 -2.1773 -3.6645 -0.1716
  719TMC3    H210634   3.197   2.165  12.318  2.5483  0.6284  1.6926
  719TMC3    C710635   3.401   2.063  12.213  0.3479  0.3358 -1.5625
  719TMC3    C810636   2.996   2.074  12.465 -0.5577  0.9215 -0.0901
  719TMC3    O110637   3.355   2.167  12.168  0.5465  0.4315  0.3550
  719TMC3    O210638   2.972   2.188  12.430 -0.1105 -0.2977  0.0277
  720MPD2     C10639   0.495   2.979  14.091 -0.3538 -0.4746 -0.5167
  720MPD2    C110640   0.612   3.011  14.029 -1.0240  0.0253  0.5923
  720MPD2    C210641   0.731   3.011  14.105  0.1117 -0.0814  0.1935
  720MPD2    C310642   0.731   2.964  14.240 -0.3125 -0.5409  0.2881
  720MPD2    C410643   0.607   2.950  14.301 -0.3358  0.1041 -0.0802
  720MPD2    C510644   0.496   2.951  14.222 -0.8435  0.1302 -0.6349
  720MPD2     H10645   0.824   3.044  14.061  0.5113 -2.8597 -1.0802
  720MPD2    H110646   0.613   2.901  14.397 -0.6257 -0.9827 -0.6124
  720MPD2    H210647   0.400   2.987  14.039 -0.2630 -2.9036 -1.0803
  720MPD2    H310648   0.397   2.921  14.255  0.3664 -1.8080  1.2549
  720MPD2     N10649   0.856   2.958  14.310 -0.2958  0.1075  0.5302
  720MPD2    H510650   0.945   2.964  14.262 -0.9588 -0.6240 -0.7811
  720MPD2    N110651   0.613   3.058  13.893  0.2259 -0.1324  0.1792
  720MPD2    H710652   0.703   3.087  13.857 -0.2206  1.0512  0.0171
  721TMC3    C110653   1.027   2.965  14.492 -0.8625  0.4703  0.4732
  721TMC3    C210654   1.029   2.995  14.629 -0.5403 -0.3200 -0.0327
  721TMC3    C310655   1.147   3.053  14.681  0.1800  0.6732 -0.2820
  721TMC3    C410656   1.132   2.989  14.409 -0.2678 -0.4807 -0.0251
  721TMC3    C510657   1.236   3.062  14.465  0.0175  0.4910 -0.0553
  721TMC3    C610658   1.253   3.076  14.600  0.0074  0.5721  0.3278
  721TMC3     C10659   0.883   2.943  14.442 -0.2683 -0.8569 -0.5234
  721TMC3     O10660   0.804   2.936  14.535  0.1367  0.2691 -0.1389
  721TMC3     H10661   0.937   3.006  14.685 -0.4482  0.4440 -0.0196
  721TMC3    H110662   1.132   2.949  14.309 -2.7805 -0.1821 -0.1442
  721TMC3    H210663   1.345   3.109  14.648  0.1093 -2.1760  2.0479
  721TMC3    C710664   1.358   3.060  14.384  0.0534 -0.1702  0.1739
  721TMC3    C810665   1.179   3.039  14.819  0.9386 -0.3830  0.2501
  721TMC3    O110666   1.351   3.094  14.268 -0.2673  0.1227 -0.5154
  721TMC3    O210667   1.289   3.060  14.865 -0.1699 -0.4105 -0.2277
  722MPD2     C10668   4.402   1.664  13.333 -0.3755 -0.8774 -0.6689
  722MPD2    C110669   4.433   1.771  13.244  0.1444 -0.2391 -0.7689
  722MPD2    C210670   4.324   1.821  13.176 -0.1795  0.8118  0.7389
  722MPD2    C310671   4.194   1.763  13.184 -0.1716 -0.6940  0.0566
  722MPD2    C410672   4.167   1.661  13.277  0.4314 -0.5453  0.1474
  722MPD2    C510673   4.274   1.615  13.349  0.0590 -0.2616  0.0141
  722MPD2     H10674   4.346   1.912  13.121  3.2168 -0.6959 -0.3717
  722MPD2    H110675   4.068   1.627  13.306  1.3168 -1.1306  2.4814
  722MPD2    H210676   4.475   1.627  13.404 -0.3590 -1.1973 -0.8532
  722MPD2    H310677   4.257   1.538  13.423  0.5214 -0.6372 -0.2649
  722MPD2     N10678   4.086   1.809  13.103 -0.1782  0.3718 -0.0619
  722MPD2    H510679   4.128   1.875  13.038 -0.9226 -1.6201 -2.5416
  722MPD2    N110680   4.559   1.836  13.228  0.6474  0.1624  0.6007
  722MPD2    H710681   4.567   1.920  13.172 -1.5814  0.1234  0.2103
  723TMC3    C110682   3.875   1.813  12.991  0.3367 -0.2366 -0.8802
  723TMC3    C210683   3.791   1.729  12.934  0.3206 -0.6725 -0.3414
  723TMC3    C310684   3.729   1.759  12.819  0.3709 -0.3744  0.2834
  723TMC3    C410685   3.904   1.937  12.940  0.3426  0.4991  0.6328
  723TMC3    C510686   3.822   1.977  12.832  0.3556 -0.7805  0.3366
  723TMC3    C610687   3.741   1.888  12.767  0.2931 -0.5455  0.1820
  723TMC3     C10688   3.955   1.762  13.096  0.2170  0.3239 -0.0945
  723TMC3     O10689   3.911   1.654  13.140 -0.3841  0.3257  0.3051
  723TMC3     H10690   3.770   1.633  12.981 -3.3414 -0.2798 -1.1958
  723TMC3    H110691   3.960   2.010  12.997  2.6378 -1.2657  0.6096
  723TMC3    H210692   3.678   1.914  12.683 -2.0252 -0.4778  1.9458
  723TMC3    C710693   3.843   2.112  12.779 -0.1109 -0.3589 -0.2562
  723TMC3    C810694   3.629   1.665  12.769  0.9418  0.2993 -0.8806
  723TMC3    O110695   3.888   2.193  12.858 -0.4245 -0.0973 -0.3005
  723TMC3    O210696   3.525   1.715  12.720  0.0592 -0.0175 -0.4441
  724TMC3    C110697   0.387   0.783   8.723 -0.5218 -0.1249 -0.1946
  724TMC3    C210698   0.431   0.657   8.715 -0.2189 -0.4203  0.4979
  724TMC3    C310699   0.336   0.566   8.684  0.1527  0.1195  0.2273
  724TMC3    C410700   0.262   0.824   8.731  0.6211  0.4194  0.1011
  724TMC3    C510701   0.169   0.725   8.717 -0.1900  0.4367  0.5202
  724TMC3    C610702   0.205   0.597   8.690 -0.1922 -0.2200 -0.8749
  724TMC3     C10703   0.481   0.890   8.707  0.0734  0.4313 -0.1673
  724TMC3     O10704   0.434   1.001   8.676 -0.9652 -0.5279 -0.3677
  724TMC3     H10705   0.529   0.642   8.670  0.6030 -1.6187  2.6850
  724TMC3    H110706   0.235   0.929   8.721  1.2682  0.4234 -1.5432
  724TMC3    H210707   0.126   0.529   8.659 -0.5943  0.3399 -1.0660
  724TMC3    C710708   0.030   0.755   8.713  0.0964 -0.4501 -0.5032
  724TMC3    C810709   0.346   0.423   8.721 -0.3537  0.8589 -0.2146
  724TMC3    O110710   4.670   0.676   8.672 -0.4610 -0.2933 -0.0047
  724TMC3    O210711   0.257   0.348   8.678 -0.0083  0.0340  0.0322
  725TMC3    C110712   1.666   3.363  12.801 -0.3120  0.6136 -0.7110
  725TMC3    C210713   1.679   3.387  12.669 -0.3114  0.6628  0.5500
  725TMC3    C310714   1.662   3.284  12.583  0.7063  0.5000  0.7976
  725TMC3    C410715   1.636   3.242  12.843  0.8834  0.8291  0.1325
  725TMC3    C510716   1.603   3.141  12.759  0.1909  0.4330 -0.0477
  725TMC3    C610717   1.613   3.161  12.625 -0.0187  0.0050  0.1060
  725TMC3     C10718   1.698   3.470  12.890  0.1638  0.6223  0.1590
  725TMC3     O10719   1.759   3.567  12.842 -0.0037 -0.3772  0.3625
  725TMC3     H10720   1.716   3.482  12.634  0.9300  0.5416  1.5464
  725TMC3    H110721   1.635   3.228  12.951  1.1920  0.0351  0.0309
  725TMC3    H210722   1.568   3.090  12.556 -1.1998 -0.9219  1.8057
  725TMC3    C710723   1.573   2.997  12.790 -0.2636 -0.1311  0.3615
  725TMC3    C810724   1.724   3.273  12.453 -0.5488 -0.0140 -0.4038
  725TMC3    O110725   1.584   2.922  12.689  0.0436 -0.0505  0.0490
  725TMC3    O210726   1.721   3.163  12.405 -0.2099  0.1767 -0.2719
  726MPD2     C10727   0.398   4.332  11.117 -0.3211 -0.6251 -0.6324
  726MPD2    C110728   0.342   4.399  11.011  0.1409 -0.3372 -0.2720
  726MPD2    C210729   0.202   4.413  11.012  0.1004 -0.2507  0.1804
  726MPD2    C310730   0.126   4.376  11.115  0.1223  0.2643 -0.0853
  726MPD2    C410731   0.185   4.310  11.223  1.0632  0.0447  0.1829
  726MPD2    C510732   0.319   4.274  11.214 -0.3189 -0.3389 -0.4488
  726MPD2     H10733   0.160   4.478  10.937 -0.6443 -0.0045  0.8077
  726MPD2    H110734   0.120   4.279  11.304  0.3278 -1.5489 -1.0068
  726MPD2    H210735   0.506   4.325  11.124 -0.2592  1.3673  0.2996
  726MPD2    H310736   0.366   4.232  11.302 -0.2608 -0.0841 -0.3582
  726MPD2     N10737   4.714   4.402  11.119  0.2591  0.0229  0.4513
  726MPD2    H510738   4.663   4.372  11.202  1.9457  1.0398  1.8436
  726MPD2    N110739   0.416   4.445  10.895 -0.3223 -0.0585  0.1446
  726MPD2    H710740   0.366   4.492  10.820  0.0999 -2.3973 -1.5960
  727TMC3    C110741   0.594   4.460  10.740 -0.0091  0.1155 -0.5277
  727TMC3    C210742   0.720   4.499  10.713 -0.8698  0.0184 -0.2447
  727TMC3    C310743   0.745   4.536  10.581 -1.3652 -0.2454 -0.3884
  727TMC3    C410744   0.510   4.419  10.642  0.4294 -0.9740 -0.3684
  727TMC3    C510745   0.546   4.446  10.511 -0.1636  0.4033 -0.5061
  727TMC3    C610746   0.662   4.509  10.473 -0.2225 -0.4513 -0.6757
  727TMC3     C10747   0.554   4.427  10.878  0.8884 -0.0679 -0.0051
  727TMC3     O10748   0.646   4.426  10.953 -0.0996  0.1135 -0.5119
  727TMC3     H10749   0.795   4.481  10.790 -1.9618 -3.2179  0.0828
  727TMC3    H110750   0.423   4.361  10.668  0.0135 -0.2880 -0.2186
  727TMC3    H210751   0.696   4.517  10.371  1.7488  4.1694  0.3605
  727TMC3    C710752   0.454   4.406  10.407 -0.1964 -0.1563  0.7168
  727TMC3    C810753   0.857   4.619  10.540  0.0439  0.8838  0.1355
  727TMC3    O110754   0.373   4.316  10.426  0.0330 -0.3152  0.3037
  727TMC3    O210755   0.890   4.624  10.420 -0.4137 -0.6533  0.6345
  728TMC3    C110756   3.490   3.068  15.536  0.1339 -0.4943 -0.0042
  728TMC3    C210757   3.627   3.081  15.555  0.0653  0.7667 -0.1750
  728TMC3    C310758   3.703   3.126  15.448 -0.3872  0.3941  0.1574
  728TMC3    C410759   3.436   3.085  15.414 -0.8067  0.1100 -0.4568
  728TMC3    C510760   3.509   3.123  15.308  0.4318  0.0242  0.4318
  728TMC3    C610761   3.646   3.140  15.326  0.9463 -0.1262  0.2405
  728TMC3     C10762   3.411   3.030  15.647  0.3751 -0.4238 -0.1481
  728TMC3     O10763   3.467   3.051  15.752 -0.0569 -0.4944  0.1085
  728TMC3     H10764   3.677   3.044  15.644 -0.7200  0.7568  0.2606
  728TMC3    H110765   3.330   3.063  15.402 -1.3129  0.1893  3.9192
  728TMC3    H210766   3.706   3.177  15.243  1.1037  0.7075  0.7321
  728TMC3    C710767   3.440   3.189  15.197 -0.4052  0.1336 -0.1609
  728TMC3    C810768   3.849   3.145  15.462  0.0596 -0.2469 -0.1666
  728TMC3    O110769   3.320   3.163  15.189 -0.5021 -0.2446  0.3254
  728TMC3    O210770   3.915   3.158  15.358  0.2289 -0.3837  0.0645
  729MPD2     C10771   0.974   3.890  16.755 -0.2313  0.1194  0.0994
  729MPD2    C110772   0.924   4.019  16.774 -0.2834 -0.1589 -0.3845
  729MPD2    C210773   0.918   4.062  16.906 -0.0892  0.3862  0.1088
  729MPD2    C310774   0.934   3.963  17.011  0.2818  0.2895  0.6730
  729MPD2    C410775   0.979   3.839  16.981 -0.5923 -0.3550 -0.1310
  729MPD2    C510776   1.003   3.805  16.851 -0.9081 -0.1587  0.5562
  729MPD2     H10777   0.899   4.165  16.931  2.3485  1.0553 -0.8376
  729MPD2    H110778   1.008   3.777  17.064 -1.6773  1.3756  1.5303
  729MPD2    H210779   0.993   3.849  16.657 -0.4232 -0.1757  0.1846
  729MPD2    H310780   1.036   3.704  16.831 -1.1875 -0.1635  0.1266
  729MPD2     N10781   0.920   4.005  17.144  0.1834 -0.2151 -0.2039
  729MPD2    H510782   0.964   3.950  17.217 -1.0265 -0.4116  0.3681
  729MPD2    N110783   0.903   4.110  16.663  0.4947  0.5926 -0.3782
  729MPD2    H710784   0.940   4.074  16.576  0.0949  2.2780 -1.2495
  730TMC3    C110785   0.867   4.165  17.321 -0.0824  0.3521  0.2322
  730TMC3    C210786   0.975   4.140  17.393 -0.0281  0.2179  0.2887
  730TMC3    C310787   0.984   4.194  17.517  0.1688  0.0751 -0.1767
  730TMC3    C410788   0.757   4.227  17.365 -0.2171 -1.0394 -0.2189
  730TMC3    C510789   0.763   4.285  17.495 -0.0754 -0.0296 -0.0153
  730TMC3    C610790   0.873   4.264  17.573 -0.2291  0.1155 -0.2599
  730TMC3     C10791   0.848   4.115  17.185  0.6833  0.7483 -0.4739
  730TMC3     O10792   0.759   4.171  17.119 -0.0242 -0.2038  0.7297
  730TMC3     H10793   1.061   4.080  17.364 -0.6709 -0.6086  0.1050
  730TMC3    H110794   0.666   4.227  17.306 -0.5242 -3.6265  0.2416
  730TMC3    H210795   0.878   4.298  17.675 -1.6760 -1.7248  0.4335
  730TMC3    C710796   0.696   4.408  17.502  0.3528 -0.9895  0.3301
  730TMC3    C810797   1.096   4.189  17.597 -0.3827  0.5717 -0.1644
  730TMC3    O110798   0.626   4.437  17.406 -0.1705 -0.3307  0.1430
  730TMC3    O210799   1.064   4.199   0.014 -0.3987 -0.1154 -0.1532
  731MPD2     C10800   1.355   2.804  12.550 -0.0064 -0.0728  0.4364
  731MPD2    C110801   1.308   2.860  12.439 -0.4425 -0.0770 -0.6361
  731MPD2    C210802   1.169   2.887  12.429  0.1170  0.0716  0.4732
  731MPD2    C310803   1.078   2.852  12.531  0.1462 -0.2060 -0.0707
  731MPD2    C410804   1.131   2.791  12.641 -0.8811 -0.6945  0.0473
  731MPD2    C510805   1.266   2.773  12.653  0.0894 -0.8462 -0.7175
  731MPD2     H10806   1.134   2.941  12.342  0.2361  1.1852  1.1156
  731MPD2    H110807   1.070   2.773  12.729 -1.2987  1.2582  0.1477
  731MPD2    H210808   1.458   2.774  12.561 -0.4766 -1.9054  0.0188
  731MPD2    H310809   1.313   2.741  12.745  0.1935 -0.7850 -0.7490
  731MPD2     N10810   0.945   2.897  12.515  0.6237 -0.2014  0.0360
  731MPD2    H510811   0.926   2.956  12.435  3.2024 -0.8332 -1.0598
  731MPD2    N110812   1.393   2.887  12.327  0.3004  0.1049 -0.1333
  731MPD2    H710813   1.490   2.859  12.333  0.5345  0.8982 -0.2081
  732TMC3    C110814   1.458   2.908  12.107 -0.1460  0.2096 -0.0320
  732TMC3    C210815   1.408   2.870  11.983  0.2263 -0.4528  0.1516
  732TMC3    C310816   1.503   2.854  11.884 -0.1903  0.2452 -0.2715
  732TMC3    C410817   1.590   2.937  12.141 -0.5883 -0.0157 -0.1060
  732TMC3    C510818   1.677   2.905  12.044  0.8102 -0.1805  0.5130
  732TMC3    C610819   1.636   2.860  11.922 -0.2780 -0.0985 -0.0627
  732TMC3     C10820   1.345   2.922  12.198 -0.4544  0.3756  0.3525
  732TMC3     O10821   1.229   2.941  12.156 -0.6469 -0.4391 -0.1592
  732TMC3     H10822   1.303   2.846  11.970  0.5059 -0.8801 -1.2697
  732TMC3    H110823   1.629   2.964  12.239  2.6591  1.8341 -1.9252
  732TMC3    H210824   1.716   2.829  11.855 -0.1571 -3.0383  1.4545
  732TMC3    C710825   1.815   2.863  12.085 -0.2920  0.3282  0.5261
  732TMC3    C810826   1.466   2.761  11.777  0.2127 -0.3351 -0.2269
  732TMC3    O110827   1.900   2.863  11.994 -0.1372  0.2061 -0.5865
  732TMC3    O210828   1.560   2.684  11.747 -0.0756  0.1415 -0.2223
  733TMC3    C110829   2.458   1.440  13.088 -0.4657 -0.4746  0.3107
  733TMC3    C210830   2.541   1.352  13.021  0.0369  0.2483  0.0357
  733TMC3    C310831   2.625   1.401  12.920 -0.5283  0.9316  0.4063
  733TMC3    C410832   2.454   1.575  13.056 -0.0564 -0.5787  1.1077
  733TMC3    C510833   2.538   1.618  12.958  0.8252  0.5058 -0.5716
  733TMC3    C610834   2.622   1.534  12.880  0.1289 -0.8546  0.2401
  733TMC3     C10835   2.351   1.401  13.181  0.6972 -0.4246 -0.2415
  733TMC3     O10836   2.275   1.488  13.221  0.4576 -0.1897  1.2219
  733TMC3     H10837   2.531   1.245  13.012  0.4566  0.3006 -1.0253
  733TMC3    H110838   2.395   1.644  13.114  0.7100  0.2506  0.8952
  733TMC3    H210839   2.681   1.571  12.797  1.0011 -1.3635  0.6300
  733TMC3    C710840   2.512   1.753  12.912 -0.4164 -0.1871  0.6748
  733TMC3    C810841   2.726   1.316  12.858  0.3513 -0.5658  0.5621
  733TMC3    O110842   2.399   1.801  12.904  1.3014  0.0697  0.2607
  733TMC3    O210843   2.696   1.198  12.836  0.9053  0.1297 -0.4693
  734MPD2     C10844   0.131   3.593  12.317  0.0338 -0.5302  0.1962
  734MPD2    C110845   0.014   3.605  12.242  0.2277 -0.9399 -0.0702
  734MPD2    C210846   0.024   3.588  12.101  0.1125 -0.2155  1.0833
  734MPD2    C310847   0.147   3.568  12.034 -0.1488 -0.1916  0.5291
  734MPD2    C410848   0.262   3.554  12.114  0.2636  0.6485  0.1066
  734MPD2    C510849   0.249   3.573  12.251  0.3585  0.1200 -0.0160
  734MPD2     H10850   4.658   3.600  12.043  0.4175  2.2271  1.0871
  734MPD2    H110851   0.362   3.543  12.075  0.1624 -1.5134  0.4675
  734MPD2    H210852   0.132   3.603  12.425 -0.8959  3.3743 -0.1557
  734MPD2    H310853   0.336   3.563  12.314 -0.1859  1.1621  0.9069
  734MPD2     N10854   0.145   3.542  11.898 -0.4956 -0.6398 -0.3159
  734MPD2    H510855   0.058   3.558  11.849 -0.5496 -1.2308 -0.4119
  734MPD2    N110856   4.615   3.632  12.305  0.4949  0.8186 -0.1526
  734MPD2    H710857   4.619   3.629  12.406 -0.2142  0.3683 -0.1339
  735TMC3    C110858   4.372   3.628  12.326  0.1790 -0.0730 -0.2772
  735TMC3    C210859   4.266   3.635  12.239 -0.2607  0.8022 -0.0848
  735TMC3    C310860   4.162   3.550  12.256  0.2230 -0.3017 -1.2997
  735TMC3    C410861   4.383   3.546  12.425  0.7440 -0.1966  0.1600
  735TMC3    C510862   4.275   3.453  12.436 -0.2755  0.5706 -0.0039
  735TMC3    C610863   4.161   3.472  12.365 -0.7627  0.4727  0.4359
  735TMC3     C10864   4.493   3.649  12.243  0.1600  0.1909  0.0770
  735TMC3     O10865   4.468   3.656  12.124  0.0993  0.2730 -0.0474
  735TMC3     H10866   4.248   3.718  12.172  0.2407  0.0676 -1.1190
  735TMC3    H110867   4.471   3.544  12.488  0.8513  0.0275  0.0157
  735TMC3    H210868   4.081   3.398  12.366 -1.3015  1.0526 -0.3055
  735TMC3    C710869   4.333   3.322  12.416  0.2723  0.3754 -0.3525
  735TMC3    C810870   4.138   3.478  12.127  0.1321 -0.2161  0.2013
  735TMC3    O110871   4.286   3.255  12.322 -0.1859  0.3376 -0.1908
  735TMC3    O210872   4.032   3.417  12.112 -0.2806  0.3976  0.9311
  736MPD2     C10873   4.527   3.100  12.636 -0.1230  0.1546 -0.5950
  736MPD2    C110874   4.475   3.154  12.517  0.2851 -0.3051 -0.9447
  736MPD2    C210875   4.505   3.089  12.400 -0.0904 -0.0613  0.3945
  736MPD2    C310876   4.572   2.972  12.390 -0.3177 -0.3725 -0.4741
  736MPD2    C410877   4.629   2.923  12.505  0.0103  0.1902 -0.1662
  736MPD2    C510878   4.594   2.986  12.627 -0.4504  0.7391 -0.3798
  736MPD2     H10879   4.462   3.130  12.310 -0.3575  0.7155  0.8802
  736MPD2    H110880   4.693   2.835  12.505  0.4079  0.4662  0.7624
  736MPD2    H210881   4.490   3.128  12.734  1.3038  0.0432 -0.0331
  736MPD2    H310882   4.629   2.941  12.719 -0.3554  1.7521  0.0893
  736MPD2     N10883   4.619   2.906  12.267  0.6877 -0.3039 -0.0216
  736MPD2    H510884   4.674   2.822  12.277  0.2575 -0.5503  0.2799
  736MPD2    N110885   4.405   3.276  12.525 -0.0807 -0.3263  0.0869
  736MPD2    H710886   4.405   3.329  12.611 -2.3460 -0.3469  0.0905
  737TMC3    C110887   4.670   2.916  12.026 -1.2403  0.4988  0.8647
  737TMC3    C210888   4.685   3.011  11.927 -0.3069  0.2950  0.6819
  737TMC3    C310889   4.716   2.974  11.801  0.6468  0.5812 -0.0202
  737TMC3    C410890   4.671   2.784  11.999 -1.1847  0.6424 -0.4582
  737TMC3    C510891   4.721   2.746  11.874  0.1346  0.0618 -0.8122
  737TMC3    C610892   0.011   2.841  11.775  0.2771 -0.7543 -0.3312
  737TMC3     C10893   4.596   2.963  12.136  0.0658  0.2654 -0.0618
  737TMC3     O10894   4.543   3.071  12.122 -0.3029  0.5951 -0.6210
  737TMC3     H10895   4.676   3.118  11.943  0.6858  0.7596 -1.8702
  737TMC3    H110896   4.658   2.711  12.078  0.0441  1.7527  0.7828
  737TMC3    H210897   0.027   2.812  11.672 -1.2824 -2.6515 -0.0441
  737TMC3    C710898   0.040   2.608  11.860  0.3310  0.5842 -0.1247
  737TMC3    C810899   0.107   3.051  11.745 -0.7796 -0.3472 -0.3949
  737TMC3    O110900   0.009   2.518  11.939 -0.5043  0.6007  0.2870
  737TMC3    O210901   0.157   3.130  11.817 -0.2236 -0.6190 -0.2056
  738MPD2     C10902   4.667   1.883  15.224  0.4227  0.1895 -0.4439
  738MPD2    C110903   4.664   1.827  15.099  0.6604 -0.0398  0.5353
  738MPD2    C210904   0.017   1.880  14.999 -0.0966  0.1817 -0.2888
  738MPD2    C310905   0.110   1.979  15.037  1.2134  0.4148 -0.0059
  738MPD2    C410906   0.127   2.018  15.167 -0.1409 -0.1189  0.0687
  738MPD2    C510907   0.040   1.972  15.257 -0.2674 -0.2736  0.1360
  738MPD2     H10908   0.021   1.833  14.902 -1.2570 -0.8074  0.1363
  738MPD2    H110909   0.205   2.080  15.209  1.4391 -0.8062 -1.8731
  738MPD2    H210910   4.639   1.837  15.318  1.8679 -0.9057 -0.5429
  738MPD2    H310911   0.053   1.993  15.362  2.0234 -0.7333 -0.0707
  738MPD2     N10912   0.211   2.014  14.960 -0.6392 -0.2029 -0.0014
  738MPD2    H510913   0.271   2.084  15.002  0.7002 -2.4697  1.8473
  738MPD2    N110914   4.579   1.717  15.070  0.5580  0.0588 -0.0770
  738MPD2    H710915   4.593   1.685  14.975  1.3673  0.6167 -0.1503
  739TMC3    C110916   0.371   2.005  14.810 -0.0755  0.1019  0.9767
  739TMC3    C210917   0.406   2.016  14.679 -0.0351  0.2184  0.7310
  739TMC3    C310918   0.540   2.041  14.644  0.0741 -0.0229  0.3704
  739TMC3    C410919   0.469   2.020  14.909  0.6665 -0.2525 -0.2909
  739TMC3    C510920   0.600   2.048  14.876 -0.4169  0.0988 -0.0252
  739TMC3    C610921   0.633   2.056  14.741  1.4426  0.0063  0.3825
  739TMC3     C10922   0.235   1.978  14.832  0.0304  0.3452 -0.6426
  739TMC3     O10923   0.157   1.935  14.746  0.6337  0.3469 -0.0185
  739TMC3     H10924   0.332   1.993  14.602  0.4371 -2.3079  1.0385
  739TMC3    H110925   0.435   2.017  15.012  2.0019  1.2731  0.1863
  739TMC3    H210926   0.732   2.094  14.716  1.8835  0.2378  2.4650
  739TMC3    C710927   0.697   2.029  14.984 -0.9462 -0.5964  0.1983
  739TMC3    C810928   0.569   2.055  14.503  0.4323 -0.3931  0.3386
  739TMC3    O110929   0.652   1.987  15.092  0.1924  0.0062 -0.0438
  739TMC3    O210930   0.471   2.071  14.433 -0.1557  0.0438  0.3447
  740TMC3    C110931   0.773   3.341  14.176  0.3626 -0.0904  0.0413
  740TMC3    C210932   0.816   3.341  14.305  0.2575 -0.3589  0.5663
  740TMC3    C310933   0.952   3.328  14.328 -0.5490 -0.0906  0.6261
  740TMC3    C410934   0.859   3.333  14.075 -0.8707  0.3989  0.5505
  740TMC3    C510935   0.997   3.319  14.103 -0.0420 -0.1140 -0.2155
  740TMC3    C610936   1.049   3.311  14.231  0.2031  0.3049 -0.2381
  740TMC3     C10937   0.634   3.356  14.145 -0.2255 -0.7114 -0.1389
  740TMC3     O10938   0.607   3.400  14.034 -0.1814 -0.1273  0.0377
  740TMC3     H10939   0.741   3.348  14.383 -1.1131 -1.0332 -0.6938
  740TMC3    H110940   0.824   3.320  13.973  1.3962  0.4455 -0.2359
  740TMC3    H210941   1.152   3.303  14.263  0.1983  1.8402  0.1443
  740TMC3    C710942   1.092   3.285  14.000  0.1612  0.5111 -0.3033
  740TMC3    C810943   1.004   3.361  14.459  0.2571 -0.0225 -0.7567
  740TMC3    O110944   1.184   3.208  14.034 -0.5996 -0.1778  0.2455
  740TMC3    O210945   1.124   3.386  14.464 -0.0805 -0.2634 -0.5593
  741TMC3    C110946   0.460   2.614  14.129  0.1410 -0.7836 -0.1764
  741TMC3    C210947   0.356   2.537  14.177 -0.0235  0.2380 -0.1522
  741TMC3    C310948   0.384   2.455  14.282  0.2843 -0.4358  0.5299
  741TMC3    C410949   0.581   2.616  14.193 -0.0483 -0.3938 -0.2971
  741TMC3    C510950   0.605   2.521  14.288  0.1179 -0.3704 -0.8623
  741TMC3    C610951   0.506   2.441  14.340 -0.1495 -0.2187  0.8562
  741TMC3     C10952   0.455   2.656  13.987  0.2018 -0.2731  0.0168
  741TMC3     O10953   0.559   2.650  13.918  0.6504  0.5245 -0.9176
  741TMC3     H10954   0.254   2.545  14.141  0.6017  0.4985 -1.8410
  741TMC3    H110955   0.664   2.681  14.166  0.0966 -0.7733 -0.7749
  741TMC3    H210956   0.526   2.372  14.421  0.1842  0.8144  1.6572
  741TMC3    C710957   0.735   2.500  14.346  0.0057 -0.7968  0.5699
  741TMC3    C810958   0.264   2.399  14.340 -0.3287 -0.5880 -0.1316
  741TMC3    O110959   0.733   2.472  14.464 -0.3799 -0.1631  0.1665
  741TMC3    O210960   0.176   2.480  14.359  0.5985  0.2453 -0.6855
  742TMC3    C110961   0.274   0.883  16.053 -0.3940 -0.3893 -0.1115
  742TMC3    C210962   0.185   0.878  15.956  0.2570 -0.1443 -0.3394
  742TMC3    C310963   0.224   0.855  15.827  0.2741 -0.3619 -0.3294
  742TMC3    C410964   0.406   0.884  16.029  0.0829  0.3168  0.3809
  742TMC3    C510965   0.444   0.864  15.899  0.6405 -0.1771 -0.6940
  742TMC3    C610966   0.352   0.838  15.803  0.5465  0.3467 -0.2076
  742TMC3     C10967   0.236   0.908  16.188  0.2296  0.3338  0.2820
  742TMC3     O10968   0.325   0.918  16.269 -0.0097  0.6848  0.5377
  742TMC3     H10969   0.087   0.846  15.989  0.0440  0.7749 -0.0851
  742TMC3    H110970   0.474   0.907  16.110  3.3211 -1.9703 -1.7191
  742TMC3    H210971   0.381   0.803  15.705  0.3149  0.9025 -0.4661
  742TMC3    C710972   0.580   0.896  15.861  0.6005 -0.7334  0.3092
  742TMC3    C810973   0.134   0.803  15.726  0.5508 -0.3036 -0.0228
  742TMC3    O110974   0.630   0.990  15.921  0.6287 -0.3581  0.0447
  742TMC3    O210975   0.185   0.719  15.654 -0.2879 -0.1572  0.1167
  743MPD2     C10976   2.226   0.935   1.659  0.0843 -0.5757  0.5402
  743MPD2    C110977   2.331   1.013   1.627  0.3145  0.8083 -0.2239
  743MPD2    C210978   2.459   0.966   1.629 -0.2571  0.4144  0.5850
  743MPD2    C310979   2.487   0.833   1.669  0.0153  0.3457  0.1531
  743MPD2    C410980   2.377   0.750   1.694 -0.0619 -0.2897 -0.4278
  743MPD2    C510981   2.252   0.801   1.694 -0.8124 -0.0275 -0.0309
  743MPD2     H10982   2.536   1.039   1.610 -0.1590  0.4451  1.0999
  743MPD2    H110983   2.386   0.644   1.709 -0.8979 -0.1704  0.8706
  743MPD2    H210984   2.123   0.970   1.661 -0.0449 -0.9238  0.1020
  743MPD2    H310985   2.172   0.728   1.707 -0.4041 -0.2176  1.3435
  743MPD2     N10986   2.624   0.794   1.663  0.4462 -0.6565  1.1669
  743MPD2    H510987   2.690   0.869   1.646  2.3517 -3.0217 -1.9602
  743MPD2    N110988   2.318   1.150   1.596  0.1780  0.0333 -0.0715
  743MPD2    H710989   2.407   1.192   1.571 -0.7597  1.5245 -0.8994
  744TMC3    C110990   2.224   1.360   1.549 -0.5358  0.5961  1.3479
  744TMC3    C210991   2.162   1.467   1.603  0.5298  0.2332  0.0012
  744TMC3    C310992   2.156   1.577   1.518 -1.0468 -0.5974 -0.1069
  744TMC3    C410993   2.278   1.360   1.425 -0.5574 -0.5996  0.0471
  744TMC3    C510994   2.272   1.476   1.352  0.3411 -0.0220 -0.2002
  744TMC3    C610995   2.216   1.589   1.398  0.2252 -0.2321 -0.7197
  744TMC3     C10996   2.206   1.231   1.610  0.8856 -0.6007  0.3208
  744TMC3     O10997   2.100   1.212   1.666  0.1113 -0.2314 -0.1677
  744TMC3     H10998   2.104   1.458   1.694 -0.7755 -2.3017 -1.0936
  744TMC3    H110999   2.337   1.275   1.391  1.7888  0.1422  2.2521
  744TMC3    H211000   2.222   1.684   1.346  0.5015 -1.0303 -2.1536
  744TMC3    C711001   2.340   1.483   1.224  0.3542 -0.2648  0.3276
  744TMC3    C811002   2.084   1.698   1.560 -0.2310 -0.5310 -0.0542
  744TMC3    O111003   2.410   1.584   1.212 -0.1132  0.2312  0.4643
  744TMC3    O211004   2.038   1.775   1.476 -0.0139  0.4839 -0.5415
  745TMC3    C111005   0.878   0.510  13.740  0.0001 -0.1676  0.2989
  745TMC3    C211006   0.756   0.494  13.797  0.6016  0.9902  0.6283
  745TMC3    C311007   0.637   0.516  13.731 -0.4235  0.2676 -0.6268
  745TMC3    C411008   0.879   0.572  13.615 -0.3713  0.1987  0.2626
  745TMC3    C511009   0.760   0.613  13.557 -0.3465 -0.2001  0.3416
  745TMC3    C611010   0.636   0.574  13.607 -0.0368 -0.2777  0.2071
  745TMC3     C11011   0.982   0.535  13.832 -0.7004 -0.3420  0.8788
  745TMC3     O11012   0.942   0.584  13.934 -1.2551  0.1369 -0.3860
  745TMC3     H11013   0.750   0.457  13.899  0.2401 -0.3463  0.1180
  745TMC3    H111014   0.973   0.588  13.563 -1.4302  2.4151 -0.9774
  745TMC3    H211015   0.545   0.593  13.550  0.0016  1.0514  0.5855
  745TMC3    C711016   0.758   0.749  13.499  0.5834 -0.1268  0.4177
  745TMC3    C811017   0.541   0.581  13.814 -0.2005  0.3260  0.5020
  745TMC3    O111018   0.651   0.796  13.479  0.2211 -0.8988 -0.6021
  745TMC3    O211019   0.428   0.610  13.776  0.4118  0.3242  0.5085
  746TMC3    C111020   2.998   2.849  10.831  0.3303  0.0070  1.3937
  746TMC3    C211021   3.066   2.835  10.714  0.8368 -0.1927 -0.1177
  746TMC3    C311022   2.997   2.761  10.619 -0.9818  0.2301  0.2447
  746TMC3    C411023   2.871   2.795  10.848  0.0405  0.2245 -0.2426
  746TMC3    C511024   2.830   2.702  10.762  0.5885 -0.1783 -0.3474
  746TMC3    C611025   2.891   2.686  10.647  0.2657 -0.5784  0.0991
  746TMC3     C11026   3.037   2.943  10.928 -0.1150  0.6816  0.2801
  746TMC3     O11027   2.949   2.994  11.001 -0.1733 -0.6943  0.2578
  746TMC3     H11028   3.158   2.892  10.701  0.4932 -0.3003 -3.0081
  746TMC3    H111029   2.833   2.801  10.949  0.1298 -2.2488 -0.0607
  746TMC3    H211030   2.839   2.625  10.573 -0.8648  0.6861 -0.1445
  746TMC3    C711031   2.691   2.656  10.768 -1.0372  0.0874 -0.9475
  746TMC3    C811032   3.067   2.739  10.498  0.3608  0.7136  0.6163
  746TMC3    O111033   2.632   2.630  10.664 -0.0415 -0.2123 -0.0990
  746TMC3    O211034   3.050   2.631  10.437 -0.5162  0.0208  0.7143
  747TMC3    C111035   0.483   2.325  10.985 -0.0712  0.5231 -0.2411
  747TMC3    C211036   0.431   2.329  11.113  0.0142 -0.6984  0.0225
  747TMC3    C311037   0.514   2.306  11.218 -0.3896  0.1854 -0.0366
  747TMC3    C411038   0.609   2.301  10.962  0.0758  0.6933  0.1529
  747TMC3    C511039   0.694   2.293  11.070  0.4389  0.3795 -0.2175
  747TMC3    C611040   0.649   2.294  11.198  0.5064 -0.3251 -0.1316
  747TMC3     C11041   0.382   2.302  10.875  0.5138 -0.2350  0.9204
  747TMC3     O11042   0.266   2.339  10.898 -0.2393 -0.5594 -0.3680
  747TMC3     H11043   0.323   2.332  11.125  0.1994  0.9674  1.3370
  747TMC3    H111044   0.647   2.331  10.865 -0.2332 -0.6731 -0.3826
  747TMC3    H211045   0.713   2.267  11.281 -2.1256 -1.0415  1.6832
  747TMC3    C711046   0.821   2.355  11.049  0.6258 -0.3327 -0.6986
  747TMC3    C811047   0.466   2.268  11.344  0.3682 -0.3775 -0.4341
  747TMC3    O111048   0.819   2.460  10.984 -0.1166  0.0547  0.3066
  747TMC3    O211049   0.513   2.168  11.396 -0.2675  0.2008 -0.3573
  748MPD2     C11050   1.821   2.771   1.477  0.4092  0.0631 -0.6222
  748MPD2    C111051   1.901   2.787   1.587 -0.1554 -0.1945 -0.7853
  748MPD2    C211052   2.022   2.858   1.572 -0.5553 -0.4715 -0.8552
  748MPD2    C311053   2.064   2.912   1.453  0.6041 -0.0767  0.1333
  748MPD2    C411054   1.980   2.892   1.339  0.2717 -0.1757  0.5420
  748MPD2    C511055   1.864   2.820   1.354 -0.1411  0.0766 -0.8219
  748MPD2     H11056   2.093   2.873   1.653 -2.1102 -0.6846  0.5541
  748MPD2    H111057   2.016   2.921   1.240 -0.7073 -0.0669  0.2237
  748MPD2    H211058   1.724   2.723   1.482  0.6424 -0.3343  0.0945
  748MPD2    H311059   1.798   2.806   1.269 -1.9678 -0.4948  0.6971
  748MPD2     N11060   2.187   2.988   1.446 -0.1460  0.3204 -0.2006
  748MPD2    H511061   2.239   2.998   1.532  0.1539  1.6080 -0.5350
  748MPD2    N111062   1.867   2.714   1.706 -0.3135  0.5195  0.5680
  748MPD2    H711063   1.777   2.667   1.702  0.7981 -1.4751 -1.1135
  749TMC3    C111064   2.348   3.124   1.367  0.5430  1.0051 -0.0663
  749TMC3    C211065   2.431   3.087   1.464  0.4584 -0.7154  0.3401
  749TMC3    C311066   2.524   3.180   1.506  0.4354  0.0976  0.6245
  749TMC3    C411067   2.358   3.243   1.295  0.3483 -0.2611 -0.4233
  749TMC3    C511068   2.444   3.339   1.350 -0.1240 -0.3006  0.5514
  749TMC3    C611069   2.525   3.308   1.457 -0.0563  0.1692 -0.3599
  749TMC3     C11070   2.231   3.050   1.338 -0.4934  0.2890 -0.5497
  749TMC3     O11071   2.183   3.061   1.225  0.1368  0.4017  0.4741
  749TMC3     H11072   2.423   2.995   1.521  0.1954 -1.6257 -1.1660
  749TMC3    H111073   2.285   3.274   1.222  0.3452 -0.3098 -0.4413
  749TMC3    H211074   2.597   3.375   1.501  1.6124 -0.8252 -1.5597
  749TMC3    C711075   2.479   3.464   1.292  0.2475  0.5712 -0.1294
  749TMC3    C811076   2.628   3.155   1.606 -0.1621  0.7102  0.0136
  749TMC3    O111077   2.598   3.494   1.314 -0.1027 -0.8694 -0.2077
  749TMC3    O211078   2.654   3.242   1.687  0.3149  0.6415 -0.4270
  750MPD2     C11079   3.900   4.631  11.714  0.0766 -1.1153 -0.0827
  750MPD2    C111080   3.776   4.597  11.737 -0.5504 -0.8783 -0.0966
  750MPD2    C211081   3.726   4.471  11.708 -0.0923  0.3507 -0.4069
  750MPD2    C311082   3.814   4.379  11.660  0.8343  0.1687 -0.7701
  750MPD2    C411083   3.940   4.420  11.629 -0.2575 -0.3724 -0.4280
  750MPD2    C511084   3.987   4.541  11.669  0.7632  0.0476 -0.0373
  750MPD2     H11085   3.622   4.446  11.727  0.3642  0.7150  2.4178
  750MPD2    H111086   4.007   4.349  11.582  0.9459 -0.6401  1.6996
  750MPD2    H211087   3.936   0.006  11.738  2.5977 -1.3304 -3.1140
  750MPD2    H311088   4.083   4.584  11.645 -1.2801  3.9025 -1.3435
  750MPD2     N11089   3.781   4.248  11.628  0.1415  0.3562  0.2301
  750MPD2    H511090   3.842   4.188  11.573 -1.2156 -1.3574  0.5791
  750MPD2    N111091   3.691   4.711  11.764 -0.2594  0.1333  0.8255
  750MPD2    H711092   3.738   0.076  11.769 -0.3015  0.2069 -0.1653
  751TMC3    C111093   3.635   4.060  11.607 -0.1642 -0.2030 -0.0030
  751TMC3    C211094   3.516   3.999  11.642 -0.2995 -0.0149  0.3061
  751TMC3    C311095   3.486   3.883  11.579 -0.2596  0.2794  0.1412
  751TMC3    C411096   3.710   4.003  11.517 -0.7345 -0.3405  0.0784
  751TMC3    C511097   3.682   3.881  11.451  0.0902  0.0055  0.0028
  751TMC3    C611098   3.564   3.822  11.482  1.0445 -0.1348 -0.0181
  751TMC3     C11099   3.666   4.191  11.672  0.0266  0.3207 -0.4044
  751TMC3     O11100   3.589   4.230  11.761 -0.5537  0.1994 -0.0946
  751TMC3     H11101   3.445   4.048  11.707 -0.5233  0.8706 -0.6069
  751TMC3    H111102   3.800   4.051  11.481  0.1462  0.2260  3.0407
  751TMC3    H211103   3.551   3.718  11.454  3.5767 -0.4956  0.1592
  751TMC3    C711104   3.768   3.831  11.353  0.3108  0.1507 -0.2201
  751TMC3    C811105   3.343   3.856  11.558 -0.2163  0.5008 -0.2414
  751TMC3    O111106   3.852   3.905  11.307  0.0436  0.4014 -0.2265
  751TMC3    O211107   3.305   3.829  11.447  0.1073  0.4185  0.1728
  752TMC3    C111108   1.786   3.909  16.307  0.2277 -0.4758  0.1755
  752TMC3    C211109   1.740   3.919  16.436  0.0333  0.3733  0.1395
  752TMC3    C311110   1.808   3.993  16.523  0.1315  0.2928  0.4207
  752TMC3    C411111   1.899   3.979  16.267 -0.0634  0.3898  0.7931
  752TMC3    C511112   1.957   4.066  16.356 -0.0557 -0.1993  0.3898
  752TMC3    C611113   1.915   4.075  16.489 -0.4328 -0.1579 -0.3810
  752TMC3     C11114   1.673   3.913  16.213  0.0605  0.4350 -0.4858
  752TMC3     O11115   1.713   3.892  16.098  0.4880 -0.0501  0.0340
  752TMC3     H11116   1.650   3.863  16.459  0.3182 -1.6930 -3.9152
  752TMC3    H111117   1.922   3.985  16.161  2.3315  2.1987  1.4256
  752TMC3    H211118   1.960   4.148  16.555  0.7528 -2.7561  1.6547
  752TMC3    C711119   2.062   4.156  16.310 -0.6784  0.8150  0.3077
  752TMC3    C811120   1.735   4.055  16.628 -0.1675  0.9173  0.8085
  752TMC3    O111121   2.085   4.254  16.374 -0.0227 -0.1137 -0.4442
  752TMC3    O211122   1.625   4.099  16.591  0.7246  0.1290 -0.4408
  753TMC3    C111123   3.463   0.752  13.283 -0.0757 -0.7299  0.6179
  753TMC3    C211124   3.551   0.731  13.385  0.7062  0.3792 -0.7464
  753TMC3    C311125   3.513   0.627  13.465  0.0041 -0.0865 -0.1436
  753TMC3    C411126   3.346   0.684  13.264 -0.3836 -0.2217 -0.5855
  753TMC3    C511127   3.321   0.577  13.338 -0.3538  0.3593 -0.1474
  753TMC3    C611128   3.410   0.547  13.437 -0.6803  0.2307 -0.2866
  753TMC3     C11129   3.482   0.869  13.199 -0.0262 -0.5374  0.2085
  753TMC3     O11130   3.391   0.885  13.121 -0.6195 -0.2533  0.1726
  753TMC3     H11131   3.637   0.796  13.395  0.1370  1.4735 -3.0526
  753TMC3    H111132   3.268   0.721  13.198 -0.6157 -0.9905 -0.7417
  753TMC3    H211133   3.382   0.478  13.516  0.7155 -0.6596 -0.5793
  753TMC3    C711134   3.214   0.486  13.305 -0.5387 -0.1529  0.9784
  753TMC3    C811135   3.595   0.601  13.578  0.0258  0.3449  0.4124
  753TMC3    O111136   3.129   0.537  13.230 -0.6295 -0.4215  0.2466
  753TMC3    O211137   3.579   0.494  13.634  0.1643 -0.1722 -0.3559
  754MPD2     C11138   2.332   4.088  12.954 -0.2948 -0.4481 -0.2713
  754MPD2    C111139   2.227   4.101  13.030 -0.1924  0.1017 -0.4378
  754MPD2    C211140   2.125   4.181  12.974  0.6714 -0.1942 -0.1049
  754MPD2    C311141   2.129   4.238  12.851  0.2345 -0.6876 -0.3465
  754MPD2    C411142   2.237   4.204  12.774 -0.3103  0.0914  0.2921
  754MPD2    C511143   2.338   4.129  12.823  0.1013 -0.0694  0.0027
  754MPD2     H11144   2.049   4.208  13.047  1.6288  1.3532  0.3269
  754MPD2    H111145   2.241   4.244  12.673  0.8681 -2.9346 -0.8488
  754MPD2    H211146   2.408   4.019  12.990  1.3890  1.8116  0.5345
  754MPD2    H311147   2.427   4.092  12.774  0.4730  1.5456 -0.5563
  754MPD2     N11148   2.038   4.329  12.800  0.3373  0.0946  0.3600
  754MPD2    H511149   2.070   4.383  12.720  0.2484  1.8911  1.5298
  754MPD2    N111150   2.222   4.044  13.163 -0.1857  0.3359  0.3025
  754MPD2    H711151   2.306   3.997  13.197  1.3422  1.6499 -1.6548
  755MPD2     C11152   1.865   0.085  13.567 -0.8434 -0.1848 -0.1704
  755MPD2    C111153   1.900   4.679  13.589  0.3989  0.1371  0.3965
  755MPD2    C211154   1.859   4.582  13.494  0.1493  0.2508 -0.7285
  755MPD2    C311155   1.776   4.624  13.392 -0.1028  0.1226 -0.0748
  755MPD2    C411156   1.737   0.034  13.374 -0.0113  0.4897 -0.3532
  755MPD2    C511157   1.779   0.122  13.461 -0.4751 -0.5995 -0.2974
  755MPD2     H11158   1.899   4.481  13.495 -1.5265 -0.4007  0.3306
  755MPD2    H111159   1.685   0.078  13.290  0.3882 -1.1722 -1.4676
  755MPD2    H211160   1.889   0.158  13.643 -0.4954 -0.2174 -0.2458
  755MPD2    H311161   1.752   0.226  13.447  0.8144 -0.3825 -1.1092
  755MPD2     N11162   1.730   4.536  13.287 -0.0063  0.1166  0.3413
  755MPD2    H511163   1.676   4.577  13.212  0.1900  3.0211  1.7982
  755MPD2    N111164   1.975   4.636  13.703  0.8279  0.3325  0.3774
  755MPD2    H711165   1.976   4.537  13.727 -0.4621  0.6869  1.9321
  756MPD2     C11166   3.851   4.076   9.946  0.0418  0.0491  0.5328
  756MPD2    C111167   3.724   4.068   9.999  0.3793 -0.1202 -0.3644
  756MPD2    C211168   3.621   4.045   9.913  0.6671  0.2435 -0.2793
  756MPD2    C311169   3.640   4.009   9.780  0.1940 -0.2908 -0.2586
  756MPD2    C411170   3.766   4.020   9.730  0.2333 -0.0329 -0.0463
  756MPD2    C511171   3.873   4.048   9.815  0.0105  0.1226 -0.6292
  756MPD2     H11172   3.519   4.031   9.947  1.1580 -0.5061  0.9000
  756MPD2    H111173   3.791   4.011   9.625 -0.1713  3.1312 -0.4189
  756MPD2    H211174   3.934   4.112  10.006  0.9425 -0.8373 -0.1916
  756MPD2    H311175   3.968   4.041   9.763 -0.1948  1.6781 -1.1960
  756MPD2     N11176   3.531   3.950   9.706 -0.1645  0.5933 -0.1590
  756MPD2    H511177   3.440   3.957   9.751  0.5251  2.1064  1.0030
  756MPD2    N111178   3.688   4.098  10.131 -0.3046 -0.8782 -0.7311
  756MPD2    H711179   3.590   4.107  10.158 -0.2516  3.7994 -2.0755
  757MPD2     C11180   3.017   3.040   9.521 -0.4377 -0.3975  0.1288
  757MPD2    C111181   2.947   3.157   9.506 -0.3741  0.4146 -0.1049
  757MPD2    C211182   3.016   3.278   9.515 -0.2302  0.1276 -0.6496
  757MPD2    C311183   3.152   3.284   9.527  0.2246 -0.2117  0.0836
  757MPD2    C411184   3.220   3.170   9.538 -0.1522 -0.1380 -0.3210
  757MPD2    C511185   3.150   3.053   9.536 -0.5790 -0.3575 -0.7021
  757MPD2     H11186   2.957   3.366   9.538  0.8602  0.7623 -0.3037
  757MPD2    H111187   3.328   3.176   9.548 -0.2923  1.9324  0.0921
  757MPD2    H211188   2.974   2.942   9.535 -2.1351 -0.0317 -2.5680
  757MPD2    H311189   3.205   2.970   9.577 -1.4246 -0.2202  0.7001
  757MPD2     N11190   3.207   3.411   9.547  0.3042 -0.0003 -0.2064
  757MPD2    H511191   3.140   3.486   9.557 -0.2520 -0.4215 -0.7754
  757MPD2    N111192   2.804   3.147   9.492  0.2241  0.6573 -0.1487
  757MPD2    H711193   2.751   3.061   9.506 -0.9027  1.0102 -2.3611
  758MPD2     C11194   2.677   3.615  15.940  0.1371  0.7617 -0.4379
  758MPD2    C111195   2.730   3.510  16.006 -0.0964 -0.4966  0.0471
  758MPD2    C211196   2.688   3.483  16.136 -0.2560 -0.2976 -0.0337
  758MPD2    C311197   2.602   3.570  16.201  0.1170  0.6285  0.3749
  758MPD2    C411198   2.551   3.677  16.134  0.1048 -0.6215 -0.8103
  758MPD2    C511199   2.582   3.686  15.999  0.1634 -0.1632  0.7351
  758MPD2     H11200   2.713   3.395  16.194  0.8999 -0.2863 -0.5155
  758MPD2    H111201   2.481   3.746  16.179 -1.2914 -0.1919 -3.6343
  758MPD2    H211202   2.694   3.638  15.835 -2.6078  3.0621 -0.3821
  758MPD2    H311203   2.532   3.763  15.941 -0.5541  1.0248  2.9337
  758MPD2     N11204   2.558   3.559  16.332  0.2936  0.1977  0.1541
  758MPD2    H511205   2.507   3.641  16.361 -0.4703 -0.0379 -0.5239
  758MPD2    N111206   2.823   3.434  15.941  0.8993  0.3275  0.2284
  758MPD2    H711207   2.865   3.472  15.857 -1.7576 -0.0862 -1.2928
  759MPD2     C11208   0.978   1.302   9.993  0.8025 -0.1362 -0.0001
  759MPD2    C111209   1.085   1.345  10.075  0.0697  0.3889 -0.0251
  759MPD2    C211210   1.213   1.300  10.048  0.1875  0.2651 -0.3906
  759MPD2    C311211   1.242   1.205   9.954  0.1129 -0.0943  0.3616
  759MPD2    C411212   1.136   1.160   9.875  0.0127  0.9258  0.3042
  759MPD2    C511213   1.009   1.201   9.905 -0.3630 -0.7674 -0.1736
  759MPD2     H11214   1.294   1.340  10.107 -0.7071 -0.2106  1.1482
  759MPD2    H111215   1.145   1.090   9.792  2.2603  0.3178  1.0776
  759MPD2    H211216   0.873   1.325  10.004  0.5887  0.5040 -3.5129
  759MPD2    H311217   0.932   1.168   9.836 -0.7247 -0.4909  0.1034
  759MPD2     N11218   1.379   1.179   9.930 -0.3393 -0.7403 -0.2422
  759MPD2    H511219   1.449   1.233   9.978 -2.1078  1.4490 -0.1239
  759MPD2    N111220   1.058   1.444  10.167  0.4604 -0.2964 -0.2848
  759MPD2    H711221   0.959   1.461  10.180  0.8163  1.2429  0.4836
  760MPD2     C11222   1.398   4.348  12.105 -0.1127 -0.4777  0.8343
  760MPD2    C111223   1.513   4.398  12.040 -0.2733  0.5819 -0.3977
  760MPD2    C211224   1.601   4.314  11.969  0.5536  0.1085  0.2551
  760MPD2    C311225   1.582   4.176  11.979  0.0065  0.6312 -0.0165
  760MPD2    C411226   1.468   4.133  12.036  0.2200 -0.6139  0.4214
  760MPD2    C511227   1.384   4.218  12.109 -0.4502  0.1641 -0.0747
  760MPD2     H11228   1.696   4.351  11.933  1.7204  0.2915  3.4814
  760MPD2    H111229   1.448   4.027  12.038 -2.4009 -0.1705 -2.8893
  760MPD2    H211230   1.332   4.421  12.150 -1.2563 -0.6946 -0.4976
  760MPD2    H311231   1.299   4.174  12.161 -0.9277  0.5226 -0.5539
  760MPD2     N11232   1.672   4.086  11.914  1.0479 -0.0796  0.0451
  760MPD2    H511233   1.633   3.992  11.905  0.9028  0.1847 -2.1772
  760MPD2    N111234   1.557   4.533  12.034  0.3781 -0.2083 -0.1536
  760MPD2    H711235   1.640   4.557  11.981  0.4176  2.0705  0.9627
  761MPD2     C11236   2.856   3.786  11.707  0.0602 -0.2730  0.6926
  761MPD2    C111237   2.923   3.739  11.591 -0.6722 -0.1983  0.3394
  761MPD2    C211238   3.059   3.764  11.586  0.3368  0.6686 -0.2264
  761MPD2    C311239   3.132   3.839  11.680  0.3372  0.5579  0.3116
  761MPD2    C411240   3.061   3.881  11.792 -0.1282 -0.0854 -0.3196
  761MPD2    C511241   2.928   3.857  11.801  0.1061  0.1691  0.5318
  761MPD2     H11242   3.104   3.734  11.492 -0.4426 -0.2441 -0.3022
  761MPD2    H111243   3.103   3.938  11.873  0.0537  0.1163 -0.5582
  761MPD2    H211244   2.752   3.764  11.725 -0.5044  2.0082  0.1695
  761MPD2    H311245   2.881   3.882  11.895 -0.7921  0.7968 -0.0880
  761MPD2     N11246   3.265   3.880  11.670 -0.6589  0.3950 -0.2004
  761MPD2    H511247   3.305   3.910  11.758  1.2493  1.3475 -1.3745
  761MPD2    N111248   2.845   3.685  11.482  1.1569  0.2983 -0.1567
  761MPD2    H711249   2.749   3.661  11.504  1.3867  1.3465  2.0058
  762MPD2     C11250   3.324   3.569  11.094 -0.5668 -0.3409 -0.5532
  762MPD2    C111251   3.232   3.572  10.992 -0.4458  0.1699  0.0129
  762MPD2    C211252   3.273   3.550  10.856  0.1715 -0.3122 -0.7134
  762MPD2    C311253   3.412   3.555  10.835  0.3188 -0.9787  0.5400
  762MPD2    C411254   3.505   3.551  10.943 -0.2076 -0.3183 -0.9798
  762MPD2    C511255   3.460   3.550  11.068 -0.7149 -0.2008  0.6341
  762MPD2     H11256   3.210   3.530  10.769 -0.6300  1.9441 -0.6360
  762MPD2    H111257   3.613   3.545  10.932 -0.1769  0.2921 -1.0673
  762MPD2    H211258   3.291   3.580  11.197  0.7387  1.1396 -0.2971
  762MPD2    H311259   3.530   3.554  11.151  1.8156 -1.9887 -1.3857
  762MPD2     N11260   3.456   3.544  10.702 -0.0991 -0.4593  0.7720
  762MPD2    H511261   3.382   3.546  10.633  1.6441  0.0881 -1.0982
  762MPD2    N111262   3.094   3.561  11.043 -0.1518 -0.4531  0.2128
  762MPD2    H711263   3.073   3.574  11.141 -0.7840  3.7272 -0.4877
  763MPD2     C11264   4.190   3.772  16.258  0.0383 -0.2205 -0.5647
  763MPD2    C111265   4.326   3.780  16.228  0.0470 -0.1685  0.2094
  763MPD2    C211266   4.413   3.824  16.334  0.1749 -0.0028  0.0816
  763MPD2    C311267   4.360   3.874  16.450 -0.3361  0.4065 -0.2981
  763MPD2    C411268   4.222   3.877  16.458  0.8406  0.5749  0.5348
  763MPD2    C511269   4.139   3.817  16.370 -0.0478 -0.0284  0.2797
  763MPD2     H11270   4.515   3.825  16.299 -0.2999  1.1931 -1.2498
  763MPD2    H111271   4.174   3.921  16.545  1.2037 -1.9393  2.0069
  763MPD2    H211272   4.121   3.734  16.184  1.0012  0.4390 -1.8071
  763MPD2    H311273   4.030   3.812  16.373 -0.0443 -0.1203  0.2513
  763MPD2     N11274   4.446   3.921  16.560  0.0188  0.0354 -0.3459
  763MPD2    H511275   4.547   3.911  16.555  0.2277  1.2015  1.6874
  763MPD2    N111276   4.381   3.755  16.100 -0.0442 -0.7855 -0.2071
  763MPD2    H711277   4.482   3.752  16.088  0.1175 -0.4607  1.0859
  764MPD2     C11278   3.222   0.511  17.624 -0.3081  0.0537  0.5539
  764MPD2    C111279   3.152   0.413  17.554  0.2684 -0.5382  0.1612
  764MPD2    C211280   3.064   0.332  17.623  0.1297  0.7382 -1.1414
  764MPD2    C311281   3.069   0.321   0.056 -0.5705  0.3918 -0.5214
  764MPD2    C411282   3.142   0.414   0.130 -0.2290  0.5132 -0.2665
  764MPD2    C511283   3.216   0.508   0.064 -0.0226 -0.3934 -0.6783
  764MPD2     H11284   2.998   0.267  17.567  1.4590 -3.1830  1.8851
  764MPD2    H111285   3.145   0.408   0.238  1.0558 -0.3056 -0.3518
  764MPD2    H211286   3.302   0.566  17.576  0.0404  0.3867  1.5175
  764MPD2    H311287   3.274   0.582   0.119 -2.9936  0.5742  1.1285
  764MPD2     N11288   3.004   0.208   0.113 -0.2557 -0.1740  0.4868
  764MPD2    H511289   2.956   0.149   0.046  1.3398 -2.0872  1.0383
  764MPD2    N111290   3.151   0.410  17.412 -0.0685 -0.7792 -0.4004
  764MPD2    H711291   3.073   0.360  17.370 -1.5125  1.7900 -0.7750
  765MPD2     C11292   1.893   2.820  15.958  0.0490 -0.1181 -0.8065
  765MPD2    C111293   2.000   2.910  15.962 -0.3470 -0.4412  0.3463
  765MPD2    C211294   2.122   2.858  15.930  0.0822 -0.7092  0.4547
  765MPD2    C311295   2.142   2.732  15.884  0.0544 -0.5138 -0.1428
  765MPD2    C411296   2.033   2.641  15.883  0.4635 -0.5120 -0.1984
  765MPD2    C511297   1.912   2.687  15.923  0.4439  0.0876 -0.2848
  765MPD2     H11298   2.203   2.929  15.920 -2.4370  2.1105 -0.1211
  765MPD2    H111299   2.039   2.537  15.854  0.7826  0.1545 -2.5813
  765MPD2    H211300   1.793   2.849  15.989  0.3272 -0.9768  0.8692
  765MPD2    H311301   1.830   2.617  15.936  1.0083 -0.5173 -0.0094
  765MPD2     N11302   2.270   2.702  15.841  0.0269  0.4158 -0.5154
  765MPD2    H511303   2.336   2.778  15.832  1.2942 -0.5240  0.9357
  765MPD2    N111304   1.966   3.049  15.985  0.4791  0.0289 -0.1075
  765MPD2    H711305   1.870   3.083  15.994  0.6516 -0.0953  2.3563
  766MPD2     C11306   1.544   3.043  15.503 -0.2255  0.4094 -0.0201
  766MPD2    C111307   1.653   3.131  15.516 -0.6186 -0.1048  0.8421
  766MPD2    C211308   1.752   3.130  15.428 -1.0199  0.3839  0.3977
  766MPD2    C311309   1.744   3.045  15.314 -0.5703  0.0617 -0.8091
  766MPD2    C411310   1.638   2.966  15.291  0.0499 -0.3839  0.2927
  766MPD2    C511311   1.547   2.959  15.396 -0.1358 -0.4807  0.4176
  766MPD2     H11312   1.831   3.203  15.443 -0.4840  0.3783 -2.3900
  766MPD2    H111313   1.631   2.902  15.204 -0.6177  0.8543 -0.5646
  766MPD2    H211314   1.465   3.035  15.576  0.0488 -1.9342  0.0072
  766MPD2    H311315   1.461   2.893  15.389  1.0174 -2.0146  0.7617
  766MPD2     N11316   1.850   3.025  15.229 -0.0688 -0.0514 -0.2589
  766MPD2    H511317   1.839   2.992  15.133 -0.8139  0.2541 -0.2801
  766MPD2    N111318   1.663   3.208  15.638  0.7683 -0.0447  0.4580
  766MPD2    H711319   1.603   3.191  15.719  0.8293 -0.5554  0.3941
  767MPD2     C11320   1.578   3.368  15.260 -0.3213 -0.2885 -0.0578
  767MPD2    C111321   1.701   3.381  15.201 -0.4404 -0.4997  0.2584
  767MPD2    C211322   1.721   3.369  15.063 -0.0840 -0.0112  0.5569
  767MPD2    C311323   1.613   3.342  14.984 -0.5000 -0.3092  0.4307
  767MPD2    C411324   1.491   3.316  15.042  0.6778  0.0785 -0.0847
  767MPD2    C511325   1.475   3.326  15.174  0.3164 -0.0652  0.0741
  767MPD2     H11326   1.818   3.382  15.016 -0.3835  0.5804  0.1082
  767MPD2    H111327   1.407   3.266  14.995 -1.1808  3.0359  0.0546
  767MPD2    H211328   1.568   3.385  15.366 -2.2679  1.1001 -0.4752
  767MPD2    H311329   1.382   3.322  15.230  0.4765  1.0844  0.4320
  767MPD2     N11330   1.641   3.317  14.850  0.0438 -0.3539 -0.0593
  767MPD2    H511331   1.736   3.309  14.815  0.1354 -2.2884  0.6194
  767MPD2    N111332   1.802   3.418  15.292 -0.0227 -0.5842  0.7837
  767MPD2    H711333   1.779   3.413  15.391 -0.3818 -0.0167  0.7305
  768MPD2     C11334   2.472   2.333  10.428  0.5587  0.4848 -0.5817
  768MPD2    C111335   2.402   2.333  10.548  0.0031 -0.6167  0.7276
  768MPD2    C211336   2.468   2.298  10.667 -0.1115 -0.1198  0.1743
  768MPD2    C311337   2.604   2.267  10.673  0.4916 -0.1116 -0.1940
  768MPD2    C411338   2.674   2.275  10.551  0.2095  0.7247 -0.7906
  768MPD2    C511339   2.610   2.315  10.435  0.3311  0.0978  0.1770
  768MPD2     H11340   2.416   2.308  10.762  0.0893 -1.5828  0.4447
  768MPD2    H111341   2.781   2.257  10.549  0.1956  0.6348 -0.7303
  768MPD2    H211342   2.435   2.362  10.330 -1.2167 -2.7980 -0.8807
  768MPD2    H311343   2.672   2.324  10.346  0.4132  2.7981  0.5077
  768MPD2     N11344   2.672   2.240  10.792 -0.2392 -0.1779  0.1690
  768MPD2    H511345   2.773   2.249  10.783 -0.3763  1.4388  0.3048
  768MPD2    N111346   2.260   2.355  10.562 -0.4442 -0.4561  0.5964
  768MPD2    H711347   2.216   2.339  10.651 -0.4462 -2.2471  0.2763
  769MPD2     C11348   3.434   4.423  15.100 -0.2693 -0.0655 -0.0915
  769MPD2    C111349   3.409   4.558  15.099  0.0379  0.1664  0.9871
  769MPD2    C211350   3.433   4.622  15.219  0.1905  0.4293  0.1231
  769MPD2    C311351   3.476   4.558  15.332 -0.1274  0.3931 -0.0713
  769MPD2    C411352   3.487   4.418  15.327 -0.0062 -0.7291 -0.0721
  769MPD2    C511353   3.465   4.353  15.208 -0.0018 -0.2492 -0.2095
  769MPD2     H11354   3.444   0.005  15.218 -1.8673  0.6285  0.0336
  769MPD2    H111355   3.525   4.365  15.413 -1.8240  0.2534  1.3236
  769MPD2    H211356   3.413   4.365  15.011  0.9686 -0.6650  0.0142
  769MPD2    H311357   3.472   4.244  15.207 -1.5528 -0.3341 -1.7999
  769MPD2     N11358   3.499   4.637  15.444  0.5754 -0.1820 -0.6691
  769MPD2    H511359   3.473   0.008  15.426 -0.9360 -0.7772 -1.7129
  769MPD2    N111360   3.370   4.623  14.984  0.6558  0.1466  1.1785
  769MPD2    H711361   3.371   4.563  14.902 -0.9536  0.7926  0.6909
  770MPD2     C11362   2.737   4.197  15.021  0.4012 -0.5755 -0.1873
  770MPD2    C111363   2.874   4.186  15.006  0.1714  0.2366 -0.1359
  770MPD2    C211364   2.942   4.288  14.956 -0.2621  0.0331  0.2902
  770MPD2    C311365   2.877   4.410  14.919  0.2781  0.1066 -0.6881
  770MPD2    C411366   2.747   4.422  14.954 -0.2487 -0.1522  0.1207
  770MPD2    C511367   2.675   4.314  14.995 -0.1548  0.2257  0.6356
  770MPD2     H11368   3.048   4.276  14.934 -0.4798  1.0921 -1.4219
  770MPD2    H111369   2.691   4.510  14.923  1.4528  1.0146  0.3288
  770MPD2    H211370   2.680   4.119  15.070  0.3039 -0.3258  0.0996
  770MPD2    H311371   2.570   4.324  15.020 -0.0646  1.5181  0.4797
  770MPD2     N11372   2.948   4.512  14.852  0.3397  0.2094 -0.4817
  770MPD2    H511373   3.026   4.473  14.799  2.6500 -0.0146  3.0428
  770MPD2    N111374   2.921   4.060  15.029  0.0189  0.8029 -0.0866
  770MPD2    H711375   2.850   3.991  15.048 -0.1260  1.1542  0.6475
  771MPD2     C11376   3.891   2.906  13.567 -0.0807  0.1939 -0.1571
  771MPD2    C111377   3.902   3.010  13.482 -0.3522 -0.4542  0.5241
  771MPD2    C211378   3.864   2.999  13.350 -0.2354 -0.4509  0.3313
  771MPD2    C311379   3.813   2.886  13.295 -0.4269 -0.1618  0.1581
  771MPD2    C411380   3.780   2.788  13.379 -0.2571 -0.8627 -0.2950
  771MPD2    C511381   3.825   2.792  13.509 -0.2662 -1.2103  0.3460
  771MPD2     H11382   3.895   3.078  13.284 -0.2674 -0.5712  0.1729
  771MPD2    H111383   3.744   2.690  13.349 -1.6306 -1.3810  3.1339
  771MPD2    H211384   3.920   2.909  13.671 -1.7664  0.8421  0.2992
  771MPD2    H311385   3.800   2.698  13.557 -3.2597 -0.4283  0.2865
  771MPD2     N11386   3.777   2.902  13.161 -0.2772 -0.6455  0.1779
  771MPD2    H511387   3.785   2.992  13.116 -2.6053 -0.4793  0.1156
  771MPD2    N111388   3.952   3.138  13.522 -0.4888  0.2044  0.5517
  771MPD2    H711389   3.959   3.209  13.450 -0.5118  1.4778  1.8095
  772MPD2     C11390   3.700   3.854  13.765 -0.0351  0.4930 -0.0325
  772MPD2    C111391   3.684   3.721  13.779 -0.5607 -0.0477  0.4051
  772MPD2    C211392   3.557   3.672  13.792  0.1727 -0.5430 -0.1144
  772MPD2    C311393   3.441   3.753  13.795  0.5407  0.4654 -0.3510
  772MPD2    C411394   3.461   3.889  13.793 -0.6055 -0.1920 -0.7434
  772MPD2    C511395   3.592   3.939  13.781  0.1240 -0.2947 -0.5443
  772MPD2     H11396   3.561   3.565  13.806  1.1140 -0.2770  1.6656
  772MPD2    H111397   3.377   3.957  13.784 -2.0195 -2.0406 -1.3308
  772MPD2    H211398   3.795   3.899  13.738 -0.3156  1.8804  1.2876
  772MPD2    H311399   3.610   4.045  13.791  0.2761 -0.1699 -2.1571
  772MPD2     N11400   3.314   3.702  13.791 -0.7210  0.2740 -0.1101
  772MPD2    H511401   3.238   3.769  13.797 -0.4227  0.3631  2.6743
  772MPD2    N111402   3.788   3.628  13.771 -0.1914 -0.2108  0.7209
  772MPD2    H711403   3.766   3.529  13.762 -1.4791  0.1865 -0.5475
  773MPD2     C11404   2.797   3.559   0.853  0.2193 -1.0316 -0.0848
  773MPD2    C111405   2.880   3.617   0.755 -0.3845 -0.2076 -1.1219
  773MPD2    C211406   3.011   3.655   0.785  0.4424 -0.5968 -0.4595
  773MPD2    C311407   3.061   3.637   0.913  1.1039 -0.7126 -0.6506
  773MPD2    C411408   2.982   3.568   1.000  0.1471  0.0106 -0.3959
  773MPD2    C511409   2.855   3.539   0.969  1.3533 -0.1294  0.1993
  773MPD2     H11410   3.070   3.708   0.712  0.9110 -0.0165  0.3417
  773MPD2    H111411   3.013   3.536   1.099  0.4154 -1.6961 -1.0330
  773MPD2    H211412   2.701   3.512   0.833 -1.1714  0.9435  1.9821
  773MPD2    H311413   2.806   3.484   1.048  0.7544  2.3685  1.5961
  773MPD2     N11414   3.198   3.671   0.940 -0.0683  0.4542 -0.5895
  773MPD2    H511415   3.240   3.727   0.867 -0.1725  0.7816 -0.3966
  773MPD2    N111416   2.841   3.642   0.622  0.4053 -0.0993 -0.2170
  773MPD2    H711417   2.903   3.694   0.560  0.2516  1.0642  0.6153
  774MPD2     C11418   1.590   3.499  13.750 -0.2686  0.0324  0.4362
  774MPD2    C111419   1.707   3.452  13.699 -1.0231  0.6059  0.3524
  774MPD2    C211420   1.789   3.541  13.647 -0.1961 -1.0883 -0.7536
  774MPD2    C311421   1.754   3.675  13.643 -0.1134  0.4409  0.5458
  774MPD2    C411422   1.644   3.726  13.705 -0.5553  0.4814  0.0860
  774MPD2    C511423   1.553   3.632  13.750  0.8488 -0.4121 -0.2894
  774MPD2     H11424   1.885   3.513  13.605  0.5220  0.7383 -0.3376
  774MPD2    H111425   1.617   3.831  13.710 -0.4294  0.4507  1.3195
  774MPD2    H211426   1.521   3.427  13.791  1.6433 -1.4032  1.1444
  774MPD2    H311427   1.456   3.665  13.785  1.3938  0.0318  0.8325
  774MPD2     N11428   1.854   3.754  13.590 -0.1056  0.3801 -0.1327
  774MPD2    H511429   1.929   3.703  13.545  1.3670  0.4202  2.2765
  774MPD2    N111430   1.745   3.321  13.721  0.0091  0.5527 -0.8688
  774MPD2    H711431   1.697   3.270  13.794  0.4102  2.8233  1.0050
  775MPD2     C11432   3.999   4.516  15.864 -0.1346 -0.0618  0.4155
  775MPD2    C111433   3.974   4.632  15.933  0.3781 -0.1374 -0.4757
  775MPD2    C211434   4.022   0.018  15.874 -0.4713  0.2508 -0.2380
  775MPD2    C311435   4.069   0.016  15.743  0.8861  0.3185 -0.5467
  775MPD2    C411436   4.090   4.622  15.673 -0.8498 -0.5934  0.2422
  775MPD2    C511437   4.049   4.507  15.737 -0.5338  0.2525 -0.6400
  775MPD2     H11438   4.005   0.114  15.922  0.4004  0.6513 -0.7139
  775MPD2    H111439   4.135   4.613  15.575 -0.3431 -1.8274  0.5822
  775MPD2    H211440   3.963   4.421  15.903 -1.8824  1.2729  2.0725
  775MPD2    H311441   4.060   4.409  15.693 -0.6144  0.3075 -0.7817
  775MPD2     N11442   4.102   0.127  15.663 -0.6646  0.0409 -0.2787
  775MPD2    H511443   4.129   0.108  15.568  0.3814  1.6143 -0.2912
  775MPD2    N111444   3.906   4.624  16.058 -0.1657  0.4200  0.3572
  775MPD2    H711445   3.899   4.527  16.086 -1.5067  0.4896  0.3035
  776MPD2     C11446   3.405   0.591  11.245  0.1930  0.0335 -0.3240
  776MPD2    C111447   3.494   0.565  11.343 -0.2973 -0.1646 -0.3764
  776MPD2    C211448   3.586   0.662  11.380  0.3731 -0.5251  0.1480
  776MPD2    C311449   3.587   0.785  11.312  0.6278 -0.4887  0.3068
  776MPD2    C411450   3.503   0.803  11.207  0.4061  0.5676 -0.2398
  776MPD2    C511451   3.414   0.702  11.172 -0.3227  0.2955 -0.1179
  776MPD2     H11452   3.654   0.646  11.463 -1.4137  1.3671  1.9846
  776MPD2    H111453   3.499   0.898  11.155 -1.7452  0.0462 -1.0549
  776MPD2    H211454   3.315   0.531  11.231 -0.1615  0.3646  0.5022
  776MPD2    H311455   3.351   0.712  11.084 -0.8456 -0.8946  0.1353
  776MPD2     N11456   3.665   0.898  11.348  0.3774 -0.0396  0.1946
  776MPD2    H511457   3.664   0.981  11.289  1.8307 -1.0252 -1.1892
  776MPD2    N111458   3.480   0.442  11.416  0.2558 -0.3912 -0.3879
  776MPD2    H711459   3.407   0.380  11.382  0.0206  1.4743 -3.3094
  777MPD2     C11460   3.416   2.103   1.092  0.3971  0.3009  0.1275
  777MPD2    C111461   3.284   2.115   1.131 -0.0705 -0.0989  0.1563
  777MPD2    C211462   3.190   2.040   1.060  0.9143  0.0365  0.0131
  777MPD2    C311463   3.228   1.958   0.960 -0.6622  0.4990  0.2373
  777MPD2    C411464   3.365   1.949   0.924 -0.3125  0.6154  0.3546
  777MPD2    C511465   3.460   2.020   0.983 -0.1982 -0.0200 -0.1366
  777MPD2     H11466   3.084   2.045   1.080  0.7932  2.9064 -1.3160
  777MPD2    H111467   3.405   1.870   0.861 -1.7408  0.2476 -0.0974
  777MPD2    H211468   3.495   2.163   1.135  1.2021 -0.7097  0.0821
  777MPD2    H311469   3.567   2.018   0.965 -0.3370  0.0231 -0.9559
  777MPD2     N11470   3.130   1.873   0.911 -0.1616  0.2966  0.4192
  777MPD2    H511471   3.045   1.867   0.967 -0.8998 -0.0953 -0.7355
  777MPD2    N111472   3.257   2.192   1.245 -0.1854 -0.0661 -0.4878
  777MPD2    H711473   3.342   2.215   1.295 -1.3705  1.8402  0.6327
  778MPD2     C11474   4.400   2.942  14.920  0.2292 -0.0819  0.3827
  778MPD2    C111475   4.408   2.827  14.843  0.0599  0.1093 -0.4601
  778MPD2    C211476   4.450   2.843  14.713  0.3645 -0.4933  0.5368
  778MPD2    C311477   4.489   2.966  14.663  0.7138 -0.8510  0.3289
  778MPD2    C411478   4.483   3.078  14.744  0.2530  0.1190  0.8212
  778MPD2    C511479   4.432   3.070  14.870 -0.6565 -0.2660  0.1989
  778MPD2     H11480   4.456   2.747  14.663 -0.7971  0.0581 -0.6587
  778MPD2    H111481   4.501   3.176  14.701  0.3335  0.4638  1.6353
  778MPD2    H211482   4.361   2.940  15.021 -0.5097  1.5274  0.1306
  778MPD2    H311483   4.400   3.157  14.927 -2.5513 -0.5351 -0.4587
  778MPD2     N11484   4.531   2.967  14.527 -0.2769  0.7373  0.2148
  778MPD2    H511485   4.519   2.883  14.471 -0.2711  0.6828  0.2940
  778MPD2    N111486   4.366   2.698  14.889 -0.5667  0.2652 -0.3664
  778MPD2    H711487   4.374   2.625  14.819  1.2466 -0.5586  0.6804
  779MPD2     C11488   3.775   1.774  14.080 -0.5672 -0.0721  1.1590
  779MPD2    C111489   3.907   1.740  14.112  0.4135  0.9871  0.0541
  779MPD2    C211490   3.989   1.843  14.157 -0.1045  0.1266 -0.3396
  779MPD2    C311491   3.946   1.972  14.163 -0.5206 -0.3843 -0.5353
  779MPD2    C411492   3.821   2.003  14.112  0.1130 -0.4897 -0.1625
  779MPD2    C511493   3.733   1.902  14.075  0.7021 -0.1604 -0.4306
  779MPD2     H11494   4.090   1.819  14.187 -1.0431 -0.2843  2.5229
  779MPD2    H111495   3.787   2.104  14.095  0.9195 -0.0271  0.9897
  779MPD2    H211496   3.711   1.697  14.039 -0.9521  0.9555 -0.1978
  779MPD2    H311497   3.640   1.927  14.025  0.0976 -0.3892  0.5698
  779MPD2     N11498   4.039   2.072  14.200  0.7189  0.2524 -1.0280
  779MPD2    H511499   4.135   2.043  14.217  1.1984  2.9763  0.8500
  779MPD2    N111500   3.966   1.620  14.088  0.0979 -0.7263 -0.0566
  779MPD2    H711501   4.064   1.610  14.113 -0.2069 -1.2115  0.9459
  780MPD2     C11502   3.822   1.434   1.371 -0.1467 -0.3046  0.4220
  780MPD2    C111503   3.753   1.355   1.284  1.0322  0.0597  0.3042
  780MPD2    C211504   3.756   1.388   1.150 -0.9594  0.1875 -0.0992
  780MPD2    C311505   3.808   1.505   1.107  0.3799 -0.2472  0.1212
  780MPD2    C411506   3.885   1.578   1.191 -0.4173  0.4096 -0.1794
  780MPD2    C511507   3.883   1.545   1.322  0.4191  0.0099 -0.3095
  780MPD2     H11508   3.706   1.324   1.078  0.8344  0.0731 -1.2485
  780MPD2    H111509   3.939   1.664   1.152 -0.8866  0.2313 -1.2318
  780MPD2    H211510   3.827   1.398   1.473  0.4131 -2.0411 -0.2089
  780MPD2    H311511   3.929   1.611   1.394 -1.5076  1.0633 -0.0368
  780MPD2     N11512   3.787   1.530   0.969 -0.4430 -0.1858 -0.1087
  780MPD2    H511513   3.739   1.463   0.910 -0.1617  2.3385 -3.2193
  780MPD2    N111514   3.692   1.234   1.330 -1.0271 -0.2495  0.2179
  780MPD2    H711515   3.722   1.188   1.416  0.8206 -1.8356 -1.2803
  781MPD2     C11516   1.569   3.196  11.858  0.1207 -0.3959  0.6787
  781MPD2    C111517   1.436   3.193  11.825  0.5348  0.2573  0.5653
  781MPD2    C211518   1.402   3.148  11.704 -0.4742  0.7266 -0.0089
  781MPD2    C311519   1.502   3.110  11.610 -0.4483  0.0069 -0.7483
  781MPD2    C411520   1.638   3.113  11.647 -0.2258 -0.2949 -0.0680
  781MPD2    C511521   1.666   3.171  11.770  0.0705  0.8938 -0.6276
  781MPD2     H11522   1.297   3.151  11.677  0.0710  0.2631 -2.1790
  781MPD2    H111523   1.721   3.091  11.581 -0.4185  0.7645 -0.6786
  781MPD2    H211524   1.598   3.228  11.957 -0.1774  3.7912 -0.5884
  781MPD2    H311525   1.771   3.196  11.782  1.1850 -3.5960 -1.2284
  781MPD2     N11526   1.471   3.077  11.477  0.4446  0.0279  0.3570
  781MPD2    H511527   1.552   3.079  11.416  0.8831 -2.4048  0.8380
  781MPD2    N111528   1.340   3.226  11.920 -0.3980  0.0659 -0.1003
  781MPD2    H711529   1.245   3.199  11.901 -0.0071 -0.5480 -1.2127
  782MPD2     C11530   3.722   4.162  10.752  0.0793  0.0500 -0.0279
  782MPD2    C111531   3.851   4.131  10.714 -0.3584  0.0316  0.1156
  782MPD2    C211532   3.955   4.197  10.774  0.1365  0.6341  0.1755
  782MPD2    C311533   3.938   4.295  10.870  1.0315  0.8317 -0.2214
  782MPD2    C411534   3.810   4.329  10.904  0.1090  0.1422  0.1991
  782MPD2    C511535   3.704   4.265  10.845  0.4657  0.5847  0.3384
  782MPD2     H11536   4.055   4.163  10.751  0.0802  0.9800 -0.5760
  782MPD2    H111537   3.790   4.389  10.992 -1.1102  1.6664 -1.1173
  782MPD2    H211538   3.634   4.108  10.719  0.5777 -1.8314  1.7564
  782MPD2    H311539   3.601   4.286  10.869  0.2404  1.0118 -0.9764
  782MPD2     N11540   4.045   4.365  10.929 -0.4517 -0.0548  0.4615
  782MPD2    H511541   4.015   4.410  11.015  0.3882 -1.6608  1.6175
  782MPD2    N111542   3.867   4.019  10.624 -0.1782  0.2272  0.0952
  782MPD2    H711543   3.782   3.969  10.602  0.5325 -0.6674 -0.5937
  783MPD2     C11544   3.849   3.484  11.254 -0.1654  0.1210  0.0639
  783MPD2    C111545   3.832   3.619  11.239  0.4761  0.5757  0.8880
  783MPD2    C211546   3.878   3.677  11.122  0.6811 -0.3269 -0.3957
  783MPD2    C311547   3.949   3.591  11.030  0.7468  0.2217 -0.3673
  783MPD2    C411548   3.980   3.457  11.060 -0.6828  0.6310 -0.2593
  783MPD2    C511549   3.926   3.406  11.174  0.3491 -0.1212 -0.1959
  783MPD2     H11550   3.828   3.767  11.088 -0.9376 -1.4580 -1.0269
  783MPD2    H111551   4.034   3.384  11.000 -1.2379 -0.3495  0.4516
  783MPD2    H211552   3.821   3.441  11.349  1.3902  2.2000  1.4531
  783MPD2    H311553   3.944   3.305  11.212 -0.8467 -0.0419  0.5588
  783MPD2     N11554   3.980   3.648  10.906 -0.4365  0.5290  0.7163
  783MPD2    H511555   3.946   3.742  10.886  3.5350  2.0461  0.9732
  783MPD2    N111556   3.769   3.689  11.347  0.2814 -0.1120  0.1116
  783MPD2    H711557   3.712   3.636  11.412  0.6690 -0.6821 -0.0154
  784MPD2     C11558   0.411   3.929   1.207 -0.2828  0.0613  0.3932
  784MPD2    C111559   0.413   4.029   1.303 -0.7353  0.6633 -0.3602
  784MPD2    C211560   0.333   4.144   1.289 -0.4388  0.7077 -0.5159
  784MPD2    C311561   0.252   4.159   1.175 -0.6060 -0.1641  0.2889
  784MPD2    C411562   0.249   4.049   1.087  0.2551 -0.3642 -0.2108
  784MPD2    C511563   0.338   3.943   1.095 -0.7107  0.2693  0.0447
  784MPD2     H11564   0.333   4.224   1.362  2.3053  0.2377  0.0064
  784MPD2    H111565   0.182   4.058   1.003  0.2432  1.7378  0.0282
  784MPD2    H211566   0.477   3.843   1.213 -1.8748 -1.1524  0.7434
  784MPD2    H311567   0.343   3.873   1.012  2.0517 -1.5414  1.7286
  784MPD2     N11568   0.182   4.279   1.152  0.2024  0.4371 -0.2863
  784MPD2    H511569   0.191   4.341   1.231  0.2893  0.5009 -0.3460
  784MPD2    N111570   0.493   4.032   1.418 -0.0654  0.0025 -0.5179
  784MPD2    H711571   0.507   4.123   1.460  5.0885  0.3075 -2.9827
  785MPD2     C11572   1.148   2.439  10.060  0.3195  0.6003 -0.2680
  785MPD2    C111573   1.234   2.404  10.164 -0.3266  0.0245 -0.0707
  785MPD2    C211574   1.197   2.440  10.295 -0.1278 -0.7250 -0.1212
  785MPD2    C311575   1.088   2.518  10.324  0.2485  0.7275 -0.0977
  785MPD2    C411576   1.013   2.558  10.214  0.0601  0.7009  0.8021
  785MPD2    C511577   1.038   2.521  10.087 -0.0336  0.2033 -0.0099
  785MPD2     H11578   1.260   2.407  10.377  0.1810 -0.1355 -0.1261
  785MPD2    H111579   0.920   2.608  10.237  0.7420  1.6828  1.4252
  785MPD2    H211580   1.187   2.428   9.959  2.2386 -0.4598  0.5992
  785MPD2    H311581   0.980   2.573  10.011 -0.6809  0.2388  0.5120
  785MPD2     N11582   1.062   2.545  10.458 -0.3166 -0.1623  0.0603
  785MPD2    H511583   1.134   2.510  10.519  1.5790  2.6151 -0.5496
  785MPD2    N111584   1.349   2.324  10.129 -0.1743  0.7243  0.4280
  785MPD2    H711585   1.362   2.293  10.033 -0.6496 -1.0992  0.9530
  786MPD2     C11586   4.461   0.880  15.415  0.1906 -0.9793 -0.4289
  786MPD2    C111587   4.572   0.797  15.398  0.5578 -0.0057 -0.6190
  786MPD2    C211588   4.662   0.785  15.506  0.0162  0.7920  0.9632
  786MPD2    C311589   4.638   0.860  15.622 -0.3526  0.4584 -0.1310
  786MPD2    C411590   4.533   0.948  15.633  0.2640  0.8584  0.3837
  786MPD2    C511591   4.448   0.956  15.528  0.5759  0.5179  0.0410
  786MPD2     H11592   0.033   0.734  15.496 -1.3410 -1.2759 -1.5005
  786MPD2    H111593   4.518   1.012  15.719  0.0758  0.0796  0.9286
  786MPD2    H211594   4.380   0.886  15.344  0.3544  1.6429 -0.3962
  786MPD2    H311595   4.356   1.013  15.531  1.5941  2.2434 -1.8687
  786MPD2     N11596   0.011   0.860  15.732  0.6672  0.3035  0.3361
  786MPD2    H511597   4.714   0.928  15.804  0.2176  0.7861 -0.2608
  786MPD2    N111598   4.616   0.732  15.276  0.4263 -0.2995 -0.5822
  786MPD2    H711599   4.685   0.659  15.292  0.6492 -0.0719 -0.5240
  787MPD2     C11600   0.525   0.630  15.300 -0.2503 -0.0763 -0.5472
  787MPD2    C111601   0.466   0.548  15.210  0.4725  0.7852 -0.1417
  787MPD2    C211602   0.511   0.414  15.200  0.0676  0.1493  0.1468
  787MPD2    C311603   0.619   0.371  15.281 -0.4334 -0.7859  0.0351
  787MPD2    C411604   0.680   0.467  15.369 -0.4832 -0.2898  0.2513
  787MPD2    C511605   0.629   0.596  15.378 -0.0514 -0.3183 -0.8202
  787MPD2     H11606   0.466   0.346  15.127  0.8173 -0.5861  0.3704
  787MPD2    H111607   0.767   0.445  15.430  0.3717  2.5567  0.0832
  787MPD2    H211608   0.491   0.733  15.302 -0.6778 -0.2114 -0.9861
  787MPD2    H311609   0.682   0.677  15.427  0.2608 -1.5123  0.8112
  787MPD2     N11610   0.664   0.237  15.275 -0.6083  0.2269 -0.2919
  787MPD2    H511611   0.627   0.184  15.197 -0.2046  0.2588 -0.5038
  787MPD2    N111612   0.356   0.611  15.135 -0.5557  0.4139 -0.5263
  787MPD2    H711613   0.345   0.711  15.149 -1.3946  0.3517 -0.7226
  788MPD2     C11614   2.610   3.091   1.057  0.2616 -0.3844 -0.1397
  788MPD2    C111615   2.482   3.065   1.019  0.1238 -0.5976 -0.6467
  788MPD2    C211616   2.401   3.165   0.975  0.1624  0.2352 -0.1060
  788MPD2    C311617   2.437   3.299   0.974 -0.3262  0.6850 -0.1110
  788MPD2    C411618   2.569   3.328   1.007 -0.4520 -0.1076 -0.2906
  788MPD2    C511619   2.644   3.227   1.055 -0.3860  0.2457  0.2089
  788MPD2     H11620   2.302   3.137   0.941 -0.1340  1.3084 -0.1406
  788MPD2    H111621   2.599   3.431   1.019  2.2421 -0.9189 -0.0399
  788MPD2    H211622   2.683   3.012   1.070  0.9875  0.4095  0.5770
  788MPD2    H311623   2.747   3.244   1.084 -0.7423  0.3165  1.4208
  788MPD2     N11624   2.344   3.398   0.928 -0.0483 -0.7010 -0.1051
  788MPD2    H511625   2.391   3.487   0.914  0.9271 -1.1799  0.1724
  788MPD2    N111626   2.427   2.932   1.013  0.2730 -0.3218  0.1472
  788MPD2    H711627   2.340   2.937   0.960 -0.1413  2.2574  1.0591
  789MPD2     C11628   2.237   3.501  17.054  0.0172  0.1532  0.2574
  789MPD2    C111629   2.152   3.487  16.945  0.7728 -0.0717 -0.1846
  789MPD2    C211630   2.031   3.556  16.941 -0.0902  0.1029  0.1571
  789MPD2    C311631   1.997   3.639  17.043 -0.2720 -0.6098  0.3627
  789MPD2    C411632   2.086   3.659  17.148  0.2849  0.3289 -0.3563
  789MPD2    C511633   2.200   3.588  17.150  0.0961  0.1109 -0.7282
  789MPD2     H11634   1.967   3.548  16.854 -0.9099  0.3720  0.7330
  789MPD2    H111635   2.077   3.741  17.218  0.1676 -2.0336  2.4235
  789MPD2    H211636   2.326   3.443  17.069 -1.1172 -0.8822  2.8210
  789MPD2    H311637   2.276   3.604  17.226  0.6056  2.4462 -1.7483
  789MPD2     N11638   1.876   3.715  17.050 -0.1905 -0.2375 -0.4195
  789MPD2    H511639   1.866   3.762  17.140 -2.6229 -0.6529 -0.4699
  789MPD2    N111640   2.174   3.384  16.842 -0.1875 -0.3377 -0.0666
  789MPD2    H711641   2.107   3.380  16.766 -1.1664  0.7212  0.7466
  790MPD2     C11642   2.900   0.823  13.708  0.3234  0.1318  0.1697
  790MPD2    C111643   2.970   0.718  13.662  0.1601  0.3717  0.1735
  790MPD2    C211644   2.964   0.696  13.519  0.1504  0.3902 -0.3945
  790MPD2    C311645   2.892   0.773  13.429  0.6531 -0.1616 -0.0229
  790MPD2    C411646   2.824   0.880  13.485 -0.6577 -0.1186 -0.1405
  790MPD2    C511647   2.832   0.905  13.623  0.7575  0.4186 -0.2658
  790MPD2     H11648   3.028   0.617  13.481 -1.5283 -0.7414 -0.8663
  790MPD2    H111649   2.759   0.942  13.424 -0.2817  2.1234  1.7616
  790MPD2    H211650   2.890   0.836  13.816  1.5181  0.2712  0.2634
  790MPD2    H311651   2.764   0.982  13.658 -1.8600 -1.9337 -0.1209
  790MPD2     N11652   2.887   0.723  13.294 -0.1854 -0.1982 -0.5059
  790MPD2    H511653   2.957   0.652  13.276  2.4439  2.5984 -1.2543
  790MPD2    N111654   3.042   0.643  13.759  0.4209  0.0905 -0.4271
  790MPD2    H711655   3.024   0.670  13.855 -1.2550 -0.8809 -0.4780
  791MPD2     C11656   2.247   0.760  12.809 -0.0265 -0.5387  0.0191
  791MPD2    C111657   2.330   0.652  12.818 -0.1878 -0.2830 -0.0518
  791MPD2    C211658   2.277   0.532  12.786 -0.3297 -0.4768  0.3357
  791MPD2    C311659   2.144   0.512  12.758  0.1417  0.2986 -0.1220
  791MPD2    C411660   2.066   0.618  12.758 -0.4169  0.5378  1.2907
  791MPD2    C511661   2.115   0.744  12.783 -1.0101  0.1351  0.3195
  791MPD2     H11662   2.331   0.439  12.799  2.1091  0.9484  0.3761
  791MPD2    H111663   1.958   0.607  12.750 -0.3235  0.0130  0.7334
  791MPD2    H211664   2.280   0.860  12.831 -1.4710  0.6719 -3.2316
  791MPD2    H311665   2.055   0.833  12.799  0.0620  0.6987  1.2415
  791MPD2     N11666   2.095   0.376  12.741  0.2041 -0.5455  0.0293
  791MPD2    H511667   2.164   0.305  12.764 -0.7474 -1.9075 -1.3251
  791MPD2    N111668   2.468   0.675  12.849 -0.5318  0.5207  0.1497
  791MPD2    H711669   2.495   0.772  12.858 -1.7826  1.0072 -1.2203
  792MPD2     C11670   3.916   0.122  11.343  0.5303  0.4045  0.2208
  792MPD2    C111671   3.809   0.203  11.311  0.5823 -0.0098 -0.6757
  792MPD2    C211672   3.682   0.159  11.313 -0.1262  0.7510  0.7567
  792MPD2    C311673   3.652   0.030  11.364  0.2471  0.0508  0.5989
  792MPD2    C411674   3.757   4.684  11.416  0.1367 -0.9708 -0.2418
  792MPD2    C511675   3.884   4.722  11.392 -0.7972 -0.2894 -0.3681
  792MPD2     H11676   3.601   0.229  11.298 -1.2290 -0.0671  2.8234
  792MPD2    H111677   3.743   4.586  11.462  2.1144  0.2379  2.9398
  792MPD2    H211678   4.018   0.159  11.339  1.4199 -2.0861 -0.0313
  792MPD2    H311679   3.970   4.660  11.413 -0.0764  1.7860  2.7644
  792MPD2     N11680   3.524   4.710  11.383  0.1051  0.1177  0.4150
  792MPD2    H511681   3.507   4.629  11.442 -1.9777 -1.1786 -1.9621
  792MPD2    N111682   3.827   0.346  11.277 -0.7462  0.6020 -0.0672
  792MPD2    H711683   3.748   0.393  11.234  0.0336  2.1192  0.1746
  793MPD2     C11684   3.176   4.270  10.680 -0.0450  0.7643  0.2879
  793MPD2    C111685   3.285   4.337  10.720 -0.0470  0.7345  0.4203
  793MPD2    C211686   3.279   4.391  10.846  0.2791 -0.4072 -0.1763
  793MPD2    C311687   3.165   4.388  10.928  0.3855  0.6457  0.0114
  793MPD2    C411688   3.048   4.327  10.880  0.1857  0.5983 -0.0090
  793MPD2    C511689   3.060   4.263  10.756 -0.3491  0.3463  0.7360
  793MPD2     H11690   3.359   4.451  10.888  0.3496 -1.4391  1.1462
  793MPD2    H111691   2.952   4.332  10.930 -0.2662  1.1146 -0.9367
  793MPD2    H211692   3.174   4.222  10.583 -0.0578  1.1904  0.0780
  793MPD2    H311693   2.968   4.213  10.728  0.4870 -1.7945  1.8897
  793MPD2     N11694   3.182   4.444  11.054  0.2144  0.2013 -0.2658
  793MPD2    H511695   3.273   4.484  11.074 -0.3336  1.5174 -0.4268
  793MPD2    N111696   3.404   4.345  10.641  0.6112 -0.1260  0.0742
  793MPD2    H711697   3.475   4.405  10.681 -0.3630  1.0529  0.0335
  794MPD2     C11698   2.464   4.122   0.115  0.1901  0.2094 -0.2903
  794MPD2    C111699   2.533   4.031   0.035  0.0137 -0.0252 -0.3577
  794MPD2    C211700   2.546   4.050  17.600  0.3143 -0.6225  0.8735
  794MPD2    C311701   2.487   4.157  17.530  0.7180  0.4744  0.0412
  794MPD2    C411702   2.405   4.243  17.609 -0.2824  0.3483 -0.2602
  794MPD2    C511703   2.397   4.228   0.046  0.2079 -0.4826 -0.3611
  794MPD2     H11704   2.610   3.974  17.556  1.9226  0.1993  1.8019
  794MPD2    H111705   2.371   4.335  17.563 -3.2091 -0.5416  0.1041
  794MPD2    H211706   2.462   4.124   0.223 -0.2208 -1.7150 -0.2656
  794MPD2    H311707   2.342   4.301   0.105  1.0398  0.7506 -1.0948
  794MPD2     N11708   2.512   4.187  17.396 -0.0395  0.3051  0.1568
  794MPD2    H511709   2.496   4.282  17.363  1.0435  0.0928 -0.9564
  794MPD2    N111710   2.611   3.924   0.087 -0.0150 -0.9136  0.1120
  794MPD2    H711711   2.662   3.876   0.014  0.9165  1.0948 -0.5665
  795MPD2     C11712   0.447   1.785  13.774  0.8241  0.0157  0.0649
  795MPD2    C111713   0.435   1.698  13.668  0.1457  0.2089 -0.3412
  795MPD2    C211714   0.505   1.577  13.663  0.4182  0.8516  0.3189
  795MPD2    C311715   0.574   1.547  13.783  0.1596 -0.5981 -0.3322
  795MPD2    C411716   0.585   1.635  13.888  0.2295  0.3219 -0.4820
  795MPD2    C511717   0.526   1.758  13.877 -0.4365  0.8209 -0.4275
  795MPD2     H11718   0.513   1.519  13.572  1.9306  0.2754  0.8246
  795MPD2    H111719   0.650   1.626  13.975 -0.3361  0.4539 -0.0453
  795MPD2    H211720   0.396   1.881  13.776  0.0391 -0.3580 -1.9936
  795MPD2    H311721   0.546   1.825  13.961  1.5829  1.2931 -1.2861
  795MPD2     N11722   0.669   1.437  13.795  0.1256  0.2933 -0.4796
  795MPD2    H511723   0.718   1.423  13.883 -1.3329 -3.1748 -0.2288
  795MPD2    N111724   0.367   1.735  13.550  0.9548  0.5093  0.0468
  795MPD2    H711725   0.348   1.661  13.483  0.6234  1.1730 -0.5899
  796MPD2     C11726   0.411   3.252  15.653  0.1407  0.1224 -0.2024
  796MPD2    C111727   0.478   3.306  15.764  0.2692  0.1050  0.0980
  796MPD2    C211728   0.457   3.438  15.799  0.3524  1.1254 -0.0987
  796MPD2    C311729   0.363   3.517  15.732 -0.5375  0.1880 -0.1035
  796MPD2    C411730   0.293   3.464  15.624  0.2322 -0.2412 -0.0579
  796MPD2    C511731   0.323   3.337  15.582 -0.0111 -0.6081  0.1648
  796MPD2     H11732   0.497   3.466  15.895 -0.3217  1.5857  0.0479
  796MPD2    H111733   0.218   3.518  15.567 -2.5361  0.6101  4.3783
  796MPD2    H211734   0.428   3.149  15.624  1.3330 -0.0347  1.0230
  796MPD2    H311735   0.284   3.298  15.489  0.9396  0.6273 -0.7488
  796MPD2     N11736   0.340   3.640  15.792 -0.6060 -0.3194  0.4709
  796MPD2    H511737   0.401   3.659  15.871 -0.6787  0.0777  0.4335
  796MPD2    N111738   0.550   3.215  15.847 -0.1706  0.6210 -0.2237
  796MPD2    H711739   0.553   3.120  15.810  2.4640  0.7767 -0.4419
  797MPD2     C11740   0.880   2.928  17.437  0.3182 -0.7486 -0.5864
  797MPD2    C111741   0.962   3.037  17.465 -0.1003 -0.0890  0.1636
  797MPD2    C211742   0.993   3.126  17.358 -0.0803 -0.2782  0.1026
  797MPD2    C311743   0.942   3.105  17.233  0.1061 -0.2953 -0.3878
  797MPD2    C411744   0.858   2.997  17.208 -0.5171  0.1452 -0.4474
  797MPD2    C511745   0.828   2.913  17.313  0.5535  0.0732  0.2883
  797MPD2     H11746   1.069   3.201  17.378 -0.7021 -0.1815  2.0345
  797MPD2    H111747   0.830   2.969  17.107 -0.6977 -1.1610 -0.0348
  797MPD2    H211748   0.852   2.863  17.519  2.6286 -0.6942  0.2418
  797MPD2    H311749   0.759   2.832  17.297  0.6263  0.0306  0.1894
  797MPD2     N11750   0.963   3.193  17.131  0.0662  0.5703  0.1167
  797MPD2    H511751   0.925   3.163  17.042 -0.7327  0.8432  0.3662
  797MPD2    N111752   1.030   3.054  17.582 -0.5288 -0.1761 -0.5821
  797MPD2    H711753   1.105   3.123  17.580 -1.1479  0.4613 -2.5781
  798MPD2     C11754   1.494   3.534  17.365 -0.5612 -0.7666  0.5675
  798MPD2    C111755   1.357   3.525  17.350 -0.3601 -0.0420 -0.2289
  798MPD2    C211756   1.282   3.484  17.463  0.1000  0.0444  0.1749
  798MPD2    C311757   1.338   3.459  17.585 -1.0446  0.2519  0.1784
  798MPD2    C411758   1.474   3.480  17.594 -0.3122 -0.5715 -0.3343
  798MPD2    C511759   1.547   3.511  17.488 -0.0473 -0.3647 -0.0209
  798MPD2     H11760   1.175   3.466  17.458  0.2195 -1.2044  2.0986
  798MPD2    H111761   1.527   3.479  17.689 -1.8785 -0.1759  0.5437
  798MPD2    H211762   1.566   3.575  17.294  0.6431  1.0498  2.8269
  798MPD2    H311763   1.653   3.533  17.503  0.5841 -2.3296 -1.7309
  798MPD2     N11764   1.258   3.398  17.685  0.2313 -0.4272  0.2605
  798MPD2    H511765   1.164   3.379  17.651 -0.1907 -1.4186  1.9970
  798MPD2    N111766   1.282   3.536  17.226  0.1736 -0.0990  0.4919
  798MPD2    H711767   1.186   3.504  17.227 -0.7149  2.6159  0.5313
  799MPD2     C11768   0.266   4.668  15.222 -0.5913  0.3236 -0.3915
  799MPD2    C111769   0.180   4.612  15.142 -0.7636  0.3466  0.3795
  799MPD2    C211770   0.134   4.682  15.036 -0.1910  0.0674 -0.4574
  799MPD2    C311771   0.167   0.095  15.020 -0.3620 -0.5864 -0.2663
  799MPD2    C411772   0.246   0.149  15.116 -0.1624 -0.0667 -0.4182
  799MPD2    C511773   0.296   0.076  15.216  0.2328 -0.1043 -0.6533
  799MPD2     H11774   0.067   4.634  14.965 -1.0255 -2.0798  1.7764
  799MPD2    H111775   0.252   0.256  15.126 -0.9536 -0.3080  2.6094
  799MPD2    H211776   0.322   4.613  15.296  0.0175  2.0041  0.4033
  799MPD2    H311777   0.367   0.121  15.284  0.3284 -1.4855  0.1509
  799MPD2     N11778   0.123   0.173  14.917  0.1229 -0.3860  0.1490
  799MPD2    H511779   0.152   0.270  14.916 -2.3879  0.3776 -0.5975
  799MPD2    N111780   0.172   4.475  15.133  0.0986  0.1597 -0.0297
  799MPD2    H711781   0.094   4.440  15.078 -3.4906  1.4556  4.1444
  800MPD2     C11782   0.505   0.952  14.187 -0.2520 -0.5913  0.6128
  800MPD2    C111783   0.634   0.907  14.167 -0.1297 -0.1504  0.5154
  800MPD2    C211784   0.658   0.802  14.084  1.0452  0.7985 -0.7214
  800MPD2    C311785   0.555   0.734  14.021 -0.5121 -0.3665  0.1161
  800MPD2    C411786   0.428   0.791  14.028  0.7440  0.1009  0.1129
  800MPD2    C511787   0.402   0.897  14.113 -0.5173  0.2651  0.7603
  800MPD2     H11788   0.759   0.763  14.075  0.1776 -1.7840  0.5863
  800MPD2    H111789   0.342   0.759  13.972  1.1281 -0.2932 -0.2552
  800MPD2    H211790   0.481   1.032  14.256 -1.1148  0.9198 -1.4380
  800MPD2    H311791   0.299   0.932  14.121 -0.2427  1.3574 -0.5403
  800MPD2     N11792   0.605   0.638  13.927  0.2162  0.9754 -0.3848
  800MPD2    H511793   0.706   0.622  13.923  0.0584 -0.1543  0.0390
  800MPD2    N111794   0.734   0.980  14.234  0.5610 -0.2036  0.4337
  800MPD2    H711795   0.701   1.059  14.289 -0.1659  1.6480 -2.6632
  801MPD2     C11796   0.776   1.651  14.225 -0.1647 -0.1345 -0.1518
  801MPD2    C111797   0.787   1.563  14.334  0.3115  0.2663 -0.1340
  801MPD2    C211798   0.695   1.566  14.432 -0.2349  0.5762 -0.5857
  801MPD2    C311799   0.595   1.658  14.423 -0.1062  0.7383 -0.4895
  801MPD2    C411800   0.582   1.747  14.319  0.2681  0.0020  0.4701
  801MPD2    C511801   0.674   1.742  14.220 -0.3500  0.1925 -0.4112
  801MPD2     H11802   0.683   1.496  14.514  1.3599  2.7427  1.4742
  801MPD2    H111803   0.508   1.826  14.315 -1.2437 -1.3477  1.4649
  801MPD2    H211804   0.840   1.664  14.138 -0.4030  1.6610 -0.0498
  801MPD2    H311805   0.663   1.808  14.134  1.3804  1.2691  0.2022
  801MPD2     N11806   0.498   1.669  14.528  0.2309  0.2652  0.0666
  801MPD2    H511807   0.411   1.718  14.514 -0.3329 -0.5889  0.6054
  801MPD2    N111808   0.877   1.456  14.325  0.1204  0.3936  0.6767
  801MPD2    H711809   0.899   1.397  14.404  0.6854 -0.9528 -0.4910
  802MPD2     C11810   4.616   2.219   0.121  0.2401  0.2112 -0.3418
  802MPD2    C111811   4.480   2.196   0.122  0.0788  0.4519  0.0684
  802MPD2    C211812   4.431   2.083   0.055 -0.0242 -0.6628  0.0526
  802MPD2    C311813   4.518   1.991  17.698  0.2919  0.0895 -0.2600
  802MPD2    C411814   4.653   2.015   0.003 -0.3413  0.3398 -0.5521
  802MPD2    C511815   4.697   2.131   0.066 -0.4537 -0.2398  0.7188
  802MPD2     H11816   4.324   2.066   0.051 -0.0973  0.4501 -2.2993
  802MPD2    H111817   0.005   1.940  17.693 -1.8092 -1.5371  1.8941
  802MPD2    H211818   4.676   2.294   0.171 -0.6385 -1.3487  3.0266
  802MPD2    H311819   0.075   2.134   0.099 -0.0683 -0.1826 -0.4837
  802MPD2     N11820   4.464   1.865  17.671  0.1283 -0.0221  0.3075
  802MPD2    H511821   4.363   1.863  17.682  0.0067 -3.8054 -1.5073
  802MPD2    N111822   4.397   2.281   0.200 -0.1666  0.7926 -0.4697
  802MPD2    H711823   4.298   2.267   0.184 -0.1776 -2.3915  2.3798
  803MPD2     C11824   1.356   0.377  12.062 -0.2019  0.1508 -0.3245
  803MPD2    C111825   1.343   0.455  12.168  0.6003  0.4872  0.2204
  803MPD2    C211826   1.250   0.421  12.268  0.3033  0.0202  0.1367
  803MPD2    C311827   1.171   0.306  12.257 -0.0460 -0.2466 -0.5820
  803MPD2    C411828   1.184   0.229  12.146  0.5419  0.3339 -0.2259
  803MPD2    C511829   1.279   0.262  12.056 -0.0727  0.3463  0.4117
  803MPD2     H11830   1.244   0.477  12.361 -1.6432 -0.3779  0.2694
  803MPD2    H111831   1.136   0.132  12.137 -1.3874  1.3663 -1.0385
  803MPD2    H211832   1.421   0.396  11.977 -1.3362 -1.3062 -1.5150
  803MPD2    H311833   1.316   0.195  11.979 -1.8719  0.3820 -0.4743
  803MPD2     N11834   1.082   0.264  12.359  0.1385 -0.5407 -0.0709
  803MPD2    H511835   1.054   0.167  12.350  0.4095 -0.6985  0.7854
  803MPD2    N111836   1.422   0.569  12.201  0.0394 -0.3690  0.0442
  803MPD2    H711837   1.400   0.618  12.287  1.4560 -0.0078  0.1961
  804MPD2     C11838   0.700   1.510  17.330 -0.6515 -0.4242 -0.1837
  804MPD2    C111839   0.638   1.533  17.458  0.1699 -0.2953  0.0861
  804MPD2    C211840   0.660   1.649  17.528 -0.5710  0.1086  0.2422
  804MPD2    C311841   0.753   1.747  17.479 -0.1583  0.3582 -0.1930
  804MPD2    C411842   0.806   1.719  17.353  0.3533  0.3873  0.3214
  804MPD2    C511843   0.770   1.605  17.276 -0.4862 -0.4054 -0.4131
  804MPD2     H11844   0.608   1.661  17.622  1.8371  3.7803  1.1265
  804MPD2    H111845   0.867   1.792  17.301 -1.3250  2.2000  0.8925
  804MPD2    H211846   0.684   1.425  17.264  1.9015 -0.8907 -0.1978
  804MPD2    H311847   0.811   1.584  17.178  2.8878 -1.8875  1.2939
  804MPD2     N11848   0.780   1.860  17.561 -0.0967  0.3618 -0.2724
  804MPD2    H511849   0.724   1.854  17.646 -1.1948  0.2716 -0.9961
  804MPD2    N111850   0.545   1.441  17.506 -0.2758  0.5516  0.0895
  804MPD2    H711851   0.515   1.457  17.602 -2.3590  0.8218 -0.6156
  805MPD2     C11852   4.466   4.677  15.657  0.1562  0.2167 -0.0599
  805MPD2    C111853   4.562   4.716  15.570  0.3722 -0.0794  0.5995
  805MPD2    C211854   4.692   4.718  15.618 -0.5481  0.4206  0.7143
  805MPD2    C311855   4.718   4.669  15.738 -0.6438  1.3002  0.2841
  805MPD2    C411856   4.621   4.637  15.833  0.1297 -0.0151  0.3213
  805MPD2    C511857   4.494   4.644  15.784  0.0760  0.5537 -0.1250
  805MPD2     H11858   0.052   0.012  15.554 -2.0811  0.8603 -1.2114
  805MPD2    H111859   4.636   4.594  15.931 -1.6089 -2.1782 -0.3814
  805MPD2    H211860   4.361   4.678  15.630  0.2606 -1.4733 -0.5752
  805MPD2    H311861   4.409   4.622  15.847  0.2027  0.8367  0.1490
  805MPD2     N11862   0.132   4.659  15.772 -0.6574  0.5502 -0.2087
  805MPD2    H511863   0.200   4.694  15.706 -0.4758  1.7949  0.6467
  805MPD2    N111864   4.529   0.026  15.433 -0.2466  0.3451 -0.4513
  805MPD2    H711865   4.606   0.054  15.374  0.6605 -0.4358  0.3517
  806MPD2     C11866   0.536   3.858   0.425  0.1487  0.2568  0.2240
  806MPD2    C111867   0.500   3.906   0.549  0.5492  0.1181 -0.3357
  806MPD2    C211868   0.433   4.026   0.552 -0.0945  0.2806 -0.1797
  806MPD2    C311869   0.390   4.081   0.436  0.1043  0.5520 -0.4004
  806MPD2    C411870   0.411   4.022   0.316 -0.0434 -0.3183  0.9410
  806MPD2    C511871   0.493   3.914   0.314 -1.4784 -0.2675  0.3487
  806MPD2     H11872   0.397   4.072   0.643  0.6795  1.1516 -0.3190
  806MPD2    H111873   0.380   4.053   0.217 -0.0054  0.0867  1.0563
  806MPD2    H211874   0.603   3.773   0.431 -2.6309 -1.9338 -0.2341
  806MPD2    H311875   0.531   3.870   0.223 -2.5816  0.1818 -0.3193
  806MPD2     N11876   0.306   4.188   0.446 -0.5786 -0.4015 -0.0015
  806MPD2    H511877   0.274   4.218   0.537 -0.3910 -1.8207  0.5403
  806MPD2    N111878   0.561   3.845   0.664 -0.3382  0.0493 -0.0977
  806MPD2    H711879   0.608   3.755   0.655 -2.1873 -0.7874 -1.2321
  807MPD2     C11880   0.630   3.181   1.009  0.3014 -0.0193 -0.3563
  807MPD2    C111881   0.619   3.274   1.115  0.1873  0.4336  0.5000
  807MPD2    C211882   0.605   3.231   1.244 -0.3819  0.3667  0.3775
  807MPD2    C311883   0.576   3.104   1.275  0.5879 -0.3771 -0.2855
  807MPD2    C411884   0.577   3.017   1.175  0.1737 -0.6663  0.4039
  807MPD2    C511885   0.614   3.049   1.044 -0.4314 -0.0274 -0.3239
  807MPD2     H11886   0.595   3.309   1.318  1.6186 -1.2868  2.3774
  807MPD2    H111887   0.557   2.912   1.194 -0.7020 -0.1915  2.1263
  807MPD2    H211888   0.632   3.214   0.906 -0.7357 -1.6915 -0.9157
  807MPD2    H311889   0.626   2.969   0.972 -0.5110 -2.2132  2.0999
  807MPD2     N11890   0.521   3.073   1.399  0.2508  0.3436  0.0039
  807MPD2    H511891   0.518   3.148   1.468 -1.7089  1.8412 -1.7026
  807MPD2    N111892   0.626   3.413   1.093 -0.2963  0.2114 -0.4819
  807MPD2    H711893   0.618   3.473   1.174  0.2719  1.2342 -1.1793
  808MPD2     C11894   1.331   0.466   9.664 -0.1320  0.2049  0.3475
  808MPD2    C111895   1.220   0.448   9.742 -0.4812  0.5848 -0.5414
  808MPD2    C211896   1.214   0.454   9.882  0.4779  0.4934  0.1162
  808MPD2    C311897   1.323   0.494   9.947  0.0436 -0.5091 -0.1440
  808MPD2    C411898   1.438   0.524   9.872 -0.7639 -0.1983 -0.0641
  808MPD2    C511899   1.441   0.500   9.740  0.3471 -0.0051  0.2186
  808MPD2     H11900   1.124   0.429   9.937 -0.5855  0.6485 -1.5468
  808MPD2    H111901   1.532   0.553   9.918 -0.8824 -0.5414  0.3986
  808MPD2    H211902   1.336   0.468   9.556  1.5322  3.2057  0.4683
  808MPD2    H311903   1.540   0.528   9.707 -0.5349  1.2007 -1.4000
  808MPD2     N11904   1.325   0.518  10.086 -0.2917 -0.2487 -0.2012
  808MPD2    H511905   1.413   0.535  10.133  1.1007 -2.0864 -2.1270
  808MPD2    N111906   1.095   0.411   9.682  0.3396 -0.6655  0.4566
  808MPD2    H711907   1.016   0.398   9.744 -3.4726  2.0566 -3.8507
  809MPD2     C11908   2.015   0.306  10.358  0.2498 -0.8228 -0.2102
  809MPD2    C111909   1.990   0.442  10.345 -0.7150  0.0843  0.7131
  809MPD2    C211910   1.877   0.501  10.392 -0.1203  0.1207 -0.2712
  809MPD2    C311911   1.773   0.419  10.437 -0.9486 -0.5624 -0.0922
  809MPD2    C411912   1.805   0.285  10.456  0.5613 -0.4279 -0.2505
  809MPD2    C511913   1.926   0.228  10.427  0.5557 -0.2731  0.1682
  809MPD2     H11914   1.864   0.608  10.377  2.3787  0.4432 -0.1703
  809MPD2    H111915   1.724   0.219  10.486 -0.0651  0.1213 -0.7467
  809MPD2    H211916   2.102   0.255  10.320  2.2372  2.0258  0.4762
  809MPD2    H311917   1.937   0.122  10.448 -1.3767 -0.8474 -1.6840
  809MPD2     N11918   1.644   0.464  10.464 -0.3261  0.6200 -0.0875
  809MPD2    H511919   1.584   0.382  10.468 -0.0259  0.4211  0.3271
  809MPD2    N111920   2.062   0.522  10.248  0.1405  0.0681 -0.4312
  809MPD2    H711921   2.055   0.622  10.264  0.8002  0.2908 -1.5331
  810MPD2     C11922   1.051   4.710   9.459  0.6909 -0.4852  0.2111
  810MPD2    C111923   1.017   4.670   9.582  0.1857 -0.3459  0.7983
  810MPD2    C211924   1.095   4.722   9.686 -0.0712  0.5670 -0.0119
  810MPD2    C311925   1.212   0.069   9.662 -0.6894 -0.1643 -0.2830
  810MPD2    C411926   1.245   0.101   9.531  0.4733 -0.0711  0.1104
  810MPD2    C511927   1.155   0.063   9.432 -0.9577  0.5676  0.2733
  810MPD2     H11928   1.063   4.718   9.789 -0.2659 -1.0021 -0.1390
  810MPD2    H111929   1.330   0.156   9.494 -0.7939  2.6755  1.2863
  810MPD2    H211930   1.000   4.687   9.367  0.4457  1.8757 -0.2482
  810MPD2    H311931   1.175   0.098   9.331 -1.1943  1.8695  0.6733
  810MPD2     N11932   1.286   0.119   9.775  0.4190  0.0983  0.2364
  810MPD2    H511933   1.367   0.172   9.745  1.8386 -2.0880  0.2115
  810MPD2    N111934   0.903   4.592   9.594 -0.1011 -0.2646  0.1890
  810MPD2    H711935   0.846   4.565   9.514  0.5154  1.8914 -0.9653
  811MPD2     C11936   0.276   4.648   9.334 -0.3012  0.5293 -0.0625
  811MPD2    C111937   0.347   4.711   9.435 -0.1446  0.5805 -0.0312
  811MPD2    C211938   0.329   0.122   9.454 -0.5643 -0.1267  0.1625
  811MPD2    C311939   0.226   0.193   9.390  0.5612  0.1702  0.3574
  811MPD2    C411940   0.163   0.126   9.290  0.3148  0.5750  0.5538
  811MPD2    C511941   0.193   4.721   9.263  0.6817 -0.0060 -1.1124
  811MPD2     H11942   0.391   0.178   9.522 -2.8144 -0.5468  2.5762
  811MPD2    H111943   0.105   0.185   9.221 -0.7914  0.6560  1.5685
  811MPD2    H211944   0.299   4.543   9.320 -0.9964  0.5322 -1.1751
  811MPD2    H311945   0.155   4.676   9.172  0.0947 -0.9016 -0.4251
  811MPD2     N11946   0.216   0.334   9.407  0.8158 -0.2644  0.2485
  811MPD2    H511947   0.279   0.371   9.477 -0.3403  0.1297  1.0675
  811MPD2    N111948   0.433   4.642   9.521  0.1815  0.6517 -0.4265
  811MPD2    H711949   0.486   4.697   9.588  2.0399  0.0543 -1.4029
  812MPD2     C11950   3.974   0.154  12.544  0.3863  0.2487 -0.1910
  812MPD2    C111951   3.920   0.274  12.586  0.0462 -0.4170  0.0560
  812MPD2    C211952   3.870   0.276  12.713 -0.1723  0.1593 -0.4022
  812MPD2    C311953   3.866   0.167  12.789 -0.0512 -0.4731 -0.2070
  812MPD2    C411954   3.906   0.044  12.735 -0.0884  0.1673 -0.5511
  812MPD2    C511955   3.958   0.042  12.617 -0.2437  0.1083 -1.0711
  812MPD2     H11956   3.851   0.373  12.759 -2.4956 -0.6885  0.4348
  812MPD2    H111957   3.903   4.680  12.798  0.3935 -0.2835 -1.1660
  812MPD2    H211958   4.020   0.136  12.448  0.1625 -1.2909 -0.0108
  812MPD2    H311959   3.972   4.669  12.571  0.4185  0.0627 -0.7722
  812MPD2     N11960   3.818   0.186  12.920  0.7840 -0.7056  0.2746
  812MPD2    H511961   3.813   0.283  12.950 -0.8135 -0.1552 -1.7394
  812MPD2    N111962   3.940   0.394  12.507 -0.6238  0.0811  0.2596
  812MPD2    H711963   3.988   0.385  12.418  0.1864 -1.5958  0.8513
  813MPD2     C11964   2.835   1.978  13.104 -0.3923  0.1205  0.3428
  813MPD2    C111965   2.771   2.098  13.072  0.0503  0.6208  0.0634
  813MPD2    C211966   2.658   2.143  13.142  0.3985  0.7767  0.3989
  813MPD2    C311967   2.618   2.076  13.250 -0.1709 -0.1660  0.2266
  813MPD2    C411968   2.686   1.957  13.287  0.3393  0.2629  0.4114
  813MPD2    C511969   2.796   1.912  13.213 -0.0821 -0.9553  0.1463
  813MPD2     H11970   2.601   2.231  13.117  2.0414  1.7435  0.0258
  813MPD2    H111971   2.650   1.888  13.362  1.6252 -1.1016 -0.2161
  813MPD2    H211972   2.911   1.932  13.041  0.1387  2.1045 -0.4557
  813MPD2    H311973   2.840   1.819  13.246  0.6617 -0.0630  1.6679
  813MPD2     N11974   2.516   2.127  13.333 -0.3944  0.1590  0.1786
  813MPD2    H511975   2.463   2.202  13.290  0.7798 -0.6652 -2.7745
  813MPD2    N111976   2.841   2.175  12.971 -0.1792  0.5641 -0.3894
  813MPD2    H711977   2.933   2.141  12.946  0.4464  1.6877  0.3717
  814MPD2     C11978   3.737   3.310  12.407  0.4917  0.2513 -0.7648
  814MPD2    C111979   3.746   3.403  12.302 -0.3869 -0.0839  0.6782
  814MPD2    C211980   3.800   3.520  12.326  0.3834  0.0632  1.2696
  814MPD2    C311981   3.834   3.568  12.458  0.2682 -0.1149 -0.3057
  814MPD2    C411982   3.831   3.469  12.555  0.0217  0.3021  0.1627
  814MPD2    C511983   3.794   3.345  12.529 -0.5462  0.3365 -0.3500
  814MPD2     H11984   3.799   3.595  12.248 -1.4642 -0.6026  0.6464
  814MPD2    H111985   3.849   3.493  12.660 -1.9474  1.1030  0.3202
  814MPD2    H211986   3.708   3.206  12.397  2.3347 -0.4472  1.2953
  814MPD2    H311987   3.783   3.268  12.605  0.2084  0.2207 -0.3580
  814MPD2     N11988   3.888   3.696  12.480 -0.1905  0.0532 -0.1696
  814MPD2    H511989   3.926   3.711  12.573 -0.2314 -3.4601  0.4203
  814MPD2    N111990   3.701   3.378  12.173 -0.0283  0.0559  0.3407
  814MPD2    H711991   3.742   3.435  12.100 -0.0126  0.0311  0.3301
  815MPD2     C11992   4.356   2.556  11.221 -0.1349 -0.5081 -0.1111
  815MPD2    C111993   4.320   2.458  11.306  0.2765 -0.6809 -0.1675
  815MPD2    C211994   4.222   2.479  11.407 -0.6453  0.6385 -0.1498
  815MPD2    C311995   4.149   2.595  11.399 -0.0591  0.2647  0.7030
  815MPD2    C411996   4.172   2.683  11.296  0.4770 -0.6576 -0.2566
  815MPD2    C511997   4.279   2.669  11.215  0.2954 -0.0661  0.6586
  815MPD2     H11998   4.199   2.407  11.484 -0.4517 -0.2150 -0.8882
  815MPD2    H111999   4.112   2.773  11.292  2.4683  0.6705 -0.3643
  815MPD2    H212000   4.443   2.536  11.160  1.4433  0.9274  1.6447
  815MPD2    H312001   4.290   2.751  11.145  0.0909  1.1684  2.0740
  815MPD2     N12002   4.033   2.592  11.478 -0.2830  0.0237  0.3332
  815MPD2    H512003   4.024   2.540  11.565 -0.2310  2.0015  1.5246
  815MPD2    N112004   4.374   2.328  11.285 -0.1277 -0.3387 -0.3027
  815MPD2    H712005   4.446   2.323  11.214 -1.9093  1.8174 -2.2978
  816MPD2     C12006   3.630   0.558  17.550  0.4133  0.7532  0.1614
  816MPD2    C112007   3.669   0.670  17.480  0.7782  0.3230  0.3871
  816MPD2    C212008   3.790   0.675  17.422 -0.2784  0.0149  0.7348
  816MPD2    C312009   3.880   0.568  17.429  0.2913  0.5077  0.4999
  816MPD2    C412010   3.851   0.462  17.509  0.3121 -0.1165  0.6276
  816MPD2    C512011   3.727   0.461  17.569  0.0554  0.4987  0.5736
  816MPD2     H12012   3.823   0.760  17.364  1.9016 -1.9188 -0.8571
  816MPD2    H112013   3.917   0.376  17.520  1.2961  0.5985  0.3555
  816MPD2    H212014   3.530   0.545  17.591 -0.2233  0.7061 -1.3842
  816MPD2    H312015   3.700   0.373  17.626  1.3418 -0.4538 -0.3060
  816MPD2     N12016   4.005   0.590  17.362  1.1809  0.4773 -0.5184
  816MPD2    H512017   4.034   0.684  17.335  0.1608  1.0337  0.3297
  816MPD2    N112018   3.585   0.774  17.451 -0.1679 -0.2367  0.2613
  816MPD2    H712019   3.602   0.837  17.374  0.6768  0.9545  1.4197
  817MPD2     C12020   3.619   2.124   9.587  0.5365 -0.2058 -0.1538
  817MPD2    C112021   3.552   2.007   9.557 -0.1835 -0.4425  0.3120
  817MPD2    C212022   3.413   2.021   9.531  0.3165  0.2991 -0.7838
  817MPD2    C312023   3.350   2.144   9.534 -0.3707  0.6134 -0.1790
  817MPD2    C412024   3.425   2.255   9.560  0.7009 -0.0921  0.5379
  817MPD2    C512025   3.560   2.249   9.576  0.0379 -0.2858  0.0699
  817MPD2     H12026   3.350   1.939   9.497  2.8162 -0.8957 -2.5325
  817MPD2    H112027   3.384   2.355   9.570  3.2488  0.9491  0.7578
  817MPD2    H212028   3.727   2.126   9.584  0.6014 -1.1810  2.2451
  817MPD2    H312029   3.625   2.334   9.591 -1.1569  0.7209 -0.4538
  817MPD2     N12030   3.213   2.152   9.506  0.6489 -0.2822 -0.4576
  817MPD2    H512031   3.159   2.066   9.515 -1.9721  1.6673  2.6162
  817MPD2    N112032   3.624   1.879   9.550  0.5207  0.2879 -0.0089
  817MPD2    H712033   3.574   1.804   9.503 -1.1230  0.2604  1.7663
  818MPD2     C12034   2.933   3.227  10.187 -0.3738 -0.1348  0.4257
  818MPD2    C112035   2.803   3.187  10.200 -0.5358 -0.5872  0.0446
  818MPD2    C212036   2.771   3.055  10.175  0.0769 -0.4465 -0.1743
  818MPD2    C312037   2.865   2.963  10.133 -0.6178 -0.0942  0.3204
  818MPD2    C412038   2.994   3.006  10.130  0.0811  0.0665 -0.6452
  818MPD2    C512039   3.028   3.131  10.160 -0.1416 -0.1168 -0.1046
  818MPD2     H12040   2.672   3.013  10.187 -0.0917  0.0698  0.2433
  818MPD2    H112041   3.074   2.936  10.108  0.4640  1.4485 -3.7111
  818MPD2    H212042   2.960   3.332  10.190 -0.2963 -0.2222  2.4525
  818MPD2    H312043   3.133   3.159  10.155 -0.0670 -0.5954 -1.1893
  818MPD2     N12044   2.837   2.833  10.076  0.6270  0.5386 -0.0886
  818MPD2    H512045   2.914   2.781  10.035  1.2842  2.0707 -0.8426
  818MPD2    N112046   2.693   3.276  10.237 -0.1586  0.4800 -0.0516
  818MPD2    H712047   2.602   3.234  10.245 -0.8081  1.6581 -1.2041
  819MPD2     C12048   0.257   4.223  15.880  0.0588  0.5697  0.0383
  819MPD2    C112049   0.324   4.148  15.781 -0.8076  0.3372  0.4741
  819MPD2    C212050   0.456   4.118  15.808  0.3241 -0.6886  0.1918
  819MPD2    C312051   0.513   4.147  15.935 -0.1913 -0.2675 -0.4706
  819MPD2    C412052   0.445   4.218  16.025  0.5137  0.6647 -0.0433
  819MPD2    C512053   0.319   4.262  15.994 -0.5215  0.3794  0.4028
  819MPD2     H12054   0.517   4.066  15.735 -0.0359 -0.8400 -0.0011
  819MPD2    H112055   0.487   4.240  16.122 -1.5864  0.9438  0.8010
  819MPD2    H212056   0.151   4.248  15.875 -0.2064 -0.6473 -0.2764
  819MPD2    H312057   0.263   4.320  16.066 -0.1803  0.2822  0.7436
  819MPD2     N12058   0.645   4.101  15.955  0.6593  0.1562  0.0020
  819MPD2    H512059   0.674   4.027  15.891  0.7680  0.3079 -0.1231
  819MPD2    N112060   0.268   4.099  15.663 -0.2418  0.4946  0.1934
  819MPD2    H712061   0.169   4.119  15.649 -0.0429  0.5689 -1.0896
  820MPD2     C12062   4.320   4.211  14.947 -0.0470 -0.7960  0.8662
  820MPD2    C112063   4.415   4.283  15.010  0.9743 -0.9347  0.0731
  820MPD2    C212064   4.505   4.213  15.085 -0.0779 -0.5656 -0.6357
  820MPD2    C312065   4.494   4.074  15.105 -0.7619  1.3656 -0.2778
  820MPD2    C412066   4.399   4.001  15.034  0.2682  0.2870  0.0911
  820MPD2    C512067   4.315   4.075  14.948  0.2659  0.2159 -0.7646
  820MPD2     H12068   4.572   4.267  15.150 -0.5530 -0.6742 -0.0522
  820MPD2    H112069   4.397   3.892  15.030 -1.5024  0.2338  2.5946
  820MPD2    H212070   4.251   4.253  14.875  0.5099  2.0678  2.0321
  820MPD2    H312071   4.242   4.027  14.883 -0.5772  1.4820 -0.7330
  820MPD2     N12072   4.586   4.008  15.198  0.0644 -0.0224  0.1241
  820MPD2    H512073   4.563   3.917  15.236 -0.3185 -1.2261 -2.9823
  820MPD2    N112074   4.423   4.420  14.991 -0.3405  0.2048 -0.0424
  820MPD2    H712075   4.339   4.465  14.955  0.1272  0.6031 -0.6316
  821MPD2     C12076   0.809   1.029  13.403  0.1987 -0.3462  0.6512
  821MPD2    C112077   0.913   0.941  13.437 -0.5664  0.4580 -0.1133
  821MPD2    C212078   1.045   0.989  13.433  0.1016 -0.6493  0.1249
  821MPD2    C312079   1.074   1.119  13.383 -0.4043 -0.3435  0.2082
  821MPD2    C412080   0.969   1.200  13.349  0.7656 -0.0512  0.3720
  821MPD2    C512081   0.841   1.152  13.360 -0.2600 -0.1232  0.4673
  821MPD2     H12082   1.127   0.921  13.455 -0.4872 -2.5469 -3.3844
  821MPD2    H112083   0.987   1.300  13.312 -0.3767 -0.8378 -2.3250
  821MPD2    H212084   0.704   1.002  13.403  0.0580  0.2107  0.3577
  821MPD2    H312085   0.762   1.222  13.336  0.4891 -0.2991 -2.5349
  821MPD2     N12086   1.203   1.183  13.377 -1.0645  0.2666  0.2950
  821MPD2    H512087   1.200   1.279  13.343  0.4777 -0.5626 -2.1580
  821MPD2    N112088   0.881   0.806  13.472  0.1473  0.6491 -0.1169
  821MPD2    H712089   0.960   0.757  13.514 -2.4335 -1.0770  2.7455
  822MPD2     C12090   0.919   0.584  16.097  0.3914 -0.2788 -0.6498
  822MPD2    C112091   1.018   0.638  16.182 -0.1040  0.0974  0.3970
  822MPD2    C212092   0.997   0.760  16.244 -0.1763 -0.0285 -0.7329
  822MPD2    C312093   0.878   0.829  16.228 -0.6710 -0.1316  0.5528
  822MPD2    C412094   0.780   0.778  16.144 -0.2613  0.3983  0.6073
  822MPD2    C512095   0.803   0.659  16.082 -0.2957  0.0528 -0.1434
  822MPD2     H12096   1.069   0.802  16.312 -0.1429  2.0292 -2.0417
  822MPD2    H112097   0.691   0.837  16.124  0.3477  0.3622 -2.1831
  822MPD2    H212098   0.935   0.501  16.030 -3.8905 -1.7624  0.2156
  822MPD2    H312099   0.732   0.637  16.002 -0.6220 -0.2609  0.2330
  822MPD2     N12100   0.854   0.943  16.301  0.2634 -0.4103 -0.1299
  822MPD2    H512101   0.759   0.966  16.326 -1.1635 -2.8418 -3.3991
  822MPD2    N112102   1.124   0.553  16.234  0.2111  0.9135 -0.2237
  822MPD2    H712103   1.180   0.589  16.311 -0.7839  0.8808  0.5106
  823MPD2     C12104   0.739   1.167  17.100 -0.5626  0.5678 -0.5514
  823MPD2    C112105   0.710   1.092  16.992 -0.1542  0.1714  0.4561
  823MPD2    C212106   0.672   0.961  17.014  0.1791 -0.0069  0.6365
  823MPD2    C312107   0.669   0.903  17.137 -0.3956 -1.1195 -0.6865
  823MPD2    C412108   0.683   0.982  17.246 -0.1803  0.4434 -0.6109
  823MPD2    C512109   0.715   1.114  17.228 -0.5520 -0.1350 -0.5487
  823MPD2     H12110   0.667   0.901  16.924 -1.1569 -0.2681  0.8777
  823MPD2    H112111   0.689   0.942  17.347 -2.0565 -0.6758 -0.9586
  823MPD2    H212112   0.783   1.266  17.097  3.2205 -1.0970 -0.3178
  823MPD2    H312113   0.730   1.182  17.311 -2.2289 -0.5666  0.1245
  823MPD2     N12114   0.642   0.761  17.157  0.7421 -0.4877 -0.2211
  823MPD2    H512115   0.607   0.740  17.250 -2.1422  0.0168 -1.1631
  823MPD2    N112116   0.725   1.144  16.864  0.6627 -0.1488 -0.2727
  823MPD2    H712117   0.755   1.240  16.854  0.5511 -0.1582 -0.7182
  824MPD2     C12118   1.510   4.464  16.377  0.2491 -0.6649  0.9580
  824MPD2    C112119   1.528   4.578  16.302 -0.1566 -0.1896  1.0649
  824MPD2    C212120   1.620   4.576  16.198  0.4239  0.7800 -0.4270
  824MPD2    C312121   1.692   4.464  16.172 -0.3872 -0.0687  0.0365
  824MPD2    C412122   1.662   4.347  16.245 -1.0756 -0.2706  0.5555
  824MPD2    C512123   1.571   4.348  16.342 -0.3240 -0.1949  0.4378
  824MPD2     H12124   1.643   4.667  16.145  0.3510  0.9431 -0.1795
  824MPD2    H112125   1.714   4.252  16.234 -0.3420  0.0663  1.1674
  824MPD2    H212126   1.434   4.469  16.453 -0.8711  2.6522 -0.3692
  824MPD2    H312127   1.558   4.258  16.401 -0.6838 -1.7208 -1.9891
  824MPD2     N12128   1.800   4.474  16.080 -0.0722  0.3529 -0.4085
  824MPD2    H512129   1.826   4.566  16.046  2.0831  0.1770  0.8198
  824MPD2    N112130   1.447   4.689  16.335 -0.6895 -0.0799  0.5627
  824MPD2    H712131   1.401   4.680  16.425  0.1371 -1.2724  0.8631
  825MPD2     C12132   2.252   0.175  16.080  0.0579  0.2531  0.0331
  825MPD2    C112133   2.230   0.146  15.945  0.1263 -0.1321 -0.0827
  825MPD2    C212134   2.265   0.232  15.839  0.1814  0.4770 -0.2380
  825MPD2    C312135   2.338   0.344  15.872 -0.5424  0.0307  0.2564
  825MPD2    C412136   2.366   0.372  16.001  0.0236 -0.8935  0.2285
  825MPD2    C512137   2.331   0.288  16.106  0.2139 -0.9127 -0.2456
  825MPD2     H12138   2.250   0.199  15.737 -2.0181  1.9970 -0.4194
  825MPD2    H112139   2.416   0.464  16.027  2.1823 -1.9857  0.0025
  825MPD2    H212140   2.217   0.105  16.156 -0.5603  1.7022  1.0757
  825MPD2    H312141   2.350   0.324  16.207 -1.7765  1.7022 -0.8270
  825MPD2     N12142   2.401   0.417  15.776 -0.3522  0.5159 -0.1518
  825MPD2    H512143   2.494   0.450  15.800 -0.2157 -1.8984  2.6073
  825MPD2    N112144   2.169   0.021  15.931 -0.4580  0.7201 -0.2001
  825MPD2    H712145   2.144   4.685  16.008  0.0828  0.7208 -0.0260
  826MPD2     C12146   2.174   0.460  13.933 -0.1502 -0.1074  0.2855
  826MPD2    C112147   2.083   0.487  13.835  0.4083  0.0393  0.2734
  826MPD2    C212148   1.963   0.551  13.873 -0.4145 -0.9305  1.0186
  826MPD2    C312149   1.932   0.584  14.000 -0.3291 -0.6979 -0.1961
  826MPD2    C412150   2.030   0.553  14.093 -0.3143 -0.5038 -0.0614
  826MPD2    C512151   2.151   0.497  14.056 -0.4588 -0.4433  0.4138
  826MPD2     H12152   1.890   0.576  13.796  0.6719  1.9761  0.9539
  826MPD2    H112153   2.019   0.585  14.196 -1.0295  0.3236 -0.3917
  826MPD2    H212154   2.272   0.417  13.915  0.1277  0.4738  0.4397
  826MPD2    H312155   2.228   0.491  14.133  2.3131 -1.0877 -2.4100
  826MPD2     N12156   1.816   0.650  14.049  0.1517 -0.2980 -0.3999
  826MPD2    H512157   1.822   0.682  14.145  0.7887  1.4445 -1.0305
  826MPD2    N112158   2.110   0.440  13.705  0.3807 -0.7250  0.1085
  826MPD2    H712159   2.196   0.387  13.695  1.9490  1.9698 -0.6924
  827MPD2     C12160   3.128   1.208  10.298 -0.9214 -0.3199 -0.0079
  827MPD2    C112161   3.155   1.116  10.395  0.2169 -0.5083  0.0020
  827MPD2    C212162   3.104   0.988  10.385  0.0192  0.1692 -0.7348
  827MPD2    C312163   3.013   0.956  10.284  0.6738  0.2599 -0.2308
  827MPD2    C412164   2.987   1.051  10.186 -0.7489 -0.0132  0.8176
  827MPD2    C512165   3.046   1.175  10.198 -0.1277  0.6270 -0.6154
  827MPD2     H12166   3.130   0.915  10.460  2.1995  0.6279 -1.0674
  827MPD2    H112167   2.916   1.029  10.107  0.7252 -2.1350  0.0832
  827MPD2    H212168   3.155   1.311  10.316 -1.0885 -0.4970  1.2542
  827MPD2    H312169   3.017   1.256  10.132 -1.1436 -0.0754 -1.0145
  827MPD2     N12170   2.965   0.820  10.274 -0.1633  0.2467  0.3949
  827MPD2    H512171   3.002   0.758  10.345 -0.3211 -0.1492  0.1304
  827MPD2    N112172   3.229   1.152  10.509  0.1937 -0.2744  0.3689
  827MPD2    H712173   3.274   1.241  10.497  0.5044 -0.4061  0.5656
  828MPD2     C12174   1.275   1.419  12.712 -0.7647 -0.4437  0.1202
  828MPD2    C112175   1.211   1.420  12.590 -0.1055 -0.5516  0.2320
  828MPD2    C212176   1.296   1.416  12.479 -0.3372 -0.6044 -0.1329
  828MPD2    C312177   1.439   1.416  12.492  0.1471 -0.4052 -0.8219
  828MPD2    C412178   1.501   1.419  12.620  0.1021 -0.3988 -0.1707
  828MPD2    C512179   1.408   1.426  12.727 -0.2395 -0.5686  0.2199
  828MPD2     H12180   1.246   1.417  12.383  2.6629  1.2683 -1.6701
  828MPD2    H112181   1.607   1.404  12.635  0.3098  1.2422  0.0063
  828MPD2    H212182   1.221   1.411  12.806  0.2665  1.4582  0.8562
  828MPD2    H312183   1.440   1.422  12.831  0.6547  0.7725 -0.0042
  828MPD2     N12184   1.524   1.393  12.379  0.0498  0.8401 -0.2632
  828MPD2    H512185   1.623   1.388  12.402 -0.6556 -1.6167  2.1597
  828MPD2    N112186   1.069   1.429  12.572  0.0331 -0.0868 -0.5405
  828MPD2    H712187   1.029   1.438  12.479 -1.9230  2.7097  0.5737
  829MPD2     C12188   0.668   1.666  11.839 -0.3096 -0.0762  0.8544
  829MPD2    C112189   0.561   1.629  11.922 -0.0153 -0.5496 -0.1533
  829MPD2    C212190   0.582   1.577  12.045  0.5352  0.4452 -0.4699
  829MPD2    C312191   0.716   1.550  12.089 -1.0181 -0.1631  0.1528
  829MPD2    C412192   0.824   1.582  12.001  0.0826  0.7841 -0.3223
  829MPD2    C512193   0.799   1.647  11.879  0.1108  0.5191 -0.2490
  829MPD2     H12194   0.502   1.570  12.117 -1.1552 -1.0607 -2.5119
  829MPD2    H112195   0.925   1.570  12.040 -0.7079 -0.3707  1.3313
  829MPD2    H212196   0.652   1.702  11.738 -0.3949 -1.6442  0.3113
  829MPD2    H312197   0.884   1.670  11.815  0.8362 -0.3804  0.3926
  829MPD2     N12198   0.749   1.488  12.211  0.5742 -0.4169 -0.1815
  829MPD2    H512199   0.846   1.496  12.239 -0.0814  0.4175  1.8267
  829MPD2    N112200   0.433   1.664  11.877 -0.3837  0.0491 -0.1909
  829MPD2    H712201   0.437   1.727  11.797 -0.4222 -0.9775 -1.0071
  830MPD2     C12202   1.352   3.644  15.811  0.5969  0.6655  0.3925
  830MPD2    C112203   1.294   3.767  15.811  0.1207 -0.6365 -0.2265
  830MPD2    C212204   1.364   3.859  15.733 -0.2334 -0.5382 -0.3875
  830MPD2    C312205   1.481   3.826  15.670  0.7670  0.1690 -0.5649
  830MPD2    C412206   1.521   3.697  15.662 -0.5012 -0.4164  0.7279
  830MPD2    C512207   1.452   3.604  15.730  0.0200 -0.6560 -0.3585
  830MPD2     H12208   1.330   3.961  15.718  0.3781 -0.4586 -1.2522
  830MPD2    H112209   1.612   3.664  15.613 -1.6530 -1.4013 -0.7489
  830MPD2    H212210   1.300   3.569  15.870 -1.3311  1.0247 -0.8438
  830MPD2    H312211   1.485   3.501  15.724  3.2822  0.2388  2.1689
  830MPD2     N12212   1.573   3.920  15.618 -0.4420  0.0679  0.4500
  830MPD2    H512213   1.662   3.880  15.588  0.0309  0.7973  0.8853
  830MPD2    N112214   1.175   3.791  15.886 -0.2775  0.0078  0.1116
  830MPD2    H712215   1.141   3.715  15.944  1.9514 -0.6460  0.5607
  831MPD2     C12216   1.206   0.918  16.806  0.2018  0.3031  0.0330
  831MPD2    C112217   1.196   0.861  16.678  0.1054 -0.2427  0.1477
  831MPD2    C212218   1.075   0.803  16.649 -0.2239  0.4259  0.2309
  831MPD2    C312219   0.971   0.801  16.739 -0.0650 -0.2228 -0.3256
  831MPD2    C412220   0.984   0.862  16.858  0.1391 -0.3939  0.6257
  831MPD2    C512221   1.104   0.914  16.889  0.0108  0.7786 -0.1302
  831MPD2     H12222   1.065   0.760  16.550 -1.8538 -0.7513  0.9169
  831MPD2    H112223   0.904   0.867  16.930 -0.2635 -0.9600  0.2124
  831MPD2    H212224   1.300   0.956  16.844  0.5783 -1.3488  0.7317
  831MPD2    H312225   1.120   0.947  16.991  2.9224 -0.4371 -0.1956
  831MPD2     N12226   0.840   0.755  16.708 -0.7316  0.0541  1.0000
  831MPD2    H512227   0.770   0.765  16.781 -1.1090 -1.4112  0.8385
  831MPD2    N112228   1.301   0.870  16.595  0.0336  0.2255 -0.0425
  831MPD2    H712229   1.379   0.926  16.626  0.2072 -0.4018  0.6541
  832MPD2     C12230   4.458   1.917  17.338  0.0201  0.1722 -0.2748
  832MPD2    C112231   4.371   2.026  17.315 -0.2065  0.1077  0.6207
  832MPD2    C212232   4.266   2.010  17.227  0.1992 -0.1015  0.0239
  832MPD2    C312233   4.255   1.886  17.161 -0.3439  0.4627  0.0736
  832MPD2    C412234   4.345   1.784  17.184  0.9196 -0.1734  0.0973
  832MPD2    C512235   4.446   1.800  17.270 -0.5065 -0.3616  0.4709
  832MPD2     H12236   4.205   2.093  17.192 -0.4007 -0.6929 -0.3456
  832MPD2    H112237   4.342   1.692  17.127 -2.7381  0.5152 -0.8442
  832MPD2    H212238   4.541   1.915  17.407 -0.7967  0.6884  0.7151
  832MPD2    H312239   4.509   1.712  17.282  2.0769  0.8459 -4.0657
  832MPD2     N12240   4.162   1.861  17.059  0.0850  1.1987  0.2280
  832MPD2    H512241   4.165   1.768  17.019  0.1933  1.2923  0.0189
  832MPD2    N112242   4.402   2.143  17.388  0.3676 -0.0060 -0.0123
  832MPD2    H712243   4.490   2.139  17.438  0.0557  3.0928  0.7915
  833MPD2     C12244   1.948   3.822  12.715  0.2091 -0.3584  0.5717
  833MPD2    C112245   1.984   3.916  12.620  0.6516  0.6289 -0.1437
  833MPD2    C212246   2.099   3.901  12.544  0.3421  0.6299  0.3870
  833MPD2    C312247   2.189   3.795  12.570 -0.2705 -0.0786  0.2094
  833MPD2    C412248   2.154   3.708  12.677  0.2713 -0.1032 -0.8422
  833MPD2    C512249   2.031   3.717  12.742 -0.0210 -0.3451 -0.4195
  833MPD2     H12250   2.132   3.972  12.469  2.6513 -1.6863 -0.8103
  833MPD2    H112251   2.232   3.637  12.701 -0.3093 -0.6559 -0.6065
  833MPD2    H212252   1.855   3.834  12.769  0.5553  1.6233  0.7487
  833MPD2    H312253   2.011   3.652  12.826 -1.4075 -2.3999 -2.3225
  833MPD2     N12254   2.317   3.780  12.520 -0.3904  0.0038 -0.5389
  833MPD2    H512255   2.370   3.697  12.544  1.0443  1.3805  1.1155
  833MPD2    N112256   1.893   4.017  12.611  0.1586  0.5717  0.7972
  833MPD2    H712257   1.814   4.018  12.675 -0.0512 -0.6932  0.5477
  834MPD2     C12258   2.199   3.050  11.960 -0.2419 -0.3596  0.6054
  834MPD2    C112259   2.204   3.155  11.870 -0.1583  0.1144 -0.5387
  834MPD2    C212260   2.225   3.283  11.922  0.2763 -0.1919 -0.0833
  834MPD2    C312261   2.244   3.311  12.052  0.2194 -0.3768 -0.1745
  834MPD2    C412262   2.247   3.202  12.143  0.3640 -0.5309 -0.3447
  834MPD2    C512263   2.222   3.077  12.095  0.3803  0.4364  0.1689
  834MPD2     H12264   2.235   3.371  11.859 -2.1607  0.0665 -0.0714
  834MPD2    H112265   2.270   3.211  12.249 -2.6757 -1.2696  0.3687
  834MPD2    H212266   2.184   2.946  11.933  0.4638 -0.3814  0.3221
  834MPD2    H312267   2.223   2.995  12.166 -1.3119  1.3802  1.2910
  834MPD2     N12268   2.276   3.441  12.091 -0.1399 -0.8675  0.3373
  834MPD2    H512269   2.269   3.510  12.017 -1.9613 -1.2807  0.1271
  834MPD2    N112270   2.198   3.125  11.735 -0.5225 -0.0956 -0.4657
  834MPD2    H712271   2.172   3.030  11.709  0.8775 -0.6126  0.0590
  835MPD2     C12272   2.737   1.428  11.334  0.1712 -0.0537  0.6647
  835MPD2    C112273   2.625   1.493  11.305 -0.8701  0.1608  0.2068
  835MPD2    C212274   2.563   1.575  11.398  0.9542 -0.1988  0.0826
  835MPD2    C312275   2.624   1.595  11.519  1.0136  0.2135  0.1646
  835MPD2    C412276   2.744   1.530  11.547 -0.4441 -0.6657 -0.1333
  835MPD2    C512277   2.799   1.448  11.452  0.0616  0.3585 -0.3123
  835MPD2     H12278   2.467   1.620  11.372  1.6679 -0.3921 -2.9041
  835MPD2    H112279   2.800   1.553  11.636 -1.8327 -0.8773  0.7944
  835MPD2    H212280   2.798   1.379  11.259  1.6100  0.6884  1.3388
  835MPD2    H312281   2.895   1.402  11.476  0.3068  1.1203  0.1808
  835MPD2     N12282   2.562   1.673  11.622 -0.1025  0.4405 -0.4614
  835MPD2    H512283   2.602   1.656  11.714  2.6457  1.8891 -1.3965
  835MPD2    N112284   2.564   1.479  11.176 -0.3574  0.2518  0.1468
  835MPD2    H712285   2.490   1.545  11.157  0.0846  1.0790  1.3197
  836MPD2     C12286   1.824   1.658  11.748 -0.3053 -0.0123 -0.0085
  836MPD2    C112287   1.888   1.709  11.865 -0.8035  0.5241  0.2561
  836MPD2    C212288   1.821   1.710  11.991  0.9764  0.9611 -0.6694
  836MPD2    C312289   1.682   1.688  11.990  0.1679 -0.8056 -0.0054
  836MPD2    C412290   1.620   1.653  11.873 -0.1540  0.3210 -0.0343
  836MPD2    C512291   1.690   1.629  11.758  0.8633  0.1471  0.0740
  836MPD2     H12292   1.879   1.732  12.079  2.1986  1.6170 -1.6441
  836MPD2    H112293   1.513   1.644  11.859 -0.0954  0.3326 -0.4983
  836MPD2    H212294   1.871   1.665  11.650 -0.9453 -2.8727 -0.5050
  836MPD2    H312295   1.634   1.609  11.667  2.4847 -0.4768 -0.7895
  836MPD2     N12296   1.594   1.705  12.105 -0.0425 -0.0144  0.3063
  836MPD2    H512297   1.496   1.690  12.086  0.3719 -0.3535 -1.6235
  836MPD2    N112298   2.028   1.743  11.850  0.1480 -0.5203  0.8418
  836MPD2    H712299   2.070   1.714  11.762 -1.2876  0.2786 -0.1056
  837MPD2     C12300   0.592   0.978   9.633 -0.0916 -0.3287 -0.2484
  837MPD2    C112301   0.477   0.923   9.693  0.4442  0.1118  0.5346
  837MPD2    C212302   0.439   0.976   9.817  0.0664  0.5242  0.2313
  837MPD2    C312303   0.502   1.085   9.880 -0.2161 -0.0228 -0.2599
  837MPD2    C412304   0.612   1.145   9.818  0.0379 -1.0584  0.4675
  837MPD2    C512305   0.662   1.081   9.702 -0.4713 -0.2018 -0.4656
  837MPD2     H12306   0.347   0.937   9.860  0.3768 -0.5418 -0.0777
  837MPD2    H112307   0.664   1.231   9.859 -1.5748 -0.2594  0.8531
  837MPD2    H212308   0.635   0.945   9.539  1.7701 -1.5373  1.0291
  837MPD2    H312309   0.751   1.118   9.652 -0.2772  0.2164  0.1904
  837MPD2     N12310   0.441   1.131   9.996 -0.1050  0.2933  0.9078
  837MPD2    H512311   0.351   1.090  10.017 -0.3902  1.2904  1.6474
  837MPD2    N112312   0.395   0.825   9.629  0.3601 -0.3185 -0.5248
  837MPD2    H712313   0.328   0.778   9.688  1.1995 -0.2378  0.4977
  838MPD2     C12314   3.492   4.549  12.124 -0.3415 -0.0480 -0.4704
  838MPD2    C112315   3.471   4.417  12.157 -0.0302  0.6280  0.3594
  838MPD2    C212316   3.352   4.383  12.220  0.0843  0.0828 -0.6264
  838MPD2    C312317   3.246   4.479  12.237 -0.0672  0.6286  0.1262
  838MPD2    C412318   3.279   4.608  12.215  0.1092 -0.2843  0.3808
  838MPD2    C512319   3.401   4.639  12.166  0.1645  0.0275 -0.0934
  838MPD2     H12320   3.348   4.279  12.252  0.2470  0.4730  0.6480
  838MPD2    H112321   3.218   4.695  12.232  0.7328  0.5554 -1.6921
  838MPD2    H212322   3.585   4.598  12.097 -0.6055 -0.8205 -2.8316
  838MPD2    H312323   3.424   0.018  12.145 -0.1090  0.1687  0.2994
  838MPD2     N12324   3.129   4.424  12.292  0.6306 -0.4564  0.1464
  838MPD2    H512325   3.128   4.325  12.318 -0.9107 -0.9341 -1.7350
  838MPD2    N112326   3.572   4.318  12.149 -0.2641 -0.5372  0.2224
  838MPD2    H712327   3.538   4.226  12.175 -0.2798 -0.3660  0.8210
  839MPD2     C12328   3.358   3.544  12.103 -0.6761  0.1193  0.2358
  839MPD2    C112329   3.379   3.598  11.979 -0.7533 -0.0210 -0.1110
  839MPD2    C212330   3.484   3.686  11.965  0.0797 -0.3461  0.1437
  839MPD2    C312331   3.553   3.731  12.074 -0.3324  0.2947  0.5496
  839MPD2    C412332   3.522   3.677  12.201 -0.3945  0.4339 -0.0792
  839MPD2    C512333   3.417   3.593  12.213 -0.1267 -0.0025 -0.8542
  839MPD2     H12334   3.507   3.719  11.864 -0.5873 -0.7466 -0.1368
  839MPD2    H112335   3.564   3.721  12.291  0.2460 -1.3489  0.4902
  839MPD2    H212336   3.290   3.463  12.127  0.3970 -1.0829 -0.7819
  839MPD2    H312337   3.387   3.555  12.310 -0.0986 -0.8503 -1.1692
  839MPD2     N12338   3.644   3.835  12.065 -0.0600 -0.1760 -0.1654
  839MPD2    H512339   3.680   3.874  12.152 -1.3688  0.4445  0.0931
  839MPD2    N112340   3.299   3.570  11.862 -0.4807  0.1949 -0.3460
  839MPD2    H712341   3.319   3.624  11.778  1.3615 -0.8116 -0.5337
  840MPD2     C12342   3.717   1.474  10.449 -0.0039 -0.6718  0.2426
  840MPD2    C112343   3.676   1.475  10.578  0.1710  0.2433 -0.2577
  840MPD2    C212344   3.680   1.594  10.649  0.1357  0.2542 -0.3370
  840MPD2    C312345   3.716   1.713  10.586  0.6496 -0.4304  0.2189
  840MPD2    C412346   3.736   1.710  10.447  0.7477 -0.5628 -0.0881
  840MPD2    C512347   3.737   1.594  10.378 -0.1864  0.4175  0.3819
  840MPD2     H12348   3.655   1.587  10.754 -0.2199 -1.1729 -0.5213
  840MPD2    H112349   3.750   1.795  10.382 -0.0460 -1.6766 -1.7135
  840MPD2    H212350   3.732   1.384  10.391  2.2906  1.1270 -1.9417
  840MPD2    H312351   3.761   1.593  10.273 -0.8285 -2.1188  0.2631
  840MPD2     N12352   3.711   1.840  10.637  0.3656 -0.6589 -0.0098
  840MPD2    H512353   3.735   1.918  10.578  1.0887 -1.9686 -1.4510
  840MPD2    N112354   3.647   1.345  10.637  0.1880 -0.0256 -0.1766
  840MPD2    H712355   3.647   1.273  10.565 -1.5350  0.0514 -0.2489
  841MPD2     C12356   3.065   1.428  14.677  0.6887  0.5074 -0.3939
  841MPD2    C112357   3.098   1.377  14.555 -0.0238  0.4320 -0.2312
  841MPD2    C212358   3.172   1.464  14.476 -0.0647  0.2332 -0.1483
  841MPD2    C312359   3.201   1.593  14.511 -0.0640 -0.2039 -0.5259
  841MPD2    C412360   3.171   1.641  14.640  0.3237 -0.0861 -0.4503
  841MPD2    C512361   3.099   1.555  14.721 -0.2863  0.3975 -0.6734
  841MPD2     H12362   3.214   1.418  14.388 -1.0339 -0.5717 -0.1959
  841MPD2    H112363   3.206   1.735  14.682 -0.2736 -0.7081  1.4438
  841MPD2    H212364   2.997   1.371  14.739 -0.0215  1.0342 -0.6897
  841MPD2    H312365   3.069   1.581  14.822  0.5510 -1.0628 -0.0489
  841MPD2     N12366   3.275   1.657  14.410  0.0532  0.2601  0.1534
  841MPD2    H512367   3.308   1.597  14.336 -2.3051 -0.7676 -0.0810
  841MPD2    N112368   3.067   1.249  14.502  0.1322 -0.1258 -0.1833
  841MPD2    H712369   3.117   1.235  14.415 -0.1573 -1.5893 -0.1045
  842MPD2     C12370   3.514   2.303  17.022  0.1005  0.4543  0.1273
  842MPD2    C112371   3.430   2.410  17.052  0.4455  0.5710 -0.7116
  842MPD2    C212372   3.377   2.423  17.184 -0.7036 -0.1794 -0.0702
  842MPD2    C312373   3.405   2.328  17.284  0.1492  0.5242  0.5093
  842MPD2    C412374   3.489   2.223  17.253 -0.5766  0.4455  0.0833
  842MPD2    C512375   3.532   2.206  17.121  0.0128 -0.1815  0.2185
  842MPD2     H12376   3.294   2.489  17.205  0.1259  0.7026  0.4552
  842MPD2    H112377   3.504   2.141  17.321  1.2162 -0.5026 -1.4638
  842MPD2    H212378   3.565   2.288  16.927 -1.3019 -0.1408 -0.5323
  842MPD2    H312379   3.579   2.112  17.097  1.5667  1.4621 -3.2143
  842MPD2     N12380   3.339   2.352  17.399  0.7424  0.5073 -0.0024
  842MPD2    H512381   3.283   2.434  17.419 -2.4603 -2.3492  2.8234
  842MPD2    N112382   3.404   2.508  16.949 -0.2691  0.0922 -0.1272
  842MPD2    H712383   3.436   2.492  16.854  0.9706 -1.1001  0.4994
  843MPD2     C12384   1.427   2.003   1.145  1.0461  0.1509 -0.1065
  843MPD2    C112385   1.331   2.087   1.088 -0.0612  0.1468 -0.2907
  843MPD2    C212386   1.375   2.193   1.008 -0.5258  0.2736 -0.0877
  843MPD2    C312387   1.511   2.216   0.996  0.0670 -0.3067  0.0734
  843MPD2    C412388   1.605   2.137   1.048  0.2850  0.2707  0.0643
  843MPD2    C512389   1.560   2.030   1.125 -0.7599  0.3714 -0.2422
  843MPD2     H12390   1.304   2.261   0.961 -1.1286 -0.2157  0.1225
  843MPD2    H112391   1.711   2.150   1.028  0.1083  2.3655  0.5815
  843MPD2    H212392   1.397   1.922   1.210 -0.2232  0.5703 -0.1690
  843MPD2    H312393   1.631   1.962   1.173  2.4351  2.4387 -2.0344
  843MPD2     N12394   1.569   2.319   0.909  0.3599  0.6655 -0.1223
  843MPD2    H512395   1.669   2.324   0.894  0.6277  0.8472  1.6613
  843MPD2    N112396   1.198   2.051   1.116 -0.2470 -0.0489  0.6338
  843MPD2    H712397   1.184   1.968   1.173  0.7017 -0.2394  0.5994
  844MPD2     C12398   4.030   1.849  16.394  0.8759  0.9642  0.2917
  844MPD2    C112399   4.053   1.744  16.484  0.1604  0.0436 -0.4533
  844MPD2    C212400   4.141   1.769  16.586  0.0922  0.4901  0.7123
  844MPD2    C312401   4.203   1.891  16.606  0.3364  1.3568  0.0390
  844MPD2    C412402   4.175   1.994  16.513 -0.2243  0.0325 -0.4261
  844MPD2    C512403   4.097   1.965  16.407 -0.6767 -0.0698 -0.3562
  844MPD2     H12404   4.181   1.688  16.646 -1.3038 -1.3299 -0.8152
  844MPD2    H112405   4.202   2.099  16.517 -1.5734  0.4359 -2.0197
  844MPD2    H212406   3.978   1.827  16.302  0.8326 -0.7928  0.7316
  844MPD2    H312407   4.106   2.038  16.328 -0.0967 -0.4846 -0.6741
  844MPD2     N12408   4.294   1.904  16.719  0.9862 -0.8185 -0.2832
  844MPD2    H512409   4.303   1.820  16.775  4.0540 -0.5500 -0.4022
  844MPD2    N112410   3.988   1.620  16.458  0.3625  0.3173 -0.0561
  844MPD2    H712411   3.923   1.627  16.380 -1.8080 -1.5309  1.5711
  845MPD2     C12412   4.638   2.678  17.274 -0.1987  0.3774  0.1144
  845MPD2    C112413   4.504   2.640  17.258  0.0484  0.5543 -0.5706
  845MPD2    C212414   4.483   2.522  17.193  0.2431  0.1922  0.2025
  845MPD2    C312415   4.579   2.435  17.164 -0.4139 -0.5716 -0.6255
  845MPD2    C412416   4.715   2.467  17.182  0.4920 -1.1896  0.4795
  845MPD2    C512417   0.019   2.587  17.246  0.5939 -0.8377  0.1334
  845MPD2     H12418   4.380   2.491  17.178  0.3215 -1.2217  2.5883
  845MPD2    H112419   0.073   2.405  17.149  0.7561  0.0218 -1.1131
  845MPD2    H212420   4.671   2.770  17.321  1.0518  0.3579 -0.7089
  845MPD2    H312421   0.122   2.613  17.266  0.6246 -0.6896 -0.2146
  845MPD2     N12422   4.545   2.313  17.100 -0.1868  0.0637 -0.3554
  845MPD2    H512423   4.450   2.293  17.070 -0.8207  1.8337  0.5362
  845MPD2    N112424   4.398   2.730  17.307 -0.7739 -0.2760 -0.2972
  845MPD2    H712425   4.420   2.820  17.349 -1.1745 -0.6576  0.7301
  846MPD2     C12426   1.298   3.316  13.539  1.2508  0.1987 -0.0895
  846MPD2    C112427   1.212   3.422  13.551 -0.0894 -0.6076  0.3192
  846MPD2    C212428   1.135   3.430  13.661 -0.3771 -0.1875 -0.2552
  846MPD2    C312429   1.146   3.340  13.766 -0.0142  0.2384  0.0548
  846MPD2    C412430   1.237   3.238  13.752 -0.0323  0.3015  0.2654
  846MPD2    C512431   1.311   3.227  13.636  0.2694 -0.0544 -0.1703
  846MPD2     H12432   1.062   3.507  13.679 -0.0400  0.4178 -1.4592
  846MPD2    H112433   1.243   3.160  13.827 -1.1073  0.8268  0.8904
  846MPD2    H212434   1.371   3.315  13.458 -0.7824 -0.8090 -1.9127
  846MPD2    H312435   1.364   3.133  13.625 -0.9220 -0.3572 -3.4028
  846MPD2     N12436   1.071   3.352  13.882  0.5927  0.0384 -0.2838
  846MPD2    H512437   1.012   3.434  13.880  3.3224  1.9850 -0.8724
  846MPD2    N112438   1.211   3.527  13.461 -0.1040 -0.7612 -0.6510
  846MPD2    H712439   1.159   3.609  13.491 -0.5120 -0.3171 -2.5518
  847MPD2     C12440   1.574   3.837  14.293 -0.2430 -0.4752 -0.6782
  847MPD2    C112441   1.621   3.939  14.361 -0.3327 -0.0809  0.7374
  847MPD2    C212442   1.713   3.923  14.468 -0.1366 -0.0544 -0.5038
  847MPD2    C312443   1.763   3.791  14.492  0.7937 -0.2581  0.4171
  847MPD2    C412444   1.719   3.687  14.411  0.2128  0.9597  0.3256
  847MPD2    C512445   1.630   3.711  14.308  0.1739 -0.3495  0.7199
  847MPD2     H12446   1.735   4.011  14.527  0.7337 -0.6289  0.0445
  847MPD2    H112447   1.756   3.585  14.423  1.1245  0.9610 -2.6071
  847MPD2    H212448   1.500   3.847  14.214 -0.1380 -0.5441 -0.7868
  847MPD2    H312449   1.607   3.632  14.238 -0.5748  1.3051 -0.9281
  847MPD2     N12450   1.857   3.779  14.600 -0.6760  0.4797 -0.7881
  847MPD2    H512451   1.888   3.866  14.642 -0.6954 -0.4102  1.0779
  847MPD2    N112452   1.562   4.070  14.350 -0.5827  0.4138  0.3939
  847MPD2    H712453   1.599   4.135  14.418  2.4256  0.9025 -1.7380
  848MPD2     C12454   3.627   2.240  16.480  0.3403 -0.5830  0.6408
  848MPD2    C112455   3.758   2.231  16.513  0.0659  0.7001 -0.2800
  848MPD2    C212456   3.852   2.334  16.471  0.1580  0.1090  0.2209
  848MPD2    C312457   3.808   2.442  16.397  0.3042  0.2444 -0.0010
  848MPD2    C412458   3.674   2.438  16.354 -0.2894  0.1344  0.0796
  848MPD2    C512459   3.589   2.338  16.397  0.0169  0.0287  0.1086
  848MPD2     H12460   3.954   2.337  16.505 -0.2566  0.4469  1.4500
  848MPD2    H112461   3.636   2.519  16.292 -0.6282  0.7366  1.0803
  848MPD2    H212462   3.556   2.163  16.508 -1.2417  0.5370 -0.2623
  848MPD2    H312463   3.488   2.330  16.359 -1.0678  0.2218  2.9118
  848MPD2     N12464   3.886   2.552  16.349 -0.1527 -0.0426  0.4345
  848MPD2    H512465   3.838   2.615  16.285 -0.0076  1.3128  1.6611
  848MPD2    N112466   3.818   2.124  16.584 -0.5428 -0.1908  0.1413
  848MPD2    H712467   3.914   2.135  16.613 -0.8689 -1.2634  1.6115
  849MPD2     C12468   2.855   2.478  14.052  0.5703 -0.2006  0.7982
  849MPD2    C112469   2.991   2.506  14.043 -0.9935 -0.3527  0.1326
  849MPD2    C212470   3.077   2.445  14.128 -0.3712 -0.5621  0.2106
  849MPD2    C312471   3.031   2.355  14.224 -0.3718  0.2804 -0.5947
  849MPD2    C412472   2.904   2.322  14.229 -0.4663 -0.1507  0.1346
  849MPD2    C512473   2.817   2.384  14.146 -0.4040  0.5903 -0.0092
  849MPD2     H12474   3.183   2.469  14.126 -0.5687  0.3213  0.3467
  849MPD2    H112475   2.866   2.251  14.302 -0.1139  1.7103  2.1243
  849MPD2    H212476   2.784   2.521  13.983 -0.8435 -1.7676  1.2593
  849MPD2    H312477   2.712   2.358  14.148 -0.2297 -0.3714 -2.2907
  849MPD2     N12478   3.123   2.290  14.313  0.4778 -0.5332 -0.0901
  849MPD2    H512479   3.102   2.202  14.360 -0.1373  0.4518  1.4886
  849MPD2    N112480   3.050   2.589  13.944  0.1471 -0.5509  0.0063
  849MPD2    H712481   3.143   2.621  13.967 -1.1016  1.1625  2.6127
  850MPD2     C12482   1.376   4.518  15.445  0.5327  0.0009 -0.7634
  850MPD2    C112483   1.336   4.652  15.450 -0.4056  0.0367  0.1659
  850MPD2    C212484   1.434   0.020  15.415  0.6739 -0.5792  1.2202
  850MPD2    C312485   1.557   4.720  15.370  0.3152 -0.1644 -0.8322
  850MPD2    C412486   1.593   4.585  15.354  0.6529 -0.0517 -0.0246
  850MPD2    C512487   1.504   4.484  15.392 -0.1917 -0.9742 -0.2268
  850MPD2     H12488   1.407   0.124  15.431  0.7648 -0.3321 -0.2877
  850MPD2    H112489   1.693   4.553  15.327  0.8195 -1.4676  2.3158
  850MPD2    H212490   1.302   4.445  15.476  2.5255 -1.5098  0.3681
  850MPD2    H312491   1.538   4.381  15.386 -0.9187 -1.0865 -2.4539
  850MPD2     N12492   1.643   0.104  15.354 -0.3048  0.4735  0.7904
  850MPD2    H512493   1.596   0.190  15.381 -0.2183  1.2140 -1.3860
  850MPD2    N112494   1.212   4.693  15.507 -0.1454 -0.4065  0.0851
  850MPD2    H712495   1.161   4.629  15.566  2.0850 -0.6380  1.7355
  851MPD2     C12496   1.693   0.178  15.758  0.3430 -0.1414 -0.6467
  851MPD2    C112497   1.589   0.094  15.775  0.0416 -0.1828 -0.7805
  851MPD2    C212498   1.609   4.681  15.747 -0.4365  0.4948 -0.3090
  851MPD2    C312499   1.732   4.634  15.700  0.0611  0.2463 -0.5441
  851MPD2    C412500   1.835   0.001  15.690  0.0928 -0.2512 -0.4289
  851MPD2    C512501   1.815   0.130  15.725  0.3395  0.5172  0.2273
  851MPD2     H12502   1.522   4.616  15.752 -1.7274  2.1166 -1.3814
  851MPD2    H112503   1.939   4.710  15.665  0.4254  1.1672  0.0311
  851MPD2    H212504   1.689   0.286  15.763 -1.3874 -0.3199  1.7718
  851MPD2    H312505   1.901   0.196  15.721 -0.2101  1.1509 -0.9660
  851MPD2     N12506   1.741   4.495  15.666 -0.1264 -0.3515 -0.1290
  851MPD2    H512507   1.657   4.442  15.689 -0.6887  0.0428 -1.2700
  851MPD2    N112508   1.465   0.151  15.799  0.1781 -0.4429 -0.1140
  851MPD2    H712509   1.454   0.250  15.819  2.0705 -0.3351  0.3999
  852MPD2     C12510   1.225   3.275  10.697 -0.2702 -0.2507  0.2405
  852MPD2    C112511   1.278   3.158  10.652  0.8298 -0.1986 -0.6405
  852MPD2    C212512   1.376   3.173  10.559 -0.6689  0.0951  0.4319
  852MPD2    C312513   1.401   3.296  10.505  0.7382 -0.2343  0.4450
  852MPD2    C412514   1.335   3.410  10.546 -0.9782  0.5084 -0.8646
  852MPD2    C512515   1.255   3.398  10.652 -0.5814 -0.2216 -0.6086
  852MPD2     H12516   1.421   3.084  10.516 -2.1034 -1.0938  1.3763
  852MPD2    H112517   1.334   3.507  10.498 -0.6544  0.3055 -1.2834
  852MPD2    H212518   1.151   3.275  10.776 -1.1358  1.0216 -0.5806
  852MPD2    H312519   1.201   3.487  10.682  2.4285  1.3472  0.0729
  852MPD2     N12520   1.486   3.284  10.388 -0.0595  0.1508  0.2286
  852MPD2    H512521   1.516   3.189  10.371 -0.3071  0.0687  0.2453
  852MPD2    N112522   1.231   3.029  10.685  0.4238  0.2136  0.1328
  852MPD2    H712523   1.295   2.955  10.660 -0.1192  0.7324 -2.7549
  853MPD2     C12524   2.398   2.542  12.611  0.4243 -0.2174 -0.3020
  853MPD2    C112525   2.396   2.677  12.578 -0.3676 -0.1455 -0.0938
  853MPD2    C212526   2.443   2.713  12.452 -0.5474 -0.0725  0.2461
  853MPD2    C312527   2.509   2.619  12.374  0.8628  0.0490  0.2326
  853MPD2    C412528   2.513   2.484  12.414  0.3649  0.5907 -0.9479
  853MPD2    C512529   2.464   2.448  12.535 -0.4536 -0.0612  0.1047
  853MPD2     H12530   2.441   2.813  12.409  0.2523  0.4031  1.3302
  853MPD2    H112531   2.548   2.407  12.347 -1.3781  1.1340 -2.4851
  853MPD2    H212532   2.349   2.500  12.698  0.8854  1.1503  0.6090
  853MPD2    H312533   2.456   2.346  12.570 -1.0977  1.4745  4.4117
  853MPD2     N12534   2.551   2.646  12.240  0.4826 -0.1055 -1.1471
  853MPD2    H512535   2.565   2.565  12.181  1.7325 -1.0526  0.4485
  853MPD2    N112536   2.354   2.769  12.678 -0.1997 -0.4123 -0.6301
  853MPD2    H712537   2.323   2.736  12.769 -0.4661  1.1416 -0.1451
  854MPD2     C12538   0.250   3.034  12.471 -0.2959 -0.0510  0.4772
  854MPD2    C112539   0.254   2.929  12.382  0.5312 -0.4021 -0.4748
  854MPD2    C212540   0.256   2.800  12.441  0.6504 -0.0653 -0.0727
  854MPD2    C312541   0.224   2.774  12.574  0.7301 -0.8912  0.3431
  854MPD2    C412542   0.227   2.886  12.656  0.5065 -0.1643  0.3042
  854MPD2    C512543   0.239   3.011  12.605  0.7111  0.7486 -0.6856
  854MPD2     H12544   0.287   2.710  12.388 -0.2981 -2.1148  2.8397
  854MPD2    H112545   0.226   2.868  12.763 -1.6426 -2.3051 -0.0801
  854MPD2    H212546   0.243   3.139  12.442 -2.1830 -0.2576  0.1736
  854MPD2    H312547   0.237   3.099  12.668 -1.4686  0.0523  0.2279
  854MPD2     N12548   0.230   2.643  12.631  0.5483 -0.5409  0.2758
  854MPD2    H512549   0.247   2.642  12.731 -2.6069  1.3313  0.8247
  854MPD2    N112550   0.271   2.951  12.244  0.0243  0.0370  0.1824
  854MPD2    H712551   0.265   3.046  12.209 -2.2204  0.5844  2.0088
  855MPD2     C12552   0.729   2.515  13.333 -0.0369 -0.1856  0.8317
  855MPD2    C112553   0.619   2.426  13.335  1.1959  0.5229 -0.1858
  855MPD2    C212554   0.558   2.399  13.215  0.2711  0.6682  0.2693
  855MPD2    C312555   0.605   2.457  13.098 -0.0587  0.3831 -0.0429
  855MPD2    C412556   0.706   2.548  13.092 -0.0683 -0.6197  0.3661
  855MPD2    C512557   0.771   2.565  13.211  0.2382 -0.2215  0.2103
  855MPD2     H12558   0.467   2.339  13.215 -0.3178  1.5406 -1.4366
  855MPD2    H112559   0.742   2.611  13.012 -1.3389 -0.3332  0.0094
  855MPD2    H212560   0.766   2.549  13.429  0.1092  1.2293  0.2743
  855MPD2    H312561   0.855   2.633  13.209  0.1433 -0.0961  0.4706
  855MPD2     N12562   0.534   2.435  12.976 -0.2251 -0.1508  0.2726
  855MPD2    H512563   0.570   2.482  12.894 -0.8495  2.4415  1.4899
  855MPD2    N112564   0.544   2.375  13.448  0.5787 -0.8147  0.0610
  855MPD2    H712565   0.451   2.338  13.438  0.4237  0.1822 -2.2686
  856MPD2     C12566   1.989   3.426  14.077  0.0345  0.0002 -0.7844
  856MPD2    C112567   2.095   3.513  14.091  0.0653 -0.0514 -0.0257
  856MPD2    C212568   2.079   3.644  14.075 -0.6424 -0.3860 -0.8715
  856MPD2    C312569   1.952   3.690  14.044 -0.0249  0.0661 -0.4627
  856MPD2    C412570   1.844   3.603  14.048  0.3860 -0.3182  0.5644
  856MPD2    C512571   1.861   3.471  14.058  0.3365  0.1811 -0.2242
  856MPD2     H12572   2.160   3.707  14.112  0.3774 -1.7588 -0.7849
  856MPD2    H112573   1.743   3.640  14.036  0.7620 -0.2571 -2.2130
  856MPD2    H212574   1.995   3.317  14.081  2.8365  0.1384 -0.6914
  856MPD2    H312575   1.780   3.402  14.041 -0.3964  0.9065  0.3322
  856MPD2     N12576   1.916   3.827  14.030  0.3135  0.5388 -0.8294
  856MPD2    H512577   1.818   3.851  14.020  0.6821  2.0334 -1.0073
  856MPD2    N112578   2.218   3.465  14.140 -0.3279 -0.1232 -0.2252
  856MPD2    H712579   2.294   3.527  14.166 -2.0549  1.9671 -0.1453
  857MPD2     C12580   3.480   1.177  12.809  0.1571 -0.3153 -0.1343
  857MPD2    C112581   3.617   1.187  12.824  0.2273  0.1943  0.1878
  857MPD2    C212582   3.675   1.308  12.805 -1.2352  0.0887 -0.1038
  857MPD2    C312583   3.600   1.420  12.783 -0.5209  0.5653 -0.1559
  857MPD2    C412584   3.462   1.412  12.775  0.5048  0.0371 -0.2100
  857MPD2    C512585   3.409   1.290  12.785  0.5435  0.2966 -0.9766
  857MPD2     H12586   3.782   1.327  12.804 -1.4571  1.4524  1.2783
  857MPD2    H112587   3.399   1.496  12.748  0.8039  0.3269 -0.0065
  857MPD2    H212588   3.421   1.087  12.819 -0.2943 -0.1155 -1.0216
  857MPD2    H312589   3.301   1.280  12.777  0.6756  0.4493 -3.1731
  857MPD2     N12590   3.668   1.537  12.788  0.0697 -0.2149  0.0371
  857MPD2    H512591   3.763   1.519  12.819  0.8511 -0.2012 -2.3584
  857MPD2    N112592   3.687   1.070  12.844 -0.5382  0.4772  0.0972
  857MPD2    H712593   3.633   0.984  12.834  0.0825  0.4047 -2.6599
  858MPD2     C12594   4.336   4.614  16.899  0.1319  0.4562 -0.5343
  858MPD2    C112595   4.449   4.552  16.948 -0.8226  0.0791 -0.0636
  858MPD2    C212596   4.506   4.618  17.061 -0.0711  0.2715  0.3948
  858MPD2    C312597   4.455   0.008  17.123  0.4633  0.5243 -0.5183
  858MPD2    C412598   4.337   0.063  17.070  0.8038  0.0272  0.6231
  858MPD2    C512599   4.285   0.007  16.958  0.5158  0.3020  0.5156
  858MPD2     H12600   4.590   4.570  17.110 -2.1904 -3.1080  0.7007
  858MPD2    H112601   4.282   0.147  17.109  1.6943  0.8943  0.0081
  858MPD2    H212602   4.288   4.569  16.813  0.0521  2.6925 -1.6643
  858MPD2    H312603   4.197   0.055  16.917  0.5983  1.1421  1.3287
  858MPD2     N12604   4.496   0.058  17.251 -0.2329 -0.1191 -0.2054
  858MPD2    H512605   4.429   0.127  17.282 -1.1352 -1.0031 -0.1918
  858MPD2    N112606   4.489   4.422  16.901 -0.4696  0.2193 -0.2117
  858MPD2    H712607   4.422   4.375  16.841 -1.8312 -0.0689  1.5543
  859MPD2     C12608   3.006   2.022  15.194 -0.4984 -0.9088  0.4472
  859MPD2    C112609   3.137   1.997  15.146  0.2596  0.5238 -0.2189
  859MPD2    C212610   3.174   1.864  15.122  0.2488 -0.7552  0.1095
  859MPD2    C312611   3.094   1.760  15.154 -0.3673  0.7539  0.2813
  859MPD2    C412612   2.966   1.786  15.207  0.2792  0.7951 -0.4852
  859MPD2    C512613   2.925   1.913  15.228 -0.1093 -0.1491  0.2581
  859MPD2     H12614   3.273   1.851  15.081 -0.2047  0.1880 -1.2778
  859MPD2    H112615   2.898   1.704  15.225 -0.1514  1.6630  1.8542
  859MPD2    H212616   2.965   2.122  15.202 -0.4243 -0.8711  0.3516
  859MPD2    H312617   2.833   1.940  15.279 -0.2138  1.1351 -0.6248
  859MPD2     N12618   3.128   1.623  15.145  0.9255  0.1823  0.6770
  859MPD2    H512619   3.057   1.561  15.183  1.4081 -1.4776 -1.1292
  859MPD2    N112620   3.211   2.110  15.100 -0.9210  0.2686  0.0041
  859MPD2    H712621   3.159   2.197  15.103  1.6280  1.8197 -0.5389
  860MPD2     C12622   1.346   2.587  11.562 -0.5479 -0.2535  0.7778
  860MPD2    C112623   1.273   2.670  11.651 -0.2310 -0.4679 -0.3733
  860MPD2    C212624   1.135   2.659  11.643  0.1038  0.3102 -0.1439
  860MPD2    C312625   1.073   2.561  11.566  0.6633 -0.1546 -0.1172
  860MPD2    C412626   1.149   2.474  11.489 -0.0949  0.7605  0.1646
  860MPD2    C512627   1.282   2.490  11.486  0.2294 -0.0551 -0.0057
  860MPD2     H12628   1.081   2.714  11.718 -0.2821  3.1994 -2.5340
  860MPD2    H112629   1.112   2.385  11.440  0.0582  0.8868 -0.1793
  860MPD2    H212630   1.453   2.591  11.548 -0.3835 -1.8380  1.5951
  860MPD2    H312631   1.354   2.433  11.427 -0.6498 -1.6631  0.4992
  860MPD2     N12632   0.932   2.546  11.583 -0.0674 -0.7892 -0.2536
  860MPD2    H512633   0.885   2.612  11.643 -1.4119 -1.7668 -0.2265
  860MPD2    N112634   1.337   2.755  11.742  0.1939 -0.3004 -0.5285
  860MPD2    H712635   1.283   2.826  11.791  2.7709  2.6559 -1.9948
  861MPD2     C12636   0.268   0.939  11.231 -0.2747 -0.5679  0.2866
  861MPD2    C112637   0.150   0.977  11.292 -0.0890 -0.3570  0.0705
  861MPD2    C212638   0.033   0.994  11.225 -0.9495  0.1921 -0.3806
  861MPD2    C312639   0.039   0.957  11.088  0.2192 -0.5637  0.5942
  861MPD2    C412640   0.158   0.922  11.024 -0.3272 -0.2891  0.1762
  861MPD2    C512641   0.273   0.913  11.098  0.3890 -0.3063  0.2587
  861MPD2     H12642   4.668   1.021  11.278 -0.8038 -1.7476  0.8498
  861MPD2    H112643   0.160   0.889  10.921 -1.0869  0.0871  0.0437
  861MPD2    H212644   0.363   0.922  11.280  0.3864 -0.4072 -0.9545
  861MPD2    H312645   0.358   0.877  11.041  1.3799 -0.1447  1.6316
  861MPD2     N12646   4.650   0.971  11.006 -0.5360 -0.3229 -0.1064
  861MPD2    H512647   4.665   0.950  10.908 -3.0984  1.8627 -0.9521
  861MPD2    N112648   0.141   0.999  11.433  0.2770  0.0589  0.0548
  861MPD2    H712649   0.053   1.027  11.474  1.1813 -1.0469  2.7735
  862MPD2     C12650   4.301   0.715  10.409  0.0932 -0.6623  0.0277
  862MPD2    C112651   4.400   0.714  10.501  0.0737 -0.2170 -0.3049
  862MPD2    C212652   4.465   0.598  10.533 -0.0250  0.9132  0.5277
  862MPD2    C312653   4.444   0.487  10.466  0.0366 -0.4851  0.5086
  862MPD2    C412654   4.350   0.491  10.362  0.1047 -0.5573  0.2259
  862MPD2    C512655   4.276   0.605  10.331  0.1224 -0.9245  0.5886
  862MPD2     H12656   4.540   0.595  10.611  2.5749 -2.6585 -2.1194
  862MPD2    H112657   4.328   0.400  10.308 -0.6737  0.7596 -1.6794
  862MPD2    H212658   4.242   0.805  10.392 -1.7581 -1.6359  1.4499
  862MPD2    H312659   4.203   0.606  10.251  0.2198  0.9129  0.5404
  862MPD2     N12660   4.514   0.361  10.483  0.1528  0.0883  0.1527
  862MPD2    H512661   4.473   0.280  10.438  0.6776  0.8828 -1.7145
  862MPD2    N112662   4.427   0.823  10.587  0.0159  0.3319 -0.0692
  862MPD2    H712663   4.480   0.802  10.671 -1.6660  2.4824  1.5529
  863MPD2     C12664   2.589   3.290  17.190 -0.3805 -0.0292  0.5989
  863MPD2    C112665   2.692   3.325  17.103  1.5997  0.8702  0.1651
  863MPD2    C212666   2.821   3.297  17.144  0.4214  0.1042 -0.1944
  863MPD2    C312667   2.849   3.240  17.271 -0.7426 -0.0418  0.4314
  863MPD2    C412668   2.738   3.203  17.354 -0.8698 -0.3086 -0.0231
  863MPD2    C512669   2.609   3.233  17.314 -0.1359  0.2847 -0.3383
  863MPD2     H12670   2.896   3.316  17.067 -0.1255  1.0335 -0.5010
  863MPD2    H112671   2.743   3.174  17.459  0.1940 -1.1180 -0.2950
  863MPD2    H212672   2.486   3.312  17.161 -0.0216  0.2884 -0.4276
  863MPD2    H312673   2.527   3.212  17.382  0.3328 -0.7815 -0.0990
  863MPD2     N12674   2.973   3.235  17.329  0.7413 -0.4248 -0.1296
  863MPD2    H512675   2.989   3.183  17.414 -0.1153 -1.0395 -0.3471
  863MPD2    N112676   2.656   3.368  16.973 -0.1528  0.5916  0.0367
  863MPD2    H712677   2.557   3.391  16.965  0.1440  1.0712 -2.0044
  864MPD2     C12678   3.369   4.642  17.592 -0.2015 -0.0938 -0.0962
  864MPD2    C112679   3.448   4.594  17.486 -0.6016 -0.0328  0.2551
  864MPD2    C212680   3.540   4.684  17.430 -0.3121  0.1977 -0.4781
  864MPD2    C312681   3.539   0.098  17.470 -0.2724 -0.4317 -0.3761
  864MPD2    C412682   3.456   0.136  17.574  0.0154 -0.0951  0.2496
  864MPD2    C512683   3.372   0.046  17.634  0.4293 -0.9401  0.2137
  864MPD2     H12684   3.608   4.648  17.354  1.4200  0.0271  1.1561
  864MPD2    H112685   3.448   0.241  17.602  0.8346 -0.1286  0.6078
  864MPD2    H212686   3.304   4.572  17.643  0.6074 -0.5051  0.3791
  864MPD2    H312687   3.311   0.071   0.018 -0.6783  2.4478 -1.5681
  864MPD2     N12688   3.611   0.190  17.399  0.0744  0.3574  0.0097
  864MPD2    H512689   3.592   0.288  17.418 -0.2102  0.7582 -2.2640
  864MPD2    N112690   3.433   4.463  17.443 -0.3099  0.1413 -0.1302
  864MPD2    H712691   3.357   4.408  17.481  0.4052 -0.3285  0.6166
  865MPD2     C12692   3.637   0.501  16.565  0.1015 -0.6231  0.0561
  865MPD2    C112693   3.635   0.377  16.609  0.0180  0.6940 -0.1152
  865MPD2    C212694   3.586   0.358  16.739 -0.0665  0.5339 -1.0752
  865MPD2    C312695   3.564   0.473  16.815  1.0934 -0.7067 -0.0925
  865MPD2    C412696   3.581   0.598  16.760 -0.3660 -0.8098  0.1648
  865MPD2    C512697   3.610   0.614  16.631  0.7433  0.0879 -0.2769
  865MPD2     H12698   3.580   0.261  16.787  0.4191 -0.3890 -2.8633
  865MPD2    H112699   3.574   0.689  16.818 -0.4627 -0.0817 -0.9867
  865MPD2    H212700   3.667   0.517  16.462  0.0380  0.0847  0.1481
  865MPD2    H312701   3.627   0.714  16.594 -1.4447  0.9173  0.9447
  865MPD2     N12702   3.559   0.453  16.958 -0.3806  0.4127 -0.2116
  865MPD2    H512703   3.552   0.354  16.982 -2.6832  0.4359 -0.8007
  865MPD2    N112704   3.674   0.267  16.522  0.6051  0.0749  0.1491
  865MPD2    H712705   3.702   0.285  16.426 -0.4548 -0.1691 -0.2054
  866MPD2     C12706   0.570   1.228  11.678  0.5666  0.3867 -0.3719
  866MPD2    C112707   0.579   1.171  11.558  0.0279  0.5629 -0.4645
  866MPD2    C212708   0.500   1.205  11.452 -0.3545 -0.3458  0.8102
  866MPD2    C312709   0.399   1.305  11.471  0.1882  0.3021  0.0213
  866MPD2    C412710   0.383   1.363  11.604 -0.0136 -0.6891  0.3645
  866MPD2    C512711   0.468   1.316  11.705 -0.3097  0.2360 -0.4477
  866MPD2     H12712   0.509   1.153  11.358  1.2966  0.9113  0.2750
  866MPD2    H112713   0.306   1.434  11.632 -0.4830 -1.1571  0.2644
  866MPD2    H212714   0.635   1.201  11.760  0.1489  1.0485  0.1811
  866MPD2    H312715   0.471   1.367  11.801 -0.5623 -2.4224  0.9677
  866MPD2     N12716   0.309   1.349  11.377  0.3277 -0.1436 -0.2107
  866MPD2    H512717   0.232   1.403  11.414 -0.1819 -0.6361 -0.5571
  866MPD2    N112718   0.680   1.078  11.543  0.3298 -0.1778 -0.2621
  866MPD2    H712719   0.734   1.055  11.625  0.4308 -0.8889 -0.5244
  867MPD2     C12720   2.744   4.613  16.689 -0.1030 -0.1146  0.4018
  867MPD2    C112721   2.761   4.607  16.825 -0.0452  0.1552 -0.5554
  867MPD2    C212722   2.840   4.701  16.887  1.0673 -1.0843  0.6481
  867MPD2    C312723   2.874   0.089  16.819  0.5645  0.1143 -0.2613
  867MPD2    C412724   2.854   0.090  16.686 -0.5123  0.0438  0.8118
  867MPD2    C512725   2.794   4.719  16.620 -0.4989  0.7378  0.0740
  867MPD2     H12726   2.862   4.694  16.993  0.1079 -1.9568  0.7872
  867MPD2    H112727   2.871   0.180  16.627 -1.8109  0.1275  0.5633
  867MPD2    H212728   2.695   4.533  16.635  0.3306  0.7427 -1.2638
  867MPD2    H312729   2.789   4.721  16.512 -1.4637  2.1083  0.1446
  867MPD2     N12730   2.959   0.197  16.871  0.0513 -0.8757  0.3054
  867MPD2    H512731   2.983   0.259  16.794 -1.7597 -0.4672  0.0837
  867MPD2    N112732   2.731   4.483  16.883  0.3416 -0.2369 -0.4755
  867MPD2    H712733   2.708   4.407  16.820 -1.2139  2.3745 -3.0418
  868MPD2     C12734   3.859   4.445  13.197  1.0167  0.0427  0.1552
  868MPD2    C112735   3.941   4.419  13.304  0.0327 -0.1356 -0.0194
  868MPD2    C212736   3.878   4.389  13.428 -0.5247  0.7726 -0.1859
  868MPD2    C312737   3.747   4.387  13.446 -0.3961  0.5565 -1.1987
  868MPD2    C412738   3.666   4.390  13.333 -0.0116 -1.2058  0.5794
  868MPD2    C512739   3.722   4.417  13.211  0.4174  0.5565 -0.3035
  868MPD2     H12740   3.941   4.379  13.515  0.8113  3.3518 -0.8476
  868MPD2    H112741   3.560   4.366  13.332 -0.6708  1.7125  0.8142
  868MPD2    H212742   3.899   4.463  13.098 -0.7108 -0.8914 -0.7183
  868MPD2    H312743   3.662   4.415  13.121  1.2257 -4.0413 -0.7236
  868MPD2     N12744   3.704   4.357  13.581 -0.0019 -0.2967  0.0375
  868MPD2    H512745   3.777   4.355  13.652  0.8213 -2.5323 -0.8448
  868MPD2    N112746   4.080   4.424  13.296 -0.1662  0.2103  0.1790
  868MPD2    H712747   4.129   4.401  13.382  2.3540 -0.1945 -1.3744
  869MPD2     C12748   0.804   1.201   2.455  0.5478  0.9544 -0.5464
  869MPD2    C112749   0.669   1.197   2.444 -0.1745 -0.0075  0.1552
  869MPD2    C212750   0.596   1.297   2.379  0.6051  0.5436  0.6582
  869MPD2    C312751   0.664   1.412   2.336  0.8024 -0.5268 -0.3394
  869MPD2    C412752   0.805   1.416   2.345  0.0035  0.0685 -0.8554
  869MPD2    C512753   0.870   1.310   2.405 -0.4923  0.1347 -0.0862
  869MPD2     H12754   0.490   1.292   2.356  0.2483  2.2304  1.8919
  869MPD2    H112755   0.861   1.497   2.299 -0.1279 -0.5552 -2.1244
  869MPD2    H212756   0.862   1.130   2.514 -1.0143 -0.6215 -0.9348
  869MPD2    H312757   0.979   1.309   2.412 -0.4379  0.9682 -0.8818
  869MPD2     N12758   0.606   1.519   2.262 -0.2878 -0.8620  0.1029
  869MPD2    H512759   0.673   1.580   2.216  1.5093 -3.3547 -0.5978
  869MPD2    N112760   0.605   1.082   2.489  0.3971  0.0297 -0.4350
  869MPD2    H712761   0.651   1.012   2.546 -0.9857 -1.3020 -0.9518
  870MPD2     C12762   4.180   0.858   2.228  0.8844 -1.2070 -0.3113
  870MPD2    C112763   4.303   0.847   2.179 -0.0101 -0.1473  0.3094
  870MPD2    C212764   4.351   0.933   2.081 -0.4529 -0.2637  0.7191
  870MPD2    C312765   4.267   1.036   2.033 -0.3812  0.0512 -0.2794
  870MPD2    C412766   4.144   1.046   2.089  0.0697 -0.5989 -0.8065
  870MPD2    C512767   4.098   0.956   2.182  0.4177  0.1382 -0.5377
  870MPD2     H12768   4.451   0.926   2.040 -0.4552  1.0039  0.4922
  870MPD2    H112769   4.081   1.131   2.065  0.8830  0.4568  0.7909
  870MPD2    H212770   4.148   0.789   2.306 -1.1854  0.9410  0.7277
  870MPD2    H312771   3.994   0.968   2.210  0.4230  0.0667 -0.4884
  870MPD2     N12772   4.310   1.118   1.916 -0.4819 -0.5315  0.0595
  870MPD2    H512773   4.399   1.089   1.877 -0.0445  1.4651 -0.4266
  870MPD2    N112774   4.379   0.742   2.236  0.0640  0.4989 -0.0726
  870MPD2    H712775   4.330   0.686   2.305  1.4463 -0.8768 -0.2024
  871MPD2     C12776   0.440   0.285  16.576  0.2532 -0.3278 -0.0586
  871MPD2    C112777   0.507   0.228  16.677  0.1188  0.0715  0.3350
  871MPD2    C212778   0.597   0.125  16.661  0.4658 -0.0296 -0.0865
  871MPD2    C312779   0.611   0.074  16.538 -0.0063  0.0675  0.4675
  871MPD2    C412780   0.547   0.133  16.430 -0.1357 -0.5814  0.1570
  871MPD2    C512781   0.457   0.235  16.451 -0.4360 -0.1689 -0.7446
  871MPD2     H12782   0.650   0.097  16.752  1.4541 -1.6405 -1.1569
  871MPD2    H112783   0.562   0.108  16.325  2.0152  2.9073 -0.3660
  871MPD2    H212784   0.360   0.355  16.594  0.2831 -0.9131  2.3354
  871MPD2    H312785   0.403   0.283  16.370 -0.9022 -1.5847 -1.2614
  871MPD2     N12786   0.713   4.698  16.528 -0.0151  0.4622 -0.4414
  871MPD2    H512787   0.755   4.665  16.614  1.5210 -0.1980 -1.4635
  871MPD2    N112788   0.492   0.278  16.808  0.1990 -0.3155  0.8967
  871MPD2    H712789   0.447   0.368  16.805 -0.5822 -0.6650  2.3011
  872MPD2     C12790   1.785   2.832  14.274 -0.3973  0.0771  0.2258
  872MPD2    C112791   1.720   2.926  14.199  0.6969  0.5731 -0.1737
  872MPD2    C212792   1.614   2.989  14.259 -0.3416  0.2423 -0.2044
  872MPD2    C312793   1.576   2.953  14.386  0.3918  0.4683 -0.3608
  872MPD2    C412794   1.650   2.863  14.462  0.8641  0.6445 -0.4194
  872MPD2    C512795   1.750   2.796  14.400  0.1958  0.0047  0.9589
  872MPD2     H12796   1.566   3.070  14.206 -1.4810 -0.4995 -0.3021
  872MPD2    H112797   1.608   2.840  14.560 -0.7796  1.1981 -0.9919
  872MPD2    H212798   1.871   2.776  14.240 -0.7424 -0.4749  0.2570
  872MPD2    H312799   1.801   2.725  14.465  2.0426 -0.1354 -0.6384
  872MPD2     N12800   1.455   2.993  14.446  0.1803 -0.2113  0.5890
  872MPD2    H512801   1.443   2.950  14.537  0.2954 -0.0453  0.6809
  872MPD2    N112802   1.763   2.978  14.081 -0.2899 -0.3114 -0.1765
  872MPD2    H712803   1.718   3.057  14.036  0.5426 -0.0704 -0.5888
  873MPD2     C12804   3.904   2.258   1.169 -0.5802  0.1625  0.2161
  873MPD2    C112805   3.791   2.245   1.244 -0.0519 -0.2524 -0.1988
  873MPD2    C212806   3.734   2.121   1.262  0.2038 -0.9283  0.1797
  873MPD2    C312807   3.783   2.005   1.199  0.5229  0.3943 -0.7384
  873MPD2    C412808   3.896   2.019   1.123 -0.2917 -0.4889 -0.0306
  873MPD2    C512809   3.962   2.140   1.119  0.4850  0.7150  0.3147
  873MPD2     H12810   3.636   2.115   1.309  1.3603 -0.6916  2.6342
  873MPD2    H112811   3.951   1.935   1.082  1.6804  0.7763  0.0752
  873MPD2    H212812   3.962   2.349   1.158 -0.7635  0.3152  0.5101
  873MPD2    H312813   4.050   2.144   1.057 -1.7130  1.8595 -2.6969
  873MPD2     N12814   3.712   1.880   1.201 -0.5045 -1.0891 -0.3910
  873MPD2    H512815   3.746   1.812   1.134  2.6677  0.0192  0.0841
  873MPD2    N112816   3.738   2.363   1.303 -0.9296 -0.1950 -0.6586
  873MPD2    H712817   3.805   2.439   1.298 -0.3095 -0.5007  2.5974
  874MPD2     C12818   3.403   2.711  16.121 -0.4287 -0.4979 -0.1641
  874MPD2    C112819   3.439   2.752  16.245  0.1970  0.0141 -0.5437
  874MPD2    C212820   3.555   2.816  16.256 -0.3923  0.7524  0.4758
  874MPD2    C312821   3.648   2.845  16.157 -0.1469 -0.2640 -0.9557
  874MPD2    C412822   3.613   2.798  16.027  0.3034  0.0011 -0.4096
  874MPD2    C512823   3.491   2.734  16.014 -0.2435  0.8874 -0.3079
  874MPD2     H12824   3.582   2.856  16.353  0.8357 -1.5360  1.0926
  874MPD2    H112825   3.674   2.805  15.938  0.5155  0.9322 -0.1895
  874MPD2    H212826   3.304   2.669  16.108 -0.7547  0.5304 -1.0070
  874MPD2    H312827   3.463   2.695  15.916 -0.8992  1.6217 -0.4122
  874MPD2     N12828   3.776   2.888  16.191  0.3905 -0.0478  0.3773
  874MPD2    H512829   3.810   2.882  16.286  0.8429 -1.0835  0.1536
  874MPD2    N112830   3.363   2.717  16.358 -0.1671 -1.0180  0.6812
  874MPD2    H712831   3.264   2.695  16.353 -0.3952 -0.3852  2.1596
  875MPD2     C12832   4.522   1.233  14.340 -0.0584 -0.6850  0.0412
  875MPD2    C112833   4.391   1.257  14.371 -0.1067 -0.4526 -0.2792
  875MPD2    C212834   4.362   1.288  14.506 -0.2429 -0.1573 -0.4629
  875MPD2    C312835   4.464   1.301  14.602 -0.4470  0.3772  0.2361
  875MPD2    C412836   4.588   1.260  14.570 -0.4174 -0.8863  0.0873
  875MPD2    C512837   4.621   1.222  14.441  0.1485  0.3894 -0.0221
  875MPD2     H12838   4.262   1.326  14.527  0.8651  2.6354 -0.2348
  875MPD2    H112839   4.669   1.262  14.641 -0.2272 -0.2797 -0.1386
  875MPD2    H212840   4.558   1.229  14.237  1.5066 -0.3363  0.5733
  875MPD2    H312841   4.724   1.223  14.406 -0.3238  0.9844 -1.3877
  875MPD2     N12842   4.442   1.334  14.736 -0.6986 -0.2154 -0.3479
  875MPD2    H512843   4.520   1.334  14.801  0.1719  0.4316 -1.3858
  875MPD2    N112844   4.289   1.276  14.278 -0.5756  0.4373  0.3159
  875MPD2    H712845   4.196   1.304  14.308 -1.3084 -0.1780 -1.4222
  876MPD2     C12846   3.831   2.517  15.886  0.2329 -0.0898 -0.0692
  876MPD2    C112847   3.734   2.483  15.789 -0.3737  0.0576 -0.6510
  876MPD2    C212848   3.665   2.365  15.806  0.9705 -0.6575  0.7178
  876MPD2    C312849   3.679   2.286  15.916 -0.5417 -0.1634  0.3083
  876MPD2    C412850   3.759   2.339  16.021 -0.1697 -0.4900  0.2340
  876MPD2    C512851   3.834   2.451  16.005  0.0222 -0.2523  0.1131
  876MPD2     H12852   3.605   2.340  15.719 -0.3621  3.1373  0.5269
  876MPD2    H112853   3.766   2.286  16.115 -1.2977  0.7450  1.0066
  876MPD2    H212854   3.905   2.594  15.866  0.4223 -0.2213  0.1277
  876MPD2    H312855   3.900   2.483  16.085 -0.9352  1.0557  0.3884
  876MPD2     N12856   3.603   2.167  15.931 -0.3804  0.2466  0.3864
  876MPD2    H512857   3.547   2.136  15.852 -0.6407  0.9082  0.3185
  876MPD2    N112858   3.731   2.560  15.670  0.5142  0.2237  0.0036
  876MPD2    H712859   3.803   2.630  15.657  2.1006 -1.3121  0.6433
  877MPD2     C12860   3.373   2.850  14.917 -0.4989  0.6567  0.1915
  877MPD2    C112861   3.504   2.881  14.947 -0.6279  0.4834  0.4367
  877MPD2    C212862   3.572   2.960  14.856 -0.2841 -0.0332  0.2670
  877MPD2    C312863   3.517   3.008  14.735 -0.0368  0.2963  0.0080
  877MPD2    C412864   3.383   2.989  14.719  0.0142  0.2825 -0.1808
  877MPD2    C512865   3.319   2.899  14.802 -0.1904 -0.0336  0.1230
  877MPD2     H12866   3.673   2.991  14.881 -0.0985  0.1725 -0.7665
  877MPD2    H112867   3.332   3.034  14.634  1.0725  0.7043 -0.5917
  877MPD2    H212868   3.309   2.778  14.968 -1.5955  1.3997 -0.1431
  877MPD2    H312869   3.216   2.873  14.778 -1.0297  1.1702  2.3452
  877MPD2     N12870   3.596   3.075  14.636 -0.1619  0.5176  0.0631
  877MPD2    H512871   3.542   3.100  14.554 -0.2963 -1.1609 -0.3735
  877MPD2    N112872   3.572   2.847  15.067  0.0662 -0.4513 -0.1693
  877MPD2    H712873   3.667   2.881  15.060 -0.6249  1.1329 -2.1360
  878MPD2     C12874   3.305   2.877  12.905  0.1049 -0.4889 -0.4677
  878MPD2    C112875   3.252   2.757  12.961  0.0067 -0.2128  0.2052
  878MPD2    C212876   3.228   2.750  13.097  0.4383  0.5262  0.5494
  878MPD2    C312877   3.257   2.861  13.175  0.2770  0.6467  0.4088
  878MPD2    C412878   3.314   2.970  13.120  0.5768  1.0442  0.1434
  878MPD2    C512879   3.322   2.986  12.985 -0.9378  0.3317 -0.3093
  878MPD2     H12880   3.198   2.655  13.142 -0.1330  0.0029 -0.9303
  878MPD2    H112881   3.325   3.062  13.175  2.7278  1.1661 -0.4717
  878MPD2    H212882   3.318   2.896  12.799 -0.2366 -0.2026 -0.4587
  878MPD2    H312883   3.352   3.085  12.951 -0.0638 -1.3012 -4.3253
  878MPD2     N12884   3.237   2.853  13.311 -0.1907 -0.5940 -0.1920
  878MPD2    H512885   3.268   2.931  13.367 -1.0400  0.5680 -1.3256
  878MPD2    N112886   3.206   2.662  12.871 -0.2499 -0.4472  0.3942
  878MPD2    H712887   3.196   2.687  12.773  2.8157 -0.9193 -0.0522
  879MPD2     C12888   3.654   3.791  17.181  0.7694 -0.4183  0.1553
  879MPD2    C112889   3.676   3.680  17.261 -0.1495 -0.4790  0.3173
  879MPD2    C212890   3.641   3.549  17.210  0.1487  0.6971  0.0404
  879MPD2    C312891   3.609   3.535  17.079 -0.3526 -0.1326 -0.3451
  879MPD2    C412892   3.590   3.651  17.007  1.2738  0.1646 -0.0375
  879MPD2    C512893   3.614   3.776  17.054  0.3839  0.3102 -0.1437
  879MPD2     H12894   3.648   3.462  17.274 -0.0676  0.5210 -0.1774
  879MPD2    H112895   3.554   3.651  16.905  2.0361 -2.9421 -0.3057
  879MPD2    H212896   3.674   3.891  17.217  0.6247  0.0427 -1.0401
  879MPD2    H312897   3.587   3.865  16.998  1.7905 -0.6053 -2.2852
  879MPD2     N12898   3.588   3.405  17.015 -0.0651 -0.3468  0.0702
  879MPD2    H512899   3.574   3.405  16.915  1.3129  0.9233 -0.1323
  879MPD2    N112900   3.720   3.703  17.393 -0.3925 -0.3896  0.2199
  879MPD2    H712901   3.732   3.802  17.414  0.3246 -0.6247  0.9543
  880MPD2     C12902   0.273   0.393   0.552 -0.2145 -0.7011 -0.0000
  880MPD2    C112903   0.247   0.414   0.685  0.3563  0.2108 -1.0079
  880MPD2    C212904   0.211   0.310   0.774 -0.8301  0.4322 -0.5895
  880MPD2    C312905   0.180   0.188   0.728  0.2901 -0.2334  0.4368
  880MPD2    C412906   0.196   0.168   0.594  0.3089 -0.1491  0.8084
  880MPD2    C512907   0.241   0.266   0.505  0.2880  0.5711 -0.1095
  880MPD2     H12908   0.196   0.331   0.879  0.7320 -0.0095 -0.2824
  880MPD2    H112909   0.170   0.076   0.543  1.4226  1.5831 -2.8480
  880MPD2    H212910   0.290   0.470   0.478 -2.6409 -2.0555 -1.9575
  880MPD2    H312911   0.251   0.233   0.402 -3.0547 -0.2171 -0.1712
  880MPD2     N12912   0.123   0.092   0.823  0.1129  0.0187 -0.5883
  880MPD2    H512913   0.086   0.137   0.906 -0.4873  0.1776 -0.9421
  880MPD2    N112914   0.258   0.549   0.726 -0.2601  0.4141  0.3149
  880MPD2    H712915   0.300   0.615   0.662  1.6655 -0.6985  0.4511
  881MPD2     C12916   0.237   1.420   0.332  0.7519  0.6040 -0.4509
  881MPD2    C112917   0.298   1.302   0.321 -0.1226  0.5360  0.1167
  881MPD2    C212918   0.255   1.209   0.413  0.9979 -0.1414  0.2006
  881MPD2    C312919   0.199   1.240   0.538  0.3451 -0.2056 -1.0559
  881MPD2    C412920   0.151   1.368   0.552  0.4175  0.7521 -0.2268
  881MPD2    C512921   0.171   1.458   0.451  0.3141 -0.3157  0.7427
  881MPD2     H12922   0.267   1.102   0.397  1.7858 -0.0232  0.0319
  881MPD2    H112923   0.091   1.393   0.639 -1.4569 -1.0312 -1.0201
  881MPD2    H212924   0.247   1.496   0.255  0.5568  2.1843  1.0949
  881MPD2    H312925   0.142   1.562   0.459 -1.8023 -0.7546 -1.1126
  881MPD2     N12926   0.183   1.147   0.643 -0.4274 -0.1351  0.2676
  881MPD2    H512927   0.127   1.180   0.721  0.6534 -0.5955  1.2359
  881MPD2    N112928   0.346   1.262   0.193  0.4393  0.4800  0.1082
  881MPD2    H712929   0.362   1.337   0.127 -1.9976 -0.2090 -1.2579
  882MPD2     C12930   3.413   3.129  13.926 -0.4103  0.0718  0.0899
  882MPD2    C112931   3.403   3.101  14.060 -0.0441 -0.0287 -0.1544
  882MPD2    C212932   3.286   3.051  14.107 -0.1625  0.0047 -0.5254
  882MPD2    C312933   3.178   3.030  14.028 -0.2061 -0.8025  0.5672
  882MPD2    C412934   3.181   3.077  13.895 -0.3401  0.1578  0.6320
  882MPD2    C512935   3.303   3.116  13.842  0.9999 -0.1006  0.4094
  882MPD2     H12936   3.279   3.051  14.215  0.6023  1.1784 -0.4739
  882MPD2    H112937   3.097   3.054  13.830 -1.1494  1.1204  1.3271
  882MPD2    H212938   3.504   3.169  13.883  0.3186 -1.4485  0.2228
  882MPD2    H312939   3.321   3.156  13.742 -0.8749  2.0294  0.9171
  882MPD2     N12940   3.055   2.986  14.077 -0.2398 -0.3129  0.3981
  882MPD2    H512941   2.985   2.967  14.006  0.2836  3.1603 -1.0476
  882MPD2    N112942   3.521   3.136  14.135 -0.2417 -0.0683 -0.5958
  882MPD2    H712943   3.597   3.176  14.081  0.0517  1.4609  0.9473
  883MPD2     C12944   0.533   2.600  16.406 -0.0893 -0.4156 -0.3392
  883MPD2    C112945   0.635   2.523  16.357  0.3023  0.5524  0.6356
  883MPD2    C212946   0.759   2.560  16.400 -0.2024 -0.1688  0.5104
  883MPD2    C312947   0.782   2.671  16.489 -0.8063 -0.7585 -0.2215
  883MPD2    C412948   0.675   2.749  16.522 -0.5948 -0.2260  0.2157
  883MPD2    C512949   0.547   2.711  16.478 -0.0197 -0.3105 -0.3644
  883MPD2     H12950   0.849   2.507  16.371 -0.0426 -0.0288  0.7427
  883MPD2    H112951   0.682   2.833  16.589  0.1731  0.7684 -1.1157
  883MPD2    H212952   0.429   2.576  16.388  0.3368 -2.6048  0.1822
  883MPD2    H312953   0.458   2.753  16.523  2.8967  4.7326  0.7034
  883MPD2     N12954   0.913   2.694  16.551 -1.0070 -0.1680 -0.3956
  883MPD2    H512955   0.986   2.626  16.533  0.3988  1.3135 -0.2837
  883MPD2    N112956   0.623   2.411  16.271  0.1176 -0.2034  1.0173
  883MPD2    H712957   0.708   2.362  16.246 -0.7251 -0.6929 -0.8759
  884MPD2     C12958   2.807   3.345  15.097 -0.9726  0.5256 -0.0407
  884MPD2    C112959   2.773   3.480  15.094  0.1028 -0.8436 -0.3148
  884MPD2    C212960   2.646   3.514  15.146  0.0999 -0.4630 -0.3180
  884MPD2    C312961   2.572   3.421  15.211  0.1224  0.3601 -0.0253
  884MPD2    C412962   2.614   3.286  15.217 -0.8483  0.5837  0.1431
  884MPD2    C512963   2.732   3.246  15.165  0.3718 -0.2299 -0.5151
  884MPD2     H12964   2.616   3.618  15.150 -2.0187 -1.1698  1.6382
  884MPD2    H112965   2.565   3.209  15.276 -2.2668  2.6166  1.6346
  884MPD2    H212966   2.907   3.310  15.073 -0.5006  3.1198 -1.9192
  884MPD2    H312967   2.773   3.146  15.175 -1.3113 -0.9595 -0.8389
  884MPD2     N12968   2.452   3.466  15.266 -0.8529  0.3152  0.5011
  884MPD2    H512969   2.433   3.564  15.251  0.9605  0.4770 -0.6676
  884MPD2    N112970   2.852   3.585  15.054 -0.2579  0.2137  0.2138
  884MPD2    H712971   2.816   3.674  15.087  0.2251 -0.2315  1.9099
  885MPD2     C12972   1.024   3.127   0.539  0.0701  0.4956 -0.2586
  885MPD2    C112973   1.094   3.245   0.557  0.0639 -0.2421  0.2492
  885MPD2    C212974   1.084   3.336   0.460 -0.4815  0.0298 -0.7128
  885MPD2    C312975   0.993   3.332   0.358 -0.0892 -0.1138 -0.2204
  885MPD2    C412976   0.911   3.222   0.348  0.4346  0.0042  0.5937
  885MPD2    C512977   0.927   3.118   0.439  0.5240 -0.5037 -0.2488
  885MPD2     H12978   1.156   3.417   0.467 -0.3218 -0.0422 -1.5850
  885MPD2    H112979   0.838   3.208   0.269  1.5907  0.3433 -0.5302
  885MPD2    H212980   1.025   3.047   0.611  0.9914  1.9247  1.3232
  885MPD2    H312981   0.864   3.031   0.425  0.2633 -0.4014  0.2752
  885MPD2     N12982   0.986   3.448   0.271  0.7446 -0.1218 -1.0454
  885MPD2    H512983   1.045   3.526   0.299  0.5069  0.6951 -2.7749
  885MPD2    N112984   1.188   3.249   0.666  0.1933  0.1699 -0.5099
  885MPD2    H712985   1.193   3.168   0.726 -1.4993  0.8585  0.5402
  886MPD2     C12986   1.745   2.139  15.111 -0.4484  0.8515 -1.0620
  886MPD2    C112987   1.869   2.109  15.163  0.1208 -0.1474 -0.0225
  886MPD2    C212988   1.977   2.194  15.130  0.2263 -0.7295  0.0358
  886MPD2    C312989   1.966   2.301  15.046  0.2767  0.0577 -0.5641
  886MPD2    C412990   1.839   2.329  14.996  0.2331 -1.1065  0.0155
  886MPD2    C512991   1.739   2.239  15.023 -0.0371  0.1606 -0.1413
  886MPD2     H12992   2.075   2.171  15.171 -1.0788  0.3152  3.7500
  886MPD2    H112993   1.822   2.408  14.923 -1.1304 -0.4588  1.0171
  886MPD2    H212994   1.653   2.085  15.131  1.1640 -1.2394  0.5916
  886MPD2    H312995   1.637   2.242  14.985  0.1129  1.0817 -0.4700
  886MPD2     N12996   2.067   2.388  15.004 -0.1274  0.2791  0.3097
  886MPD2    H512997   2.028   2.465  14.950  1.3339 -0.1067 -1.2554
  886MPD2    N112998   1.904   1.996  15.237 -0.3443  0.2499 -0.2072
  886MPD2    H712999   2.002   1.993  15.264  0.3494 -0.2016 -2.7377
  887MPD2     C13000   2.528   1.844  15.489 -0.0069  0.9439  0.2538
  887MPD2    C113001   2.417   1.926  15.460 -0.0342 -0.4188  1.1278
  887MPD2    C213002   2.437   2.063  15.469  0.3721  0.1601  0.0130
  887MPD2    C313003   2.559   2.117  15.505  0.2175  0.0327 -0.1644
  887MPD2    C413004   2.667   2.033  15.519  0.9353 -0.1765  0.3794
  887MPD2    C513005   2.650   1.902  15.513 -0.9707  0.2412  0.2423
  887MPD2     H13006   2.351   2.123  15.440 -0.2049 -0.3810  0.6094
  887MPD2    H113007   2.763   2.066  15.557  0.6633  2.3501 -1.1472
  887MPD2    H213008   2.531   1.736  15.485  1.6231  0.9814  0.6504
  887MPD2    H313009   2.731   1.838  15.547 -1.1770 -1.1638 -1.8989
  887MPD2     N13010   2.563   2.260  15.521 -0.1577  0.0088 -0.0929
  887MPD2    H513011   2.476   2.302  15.492 -0.2297 -0.2361 -0.2328
  887MPD2    N113012   2.289   1.873  15.440 -0.2892  0.3855 -0.6658
  887MPD2    H713013   2.219   1.945  15.429  1.7267  2.3487 -0.7932
  888MPD2     C13014   0.055   2.386  14.776  0.5386 -0.3092  0.4221
  888MPD2    C113015   4.722   2.442  14.887  0.3172  0.9246 -1.0517
  888MPD2    C213016   0.009   2.575  14.906  0.0450  0.3313  0.2309
  888MPD2    C313017   0.065   2.660  14.818 -0.2697 -0.0544 -0.6889
  888MPD2    C413018   0.101   2.607  14.696  0.3395  0.1972 -0.0357
  888MPD2    C513019   0.106   2.470  14.679  0.2206  0.7235 -0.2015
  888MPD2     H13020   4.696   2.619  14.998 -0.0830 -3.0981  1.8090
  888MPD2    H113021   0.146   2.661  14.613  0.1346 -0.4786 -0.5967
  888MPD2    H213022   0.053   2.280  14.756  2.7530 -0.3185  0.2229
  888MPD2    H313023   0.131   2.423  14.584  0.9527 -2.4615  1.5812
  888MPD2     N13024   0.065   2.799  14.840  0.8885  0.2806  0.8369
  888MPD2    H513025   0.032   2.826  14.933 -1.3631 -2.3839  0.8057
  888MPD2    N113026   4.648   2.365  14.976 -0.0658  0.0573 -0.4243
  888MPD2    H713027   4.608   2.408  15.058 -0.4242  0.2334 -0.6916
  889MPD2     C13028   3.749   2.238  12.449 -0.1118  0.3881 -0.3554
  889MPD2    C113029   3.787   2.243  12.578 -0.3072 -0.2745 -0.9301
  889MPD2    C213030   3.760   2.359  12.646  0.0570 -0.6686 -0.2880
  889MPD2    C313031   3.688   2.465  12.587 -0.4496 -0.1024 -0.0109
  889MPD2    C413032   3.665   2.458  12.451  0.3018  0.7834 -0.0639
  889MPD2    C513033   3.696   2.349  12.377  0.0620 -0.7826 -0.2726
  889MPD2     H13034   3.764   2.360  12.755 -0.7608  1.1644 -0.2749
  889MPD2    H113035   3.605   2.529  12.396 -0.4541 -1.4424 -2.1332
  889MPD2    H213036   3.763   2.148  12.389  2.0719  1.0481 -0.8616
  889MPD2    H313037   3.658   2.331  12.277  0.7179 -2.9070 -0.1470
  889MPD2     N13038   3.661   2.574  12.669 -0.8058  0.1234 -0.5685
  889MPD2    H513039   3.700   2.565  12.763 -1.8714  0.5771 -0.0737
  889MPD2    N113040   3.798   2.124  12.649  0.7232  0.2443 -0.2657
  889MPD2    H713041   3.790   2.038  12.595  0.3177 -0.3193  0.6952
  890MPD2     C13042   3.458   3.481  14.789 -0.2082 -0.6755 -0.4466
  890MPD2    C113043   3.573   3.504  14.860  0.6349  0.3552 -0.3339
  890MPD2    C213044   3.598   3.419  14.958  0.4121  0.2217  0.1270
  890MPD2    C313045   3.499   3.336  15.001 -0.4898  0.5947 -0.2220
  890MPD2    C413046   3.385   3.300  14.925 -0.8822  0.5024 -0.0912
  890MPD2    C513047   3.371   3.378  14.814  0.4044 -0.2043 -0.0233
  890MPD2     H13048   3.689   3.424  15.016  1.2875 -1.3547 -1.1215
  890MPD2    H113049   3.307   3.230  14.952 -1.7720  0.9430 -1.4978
  890MPD2    H213050   3.444   3.549  14.706  1.3762  0.7184  0.4126
  890MPD2    H313051   3.292   3.359  14.742  1.0251  1.1815 -1.0820
  890MPD2     N13052   3.526   3.265  15.119  0.0068  0.3504  0.0446
  890MPD2    H513053   3.612   3.298  15.162  1.8572 -4.9590  0.4955
  890MPD2    N113054   3.644   3.623  14.827  0.7661  0.4274  0.3068
  890MPD2    H713055   3.633   3.659  14.733 -1.2438 -0.6219  0.1570
  891MPD2     C13056   1.255   1.693  17.041  0.8221 -0.3033 -0.4103
  891MPD2    C113057   1.213   1.826  17.036 -0.1109  0.5772  0.0624
  891MPD2    C213058   1.309   1.924  17.050 -0.1705 -0.3788 -0.4986
  891MPD2    C313059   1.441   1.897  17.064 -0.5539  0.4021  0.5219
  891MPD2    C413060   1.480   1.765  17.057 -0.0070  0.1892  0.2511
  891MPD2    C513061   1.389   1.667  17.061  1.0272 -0.0183  0.1865
  891MPD2     H13062   1.278   2.028  17.051 -0.7574 -0.5449 -1.9576
  891MPD2    H113063   1.582   1.729  17.064 -0.2204  0.3529  4.2246
  891MPD2    H213064   1.183   1.612  17.040 -1.4065  1.6539  0.8669
  891MPD2    H313065   1.423   1.564  17.062 -0.7294 -0.6422 -3.4542
  891MPD2     N13066   1.529   2.002  17.091  0.4904 -0.3205 -0.5161
  891MPD2    H513067   1.495   2.095  17.114  3.2225  0.8645 -1.2359
  891MPD2    N113068   1.076   1.851  17.017  0.2096  0.1246  0.0722
  891MPD2    H713069   1.027   1.769  16.984  0.5345  0.5552 -1.5076
  892MPD2     C13070   2.696   2.948  15.031 -0.4703  0.0056 -0.6200
  892MPD2    C113071   2.593   2.972  14.941  1.2110 -0.2179 -0.1760
  892MPD2    C213072   2.617   2.955  14.809  0.0163 -0.8969 -0.2923
  892MPD2    C313073   2.747   2.922  14.766  0.3778 -0.0515  0.5878
  892MPD2    C413074   2.850   2.897  14.855  0.2743  0.2559  0.0367
  892MPD2    C513075   2.826   2.906  14.992 -0.0524 -0.3432 -0.1143
  892MPD2     H13076   2.534   2.986  14.747 -0.1560  0.2209  0.4970
  892MPD2    H113077   2.951   2.881  14.821  0.8128  0.0617  1.7326
  892MPD2    H213078   2.674   2.958  15.136  1.7297 -0.6770 -0.0932
  892MPD2    H313079   2.899   2.900  15.072 -2.2931 -0.3514  1.9139
  892MPD2     N13080   2.775   2.918  14.623  0.0900 -0.4872 -0.0528
  892MPD2    H513081   2.870   2.918  14.587 -0.0936 -2.3588 -0.5299
  892MPD2    N113082   2.470   3.025  14.982  0.2506  0.1960  0.0364
  892MPD2    H713083   2.411   3.062  14.907 -2.3176 -0.7364  1.6220
  893MPD2     C13084   3.674   1.397   2.137 -0.4996 -0.0221  0.1868
  893MPD2    C113085   3.756   1.303   2.201 -0.2014 -0.5390  0.2280
  893MPD2    C213086   3.716   1.168   2.209 -0.1469  0.6209  0.4056
  893MPD2    C313087   3.591   1.124   2.157  0.3481  0.2075  0.3161
  893MPD2    C413088   3.513   1.220   2.095 -0.0043 -0.5041 -0.4488
  893MPD2    C513089   3.552   1.348   2.090  0.4427  0.6713 -0.0771
  893MPD2     H13090   3.772   1.086   2.252  0.2319 -0.0172 -1.3009
  893MPD2    H113091   3.421   1.184   2.049  0.3502 -1.6960 -0.2217
  893MPD2    H213092   3.706   1.500   2.125 -1.0920  0.1756  0.3264
  893MPD2    H313093   3.493   1.420   2.035 -0.8971 -0.4253 -0.0769
  893MPD2     N13094   3.541   0.991   2.153 -0.0237  0.2583 -0.3119
  893MPD2    H513095   3.455   0.969   2.105  0.4401 -0.6458 -0.7383
  893MPD2    N113096   3.885   1.352   2.251  0.3357  0.6531  0.5228
  893MPD2    H713097   3.895   1.447   2.216 -0.6042  1.0775  1.3838
  894MPD2     C13098   1.941   4.027   1.186 -0.6103 -0.6943  0.2407
  894MPD2    C113099   2.014   3.922   1.240 -0.1105  0.4054 -0.0856
  894MPD2    C213100   2.154   3.943   1.260 -0.2574  0.3831  0.0102
  894MPD2    C313101   2.217   4.053   1.210  0.6884 -0.4315  1.0072
  894MPD2    C413102   2.136   4.154   1.157 -0.0208 -0.7790 -0.7169
  894MPD2    C513103   2.003   4.139   1.144 -0.2149 -0.5892 -0.6930
  894MPD2     H13104   2.223   3.874   1.307  0.1293 -0.1576 -1.3703
  894MPD2    H113105   2.181   4.250   1.131  0.3195 -0.1298  2.2448
  894MPD2    H213106   1.836   4.014   1.166 -0.2148 -0.3795 -1.9872
  894MPD2    H313107   1.942   4.222   1.111 -0.3646 -0.8535 -1.0884
  894MPD2     N13108   2.356   4.060   1.234  0.1824 -0.2437 -0.4387
  894MPD2    H513109   2.386   3.988   1.299  2.3919  0.7071 -0.4249
  894MPD2    N113110   1.967   3.803   1.298  0.2907  0.0455  0.1861
  894MPD2    H713111   2.034   3.741   1.342 -0.4795 -0.7181  0.2910
  895MPD2     C13112   1.324   2.487  13.557 -0.0779 -0.3739 -0.1952
  895MPD2    C113113   1.271   2.520  13.429 -0.0158  0.3514 -0.5469
  895MPD2    C213114   1.294   2.436  13.318  0.6106 -0.0980 -0.5915
  895MPD2    C313115   1.383   2.328  13.332 -0.1625  0.1191 -0.1068
  895MPD2    C413116   1.441   2.305  13.450  0.6309 -0.0413  0.3435
  895MPD2    C513117   1.414   2.382  13.556  0.2852 -0.0393  0.1155
  895MPD2     H13118   1.266   2.481  13.223 -0.7962  0.2769 -0.0029
  895MPD2    H113119   1.515   2.227  13.459  1.2651  0.4286 -0.8102
  895MPD2    H213120   1.319   2.555  13.641 -2.0417 -1.7928  0.8321
  895MPD2    H313121   1.483   2.367  13.637  2.2756  1.1347 -1.3686
  895MPD2     N13122   1.416   2.240  13.229  0.0068 -0.2734 -0.0578
  895MPD2    H513123   1.477   2.161  13.244  2.6427  1.9914  1.2418
  895MPD2    N113124   1.216   2.647  13.417  0.3863 -1.1254 -0.2021
  895MPD2    H713125   1.190   2.675  13.323  1.4888  3.0166  0.7138
  896MPD2     C13126   3.684   4.339   2.551 -0.0738  0.2146  0.3234
  896MPD2    C113127   3.735   4.273   2.442 -0.9849  0.1686  0.2298
  896MPD2    C213128   3.644   4.239   2.343 -0.0105 -0.0632 -0.6529
  896MPD2    C313129   3.518   4.261   2.350  0.3995 -0.1177  0.7124
  896MPD2    C413130   3.462   4.315   2.466  0.4864  0.1462  0.3848
  896MPD2    C513131   3.548   4.361   2.565 -0.3917  0.4163  0.1540
  896MPD2     H13132   3.675   4.188   2.253  0.1126 -0.0931 -0.5939
  896MPD2    H113133   3.355   4.329   2.479  0.2246 -0.8429 -0.7302
  896MPD2    H213134   3.742   4.377   2.635  0.3789  0.6402 -0.1839
  896MPD2    H313135   3.516   4.423   2.648  1.0800  1.3862  0.0058
  896MPD2     N13136   3.446   4.231   2.230 -0.6225 -0.6637 -0.4732
  896MPD2    H513137   3.502   4.183   2.160  0.0389 -2.0878  1.0191
  896MPD2    N113138   3.876   4.245   2.425 -0.1239  0.8883  0.4979
  896MPD2    H713139   3.939   4.289   2.491  0.4490  2.0322 -0.7895
  897MPD2     C13140   0.682   1.732  10.574 -0.4790 -0.7031 -0.4370
  897MPD2    C113141   0.564   1.719  10.507 -0.3323  0.4946  0.6337
  897MPD2    C213142   0.446   1.753  10.569  0.7492 -1.2938 -0.2799
  897MPD2    C313143   0.446   1.822  10.686 -0.7662 -0.2120 -0.2964
  897MPD2    C413144   0.559   1.833  10.762  0.5182  0.9681  0.2157
  897MPD2    C513145   0.677   1.788  10.702  0.2580 -0.8059  0.6397
  897MPD2     H13146   0.354   1.747  10.511  0.2506  1.6531  0.2106
  897MPD2    H113147   0.562   1.887  10.856  2.3634 -0.8920  1.2314
  897MPD2    H213148   0.781   1.707  10.538 -0.2483 -2.3078  1.3710
  897MPD2    H313149   0.767   1.805  10.760  1.2020  0.4377 -1.2068
  897MPD2     N13150   0.329   1.879  10.721 -0.1469 -0.3628  0.4663
  897MPD2    H513151   0.255   1.879  10.651 -1.0742 -1.9444  1.4493
  897MPD2    N113152   0.554   1.674  10.369  0.9205 -0.1326  0.9202
  897MPD2    H713153   0.461   1.679  10.328 -0.2481 -0.9671  3.4824
  898MPD2     C13154   1.933   2.311   0.108 -0.4673 -0.5518 -0.0315
  898MPD2    C113155   1.992   2.342  17.683  0.6520 -0.0700  0.4078
  898MPD2    C213156   1.978   2.472  17.629 -0.5658 -0.1000  0.3071
  898MPD2    C313157   1.904   2.571  17.694  0.1148  0.2028 -0.0328
  898MPD2    C413158   1.854   2.537   0.117 -0.4418  0.0470 -0.9880
  898MPD2    C513159   1.871   2.416   0.172 -0.1097  0.1170  0.2364
  898MPD2     H13160   2.009   2.493  17.527 -1.4152 -1.1100 -0.1614
  898MPD2    H113161   1.797   2.614   0.168  0.4086  0.4365 -0.6245
  898MPD2    H213162   1.928   2.214   0.157  1.1306 -1.0387 -0.8305
  898MPD2    H313163   1.825   2.384   0.265 -1.7632 -2.7178 -1.5454
  898MPD2     N13164   1.886   2.693  17.632 -0.2734 -0.7509 -0.4011
  898MPD2    H513165   1.927   2.696  17.539  0.3970 -1.3572 -0.1257
  898MPD2    N113166   2.079   2.251  17.617  0.3843  0.4052  0.5692
  898MPD2    H713167   2.143   2.298  17.553 -1.4650 -0.2464 -1.7362
  899MPD2     C13168   3.502   2.977   0.208  0.1760  0.4613  0.5188
  899MPD2    C113169   3.396   2.961   0.123 -0.0649 -0.1355 -0.6819
  899MPD2    C213170   3.303   2.864   0.154  0.4456 -0.4702  0.3001
  899MPD2    C313171   3.307   2.784   0.272 -0.3072  0.3405  0.5952
  899MPD2    C413172   3.418   2.804   0.352 -0.7241  0.3607  0.5461
  899MPD2    C513173   3.517   2.893   0.313 -0.9715 -0.0852  0.2117
  899MPD2     H13174   3.217   2.842   0.092  0.0062 -1.0622  1.1165
  899MPD2    H113175   3.427   2.746   0.443 -1.0531 -1.1527 -0.3899
  899MPD2    H213176   3.577   3.053   0.187 -0.2051  0.4999 -0.6697
  899MPD2    H313177   3.609   2.892   0.372  0.3039  0.3746 -1.7699
  899MPD2     N13178   3.204   2.701   0.316  0.1499  1.1220  0.0045
  899MPD2    H513179   3.233   2.669   0.408 -2.7328  1.3860  0.9925
  899MPD2    N113180   3.396   3.041   0.010  0.9190 -0.3665  0.0756
  899MPD2    H713181   3.480   3.097   0.003 -0.6589  2.2430  1.7868
  900MPD2     C13182   3.098   0.359  12.547 -0.5138  0.0759  0.7249
  900MPD2    C113183   2.993   0.275  12.541  0.4653  0.0585 -0.0406
  900MPD2    C213184   2.868   0.322  12.515 -0.3700  0.3867  0.2626
  900MPD2    C313185   2.846   0.456  12.490 -0.7653 -0.2952  0.8524
  900MPD2    C413186   2.955   0.539  12.493 -0.5294  0.3310 -0.0937
  900MPD2    C513187   3.081   0.493  12.520 -0.5103  0.6246  0.0776
  900MPD2     H13188   2.783   0.254  12.505  1.9124 -1.9215 -3.4227
  900MPD2    H113189   2.955   0.648  12.487 -0.0032  0.3996  1.3019
  900MPD2    H213190   3.196   0.315  12.552  0.6108  2.3428 -1.7773
  900MPD2    H313191   3.171   0.553  12.511  0.3462 -0.4063  1.6473
  900MPD2     N13192   2.719   0.514  12.463  0.5397 -0.4436 -0.2900
  900MPD2    H513193   2.642   0.450  12.480  1.2430 -2.0559 -3.1198
  900MPD2    N113194   3.023   0.140  12.563 -0.0769 -0.1662  0.0752
  900MPD2    H713195   3.119   0.108  12.571  0.4161  0.1456 -4.2333
  901MPD2     C13196   2.762   3.873  12.992  0.2771 -0.5411  0.1535
  901MPD2    C113197   2.859   3.845  12.898  0.1344 -0.0191  0.1725
  901MPD2    C213198   2.913   3.958  12.828  0.1974 -0.0090 -0.0041
  901MPD2    C313199   2.863   4.087  12.842 -1.2221 -0.8093  0.5479
  901MPD2    C413200   2.767   4.107  12.943  0.1368 -0.4717  0.1159
  901MPD2    C513201   2.724   4.000  13.021  0.4012 -0.4857  0.3864
  901MPD2     H13202   3.004   3.945  12.770  0.7557  1.0892  0.6317
  901MPD2    H113203   2.717   4.202  12.961  1.8930 -0.0040  2.5195
  901MPD2    H213204   2.711   3.801  13.055 -2.2105  2.2083  1.2969
  901MPD2    H313205   2.642   4.013  13.090  0.2610 -2.1330  0.5252
  901MPD2     N13206   2.920   4.191  12.758 -0.4263 -0.2992 -0.5569
  901MPD2    H513207   2.998   4.164  12.698 -0.2970 -0.9132 -0.1116
  901MPD2    N113208   2.884   3.706  12.875 -0.1293 -0.1185 -0.4511
  901MPD2    H713209   2.827   3.637  12.923  0.3050 -0.2936 -0.1893
  902MPD2     C13210   1.484   2.820  13.102  0.0793  0.2469  0.2944
  902MPD2    C113211   1.539   2.840  12.977  0.3000 -0.2183  0.5773
  902MPD2    C213212   1.586   2.723  12.912  0.6439  0.8954 -0.6245
  902MPD2    C313213   1.599   2.605  12.971  0.2636 -0.1084  0.7440
  902MPD2    C413214   1.560   2.591  13.101  0.4809  0.5992  0.3539
  902MPD2    C513215   1.499   2.701  13.159 -0.1831  0.3829  0.1286
  902MPD2     H13216   1.611   2.738  12.807 -2.8239 -2.3162 -1.8955
  902MPD2    H113217   1.555   2.497  13.155  0.2994  0.1048 -0.5202
  902MPD2    H213218   1.435   2.893  13.166  1.3059 -0.1565  1.7138
  902MPD2    H313219   1.469   2.692  13.263  4.1435 -0.2152  1.3428
  902MPD2     N13220   1.651   2.500  12.893  0.5883 -0.1282 -0.3531
  902MPD2    H513221   1.650   2.513  12.792 -1.2769  2.6194  0.0470
  902MPD2    N113222   1.541   2.973  12.918  0.0121 -0.1020 -0.4035
  902MPD2    H713223   1.520   3.052  12.979 -1.2688 -1.0812  0.4131
  903MPD2     C13224   2.133   2.551  12.350  0.0507 -0.5360 -0.2537
  903MPD2    C113225   2.006   2.532  12.388 -0.4643  0.1502 -0.0353
  903MPD2    C213226   1.898   2.599  12.334  0.3903  0.3149  0.0107
  903MPD2    C313227   1.917   2.696  12.237 -0.6594 -0.1103  0.1028
  903MPD2    C413228   2.051   2.719  12.199 -0.0609  0.1024 -0.0583
  903MPD2    C513229   2.154   2.643  12.246 -0.1378  0.8101  0.2040
  903MPD2     H13230   1.798   2.579  12.371  0.6111 -2.7825 -0.9855
  903MPD2    H113231   2.078   2.798  12.130 -1.5952  0.7086  0.0343
  903MPD2    H213232   2.217   2.499  12.392  0.6707  0.8353  0.1878
  903MPD2    H313233   2.253   2.657  12.205 -0.0309 -1.5408 -0.3315
  903MPD2     N13234   1.808   2.779  12.193  0.0295  0.2790  0.4483
  903MPD2    H513235   1.735   2.792  12.262 -0.4797  0.6650 -0.1662
  903MPD2    N113236   1.972   2.439  12.484  0.3463 -0.2467  0.5629
  903MPD2    H713237   2.053   2.395  12.527 -0.4015 -0.5001  1.7167
  904MPD2     C13238   1.192   1.529  14.010 -0.5881  0.1281 -0.0429
  904MPD2    C113239   1.221   1.658  14.021  0.2622  0.5461 -0.3086
  904MPD2    C213240   1.345   1.693  14.080 -0.3610  0.1929  0.2918
  904MPD2    C313241   1.423   1.598  14.146 -0.3762 -0.1707 -0.0215
  904MPD2    C413242   1.381   1.469  14.135  0.3584 -0.4426 -0.3489
  904MPD2    C513243   1.269   1.435  14.070 -0.1636 -0.4574  0.4523
  904MPD2     H13244   1.361   1.799  14.096  2.4554 -0.1459 -0.0903
  904MPD2    H113245   1.445   1.396  14.183  0.3239  0.0566  0.4609
  904MPD2    H213246   1.102   1.483  13.972 -0.0176  0.4243 -1.7425
  904MPD2    H313247   1.250   1.328  14.066  0.9681 -0.6412 -0.3709
  904MPD2     N13248   1.537   1.642  14.224  0.6842  0.5632 -0.0424
  904MPD2    H513249   1.580   1.576  14.288  0.2322 -1.0773 -1.4468
  904MPD2    N113250   1.138   1.763  13.970 -0.2298 -0.8859  0.6659
  904MPD2    H713251   1.175   1.857  13.986 -0.5028 -0.6578 -0.0550
  905MPD2     C13252   0.798   1.617  13.333 -0.6047  0.1829 -0.5257
  905MPD2    C113253   0.841   1.743  13.371  0.1469 -0.2910 -0.6780
  905MPD2    C213254   0.932   1.811  13.287  0.0255  0.5416 -0.1015
  905MPD2    C313255   0.978   1.747  13.177 -0.8926  0.7791 -0.1879
  905MPD2    C413256   0.939   1.619  13.147  1.1834  0.0431  0.1600
  905MPD2    C513257   0.839   1.555  13.218 -0.0436  0.0730 -0.5992
  905MPD2     H13258   0.973   1.908  13.313 -0.4853  0.9068 -0.6560
  905MPD2    H113259   0.978   1.578  13.055  1.6611  0.7224  0.0694
  905MPD2    H213260   0.741   1.562  13.407 -0.5355  2.1060  0.9658
  905MPD2    H313261   0.796   1.459  13.193 -0.8872  0.8863 -2.2449
  905MPD2     N13262   1.078   1.799  13.094 -0.3505 -0.1445  0.8604
  905MPD2    H513263   1.127   1.736  13.032  1.8633  2.5419 -0.1578
  905MPD2    N113264   0.810   1.794  13.501  0.5599  0.3520 -0.5393
  905MPD2    H713265   0.754   1.736  13.562  0.6051 -0.5528 -1.3509
  906MPD2     C13266   3.857   2.208  11.389  0.3944  0.6861  0.2549
  906MPD2    C113267   3.801   2.102  11.322  0.0983 -0.0882 -0.4169
  906MPD2    C213268   3.787   1.981  11.388 -0.0796 -0.3209  0.0956
  906MPD2    C313269   3.813   1.976  11.524 -1.2398  0.2913  0.1626
  906MPD2    C413270   3.871   2.080  11.592 -0.6782 -0.2874 -0.5934
  906MPD2    C513271   3.895   2.195  11.525  0.3919  0.0756 -0.5257
  906MPD2     H13272   3.756   1.896  11.328  0.1976 -0.5032  0.2133
  906MPD2    H113273   3.928   2.071  11.684 -0.0401 -0.4330 -1.0006
  906MPD2    H213274   3.900   2.291  11.335  0.2419 -0.3000 -1.4010
  906MPD2    H313275   3.955   2.270  11.576  0.5931 -1.2718  1.1952
  906MPD2     N13276   3.794   1.851  11.596  0.1434  0.3765 -0.3615
  906MPD2    H513277   3.753   1.781  11.534 -1.1174  0.0437  0.8401
  906MPD2    N113278   3.771   2.099  11.185 -0.1753  0.3480 -0.1066
  906MPD2    H713279   3.738   2.012  11.145 -0.4413 -0.6179  2.1821
  907MPD2     C13280   3.077   0.219  15.611 -0.2628  0.5305  0.2053
  907MPD2    C113281   2.981   0.292  15.688  0.1909 -0.3870  0.1168
  907MPD2    C213282   3.018   0.337  15.810 -0.2533  0.0958  0.0894
  907MPD2    C313283   3.145   0.323  15.857 -0.4216  0.3369 -0.4736
  907MPD2    C413284   3.237   0.241  15.787 -0.4829 -0.0547  0.2752
  907MPD2    C513285   3.204   0.199  15.669  0.9689 -0.3583 -0.1273
  907MPD2     H13286   2.955   0.398  15.874  0.4192  2.0110 -1.0736
  907MPD2    H113287   3.330   0.211  15.835 -0.4636  1.3184  1.0930
  907MPD2    H213288   3.069   0.181  15.510 -0.6959  0.7109  0.1700
  907MPD2    H313289   3.281   0.146  15.614  0.4375 -1.6322  0.3796
  907MPD2     N13290   3.184   0.388  15.978  0.5111 -0.0199 -0.0565
  907MPD2    H513291   3.114   0.447  16.022 -0.9516 -0.3092 -1.9954
  907MPD2    N113292   2.853   0.319  15.635  0.1804  0.4494  0.6587
  907MPD2    H713293   2.790   0.382  15.684  1.4158  2.2295 -0.0547
  908MPD2     C13294   0.239   1.238   9.614 -0.7514  0.3760 -0.7120
  908MPD2    C113295   0.372   1.273   9.592 -0.1718 -0.4721  0.0595
  908MPD2    C213296   0.437   1.357   9.684 -0.3090 -0.1302 -0.0387
  908MPD2    C313297   0.359   1.432   9.769 -0.1080  0.0560  0.2771
  908MPD2    C413298   0.227   1.401   9.779 -0.3558  0.2250 -0.6578
  908MPD2    C513299   0.169   1.297   9.708 -0.0760  0.0993 -0.1176
  908MPD2     H13300   0.539   1.390   9.675 -0.1711 -0.2617  1.0665
  908MPD2    H113301   0.161   1.447   9.852  0.6999  0.3575  0.2013
  908MPD2    H213302   0.186   1.170   9.549 -1.7178 -0.1745  0.6522
  908MPD2    H313303   0.064   1.278   9.725  0.4117 -4.2957 -2.0601
  908MPD2     N13304   0.427   1.519   9.855 -0.6535  0.0795 -0.1558
  908MPD2    H513305   0.527   1.518   9.871 -0.9488 -0.1630  1.7341
  908MPD2    N113306   0.439   1.210   9.478  0.0470  0.1075 -0.2023
  908MPD2    H713307   0.384   1.145   9.423  1.5767 -1.4193  0.0640
  909MPD2     C13308   0.839   4.527  12.201 -0.0138  0.4220 -0.1869
  909MPD2    C113309   0.862   4.652  12.150  0.0189 -0.1766  0.3584
  909MPD2    C213310   0.783   0.031  12.198 -0.6978  0.7457  0.3476
  909MPD2    C313311   0.685   0.005  12.292 -0.2890  0.1557 -0.2793
  909MPD2    C413312   0.655   4.601  12.325  0.4627 -0.3005 -0.1958
  909MPD2    C513313   0.738   4.504  12.284  0.3501 -1.0024  0.2775
  909MPD2     H13314   0.804   0.134  12.172 -0.3263  0.2313 -1.3617
  909MPD2    H113315   0.575   4.570  12.391  0.1093 -0.0700 -0.5184
  909MPD2    H213316   0.889   4.434  12.173 -2.6058 -0.6310 -1.3233
  909MPD2    H313317   0.715   4.403  12.316  1.1347 -0.5742  2.2347
  909MPD2     N13318   0.607   0.116  12.346  0.2736 -0.4197 -0.8588
  909MPD2    H513319   0.622   0.208  12.305  1.3989 -0.2474 -0.0416
  909MPD2    N113320   0.954   4.669  12.046  0.3570  0.8043  0.0073
  909MPD2    H713321   0.936   0.023  11.985 -1.7622 -0.5606 -1.1529
  910MPD2     C13322   1.266   1.659  15.811  0.2421 -0.4452 -0.7355
  910MPD2    C113323   1.391   1.633  15.764  0.1704  0.2761 -0.0322
  910MPD2    C213324   1.406   1.656  15.630  0.2188  0.4893 -0.4387
  910MPD2    C313325   1.307   1.715  15.550  0.2804  0.4471 -0.0841
  910MPD2    C413326   1.181   1.747  15.601 -0.1944 -0.1521  0.3730
  910MPD2    C513327   1.160   1.710  15.734  0.6760 -0.1828  1.0581
  910MPD2     H13328   1.505   1.638  15.588  0.0793 -1.8409  0.2474
  910MPD2    H113329   1.093   1.772  15.543  1.0153  3.6302  0.1505
  910MPD2    H213330   1.241   1.617  15.907  0.6734  1.1761  0.0940
  910MPD2    H313331   1.063   1.716  15.783 -0.7924 -1.4865 -1.6859
  910MPD2     N13332   1.323   1.730  15.405  0.4350  0.5783  0.1759
  910MPD2    H513333   1.241   1.767  15.358 -0.1311 -0.4797  0.3349
  910MPD2    N113334   1.490   1.558  15.828  0.0120  0.3045  0.0077
  910MPD2    H713335   1.579   1.555  15.779 -0.6146  2.3493 -1.2574
  911MPD2     C13336   4.406   2.402  16.274  0.0745  0.2924  0.0176
  911MPD2    C113337   4.395   2.272  16.244  0.7949 -0.2852  0.3696
  911MPD2    C213338   4.305   2.232  16.139  0.4730 -0.4349  0.4794
  911MPD2    C313339   4.256   2.333  16.055  0.4612  0.0529  0.1181
  911MPD2    C413340   4.270   2.468  16.093 -0.3416 -0.5478  0.2306
  911MPD2    C513341   4.346   2.497  16.199 -0.7525 -0.5754 -0.4317
  911MPD2     H13342   4.293   2.126  16.119  0.0339 -0.2967  0.0164
  911MPD2    H113343   4.223   2.553  16.044  0.2867 -0.7859 -0.7949
  911MPD2    H213344   4.472   2.432  16.355 -0.2347  0.3975  0.2275
  911MPD2    H313345   4.361   2.601  16.224  3.0825 -1.4155  0.7964
  911MPD2     N13346   4.166   2.312  15.942  0.1158  0.0679 -0.3410
  911MPD2    H513347   4.139   2.391  15.886 -1.2866  0.0348  0.2729
  911MPD2    N113348   4.460   2.182  16.336  0.0361  0.6851 -0.6304
  911MPD2    H713349   4.519   2.219  16.411 -1.2312  1.0885  0.1650
  912MPD2     C13350   3.787   1.533  15.653 -0.3283 -0.7233 -0.6119
  912MPD2    C113351   3.823   1.625  15.749 -0.7415  0.6382  0.5050
  912MPD2    C213352   3.831   1.587  15.883 -0.0247  0.6801 -0.4220
  912MPD2    C313353   3.814   1.452  15.918 -1.0016  0.0596  0.0516
  912MPD2    C413354   3.791   1.359  15.816 -0.2742 -0.2062 -0.2139
  912MPD2    C513355   3.781   1.405  15.685 -0.3359  0.0301  0.1844
  912MPD2     H13356   3.853   1.658  15.962  1.3061  1.3794 -1.4293
  912MPD2    H113357   3.774   1.255  15.841 -0.6882  0.5068  2.5145
  912MPD2    H213358   3.779   1.563  15.550 -1.7712  2.1290  0.3223
  912MPD2    H313359   3.754   1.332  15.609 -1.1187  0.1028  0.3949
  912MPD2     N13360   3.836   1.414  16.054  0.0761  0.3502 -0.0262
  912MPD2    H513361   3.875   1.483  16.118 -1.4052  0.6752  0.5494
  912MPD2    N113362   3.848   1.758  15.709 -0.5026 -0.1009  0.1669
  912MPD2    H713363   3.859   1.777  15.610 -0.5188  0.1867  0.2228
  913MPD2     C13364   4.632   3.219   9.886 -0.6930 -0.4680  0.0405
  913MPD2    C113365   0.024   3.285   9.865 -0.0896 -0.8241  0.0005
  913MPD2    C213366   0.024   3.390   9.775 -0.2509 -0.4387 -0.1887
  913MPD2    C313367   4.636   3.432   9.708  0.2146  0.2564 -0.3314
  913MPD2    C413368   4.517   3.361   9.726  0.0164  0.7566 -0.5094
  913MPD2    C513369   4.514   3.257   9.819  0.0882 -0.2179 -0.1486
  913MPD2     H13370   0.112   3.447   9.748 -0.3606  0.1577  0.7136
  913MPD2    H113371   4.427   3.392   9.675  0.5276  0.4162 -1.6179
  913MPD2    H213372   4.628   3.145   9.965 -2.6577 -0.6389 -0.2208
  913MPD2    H313373   4.423   3.201   9.840 -0.2256  0.2487 -0.2545
  913MPD2     N13374   4.626   3.541   9.610  0.2147  0.0317  0.5890
  913MPD2    H513375   4.537   3.543   9.561  0.5168  1.1051  0.0711
  913MPD2    N113376   0.137   3.247   9.933  0.4727  1.0547  0.5368
  913MPD2    H713377   0.114   3.166   9.988  0.9162 -0.0728 -0.9391
  914MPD2     C13378   2.716   3.777  12.052  0.2418  0.0288 -0.1555
  914MPD2    C113379   2.785   3.840  12.155  0.0352 -0.3230  0.1705
  914MPD2    C213380   2.817   3.764  12.267  0.3794  0.4639 -0.0493
  914MPD2    C313381   2.796   3.634  12.274 -0.1760 -0.5377 -0.4074
  914MPD2    C413382   2.750   3.561  12.164 -0.1999  0.3077  0.5103
  914MPD2    C513383   2.694   3.638  12.060  0.2905  0.2338  0.3413
  914MPD2     H13384   2.863   3.806  12.355 -0.7161 -0.5015  0.9899
  914MPD2    H113385   2.731   3.455  12.163 -1.9893  0.6418 -1.3568
  914MPD2    H213386   2.663   3.828  11.973  1.0698  2.8363  1.1160
  914MPD2    H313387   2.654   3.590  11.972  1.9129 -0.7168  0.1362
  914MPD2     N13388   2.834   3.567  12.391 -0.4241  0.1466 -0.2433
  914MPD2    H513389   2.885   3.617  12.463 -0.4634  1.3360 -1.0391
  914MPD2    N113390   2.786   3.986  12.146 -0.1807 -0.0613 -0.7483
  914MPD2    H713391   2.727   4.035  12.079  0.8059  0.3120 -1.3512
  915MPD2     C13392   1.033   3.338  15.994  0.0496  0.0734 -0.1282
  915MPD2    C113393   0.992   3.467  15.960  1.0588 -0.0644  0.6196
  915MPD2    C213394   0.936   3.550  16.056 -0.1468 -0.7014 -0.1952
  915MPD2    C313395   0.921   3.503  16.186 -0.1662 -0.5610  0.1518
  915MPD2    C413396   0.971   3.382  16.218 -0.8828  0.0310  0.1974
  915MPD2    C513397   1.026   3.303  16.123 -0.0819  0.5168 -0.0722
  915MPD2     H13398   0.885   3.643  16.034  2.7395  0.8429 -0.3687
  915MPD2    H113399   0.954   3.331  16.312  1.0037 -0.6234  0.1970
  915MPD2    H213400   1.067   3.268  15.918  1.0078  2.5011 -1.9514
  915MPD2    H313401   1.067   3.206  16.148 -0.3694  1.0846  2.6971
  915MPD2     N13402   0.839   3.576  16.276 -0.5891 -0.0529  0.4125
  915MPD2    H513403   0.778   3.647  16.236 -0.6115  0.6459  1.6895
  915MPD2    N113404   1.009   3.499  15.826  0.5138 -0.4390  0.7439
  915MPD2    H713405   1.059   3.429  15.772  1.9042  1.1640 -0.0359
  916MPD2     C13406   3.418   1.843  15.411 -0.4350 -0.3134  0.0043
  916MPD2    C113407   3.415   1.759  15.524 -0.1663 -0.8913  0.2084
  916MPD2    C213408   3.419   1.623  15.506  0.3709 -1.0674  0.0239
  916MPD2    C313409   3.458   1.566  15.383 -0.4231  0.0682 -0.3393
  916MPD2    C413410   3.471   1.659  15.282 -0.1530 -0.7111  0.3730
  916MPD2    C513411   3.452   1.786  15.291 -0.1063 -0.1489  0.4732
  916MPD2     H13412   3.420   1.552  15.588 -1.0783 -0.2832  0.7168
  916MPD2    H113413   3.512   1.620  15.190  0.7433  1.1786 -0.0288
  916MPD2    H213414   3.414   1.951  15.419  1.2192 -0.1808 -0.7929
  916MPD2    H313415   3.475   1.851  15.207  0.3130 -0.5681  0.2633
  916MPD2     N13416   3.472   1.426  15.364  0.0892 -0.5696 -0.0254
  916MPD2    H513417   3.432   1.379  15.444 -0.8428 -0.0010 -0.1561
  916MPD2    N113418   3.416   1.814  15.655 -0.0060 -0.2233 -0.2636
  916MPD2    H713419   3.415   1.916  15.655 -0.6369 -0.2330  2.6874
  917MPD2     C13420   0.219   3.875  11.863 -0.3078  0.0192  0.0195
  917MPD2    C113421   0.143   3.984  11.839  0.3088 -0.2963  0.3020
  917MPD2    C213422   0.205   4.093  11.789 -0.0689 -0.1411 -0.2757
  917MPD2    C313423   0.341   4.088  11.763 -0.2579  0.2748  0.8796
  917MPD2    C413424   0.413   3.973  11.789 -0.3236  0.1193 -0.6160
  917MPD2    C513425   0.351   3.861  11.849 -0.2889 -0.2281  0.4769
  917MPD2     H13426   0.142   4.174  11.756 -0.7523  0.9978  3.7968
  917MPD2    H113427   0.518   3.965  11.766 -0.4397 -0.0474 -1.1043
  917MPD2    H213428   0.159   3.801  11.915  0.2934 -0.5225 -0.0594
  917MPD2    H313429   0.403   3.774  11.885  0.4415  0.1880  0.4378
  917MPD2     N13430   0.411   4.184  11.691  0.5225  0.0608 -0.4802
  917MPD2    H513431   0.502   4.154  11.660  2.0140  2.5802  1.4756
  917MPD2    N113432   0.006   3.987  11.872 -0.1015 -0.3804  0.7194
  917MPD2    H713433   4.693   4.081  11.869  1.7965  0.3568  0.0042
  918MPD2     C13434   4.294   4.592  12.321 -0.4031 -0.3300  0.2664
  918MPD2    C113435   4.418   4.567  12.270 -0.0617 -0.4698 -0.2677
  918MPD2    C213436   4.438   4.449  12.196 -0.6407  1.1521 -0.5445
  918MPD2    C313437   4.341   4.357  12.183  0.0876 -0.2768  0.1205
  918MPD2    C413438   4.215   4.391  12.234 -0.2180  0.1271  0.5540
  918MPD2    C513439   4.191   4.508  12.291  0.0727 -0.2561  0.6899
  918MPD2     H13440   4.532   4.429  12.145  0.1879  0.7962  1.1062
  918MPD2    H113441   4.132   4.322  12.227 -0.4399  0.4863 -0.3830
  918MPD2    H213442   4.269   4.677  12.383 -2.3736 -0.1988 -0.7042
  918MPD2    H313443   4.094   4.536  12.331 -0.4305  1.8572 -2.0534
  918MPD2     N13444   4.374   4.243  12.108 -0.5165  0.7016 -0.5538
  918MPD2    H513445   4.447   4.230  12.038  1.1699  1.4980  1.0544
  918MPD2    N113446   4.530   4.659  12.275 -0.2890 -0.2547  0.0489
  918MPD2    H713447   4.612   4.624  12.228  2.0774  0.8178  3.3779
  919MPD2     C13448   0.331   3.128  11.566 -0.1750 -0.7833 -0.5694
  919MPD2    C113449   0.214   3.074  11.521  0.4452  0.3487  0.3169
  919MPD2    C213450   0.200   3.056  11.385 -0.6867 -0.0763 -0.1297
  919MPD2    C313451   0.303   3.085  11.301  1.2223 -0.0083  0.7535
  919MPD2    C413452   0.418   3.136  11.351 -0.5184 -0.2396 -0.8174
  919MPD2    C513453   0.435   3.151  11.487 -0.8309  0.4268  0.3662
  919MPD2     H13454   0.100   3.030  11.351 -0.3954 -2.8745  1.1057
  919MPD2    H113455   0.502   3.165  11.288  1.3284  2.1679  2.7600
  919MPD2    H213456   0.350   3.135  11.672 -0.5509  1.1139 -0.6250
  919MPD2    H313457   0.530   3.182  11.530 -1.5783  0.7656  1.7590
  919MPD2     N13458   0.288   3.068  11.155 -0.0981  0.0782  0.1079
  919MPD2    H513459   0.361   3.102  11.094 -0.3690 -0.8305 -0.7176
  919MPD2    N113460   0.114   3.035  11.608  0.2552  0.4514 -0.1708
  919MPD2    H713461   0.045   2.978  11.561  0.4457 -0.7704  1.0234
  920MPD2     C13462   0.348   3.471  10.260  0.2008 -0.0930 -0.7224
  920MPD2    C113463   0.224   3.418  10.276  0.4723  0.2140 -1.1661
  920MPD2    C213464   0.199   3.320  10.369 -0.0086  0.3628  0.4719
  920MPD2    C313465   0.290   3.300  10.465 -0.1716 -0.6533  0.1656
  920MPD2    C413466   0.419   3.342  10.450 -0.4292 -0.0205  0.1738
  920MPD2    C513467   0.447   3.432  10.346 -0.6167 -0.1284  0.3406
  920MPD2     H13468   0.112   3.258  10.385  0.4181 -0.7210 -1.3457
  920MPD2    H113469   0.502   3.315  10.515 -0.6175  1.1080  0.8843
  920MPD2    H213470   0.372   3.535  10.176  0.6272 -1.7071 -1.8358
  920MPD2    H313471   0.552   3.457  10.335 -0.9863  1.0798 -0.4440
  920MPD2     N13472   0.246   3.210  10.566  0.0388 -0.1836 -0.4512
  920MPD2    H513473   0.152   3.171  10.565 -0.3670  0.7550  2.0930
  920MPD2    N113474   0.124   3.450  10.196  0.3435 -0.4592 -0.7507
  920MPD2    H713475   0.050   3.381  10.203  1.8557 -1.9281  0.7658
  921MPD2     C13476   0.432   2.374  16.780  0.2750 -0.3890 -0.5202
  921MPD2    C113477   0.408   2.245  16.823  0.0655  1.2095 -0.3046
  921MPD2    C213478   0.296   2.173  16.785 -0.8314  0.6634 -0.5817
  921MPD2    C313479   0.192   2.231  16.716 -0.7531 -0.4615  0.4488
  921MPD2    C413480   0.203   2.363  16.683  0.1468  0.5047  0.1721
  921MPD2    C513481   0.320   2.430  16.712 -0.2032  0.3226 -0.2703
  921MPD2     H13482   0.291   2.066  16.800 -2.5317  0.9878  1.2493
  921MPD2    H113483   0.124   2.414  16.629  0.8141  0.9680 -0.3670
  921MPD2    H213484   0.521   2.434  16.796  0.6953 -0.8401 -1.1722
  921MPD2    H313485   0.331   2.532  16.678 -0.6819  0.1582 -0.9153
  921MPD2     N13486   0.081   2.157  16.664  0.6332  0.0038 -0.6415
  921MPD2    H513487   0.031   2.203  16.589  0.9210  2.9969  1.0236
  921MPD2    N113488   0.506   2.171  16.891  0.2537 -0.6819  0.2242
  921MPD2    H713489   0.478   2.076  16.916 -0.2919 -0.3003  1.0770
  922MPD2     C13490   1.564   4.283   0.040  0.7561  0.3429 -0.1986
  922MPD2    C113491   1.557   4.318  17.609 -0.3428 -0.1457  0.2430
  922MPD2    C213492   1.445   4.282  17.536 -0.4890  0.1139  0.3370
  922MPD2    C313493   1.336   4.226  17.601 -0.1810 -0.1944  0.0697
  922MPD2    C413494   1.346   4.195   0.034 -0.3604 -0.2024 -0.3053
  922MPD2    C513495   1.458   4.232   0.103 -0.6662 -0.2547  0.1205
  922MPD2     H13496   1.440   4.288  17.428  1.9377 -0.2704  0.1891
  922MPD2    H113497   1.271   4.153   0.100  0.9810 -0.1383  1.2248
  922MPD2    H213498   1.662   4.294   0.085 -0.2022 -2.1774  2.5054
  922MPD2    H313499   1.457   4.215   0.211  0.4821 -1.7450 -0.0989
  922MPD2     N13500   1.212   4.211  17.533 -0.1986  0.0424  0.1183
  922MPD2    H513501   1.217   4.218  17.431 -0.0896 -1.6517  0.0042
  922MPD2    N113502   1.677   4.365  17.552  0.4827 -0.8787  0.0039
  922MPD2    H713503   1.754   4.377  17.617  2.2493 -0.3604 -2.1844
  923MPD2     C13504   2.874   1.017   9.397  0.5765 -0.0967  0.1104
  923MPD2    C113505   2.911   1.149   9.395 -0.0882 -0.5676  0.6375
  923MPD2    C213506   3.038   1.177   9.443 -0.5094  0.0551  0.2104
  923MPD2    C313507   3.124   1.078   9.486  0.4224  0.6998 -0.1862
  923MPD2    C413508   3.091   0.947   9.482  0.1382 -0.1913  0.2131
  923MPD2    C513509   2.957   0.921   9.445  0.7629 -0.8346  0.1508
  923MPD2     H13510   3.076   1.279   9.447 -1.1791  0.3002  0.2313
  923MPD2    H113511   3.146   0.861   9.515  1.2290  0.1716 -0.6647
  923MPD2    H213512   2.775   0.986   9.366  0.4051  2.0418 -1.4827
  923MPD2    H313513   2.929   0.817   9.450  1.5485 -1.1563 -2.0325
  923MPD2     N13514   3.262   1.105   9.527 -0.4117  0.1843 -0.3164
  923MPD2    H513515   3.325   1.027   9.544 -0.9846  0.0216  1.0186
  923MPD2    N113516   2.811   1.239   9.354  0.0298  0.1553  0.2777
  923MPD2    H713517   2.719   1.197   9.346  0.0380  0.3227 -0.6053
  924MPD2     C13518   2.598   0.816  16.385  0.3665  0.2495  0.0062
  924MPD2    C113519   2.718   0.891  16.356 -0.6751 -0.4084 -0.3090
  924MPD2    C213520   2.844   0.820  16.352  0.7361  0.5553  0.6316
  924MPD2    C313521   2.843   0.683  16.380  0.9577 -0.9746  0.9859
  924MPD2    C413522   2.726   0.620  16.407 -0.1767 -0.7934  0.0853
  924MPD2    C513523   2.610   0.684  16.417  0.2218 -0.0175  0.1338
  924MPD2     H13524   2.932   0.863  16.306  1.5895 -1.2245  0.5855
  924MPD2    H113525   2.720   0.514  16.432 -1.1137 -0.5842  0.7238
  924MPD2    H213526   2.509   0.877  16.382  0.5090  0.4584  0.0056
  924MPD2    H313527   2.517   0.635  16.443 -0.6020  2.2681  1.5526
  924MPD2     N13528   2.961   0.608  16.363  0.0164 -0.5831  0.2879
  924MPD2    H513529   2.949   0.508  16.360 -0.7770 -0.4249 -1.7678
  924MPD2    N113530   2.709   1.034  16.330 -0.3729 -0.0662 -0.0435
  924MPD2    H713531   2.620   1.082  16.331 -1.7495 -2.5531 -1.0270
  925MPD2     C13532   1.125   3.040  15.115  0.4310 -0.0550 -0.3979
  925MPD2    C113533   1.065   2.949  15.024 -0.5423 -0.5765  0.5344
  925MPD2    C213534   0.977   2.861  15.073 -0.5273 -0.0328  0.4901
  925MPD2    C313535   0.971   2.846  15.210  0.3471 -0.4672  0.0112
  925MPD2    C413536   1.034   2.930  15.298  0.1653  0.2100 -0.1261
  925MPD2    C513537   1.098   3.034  15.249  0.1472 -0.1062 -0.0671
  925MPD2     H13538   0.926   2.792  15.007 -2.4975  2.1513 -0.2694
  925MPD2    H113539   1.025   2.932  15.406  0.3842  0.1540 -0.1057
  925MPD2    H213540   1.180   3.122  15.071  0.7306  1.3037  2.4689
  925MPD2    H313541   1.126   3.121  15.308  2.7333 -1.1856  0.2949
  925MPD2     N13542   0.918   2.726  15.266  0.8305 -0.0783 -0.0732
  925MPD2    H513543   0.950   2.707  15.360 -0.3255 -0.2858  0.2737
  925MPD2    N113544   1.083   2.968  14.887  1.0909 -0.4918  0.0671
  925MPD2    H713545   1.019   2.923  14.823  2.4747  0.1324 -1.7563
  926MPD2     C13546   0.239   1.337  13.565 -0.0705 -0.6218 -0.0324
  926MPD2    C113547   0.137   1.409  13.510 -0.2210  0.5080 -0.7683
  926MPD2    C213548   0.152   1.453  13.380  0.4511 -0.2089 -0.2039
  926MPD2    C313549   0.275   1.437  13.313  0.0684  0.3801 -0.6775
  926MPD2    C413550   0.378   1.374  13.379  0.0597  0.0684  0.0121
  926MPD2    C513551   0.357   1.319  13.508  0.2028  0.2038  0.1239
  926MPD2     H13552   0.078   1.522  13.339  0.0228 -1.0924 -0.9308
  926MPD2    H113553   0.475   1.358  13.333  0.6283  1.3314  0.7693
  926MPD2    H213554   0.223   1.298  13.665 -1.9106  2.3274  0.8211
  926MPD2    H313555   0.438   1.269  13.559  0.6680  1.8334  0.9968
  926MPD2     N13556   0.310   1.492  13.184 -0.2905 -0.2677 -0.6142
  926MPD2    H513557   0.406   1.478  13.155  0.2825  1.2506  0.5725
  926MPD2    N113558   0.023   1.453  13.582  0.2378 -0.0936  0.0042
  926MPD2    H713559   4.680   1.500  13.524  0.9522  0.3201 -0.5031
  927MPD2     C13560   0.339   3.468   0.519 -0.3967  0.2842 -0.3578
  927MPD2    C113561   0.370   3.346   0.560 -0.3488 -0.5856 -0.2040
  927MPD2    C213562   0.421   3.251   0.464  0.2767 -0.4723  0.1949
  927MPD2    C313563   0.440   3.290   0.334  0.4614 -0.4192  0.8810
  927MPD2    C413564   0.405   3.419   0.293 -0.3551 -0.2122  0.5992
  927MPD2    C513565   0.349   3.501   0.388  0.0937  0.7389 -0.0178
  927MPD2     H13566   0.441   3.149   0.496 -1.0648 -0.8552 -0.1994
  927MPD2    H113567   0.404   3.456   0.191  0.9838 -1.3046  0.1838
  927MPD2    H213568   0.289   3.540   0.584  1.8809  2.0605 -0.5647
  927MPD2    H313569   0.312   3.597   0.351 -1.8545 -0.3707 -0.9437
  927MPD2     N13570   0.509   3.201   0.245  0.1423  0.1806 -0.4388
  927MPD2    H513571   0.548   3.116   0.286  2.1489  0.9147 -0.8051
  927MPD2    N113572   0.345   3.320   0.695 -0.4016  0.3975  0.6601
  927MPD2    H713573   0.325   3.399   0.756 -1.4702  2.1735 -1.9917
  928MPD2     C13574   2.320   1.250   0.934  0.5358 -0.1807  0.6408
  928MPD2    C113575   2.388   1.339   1.020 -0.4327  0.0788  0.7206
  928MPD2    C213576   2.500   1.412   0.983  0.5236  0.3905 -0.8174
  928MPD2    C313577   2.562   1.378   0.861  0.4732 -0.2819 -0.4030
  928MPD2    C413578   2.495   1.282   0.781 -0.3575  0.2499 -0.4037
  928MPD2    C513579   2.385   1.218   0.819 -0.2958 -0.0497 -0.5130
  928MPD2     H13580   2.539   1.495   1.042 -1.1174  1.0053 -0.5770
  928MPD2    H113581   2.533   1.258   0.682  1.6345  1.0672  0.1464
  928MPD2    H213582   2.231   1.196   0.964  0.8302 -0.8569  0.3113
  928MPD2    H313583   2.342   1.151   0.745  0.4939  0.5539 -1.5268
  928MPD2     N13584   2.680   1.438   0.810 -0.1748  0.8992  0.1100
  928MPD2    H513585   2.723   1.401   0.726  0.8057  0.9067  0.6064
  928MPD2    N113586   2.324   1.374   1.143  0.4995  0.0427 -0.0282
  928MPD2    H713587   2.236   1.329   1.164  0.9008 -1.1193 -0.8198
  929MPD2     C13588   3.343   2.184  10.292  0.4868  0.0991 -0.1914
  929MPD2    C113589   3.220   2.123  10.310  0.3650 -0.0325  0.1035
  929MPD2    C213590   3.098   2.190  10.275 -0.5603 -0.3998  0.2740
  929MPD2    C313591   3.111   2.316  10.219 -0.1611  0.0631  0.4879
  929MPD2    C413592   3.239   2.371  10.219 -0.3948 -0.1846  0.1303
  929MPD2    C513593   3.353   2.306  10.245 -0.3617 -0.2558  0.4852
  929MPD2     H13594   3.003   2.140  10.271 -0.4089 -0.7111  0.5137
  929MPD2    H113595   3.251   2.468  10.174 -1.9849  1.1772  2.6090
  929MPD2    H213596   3.426   2.121  10.324  2.4592  1.7977 -1.9783
  929MPD2    H313597   3.444   2.365  10.235 -0.0690 -0.5859  1.2107
  929MPD2     N13598   2.994   2.390  10.169 -0.3572 -0.1481 -0.1882
  929MPD2    H513599   3.001   2.488  10.145  0.9798 -0.7696 -2.3039
  929MPD2    N113600   3.213   1.994  10.357  0.1213 -0.0118 -0.0093
  929MPD2    H713601   3.301   1.946  10.370  0.4251  0.7471  0.7617
  930MPD2     C13602   0.161   4.064  14.384 -0.1241 -0.2147  0.1400
  930MPD2    C113603   0.087   4.170  14.358 -0.1863 -0.1343  0.2727
  930MPD2    C213604   0.006   4.175  14.243 -0.6853 -0.3645 -0.1987
  930MPD2    C313605   0.010   4.070  14.152  0.1670 -0.0282  0.1058
  930MPD2    C413606   0.098   3.965  14.173 -0.5643 -0.7434  0.4871
  930MPD2    C513607   0.161   3.961  14.297  0.6448  0.1662 -0.8978
  930MPD2     H13608   4.675   4.263  14.214 -1.9644 -0.2229  2.7025
  930MPD2    H113609   0.106   3.888  14.097  0.7628 -0.2029  0.0738
  930MPD2    H213610   0.237   4.060  14.461 -0.2572  0.1767  0.2933
  930MPD2    H313611   0.219   3.871  14.312 -0.8031 -1.2049 -3.4124
  930MPD2     N13612   4.675   4.081  14.028  0.2413  0.2362 -0.5079
  930MPD2    H513613   4.715   4.017  13.961 -0.3185 -1.4251  0.7660
  930MPD2    N113614   0.082   4.274  14.454  0.6367 -0.6086  0.3618
  930MPD2    H713615   0.144   4.265  14.534  1.5422 -0.8843 -0.3683
  931MPD2     C13616   0.316   2.637   1.130  0.4873 -0.1576  0.0800
  931MPD2    C113617   0.244   2.735   1.186 -1.2221  0.1783  0.2809
  931MPD2    C213618   0.165   2.714   1.300 -0.5788  0.5901  0.3030
  931MPD2    C313619   0.152   2.586   1.352  0.0349 -0.2060  0.2169
  931MPD2    C413620   0.209   2.484   1.280 -0.0593  0.0113 -0.5018
  931MPD2    C513621   0.290   2.506   1.166  0.3772  0.1316  0.4994
  931MPD2     H13622   0.101   2.794   1.333 -2.7573 -1.6302  1.4885
  931MPD2    H113623   0.207   2.381   1.314 -1.0863  0.8067  1.8412
  931MPD2    H213624   0.400   2.662   1.066 -1.3743 -1.0994 -2.7003
  931MPD2    H313625   0.355   2.429   1.126 -1.3410  0.0343 -2.0630
  931MPD2     N13626   0.088   2.549   1.474 -0.5205 -0.2465  0.4379
  931MPD2    H513627   0.087   2.449   1.492  1.4099 -0.4656 -0.6992
  931MPD2    N113628   0.265   2.856   1.126  0.4185 -0.3513  0.1510
  931MPD2    H713629   0.325   2.857   1.044  1.9168 -3.8836  1.2342
  932MPD2     C13630   2.005   2.560  11.355 -0.0633 -0.2133  0.3258
  932MPD2    C113631   1.950   2.655  11.446  0.1492 -0.6243 -0.5416
  932MPD2    C213632   1.852   2.612  11.537 -0.3405 -0.5110 -0.1924
  932MPD2    C313633   1.801   2.480  11.531  0.2157  0.4233  0.4553
  932MPD2    C413634   1.854   2.397  11.438  0.0687 -0.3484 -0.0945
  932MPD2    C513635   1.957   2.432  11.354 -0.1154 -0.2779  0.4425
  932MPD2     H13636   1.812   2.679  11.612  1.2368  3.9342 -3.3153
  932MPD2    H113637   1.828   2.292  11.434  1.1023 -0.5999 -0.1735
  932MPD2    H213638   2.091   2.586  11.294 -0.4882 -0.9050 -0.5617
  932MPD2    H313639   2.011   2.369  11.284  1.8278  0.6246  1.1124
  932MPD2     N13640   1.698   2.441  11.619  0.3092  0.1187  0.1325
  932MPD2    H513641   1.673   2.514  11.686  0.1903 -1.2977  1.6208
  932MPD2    N113642   1.986   2.795  11.446 -0.2281  0.3510  0.1537
  932MPD2    H713643   1.953   2.844  11.528 -0.0455  2.2686 -0.9267
  933MPD2     C13644   2.060   1.853   1.890  0.8642 -0.0726 -0.2618
  933MPD2    C113645   2.022   1.823   1.765 -0.2260 -0.5701 -0.0846
  933MPD2    C213646   1.945   1.923   1.699 -0.9935 -0.1635 -0.4345
  933MPD2    C313647   1.927   2.046   1.750  0.2762 -0.0059  0.0023
  933MPD2    C413648   1.958   2.069   1.881  0.8770 -0.0915  0.0246
  933MPD2    C513649   2.030   1.975   1.951 -0.7461  0.1669  0.6288
  933MPD2     H13650   1.912   1.907   1.597 -0.8919 -2.0858 -0.1701
  933MPD2    H113651   1.936   2.166   1.922 -0.7355 -0.7141  0.6503
  933MPD2    H213652   2.109   1.775   1.947  2.3848 -1.8880 -4.0679
  933MPD2    H313653   2.038   1.988   2.059  0.3860  2.6232  0.2357
  933MPD2     N13654   1.869   2.144   1.666  0.3623  0.5687 -0.3746
  933MPD2    H513655   1.821   2.120   1.580 -2.0032 -0.4494  1.2205
  933MPD2    N113656   2.078   1.710   1.699 -0.4064  0.5641  0.3730
  933MPD2    H713657   2.127   1.643   1.757 -0.9164 -0.9946 -1.0101
  934MPD2     C13658   3.504   3.924   2.587 -0.6373 -0.5136  0.1059
  934MPD2    C113659   3.630   3.914   2.533 -0.6581  0.3583  0.1019
  934MPD2    C213660   3.639   3.850   2.406 -0.0850 -0.3352 -0.0036
  934MPD2    C313661   3.529   3.815   2.327 -0.0801  0.2385  0.0268
  934MPD2    C413662   3.409   3.824   2.393  0.6225 -0.5375 -0.2262
  934MPD2    C513663   3.397   3.878   2.516  0.1053  0.4152 -0.0639
  934MPD2     H13664   3.738   3.829   2.367 -0.5767  0.2387 -1.5411
  934MPD2    H113665   3.311   3.802   2.352 -0.6466  1.5887  1.6798
  934MPD2    H213666   3.479   3.960   2.686 -1.3219  1.2902 -0.7189
  934MPD2    H313667   3.300   3.892   2.562 -1.2016 -0.5873 -2.4910
  934MPD2     N13668   3.529   3.745   2.193 -0.7522  0.4313  0.3994
  934MPD2    H513669   3.436   3.712   2.168 -1.0018 -1.0415  3.2000
  934MPD2    N113670   3.750   3.950   2.607 -0.4293  0.2797  0.0940
  934MPD2    H713671   3.837   3.955   2.555  0.9887  0.3958  2.4975
  935MPD2     C13672   3.979   3.202   1.378 -0.5444 -0.5876  0.5491
  935MPD2    C113673   3.841   3.174   1.391  0.6073  0.4078 -0.2994
  935MPD2    C213674   3.766   3.255   1.471  0.1288  0.0792  0.2542
  935MPD2    C313675   3.817   3.367   1.531 -0.4320 -0.0665  0.2723
  935MPD2    C413676   3.955   3.389   1.520  0.3489  0.1880 -0.4347
  935MPD2    C513677   4.037   3.304   1.455 -0.5740 -0.2018  0.4824
  935MPD2     H13678   3.665   3.228   1.499  0.8470 -0.2548  2.4846
  935MPD2    H113679   4.006   3.468   1.575 -1.2917 -1.1755  3.0883
  935MPD2    H213680   4.043   3.135   1.322  0.5584  0.4049  0.6198
  935MPD2    H313681   4.144   3.316   1.452 -0.7269  1.7308  2.6410
  935MPD2     N13682   3.732   3.445   1.607  0.5536  0.4031  0.4934
  935MPD2    H513683   3.632   3.430   1.603  0.5094  0.4347  1.4110
  935MPD2    N113684   3.794   3.059   1.327 -0.2527  0.0731  0.8522
  935MPD2    H713685   3.858   2.998   1.278 -0.8460 -0.4467  0.7397
  936MPD2     C13686   2.561   1.992  12.729 -0.2003 -0.0216 -0.1642
  936MPD2    C113687   2.661   1.905  12.776  0.2933 -0.6078 -0.5205
  936MPD2    C213688   2.789   1.916  12.731 -0.0036 -0.3856  0.3632
  936MPD2    C313689   2.821   2.008  12.629 -0.1347 -0.2620  0.8941
  936MPD2    C413690   2.721   2.098  12.586  0.4284  0.5227  0.0454
  936MPD2    C513691   2.594   2.087  12.632 -0.4610  0.1994 -0.0174
  936MPD2     H13692   2.866   1.849  12.767 -1.3024 -1.9349  0.2918
  936MPD2    H113693   2.740   2.157  12.497  0.8191  0.6257  0.1958
  936MPD2    H213694   2.459   2.000  12.765 -0.7944  0.3526 -1.9318
  936MPD2    H313695   2.528   2.160  12.588 -0.8453  0.2364  0.6232
  936MPD2     N13696   2.947   1.999  12.568  0.2701  0.3891 -0.7187
  936MPD2    H513697   3.012   1.927  12.597 -0.1100  0.8967  1.4055
  936MPD2    N113698   2.635   1.802  12.861  0.0591  0.2095  0.3923
  936MPD2    H713699   2.715   1.748  12.893 -0.7895 -0.8054  0.8192
  937MPD2     C13700   0.199   2.352  11.782 -0.0781  0.4450  0.3325
  937MPD2    C113701   0.179   2.468  11.702 -0.3542 -0.5348 -0.4402
  937MPD2    C213702   0.259   2.469  11.586 -0.7735  0.2909 -0.1445
  937MPD2    C313703   0.340   2.364  11.538 -0.2987  0.7462 -1.0244
  937MPD2    C413704   0.346   2.254  11.623  0.7026  0.1185  0.4070
  937MPD2    C513705   0.286   2.250  11.743 -0.4045  0.4091  0.5687
  937MPD2     H13706   0.248   2.559  11.528  2.7250  0.4976 -0.4658
  937MPD2    H113707   0.382   2.156  11.591 -0.3038 -0.1103 -0.0047
  937MPD2    H213708   0.157   2.334  11.881 -0.0747 -1.2012  0.0445
  937MPD2    H313709   0.295   2.156  11.796 -1.5633 -0.5826 -0.9850
  937MPD2     N13710   0.394   2.369  11.406  0.0618 -0.1743  0.5852
  937MPD2    H513711   0.379   2.449  11.346  0.1564 -0.6231 -0.0407
  937MPD2    N113712   0.113   2.594  11.741  0.4664  0.2478  0.6433
  937MPD2    H713713   0.148   2.679  11.699 -3.7815  0.5857 -2.2764
  938MPD2     C13714   2.448   3.863   0.961 -0.7966 -0.5405 -0.8666
  938MPD2    C113715   2.552   3.800   1.027 -0.2944  0.4626  0.2567
  938MPD2    C213716   2.528   3.701   1.115  0.1504 -0.2950 -0.1886
  938MPD2    C313717   2.399   3.642   1.133 -0.0369 -0.4777 -0.1695
  938MPD2    C413718   2.295   3.704   1.064 -0.0354 -0.2380  0.9543
  938MPD2    C513719   2.315   3.817   0.987 -0.7702  0.1666  0.3043
  938MPD2     H13720   2.617   3.656   1.159  0.5853  1.3637  0.6101
  938MPD2    H113721   2.192   3.674   1.077  0.4489 -0.6956  3.7887
  938MPD2    H213722   2.459   3.940   0.886  2.0798 -1.1282 -1.0396
  938MPD2    H313723   2.232   3.865   0.937 -0.3551  0.9161  0.3339
  938MPD2     N13724   2.383   3.524   1.211 -0.5421  0.1646  0.4751
  938MPD2    H513725   2.289   3.488   1.224 -0.1932 -1.0858 -0.5178
  938MPD2    N113726   2.684   3.835   1.010  0.8175  0.5608  0.0211
  938MPD2    H713727   2.751   3.794   1.075  0.3156 -0.6565 -0.2431
  939MPD2     C13728   4.155   4.347   1.579  0.0342 -0.4885  0.3422
  939MPD2    C113729   4.131   4.470   1.517 -0.1160  0.6497  0.0939
  939MPD2    C213730   4.120   4.479   1.379 -0.1690  0.3008  0.0767
  939MPD2    C313731   4.126   4.365   1.302 -0.6821  0.5461  0.5167
  939MPD2    C413732   4.139   4.240   1.362 -0.4248 -0.0015  0.4680
  939MPD2    C513733   4.149   4.232   1.499 -0.1506 -0.5017 -0.1209
  939MPD2     H13734   4.111   4.574   1.328 -1.0586  0.7661  1.1026
  939MPD2    H113735   4.136   4.147   1.306 -1.9395  0.5540 -0.3623
  939MPD2    H213736   4.159   4.333   1.686  0.2630  1.4153  0.5798
  939MPD2    H313737   4.167   4.131   1.533 -0.3084 -0.2851  0.6041
  939MPD2     N13738   4.121   4.388   1.160 -0.1797 -0.0047 -0.7638
  939MPD2    H513739   4.112   4.482   1.123 -0.5244 -0.2658 -1.3463
  939MPD2    N113740   4.138   4.582   1.605 -0.0874  0.0593 -0.5304
  939MPD2    H713741   4.161   4.560   1.701 -1.1602 -0.4084 -0.3778
  940MPD2     C13742   2.977   0.945  12.856 -0.1708 -0.0204 -0.2333
  940MPD2    C113743   3.099   0.951  12.917  0.5802 -0.0344  0.4731
  940MPD2    C213744   3.213   0.908  12.853 -0.7714 -0.3277  0.3986
  940MPD2    C313745   3.203   0.869  12.717  0.6116  0.2067  0.1777
  940MPD2    C413746   3.080   0.853  12.656 -0.2762 -0.2647  0.1675
  940MPD2    C513747   2.972   0.897  12.726  0.0140  0.2401  0.0974
  940MPD2     H13748   3.305   0.918  12.909 -0.9536  0.7029  0.5205
  940MPD2    H113749   3.076   0.846  12.548 -0.2120 -1.0588  0.2159
  940MPD2    H213750   2.890   0.994  12.897  0.2470  2.4919 -2.3433
  940MPD2    H313751   2.883   0.900  12.664 -0.5225 -2.4802  0.7669
  940MPD2     N13752   3.313   0.827  12.640  0.4949 -0.9900  0.2296
  940MPD2    H513753   3.294   0.811  12.541  1.0845  1.7807 -0.3543
  940MPD2    N113754   3.115   1.004  13.049  0.7339  1.0236 -0.0006
  940MPD2    H713755   3.208   0.994  13.090  0.2852 -1.1545  0.4800
  941MPD2     C13756   3.088   4.380  10.358 -0.3042 -0.0919 -0.0236
  941MPD2    C113757   3.124   4.417  10.230  0.3314  0.0191  0.0490
  941MPD2    C213758   3.069   4.339  10.133  0.5462  0.2949 -0.1007
  941MPD2    C313759   2.986   4.226  10.154 -0.1737 -0.0350 -0.7076
  941MPD2    C413760   2.949   4.201  10.281  0.0396  0.0555  0.2785
  941MPD2    C513761   2.996   4.281  10.380 -0.2591  0.3051  0.7026
  941MPD2     H13762   3.094   4.365  10.031 -0.0099  0.8545 -0.0937
  941MPD2    H113763   2.877   4.121  10.296  0.7823 -0.6108  0.2597
  941MPD2    H213764   3.125   4.432  10.446  0.8977 -2.3586  0.8081
  941MPD2    H313765   2.947   4.268  10.476  0.5357 -1.4001  0.8855
  941MPD2     N13766   2.935   4.139  10.051  0.2058  0.0545  0.0351
  941MPD2    H513767   2.880   4.056  10.074 -0.8646  1.2851  1.9101
  941MPD2    N113768   3.217   4.519  10.201  0.2169 -0.1167 -0.0331
  941MPD2    H713769   3.230   4.541  10.103 -0.2166 -0.3932 -0.1526
  942MPD2     C13770   1.222   1.115  10.349 -0.1668  0.0927  0.4753
  942MPD2    C113771   1.209   1.021  10.248  0.0427  0.2753  0.7499
  942MPD2    C213772   1.329   0.959  10.218 -0.3674  0.3987 -0.4801
  942MPD2    C313773   1.448   0.993  10.271  0.4498 -0.0844 -0.5013
  942MPD2    C413774   1.455   1.091  10.367 -0.1401 -0.2179  0.8506
  942MPD2    C513775   1.338   1.134  10.416  0.1251  0.2544 -0.8620
  942MPD2     H13776   1.308   0.887  10.140  2.8601  0.9003 -1.8283
  942MPD2    H113777   1.544   1.134  10.410  1.2180 -2.7404  0.5583
  942MPD2    H213778   1.137   1.174  10.381 -1.1469  0.4189 -2.7359
  942MPD2    H313779   1.347   1.197  10.504 -1.8352  0.8791 -1.1132
  942MPD2     N13780   1.567   0.939  10.218 -0.9745  0.7024 -0.3171
  942MPD2    H513781   1.649   0.998  10.229  0.7420 -1.5814 -0.6638
  942MPD2    N113782   1.093   0.980  10.186  0.5465  0.0593  0.1052
  942MPD2    H713783   1.107   0.915  10.109  0.3998 -2.0308  1.8546
  943MPD2     C13784   4.240   0.039   8.977  0.1181 -0.4337 -0.7774
  943MPD2    C113785   4.105   0.064   9.009 -0.0596  0.0873 -0.4084
  943MPD2    C213786   4.053   0.188   8.994 -0.0728 -0.1719 -0.5356
  943MPD2    C313787   4.127   0.290   8.941  0.2641  0.0608 -0.2859
  943MPD2    C413788   4.258   0.261   8.907 -0.1125  0.2330  0.0432
  943MPD2    C513789   4.317   0.139   8.925  0.5977  0.0010 -0.4407
  943MPD2     H13790   3.956   0.204   9.038  1.4854  2.1258  2.0460
  943MPD2    H113791   4.318   0.337   8.858  0.4931  0.3584  0.9865
  943MPD2    H213792   4.286   4.667   8.988 -0.6551 -0.8525 -1.2240
  943MPD2    H313793   4.418   0.116   8.894  1.1629  0.9652  0.6791
  943MPD2     N13794   4.082   0.429   8.926 -0.0291 -0.5899 -0.4484
  943MPD2    H513795   4.141   0.485   8.865 -1.4944 -1.0028 -2.1978
  943MPD2    N113796   4.034   4.684   9.074 -0.4396  0.1547  0.4233
  943MPD2    H713797   4.085   4.596   9.078  2.1373  1.6141 -0.4933
  944MPD2     C13798   0.915   3.744  11.653 -0.1067 -0.0325  0.2095
  944MPD2    C113799   0.943   3.828  11.548  0.3449 -0.1734 -0.4273
  944MPD2    C213800   0.919   3.961  11.558  0.4472  0.1853  0.1076
  944MPD2    C313801   0.876   4.014  11.674  0.0759 -0.4361 -0.4866
  944MPD2    C413802   0.871   3.934  11.793  0.2561  0.3548  0.3223
  944MPD2    C513803   0.879   3.796  11.779 -0.5157 -0.2605  0.1510
  944MPD2     H13804   0.924   4.023  11.469  0.3565 -0.3819 -0.2942
  944MPD2    H113805   0.851   3.979  11.889  1.9353 -0.4574  1.0603
  944MPD2    H213806   0.914   3.636  11.641  1.2445 -0.3005  2.4979
  944MPD2    H313807   0.870   3.738  11.870 -1.7244 -0.1564  0.0911
  944MPD2     N13808   0.862   4.151  11.674 -0.6335  0.1733  0.3387
  944MPD2    H513809   0.881   4.200  11.587  1.9118 -2.5985 -0.6415
  944MPD2    N113810   0.981   3.765  11.424  0.0381 -0.5043 -0.7464
  944MPD2    H713811   0.995   3.665  11.432  0.8467 -0.1611  2.4164
    1TCq1    O113812   3.126   4.664  14.356  0.5928  0.2278  0.3077
    1TCq1    C113813   3.170   0.067  14.362  0.2355  0.4032  0.6352
    1TCq1    O213814   3.148   0.146  14.452 -0.1263 -0.5748  0.6148
    1TCq1    C213815   3.306   0.049  14.312  0.5819 -0.2005  0.4033
    1TCq1    C313816   3.331   0.014  14.183 -0.0450  0.6266  0.0208
    1TCq1    C413817   3.460   4.719  14.149 -0.8836  0.1120 -0.2500
    1TCq1    C513818   3.560   0.034  14.230 -0.3083  0.1394 -0.3109
    1TCq1    C613819   3.529   0.082  14.349  0.3263 -0.0104 -1.0018
    1TCq1    C713820   3.401   0.084  14.402  1.2972  0.3900 -0.1372
    1TCq1    C813821   3.627   0.153  14.433 -0.1657 -0.5729  0.5576
    1TCq1    O413822   3.709   0.089  14.500 -0.3800 -0.4734  0.4091
    1TCq1    C913823   3.489   4.683  14.011 -0.1810  0.1569  0.1382
    1TCq1    O513824   3.609   4.658  13.983 -0.2596  0.3702 -0.2276
    1TCq1    O613825   3.387   4.686  13.927  0.4755 -0.0124  0.4261
    1TCq1    H113826   3.172   4.622  14.280 -0.5001 -0.3808 -0.0134
    1TCq1    H213827   3.249   4.717  14.117 -2.0446  1.7911  2.1069
    1TCq1    H313828   3.660   0.033  14.190 -1.0970 -1.4628 -2.2447
    1TCq1    H413829   3.372   0.114  14.502  0.3831  1.9811 -0.8894
    2MPD2     C13830   3.831   0.605  14.565 -0.5084  0.3787 -0.3265
    2MPD2    C113831   3.736   0.632  14.464  0.4245  0.1308  0.2526
    2MPD2    C213832   3.654   0.527  14.421  0.0211  0.1414  0.0821
    2MPD2    C313833   3.677   0.394  14.469 -0.3269 -0.8449  0.2554
    2MPD2    C413834   3.779   0.373  14.561 -0.1296  0.1828 -0.4167
    2MPD2    C513835   3.845   0.478  14.612  0.2386  0.3844 -0.0126
    2MPD2     H13836   3.570   0.542  14.355 -1.7278  0.8125  2.4526
    2MPD2    H113837   3.793   0.275  14.605 -0.3157 -0.5487 -2.0027
    2MPD2    H213838   3.902   0.676  14.604 -0.9426  1.1379 -0.9218
    2MPD2    H313839   3.920   0.454  14.687  0.1075  0.5040  0.1597
    2MPD2     N13840   3.612   0.284  14.408 -0.0621 -0.5576 -0.4911
    2MPD2    H513841   3.540   0.301  14.339  0.9434  1.7372 -0.9751
    2MPD2    N113842   3.727   0.768  14.425 -0.1534 -0.4969 -0.0512
    2MPD2    H713843   3.805   0.824  14.455 -0.7563  0.5394 -0.4368
    3TMC2    C113844   3.677   0.940  14.260  0.2492  0.6027  0.6492
    3TMC2    C213845   3.782   1.018  14.309  0.1202  0.1071 -0.0158
    3TMC2    C313846   3.811   1.130  14.244  0.3141  0.0118  0.1059
    3TMC2    C413847   3.619   0.963  14.142  0.0651 -0.5090 -0.0293
    3TMC2    C513848   3.650   1.086  14.088 -0.1428  0.3743 -0.0674
    3TMC2    C613849   3.740   1.172  14.138 -0.1478  0.1957 -0.4620
    3TMC2     C13850   3.648   0.813  14.319 -0.4846 -0.3408  0.1548
    3TMC2     O13851   3.551   0.763  14.271 -0.2320  0.1561  0.4062
    3TMC2     H13852   3.837   0.993  14.399  0.2653  1.5444  0.2995
    3TMC2    H113853   3.541   0.908  14.091 -0.2934  1.2730 -1.4026
    3TMC2    H213854   3.754   1.268  14.088 -2.7150  0.2939 -0.9946
    3TMC2    C713855   3.548   1.146  13.999 -0.0571  0.6594  0.5545
    3TMC2    C813856   3.893   1.229  14.315  1.0625 -0.1729 -0.6564
    3TMC2    O113857   3.430   1.140  14.028  0.0707 -0.2176 -0.2221
    3TMC2    O213858   3.871   1.347  14.289 -0.4341 -0.0792  0.6870
    3TMC2    O513859   4.016   1.171  14.327 -0.3180 -0.7691 -0.4979
    3TMC2    H513860   4.021   1.074  14.342  0.9815 -0.3984  1.5062
    4MPD2     C13861   2.253   1.587  13.972  0.1401  0.0593 -0.1974
    4MPD2    C113862   2.297   1.666  13.867  0.3978 -0.1514 -0.6080
    4MPD2    C213863   2.431   1.698  13.863 -0.8080  0.3269 -0.3516
    4MPD2    C313864   2.521   1.621  13.937 -0.0433 -0.0300  0.6007
    4MPD2    C413865   2.471   1.537  14.032 -0.4759  0.6022 -0.0764
    4MPD2    C513866   2.338   1.523  14.054  0.0777  0.3328 -0.1074
    4MPD2     H13867   2.473   1.777  13.801 -0.1520  0.2957  0.0545
    4MPD2    H113868   2.539   1.481  14.095 -2.8269 -2.8892 -0.5975
    4MPD2    H213869   2.147   1.565  13.981  0.2275 -0.4409 -0.4164
    4MPD2    H313870   2.295   1.457  14.128  0.0970  0.4778  0.0341
    4MPD2     N13871   2.658   1.649  13.911  0.2631 -0.4430 -0.2769
    4MPD2    H513872   2.677   1.718  13.840  2.6158 -2.2679 -1.4200
    4MPD2    N113873   2.198   1.730  13.786 -0.4442  0.9733 -0.2833
    4MPD2    H713874   2.102   1.701  13.802  0.3144  1.0522  4.2461
    5TCq2    C113875   2.759   1.610  13.994  0.2193  0.3995  0.5983
    5TCq2    O213876   2.763   1.529  14.082  0.0277  0.0597  0.0272
    5TCq2    C213877   2.892   1.643  13.945 -0.1682  0.0725  0.3675
    5TCq2    C313878   2.908   1.771  13.904  0.3516  0.2006 -0.6373
    5TCq2    C413879   3.024   1.794  13.828 -0.7477 -0.1802  0.2852
    5TCq2    C513880   3.112   1.699  13.796 -0.5357  0.1531 -0.2802
    5TCq2    C613881   3.081   1.569  13.829 -0.9379 -0.4216 -0.2511
    5TCq2    C713882   2.973   1.541  13.908 -0.7351 -0.4459 -0.8835
    5TCq2    C813883   3.167   1.461  13.807  0.2187 -0.5199  0.1520
    5TCq2    O413884   3.153   1.372  13.885 -0.0034  0.1753 -0.3054
    5TCq2    C913885   3.049   1.922  13.781  0.0808 -0.1080  0.2608
    5TCq2    O513886   2.946   1.998  13.776 -0.7248  0.3867 -0.2980
    5TCq2    O613887   3.166   1.960  13.790  0.1649  0.2825  0.3286
    5TCq2    H213888   2.852   1.857  13.938  0.5568  0.8532 -1.9355
    5TCq2    H313889   3.206   1.732  13.752 -0.4959  2.4052  1.5125
    5TCq2    H413890   2.941   1.439  13.926 -1.7905 -0.4369 -2.7141
    6MPD1     C13891   2.057   3.219  12.500  0.6977 -0.0124 -0.3765
    6MPD1    C113892   2.037   3.253  12.631 -0.0913 -0.6908 -0.8545
    6MPD1    C213893   1.983   3.160  12.721  0.4689 -0.8433 -0.5751
    6MPD1    C313894   1.965   3.028  12.687 -0.1806  0.1004  0.0682
    6MPD1    C413895   1.997   2.994  12.558  0.1410 -1.1830  0.2357
    6MPD1    C513896   2.033   3.088  12.464 -0.4074 -0.0172 -0.1823
    6MPD1     H13897   1.957   3.208  12.815 -0.4107 -0.6548 -0.9136
    6MPD1    H113898   1.981   2.896  12.515 -1.6072 -0.6631 -0.2836
    6MPD1    H213899   2.096   3.290  12.428  0.2406  0.9202  0.2887
    6MPD1    H313900   2.049   3.061  12.360  3.6544 -0.5434  0.6057
    6MPD1     N13901   1.926   2.926  12.777  0.2371 -0.2401  0.7101
    6MPD1    H513902   1.925   2.833  12.737  0.9815 -0.3830  1.0157
    6MPD1    N113903   2.051   3.390  12.668 -0.1989 -0.6389 -0.3084
    6MPD1    H613904   2.074   3.408  12.766  0.5482 -0.2502 -0.5613
    6MPD1    H713905   2.117   3.451  12.620 -0.4539 -1.3245 -1.5223
    7MPD2     C13906   1.756   2.581  13.576 -0.1669  0.6788 -0.0650
    7MPD2    C113907   1.784   2.506  13.465  0.3098  0.6464  0.2391
    7MPD2    C213908   1.816   2.369  13.466  0.8841 -0.1793  0.6189
    7MPD2    C313909   1.801   2.307  13.589 -0.0041 -0.5130  0.2632
    7MPD2    C413910   1.767   2.379  13.703 -0.8216  0.0373  0.2239
    7MPD2    C513911   1.743   2.514  13.696  0.5483 -0.0370 -0.2880
    7MPD2     H13912   1.841   2.310  13.379 -0.9420 -0.7587  0.5000
    7MPD2    H113913   1.765   2.328  13.798  0.3385 -2.1363 -0.9271
    7MPD2    H213914   1.744   2.689  13.581  3.2540  1.0167  0.6519
    7MPD2    H313915   1.707   2.566  13.785 -0.3514 -0.6230 -0.3071
    7MPD2     N13916   1.823   2.170  13.583  0.0470  0.4023  0.1779
    7MPD2    H513917   1.859   2.143  13.492  0.7834 -1.5846  1.0537
    7MPD2    N113918   1.792   2.567  13.342 -0.0994 -0.2894  0.0921
    7MPD2    H713919   1.803   2.506  13.262 -0.7952  2.2821 -1.9707
    8TMC3    C113920   1.879   1.951  13.633  0.2407 -0.4290 -0.1113
    8TMC3    C213921   1.994   1.915  13.696 -0.3065  0.2012  0.6438
    8TMC3    C313922   2.099   1.857  13.619  0.3394  0.2121  0.2861
    8TMC3    C413923   1.869   1.941  13.497  0.1135 -0.3024  0.3358
    8TMC3    C513924   1.976   1.892  13.421  0.3531 -0.4923 -0.3934
    8TMC3    C613925   2.096   1.854  13.485  0.2296 -0.7008 -0.0557
    8TMC3     C13926   1.831   2.081  13.680 -0.1717  0.1152  0.2226
    8TMC3     O13927   1.812   2.087  13.797  0.0225 -0.2780  0.4945
    8TMC3     H13928   2.007   1.940  13.801 -1.5051  0.2726  0.7749
    8TMC3    H113929   1.781   1.981  13.447 -1.3029 -0.3651  2.7519
    8TMC3    H213930   2.177   1.807  13.431  1.1319 -0.8275  1.4288
    8TMC3    C713931   1.989   1.980  13.308  0.3341  0.3993  0.1110
    8TMC3    C813932   2.222   1.805  13.675 -0.2513 -0.3694 -0.4316
    8TMC3    O113933   1.923   2.084  13.320  0.3584 -0.8982 -0.3333
    8TMC3    O213934   2.334   1.812  13.616 -0.2872 -0.2161  0.0977
    9TMC3    C113935   1.905   2.814  12.985  0.2288  0.2963  0.0345
    9TMC3    C213936   1.983   2.722  12.932 -0.3374 -0.1237  0.1298
    9TMC3    C313937   1.997   2.611  13.004  0.2477 -0.4582  1.2549
    9TMC3    C413938   1.858   2.817  13.113 -0.2890  0.5185 -0.4102
    9TMC3    C513939   1.884   2.713  13.191  0.5665  0.0811  0.1842
    9TMC3    C613940   1.951   2.611  13.136 -0.3419  0.4657  0.5096
    9TMC3     C13941   1.914   2.943  12.913  0.1596 -0.4863 -0.4656
    9TMC3     O13942   1.919   3.048  12.979 -0.0813  0.2180  0.6696
    9TMC3     H13943   2.029   2.726  12.834 -1.1927 -0.3857 -0.2815
    9TMC3    H113944   1.792   2.895  13.150 -0.2412  0.6602 -0.6251
    9TMC3    H213945   1.986   2.524  13.189  0.7819  0.3168 -0.4779
    9TMC3    C713946   1.806   2.702  13.318  0.1209 -1.6945  0.0676
    9TMC3    C813947   2.096   2.502  12.957  0.8562 -0.0166 -0.5022
    9TMC3    O113948   1.768   2.804  13.374 -0.0916  0.8400 -0.2157
    9TMC3    O213949   2.190   2.534  12.885  0.0770 -0.0828 -0.5041
   10MPD2     C13950   2.278   2.037  13.083 -0.6638  0.1969 -0.0679
   10MPD2    C113951   2.151   2.051  13.136 -0.7941  0.2419 -0.0423
   10MPD2    C213952   2.082   2.167  13.102 -0.1115  0.3043 -0.3435
   10MPD2    C313953   2.138   2.268  13.023  0.0576  0.4507 -0.1180
   10MPD2    C413954   2.270   2.249  12.978 -0.0181  0.6002 -0.6167
   10MPD2    C513955   2.335   2.132  13.006 -0.0364  0.0669  0.2839
   10MPD2     H13956   1.986   2.193  13.145  0.0114  0.5943 -0.2437
   10MPD2    H113957   2.321   2.330  12.926 -1.8634  2.4790  0.4741
   10MPD2    H213958   2.344   1.958  13.117 -2.6321 -0.8404  1.3183
   10MPD2    H313959   2.435   2.118  12.965  0.4915 -0.4360  1.7330
   10MPD2     N13960   2.060   2.378  13.007 -0.4807 -1.0316 -0.0444
   10MPD2    H513961   1.974   2.380  13.062 -2.2636 -0.5393 -2.8360
   10MPD2    N113962   2.103   1.960  13.228  0.2829 -0.1063 -0.4767
   10MPD2    H713963   2.141   1.866  13.236 -1.6421 -0.8110  0.4874
   11MPD2     C13964   3.610   1.288  13.669 -0.6008 -0.9380 -0.3549
   11MPD2    C113965   3.540   1.262  13.778 -0.4773 -0.2760  0.0506
   11MPD2    C213966   3.415   1.317  13.790  0.0212 -0.4101 -0.5394
   11MPD2    C313967   3.364   1.391  13.685 -0.0596  0.2742 -0.7304
   11MPD2    C413968   3.443   1.418  13.577 -0.1307  0.1336 -0.8797
   11MPD2    C513969   3.559   1.354  13.562  0.1813 -0.5390 -0.0398
   11MPD2     H13970   3.359   1.302  13.881 -0.1192  1.0711 -0.3714
   11MPD2    H113971   3.404   1.484  13.500 -3.3926 -1.1149 -0.3072
   11MPD2    H213972   3.708   1.244  13.655 -0.6170 -1.3700  0.9622
   11MPD2    H313973   3.620   1.388  13.479  1.4937  0.9556  1.5414
   11MPD2     N13974   3.252   1.476  13.704 -0.1855 -0.6337 -0.1773
   11MPD2    H513975   3.220   1.543  13.634 -1.7512 -0.4675  0.6977
   11MPD2    N113976   3.611   1.196  13.886 -0.1630  0.0941 -0.2526
   11MPD2    H713977   3.710   1.187  13.864 -0.1808  1.3669 -0.8739
    1MPD1     C13978   0.344   2.109  17.317 -0.3108  0.3213  0.2478
    1MPD1    C113979   0.470   2.071  17.348  0.4604  0.6071  0.5087
    1MPD1    C213980   0.570   2.167  17.358  0.3162  0.0805 -0.1296
    1MPD1    C313981   0.557   2.276  17.283 -0.0281 -0.7247  0.1935
    1MPD1    C413982   0.438   2.302  17.213 -0.3252  0.0650  0.1615
    1MPD1    C513983   0.329   2.229  17.252 -0.0471  0.5554  0.1162
    1MPD1     H13984   0.666   2.142  17.403  0.3597 -0.5550 -0.5812
    1MPD1    H113985   0.413   2.383  17.146  1.0445  0.0495 -0.3608
    1MPD1    H213986   0.266   2.036  17.332 -2.6096  2.3904 -1.6003
    1MPD1    H313987   0.234   2.263  17.213 -0.5012 -1.7139 -0.7920
    1MPD1     N13988   0.660   2.370  17.270  0.3177 -0.9443 -0.4835
    1MPD1    H513989   0.641   2.448  17.209 -0.6285 -2.3555 -1.9851
    1MPD1    N113990   0.491   1.947  17.410  0.4503 -0.0490 -0.0674
    1MPD1    H613991   0.423   1.880  17.374  1.6105 -0.7601 -0.9460
    1MPD1    H713992   0.588   1.918  17.426  0.0228 -0.2917  2.0598
    2MPD1     C13993   1.464   3.062  17.584 -0.7456 -0.0329  0.1653
    2MPD1    C113994   1.414   3.096  17.456 -0.2282 -0.6541  0.3043
    2MPD1    C213995   1.328   3.004  17.389  0.2378  0.2346  0.2141
    2MPD1    C313996   1.275   2.894  17.447  1.1422  0.2766 -0.7372
    2MPD1    C413997   1.330   2.860  17.574  0.0473  0.6238  0.6899
    2MPD1    C513998   1.416   2.947  17.639 -0.5569  0.2252  0.2931
    2MPD1     H13999   1.301   3.019  17.285  1.7988  1.0692 -0.0804
    2MPD1    H114000   1.298   2.769  17.623 -0.9991 -0.1631 -1.4270
    2MPD1    H214001   1.538   3.129  17.626  0.0053  0.4165 -1.8699
    2MPD1    H314002   1.456   2.919   0.034 -1.3270 -0.3502  0.4449
    2MPD1     N14003   1.200   2.805  17.368  0.7059  0.1699  0.0324
    2MPD1    H514004   1.178   2.836  17.274  1.4941 -1.6046 -0.7385
    2MPD1    N114005   1.477   3.201  17.380  0.3417 -0.1212  0.3447
    2MPD1    H614006   1.431   3.228  17.293  0.0803  1.0356  0.8383
    2MPD1    H714007   1.478   3.291  17.427 -1.4125  1.1305 -1.9969
    3TMC3    C114008   1.051   2.615  17.337  0.8265 -0.9017  0.1320
    3TMC3    C214009   1.066   2.641  17.200 -0.2460  1.1011  0.0885
    3TMC3    C314010   0.988   2.574  17.112 -0.2085 -0.2966 -0.7169
    3TMC3    C414011   0.954   2.530  17.387 -0.3571 -0.4179  0.0399
    3TMC3    C514012   0.868   2.483  17.292 -0.3162  0.3134  0.0096
    3TMC3    C614013   0.892   2.492  17.157 -0.1063  0.3534 -0.6126
    3TMC3     C14014   1.121   2.705  17.425  0.0779  0.7185  0.0520
    3TMC3     O14015   1.094   2.688  17.546 -0.3011  0.6486  0.3330
    3TMC3     H14016   1.153   2.688  17.156 -0.9428  0.8981 -1.4962
    3TMC3    H114017   0.958   2.510  17.494  0.3424 -0.2125  0.0549
    3TMC3    H214018   0.833   2.432  17.089  1.5023  0.2759 -1.9266
    3TMC3    C714019   0.784   2.372  17.329 -0.2348  1.1175 -0.2485
    3TMC3    C814020   1.049   2.546  16.981 -1.1932 -0.8578 -0.0424
    3TMC3    O114021   0.827   2.285  17.401 -0.4056  0.0484 -0.1262
    3TMC3    O214022   1.167   2.579  16.968  0.1241  0.3251 -0.4261
    4MPD1     C14023   1.103   2.336  16.512 -0.8962  0.1781 -0.1336
    4MPD1    C114024   0.970   2.330  16.553  0.0782  0.5286 -0.0552
    4MPD1    C214025   0.930   2.379  16.676  0.3589  0.1611 -0.0352
    4MPD1    C314026   1.020   2.442  16.751 -0.6361 -0.5607  0.0402
    4MPD1    C414027   1.155   2.459  16.710 -0.0676 -0.2759  0.4229
    4MPD1    C514028   1.186   2.406  16.589 -0.4876 -0.9371 -0.7708
    4MPD1     H14029   0.827   2.368  16.711  0.3458  1.1299  0.2159
    4MPD1    H114030   1.235   2.508  16.765  1.3500 -2.8516  0.6413
    4MPD1    H214031   1.147   2.272  16.437 -1.1627  0.1520 -0.2670
    4MPD1    H314032   1.290   2.406  16.558  0.8139 -1.2274  3.6599
    4MPD1     N14033   0.968   2.486  16.879  0.0725 -0.0271 -0.1527
    4MPD1    H514034   0.869   2.476  16.898  0.0912  4.1894  2.3499
    4MPD1    N114035   0.877   2.244  16.484 -1.0419  0.2437  0.1919
    4MPD1    H614036   0.777   2.250  16.505 -0.8609 -0.9108  1.3122
    4MPD1    H714037   0.891   2.244  16.383 -1.3109  1.1251  0.1519
    1TCq1    O114038   1.623   2.025  12.137  0.2649 -0.3195 -0.0092
    1TCq1    C114039   1.535   2.058  12.045 -0.2553  0.5602 -0.0931
    1TCq1    O214040   1.416   2.036  12.064  0.0871  0.0768  0.2017
    1TCq1    C214041   1.601   2.043  11.915  0.1167  0.0442  0.0630
    1TCq1    C314042   1.533   1.984  11.810  0.7596  0.1509  0.4619
    1TCq1    C414043   1.594   1.985  11.690 -0.4615 -0.0658  0.0286
    1TCq1    C514044   1.725   2.023  11.671 -0.1594 -0.4458  0.0387
    1TCq1    C614045   1.790   2.094  11.774 -0.0975  0.1336  0.1612
    1TCq1    C714046   1.715   2.110  11.891  0.1716 -1.0846  0.2417
    1TCq1    C814047   1.931   2.115  11.778 -0.3972 -0.1547 -0.1587
    1TCq1    O414048   1.970   2.171  11.880  0.1151 -0.3033  0.6108
    1TCq1    C914049   1.532   1.897  11.597 -0.6494 -0.7368 -0.3358
    1TCq1    O514050   1.421   1.841  11.627  0.3407 -0.2538 -0.7207
    1TCq1    O614051   1.578   1.905  11.482 -0.1937  0.3810  0.4087
    1TCq1    H114052   1.717   2.019  12.107  1.0253 -0.0227  2.3438
    1TCq1    H214053   1.439   1.934  11.830  0.1397  0.5903 -1.3359
    1TCq1    H314054   1.762   2.002  11.572 -1.8044  1.9344 -1.0701
    1TCq1    H414055   1.764   2.152  11.978 -0.3176  0.2626 -0.1314
    2MPD1     C14056   2.404   2.173  11.609 -0.1688 -0.0394 -0.0613
    2MPD1    C114057   2.326   2.150  11.497  0.1230  0.0097 -0.0318
    2MPD1    C214058   2.196   2.101  11.523  0.5644 -0.0644 -0.2139
    2MPD1    C314059   2.142   2.096  11.652  0.0187 -0.1924 -0.2049
    2MPD1    C414060   2.225   2.129  11.756 -0.6953  0.0130  0.8486
    2MPD1    C514061   2.357   2.158  11.734 -0.1956  0.0341  0.4847
    2MPD1     H14062   2.139   2.052  11.445  2.3326  0.3385 -1.7622
    2MPD1    H114063   2.196   2.126  11.860  0.1363  2.0354  1.1336
    2MPD1    H214064   2.510   2.195  11.595 -0.4280  0.2683 -1.6362
    2MPD1    H314065   2.432   2.144  11.811  1.9498 -1.7874 -1.9285
    2MPD1     N14066   2.001   2.069  11.669 -0.4358  0.1652 -0.1930
    2MPD1    H514067   1.953   2.026  11.591 -2.2072 -1.1260  1.5971
    2MPD1    N114068   2.384   2.144  11.371  0.0276 -0.5368  0.5136
    2MPD1    H614069   2.473   2.192  11.370 -0.1427 -0.2840 -1.8756
    2MPD1    H714070   2.325   2.172  11.293 -0.7688 -4.3211 -0.2523
    1TCq1    O114071   1.399   3.025   1.360  0.4474 -0.5344  0.4636
    1TCq1    C114072   1.507   2.950   1.387 -0.3408 -0.0802  0.2633
    1TCq1    O214073   1.495   2.837   1.432 -0.4667 -0.0180 -0.6413
    1TCq1    C214074   1.611   3.029   1.445  0.4121 -0.3858 -0.4076
    1TCq1    C314075   1.694   3.096   1.361  0.0914 -0.3411  0.0919
    1TCq1    C414076   1.778   3.180   1.429  0.7851  0.5734 -0.0695
    1TCq1    C514077   1.807   3.168   1.561 -0.1739  0.2137  0.4049
    1TCq1    C614078   1.727   3.090   1.637 -0.6160  0.0001  0.1249
    1TCq1    C714079   1.634   3.009   1.581  0.1151  0.5000 -0.6116
    1TCq1    C814080   1.776   3.065   1.765 -0.4480 -0.5695 -0.4757
    1TCq1    O414081   1.870   3.126   1.813 -0.0941  0.6607 -0.0000
    1TCq1    C914082   1.869   3.263   1.351  0.4814  0.4966  0.4944
    1TCq1    O514083   1.972   3.306   1.406  0.1837  0.7046 -0.9691
    1TCq1    O614084   1.829   3.307   1.240  0.4730 -0.8595 -0.0182
    1TCq1    H114085   1.414   3.111   1.315 -1.4989 -0.7462 -0.6062
    1TCq1    H214086   1.667   3.123   1.259 -1.4327 -1.7483  0.1217
    1TCq1    H314087   1.882   3.224   1.616  0.2888 -1.2018  1.2182
    1TCq1    H414088   1.574   2.938   1.637  3.2593 -1.6575 -0.0118
    2MPD1     C14089   1.696   2.868   2.225  0.2132 -0.3210 -0.0589
    2MPD1    C114090   1.621   2.807   2.137  0.3628 -0.7761 -0.1770
    2MPD1    C214091   1.623   2.849   2.005  0.4649  0.2994 -1.3635
    2MPD1    C314092   1.711   2.943   1.968 -1.1266 -0.1892  0.5360
    2MPD1    C414093   1.781   3.009   2.061 -0.0919 -0.2824  0.1725
    2MPD1    C514094   1.765   2.977   2.191 -0.1259 -0.0032  0.1558
    2MPD1     H14095   1.566   2.791   1.933 -0.4325  0.0092 -0.4162
    2MPD1    H114096   1.843   3.094   2.038 -0.2559 -0.1641  0.1628
    2MPD1    H214097   1.676   2.843   2.329  1.8581 -0.4093  0.2517
    2MPD1    H314098   1.828   3.024   2.266  1.0192  1.0513 -1.4635
    2MPD1     N14099   1.702   2.971   1.831 -0.8715  0.0178  0.0358
    2MPD1    H514100   1.638   2.916   1.774 -0.8922 -0.9597  0.9912
    2MPD1    N114101   1.511   2.727   2.181  1.1772  0.1847 -0.0330
    2MPD1    H614102   1.509   2.687   2.274  1.5192  1.5248  0.5437
    2MPD1    H714103   1.487   2.651   2.117  0.8350  0.5916 -0.3928
    1MPD1     C14104   4.242   2.055  12.326  0.6273 -0.2200  0.6584
    1MPD1    C114105   4.162   2.130  12.414  0.3441  0.2478 -0.1640
    1MPD1    C214106   4.128   2.257  12.369 -0.1269 -0.9015  0.5021
    1MPD1    C314107   4.143   2.298  12.241 -0.1850  0.1824 -0.5160
    1MPD1    C414108   4.216   2.223  12.150 -0.1543 -0.0748  0.5512
    1MPD1    C514109   4.273   2.103  12.200 -0.1689 -0.3684  0.1176
    1MPD1     H14110   4.077   2.323  12.438 -2.3761 -0.7207 -1.3239
    1MPD1    H114111   4.221   2.240  12.043  0.2491 -0.2206  0.5449
    1MPD1    H214112   4.276   1.957  12.357 -1.8867 -1.4939 -0.6119
    1MPD1    H314113   4.316   2.038  12.125  0.3234 -1.0608  0.9924
    1MPD1     N14114   4.083   2.417  12.201  0.3696 -0.4468  0.2171
    1MPD1    H514115   4.016   2.461  12.264  0.3753  1.6666 -1.2661
    1MPD1    N114116   4.131   2.084  12.546 -0.0955 -0.0409 -0.3969
    1MPD1    H614117   4.051   2.136  12.582  0.0789 -0.4164  0.5260
    1MPD1    H714118   4.102   1.986  12.542  1.3006 -0.5954  3.1396
    2MPD1     C14119   3.005   2.635  11.148 -0.2109 -0.9261  0.1514
    2MPD1    C114120   2.917   2.547  11.088 -0.2663 -0.2369  0.2142
    2MPD1    C214121   2.948   2.499  10.966  1.0293 -0.3951 -0.3138
    2MPD1    C314122   3.071   2.515  10.908  0.1603 -0.2843  0.3659
    2MPD1    C414123   3.163   2.579  10.986 -0.4424  1.0382  0.0650
    2MPD1    C514124   3.132   2.645  11.101 -0.2709 -0.3216 -0.6021
    2MPD1     H14125   2.870   2.444  10.915  0.8377  1.0728 -1.5926
    2MPD1    H114126   3.265   2.584  10.951 -0.1983 -1.2449  0.4386
    2MPD1    H214127   2.986   2.682  11.244 -1.9224 -4.1921  1.4241
    2MPD1    H314128   3.211   2.703  11.148  1.6183 -3.0927 -0.4062
    2MPD1     N14129   3.117   2.459  10.784 -0.2465 -0.1103 -0.0336
    2MPD1    H514130   3.205   2.489  10.743 -0.5365  0.3417 -0.3326
    2MPD1    N114131   2.787   2.536  11.136 -0.0764  0.5773  0.4812
    2MPD1    H614132   2.745   2.447  11.107 -0.8235  1.9561 -2.6436
    2MPD1    H714133   2.769   2.553  11.235 -0.1595  0.4918  0.4817
    3MPD1     C14134   3.225   1.570  10.879  0.3349  0.5631 -0.5119
    3MPD1    C114135   3.108   1.651  10.884  0.3315 -0.6991  0.6528
    3MPD1    C214136   3.108   1.774  10.839 -0.1373 -0.4404  0.8517
    3MPD1    C314137   3.224   1.816  10.776  0.2366 -0.3753 -0.8560
    3MPD1    C414138   3.340   1.744  10.789 -0.6939 -0.1680 -0.0672
    3MPD1    C514139   3.346   1.620  10.843 -0.3517  0.7256  0.2031
    3MPD1     H14140   3.022   1.839  10.847  0.3418  0.3513 -0.3307
    3MPD1    H114141   3.430   1.781  10.742 -0.1392  0.0478  1.1612
    3MPD1    H214142   3.223   1.471  10.923 -1.6346  0.6262 -0.4722
    3MPD1    H314143   3.426   1.547  10.837 -2.0098 -1.0936  0.1809
    3MPD1     N14144   3.229   1.950  10.739 -0.6752 -0.2811 -0.7153
    3MPD1    H514145   3.151   2.007  10.769 -0.4933 -0.1279 -0.5256
    3MPD1    N114146   2.990   1.602  10.951 -0.0176  0.3309 -0.4527
    3MPD1    H614147   2.909   1.656  10.922 -0.6205 -0.3730 -0.0985
    3MPD1    H714148   2.964   1.505  10.930  2.3050 -0.4985  0.5343
    4MPD2     C14149   3.454   2.684  11.827 -0.2203  0.5874 -0.0119
    4MPD2    C114150   3.570   2.758  11.813  0.7454  0.1755  0.2881
    4MPD2    C214151   3.588   2.821  11.691 -0.1350  0.0529 -0.3394
    4MPD2    C314152   3.496   2.821  11.590  0.1699  0.1849  0.0645
    4MPD2    C414153   3.383   2.746  11.607  0.3428  0.3136  0.1357
    4MPD2    C514154   3.362   2.681  11.726 -0.2270 -0.3968 -1.1025
    4MPD2     H14155   3.682   2.876  11.692  0.4907 -1.0141 -1.1805
    4MPD2    H114156   3.320   2.730  11.520  0.2254  1.8446 -0.0536
    4MPD2    H214157   3.434   2.625  11.916 -0.9524  1.3342  0.3200
    4MPD2    H314158   3.269   2.625  11.727 -0.8733  0.7117  2.6366
    4MPD2     N14159   3.506   2.879  11.463  0.3808  0.7665 -0.0384
    4MPD2    H514160   3.425   2.873  11.403  0.4224 -0.5580  0.0297
    4MPD2    N114161   3.674   2.761  11.907  0.3263  0.8796 -0.0315
    4MPD2    H714162   3.755   2.814  11.876 -0.8811  1.7279 -1.7533
    5TMC3    C114163   3.829   2.721  12.083 -0.3144 -0.4470 -0.0107
    5TMC3    C214164   3.900   2.609  12.107 -0.2747 -0.3576 -0.0759
    5TMC3    C314165   4.032   2.610  12.078  0.3524 -0.0191 -0.6419
    5TMC3    C414166   3.888   2.830  12.028 -0.1313  0.2837 -0.0890
    5TMC3    C514167   4.017   2.826  11.980 -0.4781  0.3130  0.0192
    5TMC3    C614168   4.080   2.705  11.991 -0.1767  0.5623 -0.5504
    5TMC3     C14169   3.695   2.683  12.021 -0.0076  1.0590 -0.7168
    5TMC3     O14170   3.628   2.589  12.058  0.4801 -0.7054  0.0130
    5TMC3     H14171   3.858   2.523  12.158 -0.5608 -0.0010  0.2888
    5TMC3    H114172   3.836   2.925  12.023  0.1676  0.4594  0.0901
    5TMC3    H214173   4.178   2.696  11.944 -1.1552 -2.0840 -2.1096
    5TMC3    C714174   4.007   2.875  11.843 -0.2656  0.4493 -0.5702
    5TMC3    C814175   4.106   2.486  12.085  0.1584 -0.1543  0.2299
    5TMC3    O114176   3.895   2.894  11.801  0.7420 -0.2174 -0.3884
    5TMC3    O214177   4.196   2.471  11.999 -0.3895  0.4740 -0.6433
    6TMC3    C114178   3.124   2.315  10.600 -0.0680  0.6300  0.4421
    6TMC3    C214179   3.151   2.185  10.630  0.5892  0.6918  0.3261
    6TMC3    C314180   3.280   2.147  10.626 -0.0823 -0.8836 -0.1195
    6TMC3    C414181   3.227   2.399  10.585 -0.0833  0.5330 -0.2262
    6TMC3    C514182   3.358   2.357  10.571  0.9072 -0.8370 -0.1446
    6TMC3    C614183   3.390   2.226  10.595 -0.2043 -0.5227 -0.6996
    6TMC3     C14184   3.046   2.365  10.706 -0.2461 -0.3316  0.5034
    6TMC3     O14185   2.944   2.307  10.744  0.1541 -0.1315  0.6335
    6TMC3     H14186   3.073   2.110  10.640  0.8599  0.3885  0.1623
    6TMC3    H114187   3.214   2.500  10.547 -2.2005  0.3559  0.0271
    6TMC3    H214188   3.493   2.193  10.593 -0.1966 -0.5110 -0.3679
    6TMC3    C714189   3.454   2.462  10.592  0.4326  0.1263 -0.4133
    6TMC3    C814190   3.315   2.007  10.656 -0.5166  0.2406  0.9113
    6TMC3    O114191   3.403   2.560  10.649 -0.9007  0.5046  0.6871
    6TMC3    O214192   3.416   1.965  10.595  0.4875 -0.0209 -0.2805
    7MPD2     C14193   4.188   3.033  11.388 -0.7932  0.2840  0.2362
    7MPD2    C114194   4.054   3.014  11.432  0.5592 -0.4056 -0.3614
    7MPD2    C214195   4.031   2.970  11.559  0.2712  0.1872  0.4037
    7MPD2    C314196   4.134   2.939  11.645  0.5145  0.4164 -0.8884
    7MPD2    C414197   4.259   2.955  11.597 -0.0795 -0.3656  0.0650
    7MPD2    C514198   4.287   3.006  11.473 -0.4083 -0.0653 -0.1016
    7MPD2     H14199   3.929   2.974  11.595  0.9404  1.6613  2.1271
    7MPD2    H114200   4.346   2.944  11.660 -0.0423 -3.2943 -0.4567
    7MPD2    H214201   4.219   3.066  11.290 -1.4216 -0.4225 -0.1911
    7MPD2    H314202   4.387   3.034  11.442  0.0889 -0.9578  0.6932
    7MPD2     N14203   4.124   2.891  11.772  0.4974 -0.0449 -0.1661
    7MPD2    H514204   4.209   2.875  11.825  1.2031 -1.8814 -1.8543
    7MPD2    N114205   3.944   3.042  11.346 -0.0274 -0.1324  0.0240
    7MPD2    H714206   3.854   3.020  11.386 -0.3821  1.1142 -0.0895
    8TMC3    C114207   3.805   3.055  11.161 -0.8959  0.0676  0.5658
    8TMC3    C214208   3.796   2.952  11.071 -0.4593 -0.4257 -0.3276
    8TMC3    C314209   3.701   2.854  11.087 -0.0377 -0.1204  0.5746
    8TMC3    C414210   3.718   3.062  11.263 -0.1766 -0.4166 -0.2553
    8TMC3    C514211   3.621   2.968  11.282  0.7267 -0.1873 -0.2186
    8TMC3    C614212   3.606   2.870  11.189 -0.8090  0.3878  0.6214
    8TMC3     C14213   3.940   3.066  11.211  0.1431 -0.7718 -0.5410
    8TMC3     O14214   4.030   3.077  11.129 -0.3636  0.1580  0.3282
    8TMC3     H14215   3.875   2.957  10.996  0.8607 -1.2881  1.0156
    8TMC3    H114216   3.727   3.138  11.340 -0.5779 -0.1200 -0.5072
    8TMC3    H214217   3.538   2.789  11.215 -1.4695  0.5044 -0.7220
    8TMC3    C714218   3.615   2.941  11.423  0.6759  0.3715  0.0471
    8TMC3    C814219   3.663   2.772  10.976  0.1420 -0.7145 -0.7292
    8TMC3    O114220   3.719   2.963  11.485  0.1226 -0.1304  0.3546
    8TMC3    O214221   3.553   2.716  10.984 -0.3863 -0.7260  0.1317
    9MPD2     C14222   3.902   2.649  10.707 -0.2423 -0.3731  0.5586
    9MPD2    C114223   3.782   2.661  10.774 -0.0861 -0.2396 -0.4168
    9MPD2    C214224   3.678   2.578  10.743  0.1906 -0.0145 -0.4623
    9MPD2    C314225   3.689   2.497  10.630 -0.2688  1.0522 -0.4296
    9MPD2    C414226   3.812   2.470  10.566 -0.1653 -0.8811 -0.7443
    9MPD2    C514227   3.915   2.555  10.602 -0.6182 -0.3518  0.2244
    9MPD2     H14228   3.581   2.595  10.789 -0.3624  0.4840 -1.7857
    9MPD2    H114229   3.820   2.402  10.482  1.2707  1.1803 -2.2842
    9MPD2    H214230   3.990   2.702  10.741 -0.3496  0.2194 -0.0986
    9MPD2    H314231   4.013   2.539  10.559 -0.9203 -1.7933  0.0607
    9MPD2     N14232   3.583   2.424  10.578 -0.3861  0.1062 -0.1836
    9MPD2    H514233   3.601   2.339  10.525 -2.1574 -0.5232  0.2511
    9MPD2    N114234   3.766   2.760  10.881  0.1608 -0.4440 -0.2072
    9MPD2    H714235   3.835   2.833  10.898  0.8353 -0.4440 -2.9688
    1MPD1     C14236   4.692   0.812  17.123 -0.1575  0.2243  0.5856
    1MPD1    C114237   4.615   0.827  17.235  0.1882  0.3480 -0.2292
    1MPD1    C214238   4.495   0.898  17.228 -0.5772  0.4204 -0.4035
    1MPD1    C314239   4.457   0.961  17.107 -1.1581 -0.8995  0.3550
    1MPD1    C414240   4.548   0.949  17.000  0.0898  0.4871  0.1638
    1MPD1    C514241   4.655   0.870  17.007  0.0109 -0.1864 -0.8224
    1MPD1     H14242   4.433   0.901  17.317  0.6100  2.3589  0.3413
    1MPD1    H114243   4.532   1.004  16.907 -0.4853 -0.8695 -0.5467
    1MPD1    H214244   0.060   0.756  17.121  0.5446  1.3619  1.8529
    1MPD1    H314245   4.718   0.853  16.921  0.8279 -0.2675 -0.1994
    1MPD1     N14246   4.339   1.028  17.093  0.2304  0.1835  0.7457
    1MPD1    H514247   4.312   1.070  17.005  3.2589  0.0468 -0.2438
    1MPD1    N114248   4.648   0.754  17.350  0.7316 -0.3792 -0.5497
    1MPD1    H614249   4.617   0.781  17.443  1.7861 -2.3328  0.3727
    1MPD1    H714250   0.017   0.715  17.352  0.2599 -1.7255 -3.4267
    2MPD1     C14251   3.572   1.165  16.481 -0.1666  0.8636  0.4563
    2MPD1    C114252   3.593   1.297  16.524  0.0443  0.6451  0.8312
    2MPD1    C214253   3.674   1.310  16.637 -0.0822  0.0581 -0.3319
    2MPD1    C314254   3.757   1.207  16.682 -0.3805 -0.1622  0.6466
    2MPD1    C414255   3.739   1.085  16.628  0.0879  0.3484  0.1123
    2MPD1    C514256   3.651   1.067  16.522 -0.0285 -0.1724  0.3524
    2MPD1     H14257   3.690   1.405  16.687 -3.3390 -0.1048  1.0503
    2MPD1    H114258   3.807   1.006  16.659 -0.0573 -0.0809 -0.6827
    2MPD1    H214259   3.502   1.138  16.402  0.2311 -0.1702  0.4589
    2MPD1    H314260   3.655   0.967  16.479 -0.2648 -0.2486  0.5023
    2MPD1     N14261   3.832   1.229  16.799  0.3171 -0.0132  0.1380
    2MPD1    H514262   3.814   1.311  16.855  0.5078  0.6475 -0.7725
    2MPD1    N114263   3.517   1.406  16.482  0.0127  0.0886  0.1073
    2MPD1    H614264   3.490   1.400  16.384 -0.1460  1.8759  0.0461
    2MPD1    H714265   3.578   1.487  16.475  0.3366 -0.2417 -0.8537
    3TCq2    C114266   3.929   1.137  16.840  0.3322  0.6471 -0.1111
    3TCq2    O214267   3.990   1.050  16.779  0.8385 -0.0544  0.4376
    3TCq2    C214268   3.972   1.155  16.982  0.0157 -0.0474  0.1547
    3TCq2    C314269   3.897   1.233  17.063  0.7364  0.1045  0.4835
    3TCq2    C414270   3.937   1.241  17.194  0.0325  0.0923 -0.3779
    3TCq2    C514271   4.051   1.182  17.235  0.6287 -0.1187 -0.7227
    3TCq2    C614272   4.132   1.126  17.145 -0.0486  0.6879 -0.0196
    3TCq2    C714273   4.091   1.105  17.016 -0.5126  0.0015 -0.0494
    3TCq2    C814274   4.257   1.060  17.194  0.4350  0.2455 -0.4812
    3TCq2    O414275   4.275   1.055  17.311 -0.0973 -0.6585  0.3897
    3TCq2    C914276   3.854   1.307  17.299  0.1553 -0.0413 -0.0125
    3TCq2    O514277   3.742   1.337  17.260 -0.0563 -0.3647  0.7214
    3TCq2    O614278   3.876   1.280  17.423 -0.2728 -0.1002 -0.6827
    3TCq2    H214279   3.802   1.279  17.042  0.6592  0.3304  1.3194
    3TCq2    H314280   4.075   1.188  17.340 -4.1627  0.2442  0.3205
    3TCq2    H414281   4.151   1.053  16.942 -2.3500  0.7056 -2.0556
    1TCq1    O114282   1.380   0.620  12.512 -0.2835  0.3307  0.2346
    1TCq1    C114283   1.478   0.628  12.608 -0.4439  0.1439  0.2470
    1TCq1    O214284   1.593   0.657  12.586  0.2491  0.3483  0.5197
    1TCq1    C214285   1.422   0.644  12.738  0.5580  0.5777 -0.0512
    1TCq1    C314286   1.301   0.584  12.772  0.2408 -0.2711 -0.4471
    1TCq1    C414287   1.268   0.584  12.903 -0.6003  0.4469  0.0510
    1TCq1    C514288   1.337   0.651  12.994  0.0981 -0.5233  0.3445
    1TCq1    C614289   1.452   0.711  12.958 -0.4777 -0.4250  0.0756
    1TCq1    C714290   1.499   0.719  12.829  0.9425  0.6255  0.3229
    1TCq1    C814291   1.540   0.763  13.061 -0.0562  0.6770  0.4984
    1TCq1    O414292   1.488   0.823  13.150 -0.5521  0.4075  0.1092
    1TCq1    C914293   1.154   0.516  12.941 -0.2353  0.8308 -0.5292
    1TCq1    O514294   1.068   0.503  12.851  0.2953 -0.0928 -0.3309
    1TCq1    O614295   1.141   0.468  13.057 -0.2879  0.6183 -0.0987
    1TCq1    H114296   1.285   0.624  12.538  0.0698 -1.1655  1.7539
    1TCq1    H214297   1.256   0.520  12.696  0.0970  0.7209 -1.1883
    1TCq1    H314298   1.301   0.642  13.096 -1.6480 -0.3833 -0.2702
    1TCq1    H414299   1.594   0.766  12.807  0.5342  2.3507  2.2249
    2MPD2     C14300   1.764   0.805  13.258 -0.9170 -0.5621  0.2518
    2MPD2    C114301   1.774   0.718  13.148  0.3869  0.1665  0.5637
    2MPD2    C214302   1.899   0.672  13.111  0.2608  0.4053 -0.2724
    2MPD2    C314303   2.008   0.701  13.188 -0.0387 -0.8734 -1.1295
    2MPD2    C414304   1.993   0.771  13.306 -0.6284  0.2562  0.0001
    2MPD2    C514305   1.872   0.822  13.345 -0.0687 -0.0014 -0.3741
    2MPD2     H14306   1.918   0.615  13.021 -0.0850 -2.0906  1.2589
    2MPD2    H114307   2.073   0.790  13.377 -0.2148 -1.3128 -0.0439
    2MPD2    H214308   1.672   0.855  13.288 -0.2064  1.0295 -0.1833
    2MPD2    H314309   1.867   0.872  13.441  2.1046  0.6081 -0.5966
    2MPD2     N14310   2.129   0.631  13.158 -0.3920  0.2630  0.7865
    2MPD2    H514311   2.130   0.557  13.089 -0.6726 -0.4220  1.5139
    2MPD2    N114312   1.667   0.703  13.056  0.6862 -0.0431  0.6242
    2MPD2    H714313   1.681   0.646  12.973 -1.3782 -0.1313  0.3418
    3TCq1    O114314   2.758   0.358  13.271  0.0254  0.0085 -0.2567
    3TCq1    C114315   2.645   0.412  13.328  0.7961 -0.8588  0.0658
    3TCq1    O214316   2.653   0.470  13.434 -0.0110  0.1656  0.0328
    3TCq1    C214317   2.545   0.434  13.224 -0.1377 -0.1234 -0.2399
    3TCq1    C314318   2.490   0.320  13.166  0.4890  0.1652 -0.5062
    3TCq1    C414319   2.375   0.329  13.096  0.2948  0.6180  0.2902
    3TCq1    C514320   2.295   0.432  13.116 -0.9375  0.4323  0.2070
    3TCq1    C614321   2.336   0.533  13.202 -0.4265 -0.5425  0.6678
    3TCq1    C714322   2.463   0.534  13.255  0.0893 -0.7397  0.5264
    3TCq1    C814323   2.245   0.641  13.224  0.6489 -0.1790  0.0417
    3TCq1    O414324   2.276   0.694  13.333  0.0307  0.8312 -0.0355
    3TCq1    C914325   2.325   0.211  13.015  0.4200  0.6581  0.0026
    3TCq1    O514326   2.406   0.128  12.974  0.2136 -0.0212 -0.8097
    3TCq1    O614327   2.203   0.208  12.984 -0.0763 -0.1495  0.5204
    3TCq1    H114328   2.743   0.341  13.176 -1.2072 -2.7536  0.4426
    3TCq1    H214329   2.552   0.234  13.146 -0.7737 -0.2681 -2.5652
    3TCq1    H314330   2.196   0.428  13.073 -0.2326 -1.0173 -1.2698
    3TCq1    H414331   2.501   0.616  13.314  1.8757 -1.8183  0.8895
    1MPD2     C14332   1.862   1.560  14.996 -0.1464 -0.2849  0.3122
    1MPD2    C114333   1.754   1.488  15.046 -0.0579 -0.1782  0.0777
    1MPD2    C214334   1.775   1.410  15.158 -0.3063  0.0526  0.7012
    1MPD2    C314335   1.894   1.410  15.229  0.3252  0.5998 -0.1827
    1MPD2    C414336   1.992   1.489  15.192 -0.0669 -0.4771  0.2072
    1MPD2    C514337   1.978   1.552  15.070 -0.1602 -0.8961  0.3635
    1MPD2     H14338   1.702   1.342  15.202 -1.0118  0.0827 -0.4302
    1MPD2    H114339   2.084   1.497  15.250 -2.2993  0.7020  3.6413
    1MPD2    H214340   1.862   1.623  14.908  2.4035  0.0223  0.5414
    1MPD2    H314341   2.068   1.604  15.040 -0.1016  0.0004  2.0704
    1MPD2     N14342   1.908   1.315  15.330 -0.6587 -0.8255  0.0324
    1MPD2    H514343   1.826   1.259  15.349 -0.6571 -0.3819  1.3697
    1MPD2    N114344   1.626   1.495  14.980  0.0764 -0.1776 -0.5244
    1MPD2    H714345   1.620   1.543  14.891 -1.3571  0.6440  0.0208
    2TMC3    C114346   1.390   1.461  14.952  0.3474  0.6705 -0.1843
    2TMC3    C214347   1.286   1.400  15.017 -0.0961 -0.2556 -0.0880
    2TMC3    C314348   1.203   1.307  14.957  0.0866 -0.8530  0.5175
    2TMC3    C414349   1.409   1.440  14.820  0.3862  0.5636  0.4376
    2TMC3    C514350   1.315   1.369  14.754  0.5741 -0.0715  0.5123
    2TMC3    C614351   1.219   1.294  14.824 -0.0356 -0.2969 -0.5294
    2TMC3     C14352   1.508   1.453  15.039 -0.1734 -0.1543 -0.7510
    2TMC3     O14353   1.481   1.394  15.139 -0.6381 -0.5987 -0.1721
    2TMC3     H14354   1.271   1.417  15.123 -0.0940  0.7974 -0.2627
    2TMC3    H114355   1.506   1.448  14.772  0.3188  1.1157  0.3935
    2TMC3    H214356   1.152   1.220  14.782 -0.1763  0.2080 -1.2030
    2TMC3    C714357   1.249   1.448  14.653 -0.0171  1.1219 -0.3690
    2TMC3    C814358   1.190   1.178  15.024 -0.0419 -0.3969  0.2843
    2TMC3    O114359   1.137   1.410  14.615 -0.2894  0.3296 -0.3002
    2TMC3    O214360   1.098   1.103  15.002  0.1328  0.1919 -0.2664
    3TCq1    O114361   1.717   2.482  14.394  0.2471  0.0722  0.0728
    3TCq1    C114362   1.604   2.531  14.341 -0.4184  0.0650 -0.0703
    3TCq1    O214363   1.587   2.549  14.224 -0.5183  0.5101 -0.4118
    3TCq1    C214364   1.510   2.460  14.430 -0.3167  0.5708 -0.0957
    3TCq1    C314365   1.530   2.485  14.561 -0.1170 -0.1671 -0.2655
    3TCq1    C414366   1.483   2.394  14.654  0.1536 -0.1858 -0.2956
    3TCq1    C514367   1.417   2.283  14.609 -0.0210  0.1205 -0.1620
    3TCq1    C614368   1.391   2.262  14.474 -0.8443 -0.7751  0.0886
    3TCq1    C714369   1.444   2.343  14.378  0.4550 -0.5527  0.2195
    3TCq1    C814370   1.331   2.135  14.426  0.9496  0.5293  1.0551
    3TCq1    O414371   1.275   2.144  14.320 -0.8580  0.0996 -0.8666
    3TCq1    C914372   1.477   2.428  14.800 -1.0070 -0.6914  0.4024
    3TCq1    O514373   1.530   2.540  14.826  0.0174 -0.0768 -0.0254
    3TCq1    O614374   1.380   2.372  14.866  0.2050 -0.7027 -0.3839
    3TCq1    H114375   1.705   2.452  14.487 -0.0545 -1.0134 -0.3208
    3TCq1    H214376   1.570   2.580  14.594  3.1304 -1.4966 -0.4362
    3TCq1    H314377   1.368   2.214  14.676  1.8257 -0.2978  0.7570
    3TCq1    H414378   1.429   2.324  14.273 -4.5938 -0.1677  0.8487
    4MPD2     C14379   1.169   1.888  14.407 -0.4032  0.3974  0.3330
    4MPD2    C114380   1.273   1.902  14.493 -0.0078  0.0316  0.1548
    4MPD2    C214381   1.311   1.796  14.569 -0.2356  0.1505 -0.6547
    4MPD2    C314382   1.248   1.674  14.570  0.9192 -0.7550  0.2558
    4MPD2    C414383   1.138   1.664  14.488  0.0455  0.0371 -0.7502
    4MPD2    C514384   1.098   1.772  14.416 -0.9210 -0.0905  0.5359
    4MPD2     H14385   1.397   1.808  14.633 -0.9488 -2.6021  0.8284
    4MPD2    H114386   1.075   1.576  14.480 -0.1528  0.2195 -1.2705
    4MPD2    H214387   1.135   1.962  14.336 -1.1246 -1.1852 -0.9710
    4MPD2    H314388   1.011   1.763  14.353  0.9807  0.2776 -2.1724
    4MPD2     N14389   1.302   1.578  14.649 -1.0548 -0.3101  0.0986
    4MPD2    H514390   1.398   1.583  14.681 -1.1844  0.9195  0.2918
    4MPD2    N114391   1.332   2.030  14.514  0.5408 -0.4315  0.7039
    4MPD2    H714392   1.384   2.038  14.601  1.4910  1.5624 -0.0466
    5TMC2    C114393   1.791   1.049  15.517 -0.7898 -0.0622 -0.4621
    5TMC2    C214394   1.864   0.945  15.476  0.2512 -0.2163 -0.3796
    5TMC2    C314395   1.996   0.961  15.433 -0.6338 -0.1783  0.6845
    5TMC2    C414396   1.860   1.170  15.523 -0.0160 -0.7254  0.6586
    5TMC2    C514397   1.994   1.182  15.496  0.5236  0.8137 -0.4105
    5TMC2    C614398   2.066   1.070  15.454 -0.4107  0.6420 -0.4651
    5TMC2     C14399   1.674   1.075  15.434 -0.2827  0.8066  0.4737
    5TMC2     O14400   1.681   1.178  15.376  0.0498  0.5981 -0.0716
    5TMC2     H14401   1.816   0.849  15.461 -0.5544  0.2943 -1.1190
    5TMC2    H114402   1.811   1.263  15.550  3.1496  0.3095  2.8520
    5TMC2    H214403   2.171   1.078  15.429 -0.2095  2.5411  0.9817
    5TMC2    C714404   2.026   1.292  15.409  0.3359  0.2461 -0.1725
    5TMC2    C814405   2.077   0.848  15.415  0.0820  0.1414 -0.5999
    5TMC2    O114406   2.143   1.312  15.383 -0.0339  0.2420 -0.1862
    5TMC2    O214407   2.198   0.847  15.437 -0.7110  0.5432 -0.3033
    5TMC2    O514408   1.996   0.759  15.355  0.0908  0.2398 -0.3651
    5TMC2    H514409   1.923   0.813  15.318  1.1294  0.4423 -2.1351
    6MPD2     C14410   1.232   0.942  15.221  0.5020  0.1761 -0.6413
    6MPD2    C114411   1.310   1.058  15.205  0.1490  0.5557  0.3552
    6MPD2    C214412   1.422   1.066  15.280 -0.6177  0.1233 -0.7575
    6MPD2    C314413   1.458   0.977  15.368 -0.1189 -0.7768  0.3541
    6MPD2    C414414   1.382   0.854  15.375 -0.4183 -0.1399 -0.3236
    6MPD2    C514415   1.267   0.842  15.307  0.9739 -0.2044  0.7541
    6MPD2     H14416   1.486   1.150  15.255  0.2982  0.4666  2.6769
    6MPD2    H114417   1.405   0.776  15.447  0.1662 -0.6554 -1.0790
    6MPD2    H214418   1.138   0.932  15.168  0.5235  3.2455 -1.2988
    6MPD2    H314419   1.199   0.758  15.316  2.4828 -1.3094  1.6952
    6MPD2     N14420   1.580   0.980  15.436  0.1542  0.0430  0.0201
    6MPD2    H514421   1.597   0.893  15.485  1.5011  0.0094 -0.5051
    6MPD2    N114422   1.293   1.164  15.114  0.1659  0.1336  0.0088
    6MPD2    H714423   1.373   1.225  15.102 -1.4513  2.6937  2.2221
  945NH4     N114424   0.897   1.967  11.795  0.3110 -0.4899  0.2746
  945NH4     H214425   0.915   1.931  11.891 -0.2115  1.7558  1.2169
  945NH4     H314426   0.909   1.888  11.729  0.9822 -0.0817 -0.0919
  945NH4     H414427   0.970   2.038  11.776 -2.1263  2.2302  0.9685
  945NH4     H514428   0.803   2.013  11.790 -0.3196 -1.9645 -1.3536
  946SOD     NA14429   0.055   2.818   0.675  0.3840  0.3071  0.1233
  947SOD     NA14430   2.918   0.485  14.751  0.2534 -0.4392  0.3579
  948SOD     NA14431   0.890   4.149  11.239  0.3033  0.7373 -0.3103
  949SOD     NA14432   3.506   1.734  17.385  0.3262  0.2423  0.0455
  950SOD     NA14433   2.808   2.120  17.285 -0.2747  0.0533  0.5759
  951SOD     NA14434   1.101   4.592   2.817 -0.0096  0.0045 -0.4125
  952SOD     NA14435   2.060   0.873  16.881 -0.5617  0.3188 -0.0656
  953SOD     NA14436   3.517   0.321   8.838 -0.0340 -0.3377  0.0038
  954SOD     NA14437   1.407   1.865  11.342 -0.0476 -0.6904  0.0132
  955SOD     NA14438   0.859   4.454  11.080 -0.4045  0.3435 -0.3996
  956SOD     NA14439   4.211   4.412  14.291  0.1513  0.3681 -0.0493
  957SOD     NA14440   4.137   1.209   0.658 -0.2541  0.5068 -0.3339
  958SOD     NA14441   3.395   2.080  13.169 -0.4065 -0.4807 -0.0581
  959SOD     NA14442   3.627   4.712   9.708  0.0917  0.5327  0.1471
  960SOD     NA14443   1.573   0.270  13.777 -0.3051 -0.1862  0.8092
  961SOD     NA14444   3.344   2.876   4.163 -0.3198  0.4354 -0.4581
  962SOD     NA14445   0.784   1.412  10.981  0.1321 -0.1799 -0.2446
  963SOD     NA14446   0.402   2.196   1.623  0.4414  0.2350  0.6500
  964SOD     NA14447   1.019   2.135  13.381 -0.1668  0.7165  0.1171
  965SOD     NA14448   1.633   2.068  11.332  0.4823  0.2342 -0.4067
  966SOD     NA14449   3.948   3.816   0.730 -0.6510 -0.2247 -0.1735
  967SOD     NA14450   2.332   4.424  12.509 -0.6055  0.0384 -0.6972
  968SOD     NA14451   4.543   3.536  10.602 -0.4116  0.9071  0.3944
  969SOD     NA14452   4.579   0.054  13.119  0.1389  0.0515 -0.0250
  970SOD     NA14453   1.668   2.032  17.609  0.3698  0.3282  0.0088
  971SOD     NA14454   1.966   0.940  12.518 -0.0528  0.4076 -0.5725
  972SOD     NA14455   2.825   0.183  14.979  0.4138  0.1603 -0.5043
  973SOD     NA14456   2.798   3.580   3.220  0.4019  1.0209 -0.0368
  974SOD     NA14457   0.182   3.788   2.159  0.2779 -0.3150 -0.1113
  975SOD     NA14458   1.843   3.557  11.479  0.4565  0.0233  0.2427
  976SOD     NA14459   2.509   4.664  12.992  0.0363 -0.1830  0.6029
  977SOD     NA14460   2.832   0.472  14.389 -0.0570 -0.1528  0.0853
  978SOD     NA14461   2.969   0.325  11.408 -0.2491 -1.2217 -0.0453
  979SOD     NA14462   2.883   4.224   9.366  0.3541 -0.1407 -0.0144
  980SOD     NA14463   2.983   1.086  15.559 -0.2484 -0.2387 -0.2647
  981SOD     NA14464   0.233   2.980   7.982 -0.3354  0.0326 -0.5243
  982SOD     NA14465   1.973   0.257  10.062  0.2482 -0.1983  0.3408
  983SOD     NA14466   0.955   3.094  10.288 -0.0499  0.1215 -0.2908
  984SOD     NA14467   2.156   2.863  17.038  0.5050  0.5272  0.1790
  985SOD     NA14468   1.943   0.026   1.959  0.3202  0.3744 -0.6710
  986SOD     NA14469   0.852   1.629  14.828 -0.7704  0.1748  0.0385
  987SOD     NA14470   3.086   0.376  14.492  0.6299  0.0101  0.1921
  988SOD     NA14471   2.933   1.378  15.437 -0.1198  0.1789 -0.1756
  989SOD     NA14472   1.822   0.100   8.381 -0.0966  0.0623 -0.1888
  990SOD     NA14473   2.584   0.372   1.776 -0.0469  0.3070  0.4170
  991SOD     NA14474   3.425   2.594  14.462  0.1737 -0.0229 -0.6054
  992SOD     NA14475   4.001   3.564  15.085  0.1424  0.5114 -0.0422
  993SOD     NA14476   1.368   0.824  13.331 -0.0574  0.4373  0.0810
  994SOD     NA14477   1.075   4.381  15.698 -0.2896 -0.0143 -0.1333
  995SOD     NA14478   0.891   1.541   8.021 -0.2104 -0.0237 -0.0891
  996SOD     NA14479   2.885   2.584  13.252 -0.1150 -0.3064 -0.5142
  997SOD     NA14480   0.213   4.492  16.968 -0.1824  0.4041  0.0259
  998SOD     NA14481   2.099   1.021  11.917  0.3628 -0.0036  0.1756
  999SOD     NA14482   2.047   0.693  11.935  0.2215  0.2953  0.4358
 1000SOD     NA14483   4.263   4.151  10.655 -0.0113 -0.2835  0.2125
 1001SOD     NA14484   3.368   4.545  13.474  0.1622  0.0084  0.5327
 1002SOD     NA14485   3.517   2.995   2.015  0.0386  0.0747 -0.9682
 1003SOD     NA14486   3.716   1.087  14.793  0.3134  0.8190 -0.4566
 1004SOD     NA14487   3.397   4.656   1.543  0.1102 -0.3992 -0.1157
 1005SOD     NA14488   1.066   4.197  15.393 -0.2539  0.0932  0.3347
 1006SOD     NA14489   2.065   4.610  11.030  0.0855 -0.4762 -0.2478
 1007SOD     NA14490   0.598   3.493   6.405  0.0506 -0.2424 -0.6621
 1008SOD     NA14491   1.749   3.810   9.505 -0.2950 -0.3325  0.5336
 1009SOD     NA14492   3.553   1.623  11.295 -0.3629  0.1929  0.2839
 1010SOD     NA14493   2.487   4.250   7.275  0.3265  0.0862 -0.4150
 1011SOL     OW14494   0.030   2.756  15.704 -0.1754 -0.1465 -0.0725
 1011SOL    HW114495   0.007   2.663  15.695  0.4716 -0.4769  1.7488
 1011SOL    HW214496   4.670   2.799  15.711 -1.3781 -2.3167 -1.1093
 1012SOL     OW14497   4.478   0.478   8.619 -0.1887  0.1743  0.2594
 1012SOL    HW114498   4.523   0.396   8.641  1.3000  1.2201  1.1186
 1012SOL    HW214499   4.532   0.543   8.664  0.7373 -0.8163  0.5889
 1013SOL     OW14500   2.153   1.171  10.389  0.6813  0.1754  0.2285
 1013SOL    HW114501   2.148   1.180  10.484  1.6131 -2.3146  0.5166
 1013SOL    HW214502   2.196   1.087  10.374 -0.1960 -0.4173  1.0928
 1014SOL     OW14503   3.459   4.039   6.114  0.4961 -0.2466 -0.2949
 1014SOL    HW114504   3.432   4.000   6.197  1.3565 -1.0944 -0.4176
 1014SOL    HW214505   3.380   4.021   6.064  0.6040 -0.7758 -0.2699
 1015SOL     OW14506   2.417   3.837  16.393  0.5914  0.1296 -0.3360
 1015SOL    HW114507   2.398   3.825  16.486 -1.3418 -0.1332 -0.7550
 1015SOL    HW214508   2.465   3.918  16.410 -1.5458  0.8488  2.2055
 1016SOL     OW14509   4.481   1.417   8.647  0.6516  0.0520 -0.2677
 1016SOL    HW114510   4.401   1.370   8.670  0.1864 -0.4520 -2.9784
 1016SOL    HW214511   4.512   1.364   8.574 -2.1553 -2.6832  0.5244
 1017SOL     OW14512   0.726   2.180   8.400  0.1016 -0.0571 -0.2372
 1017SOL    HW114513   0.795   2.168   8.465  1.2765  1.3564 -1.2343
 1017SOL    HW214514   0.783   2.146   8.331  0.3097  0.6975 -0.4316
 1018SOL     OW14515   3.326   3.046   4.344  0.5394 -0.3756 -0.4228
 1018SOL    HW114516   3.259   3.020   4.407  0.6221  1.5304  0.4665
 1018SOL    HW214517   3.406   3.019   4.390  0.8052  1.2344  0.0830
 1019SOL     OW14518   1.137   2.722   1.163  0.0649  0.1089  0.6451
 1019SOL    HW114519   1.114   2.643   1.115 -2.5501  1.3353 -0.1505
 1019SOL    HW214520   1.198   2.688   1.229  1.9281  0.8453 -0.7222
 1020SOL     OW14521   3.113   0.358   2.544  0.1115  0.2114 -0.3815
 1020SOL    HW114522   3.081   0.448   2.545  0.2159  0.2304  1.4001
 1020SOL    HW214523   3.063   0.320   2.472  1.2620 -2.8897  0.4459
 1021SOL     OW14524   3.944   0.988  17.517 -0.3449  0.1397  0.0583
 1021SOL    HW114525   3.951   0.938  17.599  0.0262 -0.4225 -0.3127
 1021SOL    HW214526   3.877   1.052  17.537 -0.5634  0.1334 -0.6542
 1022SOL     OW14527   1.858   1.104  14.124  0.5663  0.3359 -0.1027
 1022SOL    HW114528   1.788   1.116  14.188  1.1241  1.0531  0.3741
 1022SOL    HW214529   1.938   1.132  14.169  0.7133 -0.9308  0.4453
 1023SOL     OW14530   1.077   2.394  12.614  0.2138 -0.4042  0.3636
 1023SOL    HW114531   1.034   2.451  12.551 -1.3409 -0.9486  0.9347
 1023SOL    HW214532   1.061   2.434  12.700 -1.7517 -2.0139  0.7422
 1024SOL     OW14533   2.221   4.618   2.886 -0.0978 -0.3399 -0.2941
 1024SOL    HW114534   2.169   4.582   2.958 -2.6979  1.1752 -1.4137
 1024SOL    HW214535   2.292   4.553   2.887 -1.9884 -2.4474 -2.2971
 1025SOL     OW14536   1.220   2.352   3.089 -0.1407 -0.6572  0.6223
 1025SOL    HW114537   1.224   2.418   3.019 -0.6539 -2.5184 -1.1666
 1025SOL    HW214538   1.313   2.349   3.111  0.1859  3.0822 -0.2002
 1026SOL     OW14539   4.704   2.349   1.010 -0.4045 -0.0887 -0.5892
 1026SOL    HW114540   0.013   2.319   0.925 -1.1899 -0.5363 -0.7481
 1026SOL    HW214541   4.612   2.366   0.989 -0.9448 -0.8678  1.1981
 1027SOL     OW14542   2.847   1.122   8.536 -0.3736 -0.4065 -0.3992
 1027SOL    HW114543   2.941   1.111   8.521 -0.1046  1.4072 -0.0273
 1027SOL    HW214544   2.817   1.121   8.445  0.4981  0.1705 -0.6889
 1028SOL     OW14545   1.847   4.294   6.600  0.4823 -0.3757 -0.4151
 1028SOL    HW114546   1.769   4.344   6.574  0.8771  0.5884  0.2669
 1028SOL    HW214547   1.836   4.210   6.556 -1.9939  0.0824 -0.6970
 1029SOL     OW14548   4.643   3.042   2.649 -0.2022 -0.4349  0.1341
 1029SOL    HW114549   4.553   3.040   2.683 -0.6519 -2.0147 -1.1486
 1029SOL    HW214550   4.640   3.109   2.581  0.6689 -0.6031 -0.0681
 1030SOL     OW14551   3.585   3.550   7.439  0.1205 -0.1385  0.2659
 1030SOL    HW114552   3.570   3.462   7.404  2.0000 -0.3875  0.0706
 1030SOL    HW214553   3.625   3.594   7.364 -0.3847  0.0491  0.1080
 1031SOL     OW14554   2.548   3.327  11.923 -0.1127 -0.6016  0.4726
 1031SOL    HW114555   2.505   3.248  11.891 -0.7924  0.0470 -0.2219
 1031SOL    HW214556   2.568   3.289  12.008  2.4791 -0.4376 -0.0778
 1032SOL     OW14557   2.487   4.063   8.215 -0.0803 -0.2189  0.5262
 1032SOL    HW114558   2.548   4.024   8.152  1.2703 -0.0461  1.7175
 1032SOL    HW214559   2.443   3.987   8.251  0.0143 -0.1999  0.6815
 1033SOL     OW14560   2.444   1.842   1.510 -0.3529  0.0809 -0.1084
 1033SOL    HW114561   2.382   1.915   1.509 -1.8261 -1.2019 -2.0834
 1033SOL    HW214562   2.440   1.804   1.598  1.7968 -3.4740 -1.5416
 1034SOL     OW14563   1.169   3.769  12.120 -0.0837  0.0705  0.0113
 1034SOL    HW114564   1.141   3.857  12.099  1.7217  0.9849  1.3943
 1034SOL    HW214565   1.240   3.777  12.184  2.1711 -0.6272 -2.3891
 1035SOL     OW14566   0.257   2.284   2.150 -0.0940 -0.8606  0.3151
 1035SOL    HW114567   0.286   2.194   2.134 -0.3650 -1.0103  0.6709
 1035SOL    HW214568   0.218   2.280   2.238 -0.5576 -1.0654  0.1003
 1036SOL     OW14569   1.653   3.472   8.833  0.4770  0.2132 -0.2727
 1036SOL    HW114570   1.677   3.397   8.888 -0.0601 -0.5770 -1.1068
 1036SOL    HW214571   1.585   3.429   8.780 -1.7047 -0.1779  2.8419
 1037SOL     OW14572   3.123   0.053  15.283  0.0213  0.2003  0.1697
 1037SOL    HW114573   3.036   0.087  15.263 -0.6899 -1.9580 -0.3942
 1037SOL    HW214574   3.177   0.079  15.209  1.6541 -0.3242  1.1722
 1038SOL     OW14575   3.047   0.860   3.776 -0.6098  0.7291 -0.2929
 1038SOL    HW114576   2.991   0.797   3.731  0.7424  1.2681 -2.7158
 1038SOL    HW214577   3.115   0.798   3.803 -1.7338 -0.7898 -0.9741
 1039SOL     OW14578   0.767   4.176   3.654  0.4448 -0.1646  0.0382
 1039SOL    HW114579   0.710   4.239   3.698  0.3883  0.6285 -1.1542
 1039SOL    HW214580   0.848   4.226   3.645 -0.3252  1.1689  0.4222
 1040SOL     OW14581   2.436   3.612   4.558  0.0429  0.0159 -0.2393
 1040SOL    HW114582   2.497   3.682   4.534 -0.5208  0.3520 -0.6882
 1040SOL    HW214583   2.486   3.536   4.526  1.4934  0.3460  1.2578
 1041SOL     OW14584   2.787   2.735   3.432  0.2801 -0.1320  0.2791
 1041SOL    HW114585   2.720   2.667   3.434 -1.0299  1.1377 -0.2075
 1041SOL    HW214586   2.796   2.752   3.526  2.0096  1.1329 -0.1139
 1042SOL     OW14587   3.249   1.574   9.857 -0.0087  0.2491  0.1627
 1042SOL    HW114588   3.222   1.665   9.872  3.0203  1.4670 -1.7893
 1042SOL    HW214589   3.192   1.519   9.912 -1.5477 -1.2602 -2.9719
 1043SOL     OW14590   3.050   0.754   8.631  0.3397 -0.0706  0.1338
 1043SOL    HW114591   2.988   0.699   8.583 -1.0277  0.9273  0.7501
 1043SOL    HW214592   3.001   0.836   8.633  1.4042  0.5953 -1.0933
 1044SOL     OW14593   1.536   1.507  16.691  0.6028 -0.3280  0.2837
 1044SOL    HW114594   1.607   1.493  16.627 -2.0883 -2.6108 -2.2200
 1044SOL    HW214595   1.526   1.602  16.689  0.4034 -0.3236  1.6833
 1045SOL     OW14596   3.679   3.249  17.431 -1.2634  0.4626  0.7660
 1045SOL    HW114597   3.629   3.266  17.351 -0.7781 -1.2779  0.0899
 1045SOL    HW214598   3.706   3.339  17.450  3.5808 -0.7877 -0.1982
 1046SOL     OW14599   4.522   3.387   6.015  0.4650  0.6489  0.3554
 1046SOL    HW114600   4.509   3.470   6.062  0.8093  1.8050 -1.5686
 1046SOL    HW214601   4.453   3.394   5.950  1.0654  0.8983 -0.2570
 1047SOL     OW14602   0.390   1.552  12.441  0.0243 -0.5472  0.0854
 1047SOL    HW114603   0.449   1.506  12.381 -0.7147 -1.7504  0.3008
 1047SOL    HW214604   0.307   1.520  12.406  0.2512 -0.0701 -0.9119
 1048SOL     OW14605   2.640   1.785   7.449 -0.1714 -0.1219 -0.3050
 1048SOL    HW114606   2.587   1.706   7.462  1.6774 -1.0500  1.6052
 1048SOL    HW214607   2.585   1.857   7.480  1.5257  1.0784 -0.0801
 1049SOL     OW14608   3.862   0.715   7.165 -0.5679 -0.5501 -0.2866
 1049SOL    HW114609   3.820   0.679   7.243 -0.5187 -0.5864 -0.2770
 1049SOL    HW214610   3.783   0.722   7.111  0.0914  0.2120 -1.1650
 1050SOL     OW14611   4.076   2.005   2.683  0.0387  0.1941 -0.3074
 1050SOL    HW114612   4.166   1.974   2.698 -0.3596 -0.2091  1.2458
 1050SOL    HW214613   4.071   2.081   2.740  0.4600  1.2168 -1.6447
 1051SOL     OW14614   0.704   0.050   4.778  0.2119 -0.4381  0.3492
 1051SOL    HW114615   0.774   0.032   4.839  0.3113 -1.1963  0.0103
 1051SOL    HW214616   0.748   0.099   4.709 -3.3143  0.0681 -1.5903
 1052SOL     OW14617   3.922   3.792   6.815 -0.0166  0.0748  0.4540
 1052SOL    HW114618   3.887   3.761   6.731 -0.1407 -0.6471  0.7676
 1052SOL    HW214619   3.968   3.718   6.856 -1.8503 -1.3442 -0.0387
 1053SOL     OW14620   0.237   3.326   2.004  0.1971 -0.4802  0.2306
 1053SOL    HW114621   0.203   3.288   1.923 -2.0001  0.4180  0.7294
 1053SOL    HW214622   0.314   3.271   2.017 -0.3927 -1.4973 -0.6167
 1054SOL     OW14623   3.746   2.243   6.194 -0.1281 -0.0940  0.6578
 1054SOL    HW114624   3.710   2.176   6.251 -2.6284  0.6161 -0.0790
 1054SOL    HW214625   3.824   2.197   6.165  0.5635  0.7323  1.1621
 1055SOL     OW14626   0.834   3.315   5.303 -0.1236  0.6005  0.5330
 1055SOL    HW114627   0.841   3.407   5.327  1.0560 -0.1579  3.0922
 1055SOL    HW214628   0.911   3.276   5.343 -2.1927 -0.9428  3.0567
 1056SOL     OW14629   3.527   2.353   6.653  0.5246 -0.3881  0.2916
 1056SOL    HW114630   3.520   2.380   6.745 -0.4727 -0.2864  0.1858
 1056SOL    HW214631   3.504   2.439   6.618  0.6126 -0.0598  1.0401
 1057SOL     OW14632   0.342   2.760   3.510 -0.4577 -0.1362  0.2102
 1057SOL    HW114633   0.308   2.764   3.421 -0.5560 -0.0442  0.2512
 1057SOL    HW214634   0.288   2.822   3.559  0.1323  0.7926 -0.3134
 1058SOL     OW14635   0.832   4.041  13.681  0.5283 -0.2723  0.5608
 1058SOL    HW114636   0.892   4.094  13.629  0.8749  0.5882  1.8365
 1058SOL    HW214637   0.807   4.105  13.748 -0.9789 -1.7893  1.4709
 1059SOL     OW14638   3.272   1.313   9.220 -0.5547  0.0714 -0.2211
 1059SOL    HW114639   3.207   1.314   9.290 -0.7620 -3.1757 -0.3733
 1059SOL    HW214640   3.288   1.405   9.200 -1.9883  0.0827 -1.4058
 1060SOL     OW14641   2.720   1.073   3.077  0.0654 -0.1675 -0.2959
 1060SOL    HW114642   2.642   1.079   3.022  0.4477 -1.3762 -0.9774
 1060SOL    HW214643   2.690   1.023   3.153  1.2554  1.4279  1.2190
 1061SOL     OW14644   3.325   0.121  12.623  0.1356  0.0688 -0.5886
 1061SOL    HW114645   3.379   0.188  12.582  0.7712 -0.0471  0.0472
 1061SOL    HW214646   3.393   0.084  12.680  0.1000  1.3840  0.2927
 1062SOL     OW14647   3.214   3.254   2.726 -0.0495 -0.0024 -0.1126
 1062SOL    HW114648   3.161   3.180   2.697 -2.2630  1.3471  0.4136
 1062SOL    HW214649   3.267   3.209   2.791 -0.4284  1.3943  1.1777
 1063SOL     OW14650   0.700   4.037  12.396  0.5228  0.4535 -0.2242
 1063SOL    HW114651   0.689   4.005  12.307 -0.3756 -0.5509  0.2489
 1063SOL    HW214652   0.783   3.992  12.411  2.2849  2.4725 -3.7804
 1064SOL     OW14653   0.654   3.525   7.334 -0.5383 -0.0169  0.7109
 1064SOL    HW114654   0.707   3.513   7.413  1.0133 -2.3552 -0.6745
 1064SOL    HW214655   0.565   3.521   7.367 -0.8089  0.2815  0.0083
 1065SOL     OW14656   0.155   2.371   8.290 -0.8540  0.2415 -0.5287
 1065SOL    HW114657   0.156   2.382   8.385  0.4374 -1.7065 -0.3063
 1065SOL    HW214658   0.211   2.295   8.272 -2.1193 -0.8173 -0.0024
 1066SOL     OW14659   1.729   2.877   5.021  0.1014 -0.4756 -0.2309
 1066SOL    HW114660   1.694   2.893   4.934 -0.6890 -4.2998 -0.6338
 1066SOL    HW214661   1.656   2.905   5.076 -0.0541  3.6858 -2.6067
 1067SOL     OW14662   3.252   2.360   6.846  0.0418  0.2673 -0.0626
 1067SOL    HW114663   3.242   2.413   6.767  2.5877 -0.7870 -1.1069
 1067SOL    HW214664   3.286   2.277   6.812 -2.0031 -0.3646 -0.5332
 1068SOL     OW14665   0.925   3.089   1.275  0.0927  0.1294 -0.3473
 1068SOL    HW114666   1.014   3.064   1.252 -0.3721 -1.6376 -0.2030
 1068SOL    HW214667   0.882   3.004   1.269 -1.7030  0.8900  1.5676
 1069SOL     OW14668   3.665   3.509   5.806 -0.0546 -0.6750  0.2283
 1069SOL    HW114669   3.681   3.575   5.739 -1.0281 -0.7819 -0.1180
 1069SOL    HW214670   3.607   3.456   5.751  0.5602 -1.9793  0.8491
 1070SOL     OW14671   0.645   3.042   9.829  0.6672  0.3137  0.1868
 1070SOL    HW114672   0.655   2.989   9.908  0.3189 -0.2583 -0.1521
 1070SOL    HW214673   0.727   3.092   9.834  1.5021 -0.7965 -2.8505
 1071SOL     OW14674   4.200   3.005   6.627 -0.5179 -0.5712 -0.3530
 1071SOL    HW114675   4.160   3.092   6.629  0.7803 -0.0041  1.3770
 1071SOL    HW214676   4.271   3.007   6.563 -0.2459  2.3466  0.0601
 1072SOL     OW14677   1.733   3.340   1.958 -0.0214  0.8393  0.0217
 1072SOL    HW114678   1.649   3.304   1.987  0.1767 -0.1145 -0.5987
 1072SOL    HW214679   1.785   3.269   1.922 -2.4610  0.0262 -1.8645
 1073SOL     OW14680   3.623   0.764   5.902  0.4669  0.3068 -0.3023
 1073SOL    HW114681   3.591   0.684   5.860  0.7024 -0.0610  0.2200
 1073SOL    HW214682   3.650   0.811   5.823  1.0859 -0.4494 -0.5411
 1074SOL     OW14683   2.416   0.767  11.192 -0.2201 -0.0807 -0.3354
 1074SOL    HW114684   2.435   0.768  11.286  3.0012 -1.6279 -0.9702
 1074SOL    HW214685   2.442   0.676  11.174  1.0973  0.1603  0.3455
 1075SOL     OW14686   1.886   3.266  16.294 -0.2290  0.0260 -0.3317
 1075SOL    HW114687   1.867   3.329  16.224 -1.7580  1.3710  1.2919
 1075SOL    HW214688   1.797   3.233  16.308 -0.9785  1.6447 -1.2347
 1076SOL     OW14689   1.314   0.635  16.948 -0.2011 -0.4444  0.2671
 1076SOL    HW114690   1.351   0.663  16.865  0.3611  0.7126  0.8977
 1076SOL    HW214691   1.220   0.644  16.933 -0.3867 -0.9560  1.1216
 1077SOL     OW14692   3.714   2.233   2.095 -0.0736 -0.1061  0.3438
 1077SOL    HW114693   3.718   2.329   2.085  1.9318 -0.3535 -1.2216
 1077SOL    HW214694   3.709   2.194   2.008  1.3127 -1.2004  0.7557
 1078SOL     OW14695   2.453   1.878  12.329 -0.5897 -0.4609 -0.1481
 1078SOL    HW114696   2.362   1.853  12.343 -0.8948  0.4630 -0.5077
 1078SOL    HW214697   2.494   1.807  12.379 -0.1601 -0.2394 -0.1862
 1079SOL     OW14698   4.116   2.581   6.450  0.5262  0.4006  0.2375
 1079SOL    HW114699   4.205   2.581   6.415  0.7091 -1.6857  0.6956
 1079SOL    HW214700   4.065   2.616   6.376  1.6417  1.0898 -0.2028
 1080SOL     OW14701   2.024   0.754   2.854  0.4796  0.3193  0.3511
 1080SOL    HW114702   1.943   0.723   2.893 -0.0341  0.8580 -0.3097
 1080SOL    HW214703   2.086   0.728   2.922 -0.1033  0.9891  1.1355
 1081SOL     OW14704   0.899   3.889  13.919  0.4252 -0.4480  0.2568
 1081SOL    HW114705   0.805   3.869  13.920  0.1610  0.7709 -0.2062
 1081SOL    HW214706   0.911   3.928  13.832 -0.6678  1.0759  0.7920
 1082SOL     OW14707   1.615   4.663   0.818 -0.0679 -0.0789 -0.4391
 1082SOL    HW114708   1.680   4.626   0.878 -0.9196 -0.9164 -0.0252
 1082SOL    HW214709   1.533   4.640   0.861 -0.4567  2.4203  0.1271
 1083SOL     OW14710   1.375   3.641   2.325 -0.2207 -0.4308  0.1577
 1083SOL    HW114711   1.311   3.580   2.363  1.7660 -2.6861 -0.1656
 1083SOL    HW214712   1.349   3.725   2.363 -1.1495 -0.6713  0.0706
 1084SOL     OW14713   1.395   1.646  11.277 -0.3469 -0.5199 -0.2336
 1084SOL    HW114714   1.433   1.564  11.247  1.8674 -0.1110  1.4904
 1084SOL    HW214715   1.325   1.647  11.210 -0.9360  2.3283  0.4148
 1085SOL     OW14716   2.517   4.105  16.357 -0.0713 -0.6993  0.7705
 1085SOL    HW114717   2.606   4.139  16.363  0.7316 -2.3779 -1.5545
 1085SOL    HW214718   2.504   4.079  16.266 -1.8776 -0.3687  0.9277
 1086SOL     OW14719   1.077   3.493   7.372 -0.0768 -0.4858 -0.1844
 1086SOL    HW114720   1.170   3.504   7.353 -0.1125  1.6691  0.9616
 1086SOL    HW214721   1.063   3.403   7.341  1.2383 -0.5048 -0.7305
 1087SOL     OW14722   2.027   2.613   5.743  0.0759  0.3386 -0.0944
 1087SOL    HW114723   2.028   2.522   5.772 -0.8839  0.6013  0.7997
 1087SOL    HW214724   2.104   2.613   5.687 -1.1331  0.2869 -1.7654
 1088SOL     OW14725   3.026   2.489   5.446 -0.1891 -0.3644  0.1956
 1088SOL    HW114726   2.970   2.413   5.431  1.0122 -1.4901  1.3292
 1088SOL    HW214727   3.108   2.440   5.434 -1.1082 -1.2333 -2.4743
 1089SOL     OW14728   3.455   4.090   0.556  0.1757  0.3540 -0.0934
 1089SOL    HW114729   3.528   4.029   0.565 -1.1009 -1.1322  0.1643
 1089SOL    HW214730   3.401   4.059   0.629 -1.1964  0.8843 -0.8848
 1090SOL     OW14731   0.637   2.540   8.198 -0.4296 -0.0895  0.3128
 1090SOL    HW114732   0.576   2.484   8.151  0.6492 -0.8680 -0.1734
 1090SOL    HW214733   0.668   2.483   8.268  0.3944 -0.1549 -0.0973
 1091SOL     OW14734   1.303   1.974  10.320  0.0930  0.0144  0.4700
 1091SOL    HW114735   1.328   1.892  10.278  0.7004 -0.8498  2.5200
 1091SOL    HW214736   1.350   1.971  10.404  1.6978  1.5986 -0.3728
 1092SOL     OW14737   4.586   0.286  13.194 -0.3059 -1.1081 -0.3329
 1092SOL    HW114738   4.624   0.352  13.137  1.3034 -1.1048  0.7268
 1092SOL    HW214739   4.642   0.297  13.271 -1.5409 -2.0380  0.7021
 1093SOL     OW14740   0.598   2.884  15.146  0.2587  0.1985 -0.1533
 1093SOL    HW114741   0.656   2.957  15.123  0.5916  0.4127  1.3465
 1093SOL    HW214742   0.644   2.805  15.119  1.4852 -0.1628  3.0507
 1094SOL     OW14743   4.463   3.173   3.939 -0.4006  0.7416  0.2436
 1094SOL    HW114744   4.419   3.246   3.982 -1.0554  0.7977 -0.5167
 1094SOL    HW214745   4.554   3.198   3.922  0.0470 -0.9383  0.1349
 1095SOL     OW14746   1.958   2.701   3.261  0.5214  0.0997  0.3654
 1095SOL    HW114747   1.943   2.708   3.356  3.0441 -0.5165  0.8060
 1095SOL    HW214748   1.938   2.789   3.231 -0.0927  1.2069  3.9514
 1096SOL     OW14749   0.287   0.522  15.530 -0.0029 -0.1243 -0.6726
 1096SOL    HW114750   0.376   0.518  15.565 -0.3047  0.3555  0.1551
 1096SOL    HW214751   0.244   0.603  15.557 -0.7270 -1.0244  0.8936
 1097SOL     OW14752   3.955   1.661   0.017 -0.3255 -0.1186 -0.0206
 1097SOL    HW114753   4.010   1.589   0.049 -1.4470 -0.7017  0.5943
 1097SOL    HW214754   3.885   1.606  17.685 -0.9710 -0.6258  2.1386
 1098SOL     OW14755   1.505   3.072   8.118 -0.6999  0.6839 -0.6768
 1098SOL    HW114756   1.510   3.108   8.030  0.2591  0.9366 -0.5269
 1098SOL    HW214757   1.597   3.055   8.140 -1.2962 -0.6738  0.7484
 1099SOL     OW14758   0.106   2.733   0.468 -0.5823 -0.2454  0.8082
 1099SOL    HW114759   0.144   2.681   0.397 -0.6236  1.4188 -0.4182
 1099SOL    HW214760   0.057   2.796   0.415 -0.4682  0.3677  1.4286
 1100SOL     OW14761   2.861   1.807   7.616  0.0523 -0.1451  0.2545
 1100SOL    HW114762   2.840   1.713   7.614 -1.1804  0.1492 -0.2404
 1100SOL    HW214763   2.793   1.847   7.563 -1.3076  1.1611  3.0324
 1101SOL     OW14764   1.361   0.966   6.534 -0.0974  0.6464  0.1502
 1101SOL    HW114765   1.291   1.025   6.564  1.2913  1.7533  1.2298
 1101SOL    HW214766   1.435   1.007   6.579  0.5448  0.6333 -0.9170
 1102SOL     OW14767   3.052   3.112   8.433  0.0761  0.0778  0.0755
 1102SOL    HW114768   3.077   3.019   8.432  1.5480  0.4299  2.3938
 1102SOL    HW214769   3.002   3.101   8.514  0.1909  0.8118  0.2479
 1103SOL     OW14770   1.670   0.164   1.417  0.3184  0.2890 -0.5842
 1103SOL    HW114771   1.576   0.160   1.398  0.3765 -1.4132 -0.4868
 1103SOL    HW214772   1.694   0.072   1.416 -0.7009  0.0144  0.4294
 1104SOL     OW14773   0.929   1.512   5.183 -0.1593 -0.1962  0.2264
 1104SOL    HW114774   0.966   1.468   5.106 -2.1762 -0.3589 -0.6616
 1104SOL    HW214775   1.000   1.567   5.215  0.5011 -0.4024 -0.8838
 1105SOL     OW14776   3.339   4.127  15.496 -0.2273 -0.2430  0.1869
 1105SOL    HW114777   3.340   4.201  15.557  0.8850  0.3156 -0.5186
 1105SOL    HW214778   3.259   4.148  15.447  0.0642 -2.8539 -1.3949
 1106SOL     OW14779   3.194   0.824  16.028 -0.2363 -0.0826  0.2900
 1106SOL    HW114780   3.253   0.835  15.954 -0.1015 -1.9081  0.1421
 1106SOL    HW214781   3.241   0.878  16.092  2.3976  0.3504 -2.0002
 1107SOL     OW14782   2.678   4.382   6.042  0.5828  0.0306 -0.1994
 1107SOL    HW114783   2.621   4.437   5.989  0.1404  0.2647  0.5161
 1107SOL    HW214784   2.754   4.373   5.984 -0.8222  1.4272 -2.2492
 1108SOL     OW14785   3.375   0.587   8.244  0.2437 -0.3090  0.1162
 1108SOL    HW114786   3.336   0.509   8.284 -0.0545  0.1568  0.7507
 1108SOL    HW214787   3.303   0.625   8.194 -0.0755  0.8454  1.4296
 1109SOL     OW14788   3.326   4.508   6.404 -0.3250  0.2290  0.2893
 1109SOL    HW114789   3.421   4.506   6.413 -0.3078 -0.5559 -0.0814
 1109SOL    HW214790   3.299   4.501   6.495 -0.7656  0.6385  0.1944
 1110SOL     OW14791   3.082   3.368   8.691 -0.1504 -0.5410 -0.1334
 1110SOL    HW114792   3.038   3.309   8.630 -0.0484  0.4943 -1.2246
 1110SOL    HW214793   3.174   3.342   8.682 -0.3449 -1.8319  1.7905
 1111SOL     OW14794   4.013   0.834  10.157  0.1014 -0.1051 -0.4527
 1111SOL    HW114795   3.981   0.924  10.156  0.7085  0.0824 -2.0726
 1111SOL    HW214796   3.977   0.807  10.242  0.2375 -0.0446 -0.3758
 1112SOL     OW14797   2.090   3.018   1.937 -0.1442  0.0139 -0.0307
 1112SOL    HW114798   2.058   2.928   1.927 -1.1716  0.7993 -3.8367
 1112SOL    HW214799   2.028   3.069   1.885 -1.5769  0.5165  2.1925
 1113SOL     OW14800   1.899   3.979   7.434  0.2009 -0.0584 -0.1421
 1113SOL    HW114801   1.821   3.934   7.465 -0.1474  0.6521  0.0053
 1113SOL    HW214802   1.967   3.913   7.430 -0.9281 -1.2545  0.6011
 1114SOL     OW14803   0.695   2.031   4.154 -0.3452  0.4478 -0.7058
 1114SOL    HW114804   0.711   2.068   4.241  2.3581 -3.4841  0.4610
 1114SOL    HW214805   0.780   2.002   4.123 -0.1830  0.1221  0.0340
 1115SOL     OW14806   3.699   4.374   3.993  0.4139  0.1041  0.2580
 1115SOL    HW114807   3.764   4.349   3.928  1.2366  1.3179  0.6318
 1115SOL    HW214808   3.749   4.436   4.046 -1.6347  1.6884  0.3622
 1116SOL     OW14809   0.383   2.710   7.068 -0.6293  0.5051 -0.1061
 1116SOL    HW114810   0.299   2.670   7.089 -1.3524  0.9430 -2.1728
 1116SOL    HW214811   0.403   2.671   6.982  0.4792  0.9276 -0.0471
 1117SOL     OW14812   1.624   0.102  14.692 -0.5720 -0.4272 -0.3978
 1117SOL    HW114813   1.691   0.134  14.631 -0.0200 -2.8655 -1.0719
 1117SOL    HW214814   1.589   0.025  14.646 -1.1668 -0.1065 -0.4825
 1118SOL     OW14815   1.394   4.185   8.228 -0.1826  0.2509  0.2162
 1118SOL    HW114816   1.353   4.247   8.167 -0.4522 -0.0400  0.1024
 1118SOL    HW214817   1.366   4.106   8.181 -0.7760  1.3276 -1.2648
 1119SOL     OW14818   0.372   0.149   8.532 -0.2892  0.4991  0.4421
 1119SOL    HW114819   0.337   0.221   8.585  2.1516  0.8071  1.6151
 1119SOL    HW214820   0.317   0.151   8.454 -1.2193 -0.9966  1.0702
 1120SOL     OW14821   4.712   2.751   8.891  0.3545 -0.3016  0.3273
 1120SOL    HW114822   0.076   2.788   8.890 -0.6905  2.2175 -0.1551
 1120SOL    HW214823   4.713   2.685   8.961 -0.7919  0.2171  0.8369
 1121SOL     OW14824   2.347   2.204   9.143  0.3832 -0.0322 -0.2248
 1121SOL    HW114825   2.315   2.129   9.192  1.7309 -0.1961  0.3876
 1121SOL    HW214826   2.327   2.275   9.204  0.3661  1.2790 -1.7404
 1122SOL     OW14827   4.332   3.084  10.794  0.3982  0.2502  0.1296
 1122SOL    HW114828   4.284   3.031  10.858 -0.9949 -0.7323 -1.7448
 1122SOL    HW214829   4.319   3.165  10.845 -0.0908 -1.4471  2.7045
 1123SOL     OW14830   1.937   2.126   4.538  0.3883  0.7016  0.4540
 1123SOL    HW114831   1.939   2.116   4.443 -1.0167  0.3725  0.4613
 1123SOL    HW214832   1.851   2.166   4.551  0.2181  0.6547 -0.5350
 1124SOL     OW14833   1.784   4.592   7.201  0.2652 -0.0034  0.0134
 1124SOL    HW114834   1.732   4.609   7.123 -0.4842  0.2351  0.5705
 1124SOL    HW214835   1.709   4.563   7.254 -0.2826  2.6065  0.6745
 1125SOL     OW14836   3.640   1.483   8.055 -0.0151  0.4793  0.2165
 1125SOL    HW114837   3.716   1.527   8.018 -0.9227  1.2066 -0.7710
 1125SOL    HW214838   3.583   1.559   8.062 -1.4927 -0.6528  0.5565
 1126SOL     OW14839   0.764   4.407   1.054  0.1601 -0.3704  0.2211
 1126SOL    HW114840   0.765   4.343   1.126 -2.6750  0.4215  0.9738
 1126SOL    HW214841   0.844   4.457   1.070 -0.9950  1.5330 -0.0375
 1127SOL     OW14842   4.650   1.835   8.093 -0.4446  0.3114  0.2461
 1127SOL    HW114843   4.615   1.781   8.023 -0.4356 -0.8686  1.1459
 1127SOL    HW214844   4.640   1.925   8.061 -0.1098  0.0783 -0.5218
 1128SOL     OW14845   0.664   4.653   9.315 -0.2902 -0.3850  0.2015
 1128SOL    HW114846   0.741   4.601   9.289  0.4900  0.6037  0.5623
 1128SOL    HW214847   0.598   4.590   9.286 -1.9374  1.6273 -0.4152
 1129SOL     OW14848   0.318   3.089  16.513 -0.1753  0.1068 -0.0218
 1129SOL    HW114849   0.378   3.162  16.498 -0.2870  0.8258  2.9351
 1129SOL    HW214850   0.285   3.112  16.600  0.0516  0.8280 -0.1311
 1130SOL     OW14851   2.415   1.873   6.843 -0.3578 -0.2389 -0.3051
 1130SOL    HW114852   2.463   1.805   6.795 -0.0909 -0.3432  0.1040
 1130SOL    HW214853   2.335   1.821   6.851  0.1860 -0.9694  0.4123
 1131SOL     OW14854   2.417   0.707   2.275  0.1141 -0.0500  0.3284
 1131SOL    HW114855   2.412   0.614   2.294  0.4178 -0.3649 -1.1150
 1131SOL    HW214856   2.468   0.741   2.348  1.7444  0.1291 -0.9024
 1132SOL     OW14857   1.860   0.926   6.070  0.0826 -0.4528  0.4613
 1132SOL    HW114858   1.927   0.982   6.110 -0.4298  1.2913 -1.1587
 1132SOL    HW214859   1.898   0.839   6.083 -1.0072 -0.8974  0.7041
 1133SOL     OW14860   0.281   2.147   9.430  0.2954  0.1265  0.2825
 1133SOL    HW114861   0.251   2.237   9.415  0.8594  0.2909  0.1472
 1133SOL    HW214862   0.371   2.178   9.434  0.4743 -0.3702  0.0197
 1134SOL     OW14863   2.702   3.317   7.541 -0.2258  0.0700  0.1083
 1134SOL    HW114864   2.754   3.318   7.461 -2.2043 -0.6198 -1.1767
 1134SOL    HW214865   2.724   3.230   7.575  0.0016 -0.1996 -0.7387
 1135SOL     OW14866   0.779   1.746   5.798 -0.1584 -0.5370 -0.0718
 1135SOL    HW114867   0.683   1.751   5.792 -0.1921  1.6736  2.0905
 1135SOL    HW214868   0.798   1.659   5.831 -0.3162 -0.9348 -1.0388
 1136SOL     OW14869   3.249   3.337   7.152  0.4018 -0.3291  0.1671
 1136SOL    HW114870   3.262   3.248   7.119 -2.0719 -0.8534  0.6133
 1136SOL    HW214871   3.154   3.346   7.158  0.3067 -1.3549  0.2365
 1137SOL     OW14872   3.691   1.949   3.042  0.2823  0.3997  0.2767
 1137SOL    HW114873   3.699   1.917   2.952 -1.2970  0.5232  0.1020
 1137SOL    HW214874   3.603   1.985   3.037  0.1418 -0.2734 -2.2671
 1138SOL     OW14875   1.364   0.634   1.631 -0.2789 -0.2741  0.4651
 1138SOL    HW114876   1.451   0.651   1.594  0.4369 -1.0809  1.7797
 1138SOL    HW214877   1.370   0.539   1.643  0.8657  0.0109  2.1832
 1139SOL     OW14878   2.008   3.692   8.681  0.3546  0.1039 -0.2155
 1139SOL    HW114879   1.922   3.665   8.647 -0.5279  0.7300  1.5101
 1139SOL    HW214880   1.998   3.682   8.776 -0.2942 -1.5152 -0.4492
 1140SOL     OW14881   2.161   2.983  16.219 -0.0695  0.4176 -0.2527
 1140SOL    HW114882   2.102   3.000  16.146 -1.1253  3.1365  1.2198
 1140SOL    HW214883   2.245   2.985  16.174 -0.9898  1.3169 -1.9494
 1141SOL     OW14884   2.179   0.689   2.646 -0.0471  0.2653  0.3078
 1141SOL    HW114885   2.108   0.708   2.707 -0.1744 -1.9722  0.8389
 1141SOL    HW214886   2.138   0.627   2.586 -1.2137 -0.7866  2.2222
 1142SOL     OW14887   2.743   3.423  14.785 -0.0920  0.2639  0.0922
 1142SOL    HW114888   2.763   3.332  14.806  0.4417  0.7113  1.5168
 1142SOL    HW214889   2.820   3.466  14.820 -0.0764  1.4079 -1.3679
 1143SOL     OW14890   0.284   2.688   2.521 -0.7411  0.2398 -0.0975
 1143SOL    HW114891   0.225   2.755   2.554 -0.1071  0.0595  1.4280
 1143SOL    HW214892   0.229   2.628   2.472  1.5164 -1.0488 -1.0441
 1144SOL     OW14893   1.025   1.546   4.258  0.0116  0.0095 -0.3539
 1144SOL    HW114894   1.079   1.607   4.208  0.8560 -1.1382 -0.8173
 1144SOL    HW214895   0.978   1.508   4.183 -2.3232  2.0565  0.0444
 1145SOL     OW14896   4.491   2.492  11.885  0.1984  0.3094 -0.0097
 1145SOL    HW114897   4.453   2.513  11.970  2.2325 -0.8298  1.1891
 1145SOL    HW214898   4.581   2.503  11.918  0.3610  0.1661 -0.4052
 1146SOL     OW14899   2.241   2.296   2.961 -0.7738  0.0767 -0.4750
 1146SOL    HW114900   2.286   2.215   2.985 -0.3686 -0.3673 -2.7179
 1146SOL    HW214901   2.249   2.286   2.866  0.5824  2.3927 -0.5988
 1147SOL     OW14902   1.173   1.849   6.708  0.2122  0.1557 -0.3230
 1147SOL    HW114903   1.177   1.753   6.710  0.7754  0.1284 -2.6664
 1147SOL    HW214904   1.224   1.888   6.778 -0.8698  1.7521 -0.4221
 1148SOL     OW14905   4.072   1.872   6.389 -0.0974  0.2429 -0.6597
 1148SOL    HW114906   4.032   1.880   6.303 -0.7299 -0.4686 -0.4323
 1148SOL    HW214907   4.077   1.965   6.412 -0.5606  0.4761 -1.5017
 1149SOL     OW14908   1.383   3.205  17.106  0.0505 -0.3745  0.0909
 1149SOL    HW114909   1.356   3.133  17.048 -1.2318  0.1119  0.0979
 1149SOL    HW214910   1.473   3.216  17.076  0.4114  1.2919  1.8270
 1150SOL     OW14911   3.267   2.080   0.255  0.6984  0.1703  0.0560
 1150SOL    HW114912   3.354   2.097   0.218  0.6193 -0.2181 -0.3091
 1150SOL    HW214913   3.235   2.170   0.261  1.5807  0.3443  2.2713
 1151SOL     OW14914   2.784   2.630   2.337  0.2844 -0.3066 -0.1134
 1151SOL    HW114915   2.766   2.686   2.261  1.8142  0.7970  0.3561
 1151SOL    HW214916   2.787   2.699   2.403 -0.3373 -1.3172  0.9563
 1152SOL     OW14917   0.905   3.689   1.903 -0.1585 -0.5521 -0.2538
 1152SOL    HW114918   0.954   3.767   1.879 -0.7728 -0.3684 -0.8847
 1152SOL    HW214919   0.972   3.628   1.936 -1.1415 -1.8162 -0.5751
 1153SOL     OW14920   4.382   1.043  16.123 -0.1279  0.1995  0.2416
 1153SOL    HW114921   4.330   1.031  16.203  2.0836  0.1268  1.6963
 1153SOL    HW214922   4.382   1.137  16.137 -2.2852  0.5260 -2.0040
 1154SOL     OW14923   1.698   2.379  16.158  0.2831  0.5002  0.2119
 1154SOL    HW114924   1.611   2.346  16.180  0.4603  0.3743  0.7375
 1154SOL    HW214925   1.721   2.305  16.102 -2.2357  0.8310 -1.2604
 1155SOL     OW14926   2.412   0.169  16.632  0.2289 -0.3260  0.2230
 1155SOL    HW114927   2.443   0.166  16.723 -1.3780  0.2963  0.7874
 1155SOL    HW214928   2.343   0.109  16.658 -1.7455  0.4021 -3.3228
 1156SOL     OW14929   3.268   0.582   9.020 -0.3175  0.3558  0.3053
 1156SOL    HW114930   3.353   0.614   9.048 -0.6687  0.4867  1.2061
 1156SOL    HW214931   3.214   0.619   9.089 -0.5353  0.1545  0.2432
 1157SOL     OW14932   3.543   0.039   3.005  0.9132  0.3133 -0.2677
 1157SOL    HW114933   3.604   0.101   3.044  1.3264  0.4675 -1.1720
 1157SOL    HW214934   3.556   0.063   2.914  0.3717  3.4047  0.4882
 1158SOL     OW14935   0.622   3.026   8.916 -0.2337 -0.1851  0.1607
 1158SOL    HW114936   0.701   3.080   8.919 -1.6581  1.9546 -0.9689
 1158SOL    HW214937   0.580   3.059   8.837  0.9525 -0.9792 -0.8153
 1159SOL     OW14938   0.137   3.355   7.671  0.1566  0.2438 -0.1854
 1159SOL    HW114939   0.148   3.426   7.608 -2.1458 -1.4410 -2.5063
 1159SOL    HW214940   0.194   3.293   7.627  1.3079  1.5169 -0.4932
 1160SOL     OW14941   0.615   3.809  13.647  0.8623  0.0317  0.1636
 1160SOL    HW114942   0.695   3.851  13.677  2.1750 -2.1316 -0.3240
 1160SOL    HW214943   0.632   3.717  13.625 -0.7683  0.0957 -1.3553
 1161SOL     OW14944   0.219   2.125   4.489  0.1661  0.0548 -0.6664
 1161SOL    HW114945   0.291   2.071   4.460  0.2560  1.4213 -2.9937
 1161SOL    HW214946   0.151   2.073   4.446 -0.1034  0.1518 -0.3626
 1162SOL     OW14947   1.035   4.519   3.503 -0.3646 -0.2139 -0.3570
 1162SOL    HW114948   1.109   4.580   3.505  0.4394 -1.1179 -3.0035
 1162SOL    HW214949   1.077   4.434   3.516 -1.8986 -0.7843  0.8401
 1163SOL     OW14950   2.195   2.462   6.578 -0.1639  0.3457  0.1971
 1163SOL    HW114951   2.278   2.417   6.562  0.1623  0.9659  0.1561
 1163SOL    HW214952   2.207   2.494   6.667 -0.9209 -0.8975  0.7536
 1164SOL     OW14953   3.574   1.713   2.018  0.5826  0.3619 -0.1821
 1164SOL    HW114954   3.557   1.744   1.929  0.8967 -3.3966 -1.5815
 1164SOL    HW214955   3.640   1.647   1.996  3.1304  2.7861  0.2534
 1165SOL     OW14956   2.435   3.173  13.501  0.3457 -0.5216 -0.3737
 1165SOL    HW114957   2.391   3.163  13.585  0.2567 -1.8061 -0.5601
 1165SOL    HW214958   2.361   3.209  13.451  0.1969  0.3926  0.5259
 1166SOL     OW14959   3.588   1.803  11.127  0.1160 -0.9704 -0.2832
 1166SOL    HW114960   3.600   1.789  11.033  1.8995  2.5386 -0.5576
 1166SOL    HW214961   3.512   1.861  11.136  1.6264  1.1890 -1.4932
 1167SOL     OW14962   2.353   2.053   5.527  0.0477 -0.4968 -0.2916
 1167SOL    HW114963   2.366   2.003   5.447  0.0761 -0.1255 -0.5148
 1167SOL    HW214964   2.387   2.137   5.498 -1.1895  0.5707  1.2913
 1168SOL     OW14965   3.996   1.811   7.433 -0.2691 -0.2170  0.4885
 1168SOL    HW114966   3.929   1.845   7.374  1.1116  2.3677  0.3777
 1168SOL    HW214967   4.050   1.888   7.449 -1.0487  0.3178  0.5375
 1169SOL     OW14968   4.430   2.118   2.958 -0.2173 -0.2616  0.0380
 1169SOL    HW114969   4.505   2.070   2.992 -1.4105 -1.9001  0.3173
 1169SOL    HW214970   4.456   2.204   2.992 -0.4078 -0.1601 -0.0695
 1170SOL     OW14971   1.602   4.383   8.611 -0.2053 -0.8194  0.4577
 1170SOL    HW114972   1.607   4.314   8.678  0.1803 -1.2947 -0.0615
 1170SOL    HW214973   1.519   4.358   8.571 -0.2216  0.6237 -0.4015
 1171SOL     OW14974   0.615   3.581  11.797  0.3555 -0.1080 -0.2261
 1171SOL    HW114975   0.556   3.514  11.832  1.6552 -0.6787  0.9016
 1171SOL    HW214976   0.610   3.648  11.866  1.4632  0.7933 -1.0270
 1172SOL     OW14977   2.973   1.081   8.812  0.4185 -0.1775  0.0383
 1172SOL    HW114978   2.928   1.072   8.728 -0.1681  2.6003  0.0598
 1172SOL    HW214979   2.898   1.063   8.868 -0.7884 -1.9166 -2.1078
 1173SOL     OW14980   1.861   2.436   8.779  0.3221 -0.1086 -0.3146
 1173SOL    HW114981   1.937   2.408   8.728  1.1285  0.7835  0.3924
 1173SOL    HW214982   1.857   2.375   8.853 -2.0432 -0.7213 -0.9242
 1174SOL     OW14983   4.692   0.797  10.777 -0.0298 -0.6348  0.1383
 1174SOL    HW114984   4.720   0.715  10.818 -0.4131 -0.5022  0.6684
 1174SOL    HW214985   0.045   0.819  10.727 -0.2432 -1.1662 -0.4336
 1175SOL     OW14986   4.308   0.135   8.296 -0.8866  0.3731  0.0385
 1175SOL    HW114987   4.315   0.174   8.383 -1.2279  0.1334  0.1738
 1175SOL    HW214988   4.335   0.046   8.320 -0.4087  0.7613  0.9511
 1176SOL     OW14989   3.091   2.215   7.096  0.1043  0.3113  0.3344
 1176SOL    HW114990   3.088   2.289   7.034  0.9705 -1.0440 -1.3190
 1176SOL    HW214991   3.125   2.141   7.045 -0.4267 -0.0747  0.5489
 1177SOL     OW14992   0.103   1.726   1.431 -0.5911  0.5494 -0.3081
 1177SOL    HW114993   0.084   1.637   1.461  3.7285 -0.3998 -0.3603
 1177SOL    HW214994   0.029   1.765   1.476 -0.8996 -1.5592  1.0122
 1178SOL     OW14995   3.283   3.805   3.806  0.1400  0.6256 -0.1826
 1178SOL    HW114996   3.237   3.729   3.770  0.8951 -0.3791  0.9765
 1178SOL    HW214997   3.349   3.758   3.857 -1.9334 -2.6944 -0.5928
 1179SOL     OW14998   2.977   1.923   2.329  0.3395 -0.2090 -0.7801
 1179SOL    HW114999   3.006   2.015   2.327 -1.1847  0.2842 -0.0652
 1179SOL    HW215000   2.904   1.923   2.267  1.0310 -1.6669 -1.5803
 1180SOL     OW15001   4.394   1.547   5.454  0.5102 -0.1865  0.1424
 1180SOL    HW115002   4.391   1.488   5.379 -1.2853  0.7988 -0.5560
 1180SOL    HW215003   4.313   1.518   5.497  0.3389  0.4771  0.2738
 1181SOL     OW15004   1.409   1.986   7.113  0.3924  0.0967 -0.8924
 1181SOL    HW115005   1.406   1.890   7.115  0.5904  0.0697 -1.9281
 1181SOL    HW215006   1.419   2.010   7.205  1.9044 -0.2818 -0.9546
 1182SOL     OW15007   2.690   4.282  13.699  0.7273 -0.1283 -0.2776
 1182SOL    HW115008   2.638   4.204  13.683 -1.9307  1.7964 -1.0351
 1182SOL    HW215009   2.690   4.279  13.795  0.3076  2.2242 -0.1885
 1183SOL     OW15010   1.889   4.625   9.890  0.2384 -0.6856 -0.4853
 1183SOL    HW115011   1.827   4.697   9.879 -1.5606 -2.1188  0.1464
 1183SOL    HW215012   1.940   4.643   9.969 -1.0017 -0.0819  0.1741
 1184SOL     OW15013   2.385   1.235  15.313 -0.3428 -0.3347 -0.5672
 1184SOL    HW115014   2.291   1.247  15.322  0.0867  0.8357  2.4115
 1184SOL    HW215015   2.394   1.246  15.219  1.6144  1.3383 -0.1845
 1185SOL     OW15016   3.361   0.236  12.238  0.4658 -0.4701  0.0894
 1185SOL    HW115017   3.343   0.281  12.321  1.5989 -1.3897  0.8419
 1185SOL    HW215018   3.456   0.244  12.235  0.6212 -0.7096  3.6743
 1186SOL     OW15019   4.082   0.397   0.334  0.1938  0.1626 -0.5550
 1186SOL    HW115020   4.159   0.341   0.322 -0.0014  0.4200 -3.0868
 1186SOL    HW215021   4.024   0.337   0.379  2.0534  0.2296  1.9353
 1187SOL     OW15022   4.392   2.905   2.423 -0.1524 -0.1380 -0.2722
 1187SOL    HW115023   4.471   2.871   2.381  0.4073  0.8587  0.0011
 1187SOL    HW215024   4.367   2.980   2.369 -2.6013  1.1726  2.7160
 1188SOL     OW15025   1.791   1.222  17.472 -0.4883 -0.6155  0.0162
 1188SOL    HW115026   1.792   1.264  17.385 -2.3815  2.7335  1.6130
 1188SOL    HW215027   1.700   1.224  17.499 -0.9766 -2.7999 -1.4806
 1189SOL     OW15028   0.033   0.405   1.959 -0.0517 -0.1828  0.3503
 1189SOL    HW115029   0.058   0.498   1.957 -1.6464  0.1961 -1.9746
 1189SOL    HW215030   4.663   0.412   1.970 -0.0185  2.0206 -0.7788
 1190SOL     OW15031   1.116   1.492   5.838  0.0954  0.3846 -0.6299
 1190SOL    HW115032   1.118   1.462   5.747  1.5696 -1.6075  0.0629
 1190SOL    HW215033   1.047   1.558   5.840  0.6989  0.9676  1.2165
 1191SOL     OW15034   0.141   2.510   5.921  0.0906  0.4962 -0.2905
 1191SOL    HW115035   0.215   2.467   5.964 -1.6763 -1.5703  0.7071
 1191SOL    HW215036   0.182   2.584   5.878  1.2198 -0.5806 -1.0836
 1192SOL     OW15037   2.626   2.087   2.848  0.2693 -0.0373 -0.1998
 1192SOL    HW115038   2.617   2.102   2.754  1.1039  2.0672  0.0526
 1192SOL    HW215039   2.661   2.172   2.875 -0.1827 -0.0431  0.3927
 1193SOL     OW15040   2.211   2.083   6.757  0.2784 -0.2260 -0.0868
 1193SOL    HW115041   2.208   1.998   6.800  1.3897  0.6948  1.8198
 1193SOL    HW215042   2.150   2.070   6.685  0.7757  0.0244 -0.5554
 1194SOL     OW15043   3.420   4.659   3.376 -0.4681  0.0696  0.2742
 1194SOL    HW115044   3.358   4.619   3.316 -1.6275 -0.1898  1.6501
 1194SOL    HW215045   3.505   4.626   3.347 -1.7914  1.4231 -4.9959
 1195SOL     OW15046   0.433   1.495   8.641  0.0982  0.4710 -0.1950
 1195SOL    HW115047   0.344   1.482   8.674  0.2686  3.8249  1.5613
 1195SOL    HW215048   0.418   1.533   8.555 -1.4143  1.6472  0.5889
 1196SOL     OW15049   4.347   1.528   3.172  0.1060 -0.3063  0.3877
 1196SOL    HW115050   4.313   1.503   3.086  0.9103 -1.8748  0.5283
 1196SOL    HW215051   4.421   1.468   3.172 -0.7996 -1.4478 -2.1875
 1197SOL     OW15052   2.329   1.826   1.093 -0.2190 -0.5131 -0.5981
 1197SOL    HW115053   2.249   1.780   1.115 -1.6992  2.1609 -0.3139
 1197SOL    HW215054   2.372   1.819   1.178 -0.4169  0.5825 -0.4052
 1198SOL     OW15055   3.503   3.492   7.700 -0.1479  0.3133 -0.0852
 1198SOL    HW115056   3.487   3.512   7.608 -1.2559  1.3373  0.3378
 1198SOL    HW215057   3.493   3.398   7.688  0.2918  0.4957 -1.7988
 1199SOL     OW15058   2.528   2.189   7.871 -0.5179 -0.4160 -0.4803
 1199SOL    HW115059   2.467   2.158   7.937  1.4735 -1.4837  0.8537
 1199SOL    HW215060   2.527   2.115   7.810 -3.6071 -1.0616  0.3819
 1200SOL     OW15061   4.572   2.297   7.210 -0.5896  0.2406  0.1214
 1200SOL    HW115062   4.657   2.263   7.236 -0.6519  0.3639  0.4883
 1200SOL    HW215063   4.596   2.315   7.119  0.7393  3.1523  1.0639
 1201SOL     OW15064   0.730   1.942   5.598 -0.7843 -0.0940  0.1539
 1201SOL    HW115065   0.639   1.970   5.590 -0.8676 -0.1684  0.8062
 1201SOL    HW215066   0.706   1.869   5.655  0.9590 -0.7919 -0.0213
 1202SOL     OW15067   3.888   3.739   5.903 -0.7184 -0.0173  0.4628
 1202SOL    HW115068   3.977   3.720   5.875 -1.0134 -1.4137  0.4658
 1202SOL    HW215069   3.844   3.763   5.821 -0.2290  0.2197  0.2700
 1203SOL     OW15070   0.161   0.857   7.782 -0.0755 -0.1772  0.0189
 1203SOL    HW115071   0.139   0.930   7.725  1.2014 -1.1604 -1.7478
 1203SOL    HW215072   0.253   0.837   7.765 -0.1019 -0.4471  0.1914
 1204SOL     OW15073   4.374   2.633  11.694  0.2743  0.1123 -0.0097
 1204SOL    HW115074   4.285   2.599  11.706 -0.2574  1.4223 -0.2186
 1204SOL    HW215075   4.416   2.579  11.760 -0.3693  1.0056  1.1256
 1205SOL     OW15076   4.441   4.055  10.517  0.1876  0.0183  0.6558
 1205SOL    HW115077   4.425   3.979  10.461  1.2939 -1.3064  2.1382
 1205SOL    HW215078   4.526   4.025  10.547  0.2346 -0.8169 -0.2821
 1206SOL     OW15079   2.240   0.335   4.281  0.0298  0.0599 -0.0737
 1206SOL    HW115080   2.318   0.280   4.269 -0.9637 -1.4489  0.3664
 1206SOL    HW215081   2.225   0.324   4.375  2.3347 -0.8524  0.1812
 1207SOL     OW15082   1.455   2.041   0.476  0.1897  0.1357  0.0380
 1207SOL    HW115083   1.411   2.015   0.557 -1.0229 -1.5467 -1.1737
 1207SOL    HW215084   1.536   2.071   0.520  0.6444 -0.2360 -0.5482
 1208SOL     OW15085   4.222   3.322   4.593 -0.3099  0.2641 -0.1635
 1208SOL    HW115086   4.312   3.290   4.580 -0.3864 -0.5493  1.3257
 1208SOL    HW215087   4.239   3.405   4.549  0.2656 -0.2840 -0.9986
 1209SOL     OW15088   4.009   0.632   2.620 -0.6742 -0.3209 -0.3670
 1209SOL    HW115089   3.951   0.697   2.581 -1.7987 -1.3879 -0.4907
 1209SOL    HW215090   4.026   0.575   2.544 -0.3175  1.7449 -1.8227
 1210SOL     OW15091   0.630   3.048  10.569 -0.2539 -0.6426 -0.2776
 1210SOL    HW115092   0.604   3.006  10.652 -1.2415  0.1135 -0.2043
 1210SOL    HW215093   0.545   3.059  10.526 -1.8470 -3.6796  2.0222
 1211SOL     OW15094   0.356   3.306   1.535 -0.1908  0.7971 -0.1091
 1211SOL    HW115095   0.358   3.388   1.585 -2.0157  0.8660 -0.1405
 1211SOL    HW215096   0.286   3.264   1.585  1.9527 -1.5436  0.9505
 1212SOL     OW15097   2.152   1.244   7.492  0.6282  0.2442  0.2107
 1212SOL    HW115098   2.150   1.192   7.411 -1.3563 -0.2551  0.5643
 1212SOL    HW215099   2.075   1.205   7.533 -0.6584  2.2515 -0.3251
 1213SOL     OW15100   0.906   3.569  12.665 -0.0047  0.1208 -0.0163
 1213SOL    HW115101   0.978   3.541  12.609  0.0675  0.7830 -0.2473
 1213SOL    HW215102   0.838   3.513  12.629 -0.5648 -0.0491  1.3181
 1214SOL     OW15103   1.796   3.509  10.707  0.2660 -0.6138 -0.3101
 1214SOL    HW115104   1.734   3.442  10.735  1.8015 -2.5088 -1.3782
 1214SOL    HW215105   1.757   3.536  10.625  1.0271  0.6169 -0.2657
 1215SOL     OW15106   3.661   0.098   5.351 -0.6809  0.1742  0.0370
 1215SOL    HW115107   3.726   0.060   5.293  0.6326  3.7421 -0.8793
 1215SOL    HW215108   3.704   0.183   5.366 -1.3296  0.7909 -1.5373
 1216SOL     OW15109   3.511   1.440  14.883 -0.2353  0.3387 -0.8975
 1216SOL    HW115110   3.528   1.437  14.978 -1.3127 -0.0907 -0.7254
 1216SOL    HW215111   3.470   1.526  14.877  2.1770  1.6021  0.5419
 1217SOL     OW15112   3.141   4.595   2.309 -0.1981 -0.5196  0.0309
 1217SOL    HW115113   3.191   4.514   2.298  3.1587  1.5803 -0.2983
 1217SOL    HW215114   3.071   4.568   2.368  0.7602 -2.2144  0.3904
 1218SOL     OW15115   3.283   0.382   4.968  0.0175  0.1832 -0.0744
 1218SOL    HW115116   3.327   0.354   5.049  0.6273  1.8324  0.1545
 1218SOL    HW215117   3.224   0.306   4.962  1.4712 -1.0361  1.1557
 1219SOL     OW15118   1.010   0.686  17.229 -0.4134  0.1974  0.1340
 1219SOL    HW115119   0.980   0.606  17.272  1.8511  0.6429  2.5146
 1219SOL    HW215120   1.051   0.648  17.150  0.3784 -0.1051  0.6906
 1220SOL     OW15121   3.221   3.328   1.309  0.0118 -0.5086 -0.6091
 1220SOL    HW115122   3.182   3.389   1.246  1.2425  1.6118  0.6897
 1220SOL    HW215123   3.153   3.318   1.375  0.5339 -0.0165  0.0043
 1221SOL     OW15124   2.745   0.597   8.620  0.1353 -0.2289 -0.0357
 1221SOL    HW115125   2.796   0.564   8.694 -0.4032 -2.9613 -0.8700
 1221SOL    HW215126   2.697   0.519   8.590 -0.6363 -0.3095  1.4067
 1222SOL     OW15127   4.416   3.919   5.193  0.3543  0.3431 -0.0988
 1222SOL    HW115128   4.356   3.889   5.124  0.1869 -1.4594  0.8462
 1222SOL    HW215129   4.408   4.014   5.182  3.6976  0.9850  3.0964
 1223SOL     OW15130   3.577   2.335   9.151 -0.9004  0.0206 -0.1092
 1223SOL    HW115131   3.565   2.244   9.180  0.1180  0.0174  0.2906
 1223SOL    HW215132   3.503   2.372   9.199 -1.2040  1.0927 -1.4136
 1224SOL     OW15133   3.467   4.441   7.412  0.0383 -0.2093  0.1222
 1224SOL    HW115134   3.429   4.357   7.436  0.3719  0.0591  1.5685
 1224SOL    HW215135   3.405   4.494   7.463 -0.1563  0.4467 -0.7928
 1225SOL     OW15136   1.769   2.970  14.735 -0.1955 -0.2889 -0.2079
 1225SOL    HW115137   1.721   3.010  14.807  0.7794 -2.0408  1.3928
 1225SOL    HW215138   1.752   2.881  14.763  0.2150 -0.0975  0.6387
 1226SOL     OW15139   1.751   2.505   5.793  0.5726 -0.4063 -0.5423
 1226SOL    HW115140   1.777   2.597   5.800  1.7805 -0.7084 -1.2586
 1226SOL    HW215141   1.831   2.465   5.827 -1.1237 -3.3854 -0.0667
 1227SOL     OW15142   3.614   1.442  11.132  0.0245 -0.7699 -0.0419
 1227SOL    HW115143   3.615   1.437  11.036 -0.3289  1.2537 -0.1456
 1227SOL    HW215144   3.687   1.384  11.154 -0.7437 -1.3206  1.0381
 1228SOL     OW15145   1.467   0.423  15.361 -0.1914  0.4664  0.3747
 1228SOL    HW115146   1.465   0.515  15.336 -1.7494 -0.3718 -2.6163
 1228SOL    HW215147   1.494   0.376  15.281  1.0442  0.4167  0.8206
 1229SOL     OW15148   2.704   2.715   7.323  0.6369 -0.6633 -0.4632
 1229SOL    HW115149   2.784   2.666   7.305  0.6320 -1.3703  1.4228
 1229SOL    HW215150   2.707   2.728   7.418 -2.4478 -2.4183 -0.1467
 1230SOL     OW15151   4.493   4.147   6.103  0.6992  0.2647 -0.5005
 1230SOL    HW115152   4.496   4.073   6.042 -3.8773  0.2324 -0.7467
 1230SOL    HW215153   4.575   4.129   6.148  0.2983 -1.9667 -0.6523
 1231SOL     OW15154   1.657   2.839  10.414 -0.5038 -0.1725 -0.4365
 1231SOL    HW115155   1.616   2.763  10.375 -1.4537  0.3721 -0.4940
 1231SOL    HW215156   1.698   2.876  10.335  0.8104  0.4100  0.5066
 1232SOL     OW15157   2.537   2.489  13.524  0.3141  0.6269 -0.7138
 1232SOL    HW115158   2.607   2.428  13.550 -1.6047 -1.5147 -0.6064
 1232SOL    HW215159   2.518   2.542  13.601 -2.7164 -0.9569 -0.3787
 1233SOL     OW15160   4.148   3.843  17.325  0.3977  0.6035  0.4686
 1233SOL    HW115161   4.085   3.914  17.316  1.6066  1.0846 -4.1043
 1233SOL    HW215162   4.116   3.775  17.266  3.2734 -2.0496  1.9416
 1234SOL     OW15163   1.750   0.027   9.487  0.2753  0.3008  0.5348
 1234SOL    HW115164   1.698   4.713   9.558 -0.9811  0.6787 -0.1640
 1234SOL    HW215165   1.727   0.119   9.487  0.1943  0.2873  1.6145
 1235SOL     OW15166   3.116   1.498  15.798  0.4559  0.1454 -0.1723
 1235SOL    HW115167   3.197   1.546  15.782  0.1765  1.2165  1.6249
 1235SOL    HW215168   3.137   1.480  15.890  1.6507  0.8915 -0.2939
 1236SOL     OW15169   3.852   2.802   0.684 -0.2811 -0.0364 -0.6959
 1236SOL    HW115170   3.829   2.764   0.769 -0.8254  2.0489  0.0800
 1236SOL    HW215171   3.850   2.896   0.699 -0.7716 -0.3546  1.1855
 1237SOL     OW15172   2.681   3.562   7.074  0.5392 -0.1951  0.7586
 1237SOL    HW115173   2.762   3.560   7.022 -0.9041 -1.9240 -1.4077
 1237SOL    HW215174   2.674   3.472   7.107  1.7853 -0.5417  0.0860
 1238SOL     OW15175   2.759   0.664   4.090  0.1132  0.0255 -0.0043
 1238SOL    HW115176   2.739   0.709   4.009  2.7820 -0.0468 -0.7059
 1238SOL    HW215177   2.746   0.576   4.055  0.2147 -0.3799  0.9572
 1239SOL     OW15178   1.039   1.364   0.002 -0.8813  0.2374  0.0130
 1239SOL    HW115179   1.038   1.302   0.075  2.2437 -1.3720 -1.3383
 1239SOL    HW215180   0.985   1.437   0.033 -0.4523  1.3290 -1.7709
 1240SOL     OW15181   3.933   1.243   8.532 -0.1178 -0.0309 -0.4219
 1240SOL    HW115182   3.876   1.305   8.577 -0.3745 -0.4740 -0.1267
 1240SOL    HW215183   3.873   1.170   8.517  1.1111 -0.8185 -1.5175
 1241SOL     OW15184   3.465   4.392   5.125 -0.3360  0.2468 -0.0186
 1241SOL    HW115185   3.393   4.444   5.162 -1.7663 -1.2080 -0.7329
 1241SOL    HW215186   3.542   4.436   5.160  0.1936  0.7807 -1.8706
 1242SOL     OW15187   0.441   4.386   3.944 -0.1056 -0.1103  0.0661
 1242SOL    HW115188   0.530   4.416   3.962 -0.5261  1.7167 -0.9396
 1242SOL    HW215189   0.416   4.454   3.881  1.5376 -0.4934 -0.9825
 1243SOL     OW15190   0.837   0.628   0.851  0.5399  0.6783 -0.7602
 1243SOL    HW115191   0.771   0.679   0.898 -0.3381 -0.4655 -0.7732
 1243SOL    HW215192   0.773   0.607   0.783  0.2011 -0.5264 -0.0583
 1244SOL     OW15193   3.761   0.763   4.355  1.4021 -0.3026  0.0585
 1244SOL    HW115194   3.775   0.724   4.441  1.2993 -1.1662 -0.3146
 1244SOL    HW215195   3.834   0.823   4.343 -0.5959  2.3461  1.0326
 1245SOL     OW15196   3.078   3.160   8.007  0.6842 -0.3354 -0.0963
 1245SOL    HW115197   3.102   3.071   8.033 -0.9101 -0.8530 -0.4014
 1245SOL    HW215198   3.166   3.197   8.008 -0.1461  1.6225  1.0242
 1246SOL     OW15199   1.233   2.670  15.105 -0.3079  0.5267 -0.2504
 1246SOL    HW115200   1.207   2.594  15.053 -0.9870 -0.4874  1.5864
 1246SOL    HW215201   1.151   2.709  15.136 -0.2162 -0.3277  1.0201
 1247SOL     OW15202   3.809   1.199   4.750 -0.5854 -0.3685 -0.2498
 1247SOL    HW115203   3.745   1.167   4.685 -0.4938 -2.5626  0.7290
 1247SOL    HW215204   3.870   1.236   4.687 -0.2417  1.4497  1.1667
 1248SOL     OW15205   1.640   0.712  16.899  0.3468  0.4894  0.0048
 1248SOL    HW115206   1.584   0.645  16.860  3.1741 -0.8835 -1.7016
 1248SOL    HW215207   1.588   0.746  16.971 -0.0466  1.3976 -0.7106
 1249SOL     OW15208   3.799   2.762   2.278 -0.0940  0.0404 -0.4726
 1249SOL    HW115209   3.838   2.804   2.355  2.0099 -1.2805 -0.8157
 1249SOL    HW215210   3.870   2.699   2.269  1.9514  2.6708 -2.8529
 1250SOL     OW15211   4.574   4.614   9.995  0.0546  0.0437 -0.3977
 1250SOL    HW115212   4.507   4.663   9.946  0.2403  0.3331 -0.3613
 1250SOL    HW215213   4.599   4.571   9.913 -1.8729 -0.3152 -0.8141
 1251SOL     OW15214   0.954   0.321   4.840  0.4317 -0.6412  0.5745
 1251SOL    HW115215   1.016   0.386   4.806  1.1592 -2.0932 -0.9041
 1251SOL    HW215216   0.996   0.236   4.831  0.6690 -0.5217  0.5462
 1252SOL     OW15217   1.301   3.303   9.230  0.2892  0.0845 -0.1470
 1252SOL    HW115218   1.349   3.345   9.158 -0.2443 -1.7842 -1.5842
 1252SOL    HW215219   1.310   3.355   9.310  1.4388 -0.7249  0.2498
 1253SOL     OW15220   3.821   2.867  16.488  0.0318  0.0019  0.6311
 1253SOL    HW115221   3.742   2.815  16.501 -0.3905 -0.2830 -2.9396
 1253SOL    HW215222   3.817   2.938  16.551 -0.2580 -0.1588  0.7929
 1254SOL     OW15223   2.061   4.542   1.293  0.1295 -0.4550 -0.2396
 1254SOL    HW115224   2.107   4.510   1.216 -0.4260  1.3357 -1.3206
 1254SOL    HW215225   2.133   4.593   1.331 -0.6410  0.8121 -0.4555
 1255SOL     OW15226   2.515   2.883   8.670 -0.0592  0.4242 -0.9154
 1255SOL    HW115227   2.425   2.850   8.662 -0.1203  0.9138 -2.2748
 1255SOL    HW215228   2.557   2.831   8.739  1.3023  1.3478 -1.0443
 1256SOL     OW15229   4.177   1.083   8.591 -0.4748  0.2682 -0.0361
 1256SOL    HW115230   4.165   0.999   8.634  1.8062 -0.3694 -0.6596
 1256SOL    HW215231   4.091   1.120   8.609 -0.7218 -0.5729  0.5106
 1257SOL     OW15232   2.581   0.411  11.909  0.6001 -0.4006 -0.6487
 1257SOL    HW115233   2.498   0.398  11.955  1.4418  1.5855  1.4241
 1257SOL    HW215234   2.607   0.501  11.928  1.1154 -0.5948 -0.4398
 1258SOL     OW15235   3.952   3.908   3.297 -0.1612  0.6171  0.3153
 1258SOL    HW115236   3.895   3.984   3.291 -2.0467 -0.9637 -2.2944
 1258SOL    HW215237   3.935   3.883   3.388  0.5947  1.1319  0.5946
 1259SOL     OW15238   2.425   0.194   6.339  0.0216 -0.0673  0.4308
 1259SOL    HW115239   2.498   0.150   6.294  1.7007  0.7950  2.2834
 1259SOL    HW215240   2.352   0.175   6.281  0.0667 -2.4021  1.1217
 1260SOL     OW15241   0.968   4.525   6.408 -0.1899 -0.7719 -0.0736
 1260SOL    HW115242   0.978   4.618   6.427 -1.3744 -0.4488 -1.0640
 1260SOL    HW215243   0.881   4.522   6.370  0.2470  1.0690 -1.1674
 1261SOL     OW15244   0.780   1.931   9.498  0.3298 -0.1649  0.0900
 1261SOL    HW115245   0.717   1.860   9.485 -0.0462  0.1981 -0.0619
 1261SOL    HW215246   0.858   1.882   9.522  0.0801 -1.7182 -2.3642
 1262SOL     OW15247   0.271   2.788   8.589  0.0884  0.1769  0.2503
 1262SOL    HW115248   0.195   2.737   8.562  0.6398  0.1768 -1.3144
 1262SOL    HW215249   0.344   2.727   8.580 -0.4963 -0.4633 -0.1227
 1263SOL     OW15250   3.796   0.023   1.104 -0.3832 -0.3270  0.7562
 1263SOL    HW115251   3.766   4.658   1.087 -1.5679  0.1606  0.2771
 1263SOL    HW215252   3.841   0.032   1.020 -0.5949 -2.6509  0.3735
 1264SOL     OW15253   4.633   3.643  16.097  0.0977  0.1273 -0.1094
 1264SOL    HW115254   4.667   3.672  16.181  1.4237  0.5721 -0.7982
 1264SOL    HW215255   4.713   3.613  16.053 -0.6334 -1.8485 -0.1226
 1265SOL     OW15256   0.450   4.542   0.996 -0.2368 -0.1859 -0.1468
 1265SOL    HW115257   0.443   4.616   0.935  0.5366 -2.0876 -2.5646
 1265SOL    HW215258   0.481   4.469   0.943 -2.2164 -0.3546 -1.0813
 1266SOL     OW15259   1.249   4.676  13.429 -0.1349  0.1013  0.2012
 1266SOL    HW115260   1.182   4.705  13.491 -1.4549 -2.1818 -0.1858
 1266SOL    HW215261   1.318   0.018  13.438 -0.9031  0.9387 -0.1386
 1267SOL     OW15262   2.430   3.297   5.913  0.4338 -0.0262  0.3582
 1267SOL    HW115263   2.441   3.237   5.839 -0.7208 -1.4376  1.3173
 1267SOL    HW215264   2.482   3.375   5.892  1.3466 -1.0298 -1.1319
 1268SOL     OW15265   1.744   1.006   5.799  0.5777  0.1554  0.1376
 1268SOL    HW115266   1.791   1.053   5.730 -0.7595  0.5672 -0.4967
 1268SOL    HW215267   1.811   0.991   5.865  0.7335 -2.9612 -0.7322
 1269SOL     OW15268   4.568   1.181   4.135  0.3217  0.3315 -0.3385
 1269SOL    HW115269   4.544   1.104   4.188 -0.8677 -0.8159 -2.5594
 1269SOL    HW215270   4.490   1.179   4.080 -0.0105  0.3635  0.1281
 1270SOL     OW15271   1.477   0.067   1.079 -0.2270 -0.7954  0.3978
 1270SOL    HW115272   1.487   4.697   1.086  1.7223 -0.5329  1.1402
 1270SOL    HW215273   1.452   0.094   1.167  0.1438 -1.9408  0.8622
 1271SOL     OW15274   2.515   4.154   4.954  0.0923 -0.3919  0.0310
 1271SOL    HW115275   2.526   4.124   5.044 -0.5273  0.8595  0.5161
 1271SOL    HW215276   2.510   4.068   4.911  1.6958 -0.1060 -0.7275
 1272SOL     OW15277   0.829   1.522   2.787  0.2675 -0.0472 -0.0900
 1272SOL    HW115278   0.753   1.502   2.732  0.5554 -1.2907 -0.0310
 1272SOL    HW215279   0.868   1.607   2.768  0.0768 -0.0929 -0.6859
 1273SOL     OW15280   4.050   1.506  14.407  0.1409 -0.2855  0.2834
 1273SOL    HW115281   3.980   1.478  14.348 -0.4394 -0.7576  1.1990
 1273SOL    HW215282   4.043   1.438  14.473  1.3479  0.3253  1.0470
 1274SOL     OW15283   1.169   0.055   3.452 -0.4481  0.2869  0.2667
 1274SOL    HW115284   1.130   0.046   3.539 -0.5162  1.3947  0.3473
 1274SOL    HW215285   1.121   0.129   3.415  2.1143  1.2484 -1.1393
 1275SOL     OW15286   4.152   4.097  10.166  0.0972 -0.1874  0.2544
 1275SOL    HW115287   4.060   4.087  10.191  0.2832 -0.7723  0.7145
 1275SOL    HW215288   4.133   4.127  10.077  0.0093 -1.3773 -0.1331
 1276SOL     OW15289   2.457   2.278  14.152  0.0098 -0.1448  0.1502
 1276SOL    HW115290   2.496   2.288  14.066 -1.6505  0.4904 -0.5374
 1276SOL    HW215291   2.367   2.299  14.125  0.4432 -0.6991 -1.7168
 1277SOL     OW15292   3.944   1.047  14.692  0.2716  0.1850 -0.0196
 1277SOL    HW115293   3.972   1.129  14.651 -2.7981  0.5689 -1.3066
 1277SOL    HW215294   3.991   0.976  14.649 -0.0153 -0.4083  0.6458
 1278SOL     OW15295   3.041   0.931  11.821  0.0246  0.2040  0.1745
 1278SOL    HW115296   2.966   0.916  11.879 -1.3110  4.2140 -0.5042
 1278SOL    HW215297   3.101   0.979  11.876 -0.9179  0.3445  1.0817
 1279SOL     OW15298   0.179   2.872   3.746  0.1416 -0.1039 -0.3175
 1279SOL    HW115299   0.247   2.809   3.772  0.2497  0.2846  0.3301
 1279SOL    HW215300   0.105   2.813   3.730 -1.3928  1.2776  1.7239
 1280SOL     OW15301   4.290   1.418   0.605  0.8479 -0.4858  0.0026
 1280SOL    HW115302   4.261   1.501   0.643  0.7211 -0.5847  0.1252
 1280SOL    HW215303   4.368   1.394   0.655 -0.4454 -3.8166  0.4034
 1281SOL     OW15304   1.539   3.781   9.577  0.2608 -0.2555 -0.3494
 1281SOL    HW115305   1.524   3.875   9.565 -0.5891  0.2196  4.3652
 1281SOL    HW215306   1.494   3.754   9.657  1.1841  2.4083  1.0899
 1282SOL     OW15307   3.077   0.762  17.394 -0.3790 -0.3891  0.3862
 1282SOL    HW115308   3.000   0.716  17.426  1.1349 -3.5317 -0.5244
 1282SOL    HW215309   3.143   0.697  17.418  2.1562  1.2282 -2.0252
 1283SOL     OW15310   2.343   1.522   8.899 -0.8282 -0.0767  0.2492
 1283SOL    HW115311   2.306   1.490   8.817  2.6938 -0.6823 -1.1195
 1283SOL    HW215312   2.364   1.611   8.870 -0.3856 -0.2045  0.1709
 1284SOL     OW15313   2.345   0.252   9.774 -0.0766 -0.5192 -0.7205
 1284SOL    HW115314   2.372   0.343   9.779  0.8459 -0.9499  2.0100
 1284SOL    HW215315   2.355   0.233   9.867 -0.2799 -2.8774 -1.1866
 1285SOL     OW15316   2.587   2.262   2.317  0.4001 -0.7525  0.8206
 1285SOL    HW115317   2.557   2.243   2.228  0.8584  1.4187  0.2150
 1285SOL    HW215318   2.671   2.305   2.304 -0.0874 -0.3254 -0.9473
 1286SOL     OW15319   0.431   0.476   6.415  0.0898  0.6848 -0.3113
 1286SOL    HW115320   0.484   0.396   6.422  0.9565  1.4538  1.8171
 1286SOL    HW215321   0.355   0.427   6.382  0.3079 -0.2153  0.5343
 1287SOL     OW15322   3.693   3.565   3.972  0.3314  0.1409  0.5958
 1287SOL    HW115323   3.757   3.524   3.914 -0.2724  0.7880 -0.5418
 1287SOL    HW215324   3.745   3.564   4.052 -0.2155  0.6751  0.9546
 1288SOL     OW15325   4.352   2.945   9.878 -0.8697  0.0750  0.4767
 1288SOL    HW115326   4.370   2.964   9.786  0.5696 -2.4637  0.2297
 1288SOL    HW215327   4.340   2.850   9.874 -0.3062 -0.0416  1.6207
 1289SOL     OW15328   2.690   2.496  13.165  0.3946 -0.4382  0.3828
 1289SOL    HW115329   2.612   2.462  13.209  0.9644  0.1307  1.8455
 1289SOL    HW215330   2.699   2.445  13.085  0.4168  1.4306 -0.7877
 1290SOL     OW15331   4.512   2.829  17.649 -0.6142  0.3337  0.2185
 1290SOL    HW115332   4.573   2.897  17.619 -0.5219 -0.6971 -1.9335
 1290SOL    HW215333   4.568   2.758  17.679  0.7490  1.1728 -0.3430
 1291SOL     OW15334   2.445   1.050  15.939 -0.0883 -0.3185  0.3888
 1291SOL    HW115335   2.467   1.126  15.886 -0.4731  0.4669  1.3759
 1291SOL    HW215336   2.538   1.032  15.954  0.6581  2.7567 -0.5575
 1292SOL     OW15337   1.305   1.469   0.180  0.8745 -0.2149 -0.0343
 1292SOL    HW115338   1.264   1.439   0.261  0.0701  1.4972  0.1751
 1292SOL    HW215339   1.281   1.561   0.189  2.2448  0.2657 -1.2450
 1293SOL     OW15340   0.406   4.048  14.725  0.0855 -0.0412 -0.3191
 1293SOL    HW115341   0.357   4.129  14.708 -1.0489  0.0518  3.3654
 1293SOL    HW215342   0.496   4.073  14.707  0.4592 -0.4903  0.9473
 1294SOL     OW15343   2.933   4.219   0.514  0.0695  0.0892 -0.2352
 1294SOL    HW115344   2.950   4.313   0.503 -0.8242  0.1595 -1.0115
 1294SOL    HW215345   3.011   4.188   0.559  0.9856  0.5540 -1.4979
 1295SOL     OW15346   1.048   3.180  11.369  0.2141 -1.1559 -0.2109
 1295SOL    HW115347   1.091   3.265  11.359 -0.0555 -1.2174 -1.9310
 1295SOL    HW215348   1.044   3.170  11.274  0.8578  0.1905 -0.3755
 1296SOL     OW15349   4.686   3.882   4.247  0.2130  0.2288 -0.0570
 1296SOL    HW115350   0.019   3.913   4.177  0.1153  2.0532  0.6554
 1296SOL    HW215351   4.635   3.818   4.197 -2.8649  1.6665  1.2262
 1297SOL     OW15352   3.144   1.909   8.658  0.0921  0.2216 -0.2485
 1297SOL    HW115353   3.087   1.834   8.675 -0.3067  0.4942 -0.3701
 1297SOL    HW215354   3.084   1.975   8.693  1.7755  1.7619 -0.2607
 1298SOL     OW15355   4.432   0.799   1.793  0.7236  0.0482 -0.2385
 1298SOL    HW115356   4.507   0.778   1.849  2.4211 -0.0307 -2.5740
 1298SOL    HW215357   4.466   0.783   1.705  1.4755 -0.2366  0.1050
 1299SOL     OW15358   0.745   3.672   3.726 -0.1220  0.2568  0.5602
 1299SOL    HW115359   0.670   3.616   3.749  1.1941 -1.8822 -0.3622
 1299SOL    HW215360   0.806   3.598   3.732 -0.1619  0.2653  1.0819
 1300SOL     OW15361   2.091   0.183   5.701 -0.1694 -0.4472  0.1117
 1300SOL    HW115362   2.104   0.098   5.743  0.2725  0.0007  0.8740
 1300SOL    HW215363   1.996   0.184   5.685 -0.2481 -1.5643  0.5028
 1301SOL     OW15364   3.429   1.801  13.463  0.0100 -0.6837 -0.7437
 1301SOL    HW115365   3.484   1.838  13.532 -0.9198  0.3553 -0.5568
 1301SOL    HW215366   3.352   1.766  13.510 -0.9111  1.1993 -0.8493
 1302SOL     OW15367   0.141   4.498   8.278  0.4912  0.6007  0.0090
 1302SOL    HW115368   0.224   4.462   8.310 -1.7695 -2.2956  2.6813
 1302SOL    HW215369   0.145   4.464   8.189 -1.1630  3.9165 -1.3225
 1303SOL     OW15370   0.117   0.802  13.870 -0.0324 -0.2611 -0.1559
 1303SOL    HW115371   0.146   0.871  13.930  1.5250 -0.5910 -0.5294
 1303SOL    HW215372   0.058   0.836  13.804 -1.2835 -1.2872  0.4337
 1304SOL     OW15373   1.427   2.634   7.005 -0.6318  0.0852  0.0352
 1304SOL    HW115374   1.452   2.720   7.040 -2.4163  1.1640 -1.3163
 1304SOL    HW215375   1.343   2.656   6.964 -0.2436  1.9176  0.2102
 1305SOL     OW15376   0.777   3.377  17.335 -1.0569  0.3756  0.4590
 1305SOL    HW115377   0.870   3.368  17.315 -0.9346  0.6118  0.9134
 1305SOL    HW215378   0.762   3.460  17.290  0.4849 -0.1194 -0.9413
 1306SOL     OW15379   2.494   2.436   5.409 -0.6608 -0.3062 -0.0014
 1306SOL    HW115380   2.407   2.399   5.424 -1.4713  2.1315  1.1760
 1306SOL    HW215381   2.535   2.431   5.495  2.4678 -0.5367 -1.4768
 1307SOL     OW15382   0.520   2.113   3.045 -0.5990 -0.1350  0.3840
 1307SOL    HW115383   0.469   2.105   2.965  0.2135  0.8502 -0.2319
 1307SOL    HW215384   0.489   2.041   3.100  1.6077 -1.5377 -0.2310
 1308SOL     OW15385   2.289   2.438   5.971  0.1043 -0.2633 -0.5473
 1308SOL    HW115386   2.290   2.410   5.880 -0.7355  1.4328 -1.0689
 1308SOL    HW215387   2.362   2.389   6.009 -1.2096 -1.8108 -0.0445
 1309SOL     OW15388   0.744   2.320  10.129 -0.9739  0.7055  0.3588
 1309SOL    HW115389   0.771   2.385  10.065 -3.6475  0.9427 -0.5207
 1309SOL    HW215390   0.655   2.350  10.147 -1.3587  0.6483 -1.5217
 1310SOL     OW15391   2.076   4.291   3.326  0.1741 -0.1519 -0.2791
 1310SOL    HW115392   2.095   4.306   3.418 -2.1450  1.2189 -0.0044
 1310SOL    HW215393   2.117   4.207   3.312  1.1104  0.1699  0.5701
 1311SOL     OW15394   0.719   2.849   3.815 -0.2612  0.2818 -0.3774
 1311SOL    HW115395   0.714   2.846   3.719  0.5893  3.0107 -0.5107
 1311SOL    HW215396   0.649   2.913   3.830 -2.0812 -1.2742 -2.2858
 1312SOL     OW15397   3.585   3.172   9.651  0.0384 -0.1638  0.1837
 1312SOL    HW115398   3.544   3.245   9.603 -1.4686 -0.1345  1.5126
 1312SOL    HW215399   3.676   3.200   9.664 -0.9432  3.0809  0.1567
 1313SOL     OW15400   0.256   4.579  10.699 -0.3145 -0.5933  0.4070
 1313SOL    HW115401   0.178   4.525  10.685  1.3772 -2.3176 -2.3636
 1313SOL    HW215402   0.254   4.624  10.615 -0.3517 -1.2700  0.0463
 1314SOL     OW15403   2.284   0.051  17.327 -0.0923 -0.3021 -0.1174
 1314SOL    HW115404   2.273   4.699  17.382  0.0325  1.3826  2.2366
 1314SOL    HW215405   2.228   0.116  17.368  0.7920  1.4294 -1.6333
 1315SOL     OW15406   4.127   3.295   9.233  0.1224  0.2560 -0.2917
 1315SOL    HW115407   4.216   3.262   9.216 -0.0145 -1.0995  1.6324
 1315SOL    HW215408   4.087   3.256   9.155  2.4154  0.1756 -1.4459
 1316SOL     OW15409   1.514   3.422   4.078 -0.1187  0.6526 -0.1770
 1316SOL    HW115410   1.475   3.342   4.114  0.6632 -0.1164 -1.0519
 1316SOL    HW215411   1.604   3.391   4.083 -0.2558  0.5512  1.7471
 1317SOL     OW15412   1.829   4.023   8.211 -0.1302 -0.4331 -0.0843
 1317SOL    HW115413   1.877   4.033   8.293 -0.8024  3.1654 -0.1361
 1317SOL    HW215414   1.749   4.072   8.231  0.7534  0.4799  1.1615
 1318SOL     OW15415   0.528   4.002   2.710  0.2841 -0.4372  0.8299
 1318SOL    HW115416   0.469   4.073   2.734 -0.1344 -0.0507 -1.3431
 1318SOL    HW215417   0.601   4.040   2.662 -0.0838 -3.0596 -1.7915
 1319SOL     OW15418   2.546   3.402   2.163 -0.0277 -0.1361  0.1804
 1319SOL    HW115419   2.540   3.377   2.071  1.1307  2.1492 -0.5335
 1319SOL    HW215420   2.636   3.435   2.167  1.1467 -3.2911 -0.7355
 1320SOL     OW15421   1.797   4.560   1.003  0.8299  0.1236 -0.5608
 1320SOL    HW115422   1.871   4.536   1.059  1.8862  0.9018 -1.6150
 1320SOL    HW215423   1.766   4.470   0.990 -0.2873  0.1628  1.8577
 1321SOL     OW15424   1.229   0.047   7.451  0.1913 -0.8276  0.2798
 1321SOL    HW115425   1.204   0.139   7.460  1.9136 -0.3166 -0.1712
 1321SOL    HW215426   1.320   0.052   7.480  0.1556  1.1979  0.0446
 1322SOL     OW15427   0.624   0.488   1.170 -0.4279 -0.0006 -0.7253
 1322SOL    HW115428   0.610   0.405   1.215 -1.3967 -0.4547 -1.8644
 1322SOL    HW215429   0.639   0.545   1.246  3.1739 -2.0731  0.1208
 1323SOL     OW15430   0.153   0.322   4.940 -0.0992 -0.1592 -0.2086
 1323SOL    HW115431   0.072   0.332   4.890 -0.9795 -1.1262  1.0092
 1323SOL    HW215432   0.132   0.377   5.016 -0.7721 -1.4477  0.5476
 1324SOL     OW15433   4.499   2.913   8.535  0.2316  0.2490  0.5500
 1324SOL    HW115434   4.504   3.008   8.546  3.2804  0.3057 -1.4306
 1324SOL    HW215435   4.477   2.879   8.622  1.9672 -2.3769 -0.0436
 1325SOL     OW15436   3.486   0.071   7.226  0.2452 -0.4667 -0.6054
 1325SOL    HW115437   3.529   0.019   7.158 -1.2998 -0.0796 -1.8834
 1325SOL    HW215438   3.408   0.020   7.250  0.4930 -1.1661 -1.2743
 1326SOL     OW15439   1.650   0.279  16.404 -0.7086  0.0972  0.3961
 1326SOL    HW115440   1.642   0.276  16.308  0.7401 -0.9308  0.3048
 1326SOL    HW215441   1.703   0.200  16.413  0.6293  1.0628  0.8887
 1327SOL     OW15442   0.743   4.394   3.980 -0.0189 -0.5229 -0.1162
 1327SOL    HW115443   0.755   4.432   3.893 -0.3242  3.9771  1.7897
 1327SOL    HW215444   0.793   4.312   3.975 -0.4061 -0.8531  1.4283
 1328SOL     OW15445   2.197   0.037  16.996 -0.1794  0.1108 -0.3180
 1328SOL    HW115446   2.101   0.043  16.999 -0.2631 -1.0773 -0.3479
 1328SOL    HW215447   2.206   4.669  17.019  2.3789  0.6574  0.9113
 1329SOL     OW15448   4.236   1.781   4.752  0.0654  0.1814  0.4497
 1329SOL    HW115449   4.285   1.821   4.681  1.0470 -0.3487  0.8348
 1329SOL    HW215450   4.145   1.805   4.733  0.2588  0.4331 -0.1382
 1330SOL     OW15451   1.660   1.482   5.600 -0.1915  0.6323  0.1337
 1330SOL    HW115452   1.650   1.569   5.639 -0.0391  1.9336 -2.7192
 1330SOL    HW215453   1.606   1.483   5.521 -2.0664  0.1984  1.4317
 1331SOL     OW15454   1.322   1.005   4.459 -0.1885  0.5996 -0.2778
 1331SOL    HW115455   1.265   1.056   4.401 -0.0254 -2.3386 -3.0434
 1331SOL    HW215456   1.267   0.926   4.464  0.7633  0.0293  1.2924
 1332SOL     OW15457   0.898   2.813   9.722 -0.1004  0.4874 -0.7917
 1332SOL    HW115458   0.850   2.843   9.799 -2.0734  0.7614 -2.1111
 1332SOL    HW215459   0.825   2.793   9.664 -0.3928  0.2773 -0.3507
 1333SOL     OW15460   2.234   3.016   3.311  0.3158  0.1003 -0.0970
 1333SOL    HW115461   2.279   2.944   3.268  3.0208  1.3973  0.5537
 1333SOL    HW215462   2.287   3.019   3.390  1.1123  1.0966 -0.6767
 1334SOL     OW15463   1.489   3.266   2.083  0.5278  0.1040 -0.0525
 1334SOL    HW115464   1.479   3.259   1.988  0.8688  1.3396 -0.1759
 1334SOL    HW215465   1.398   3.259   2.111  0.8656  0.8337  1.2042
 1335SOL     OW15466   2.332   3.464   5.388 -0.0144  0.3440  0.1187
 1335SOL    HW115467   2.422   3.433   5.378  0.3331  2.3013 -2.8222
 1335SOL    HW215468   2.306   3.434   5.475  0.9191 -0.8330 -0.0072
 1336SOL     OW15469   1.149   1.363   8.980  0.0478  0.2281 -0.1038
 1336SOL    HW115470   1.075   1.314   9.014 -1.4116  1.1302 -2.0038
 1336SOL    HW215471   1.138   1.451   9.017  2.4053 -0.2745  1.7940
 1337SOL     OW15472   4.259   4.351   4.615 -0.1986  0.0666 -0.5001
 1337SOL    HW115473   4.242   4.306   4.533 -0.5047  1.9082 -1.4583
 1337SOL    HW215474   4.314   4.286   4.659  1.3449 -0.1074 -2.6991
 1338SOL     OW15475   0.130   0.586  11.981  0.3008 -0.2261  0.0247
 1338SOL    HW115476   0.186   0.662  11.968  2.7914 -2.2584 -1.3094
 1338SOL    HW215477   0.056   0.605  11.922  0.1916 -0.1071  0.2008
 1339SOL     OW15478   0.903   1.329   1.740 -0.1418  0.2124 -0.2501
 1339SOL    HW115479   0.979   1.376   1.707 -0.8253  0.1040 -1.9925
 1339SOL    HW215480   0.940   1.265   1.801 -0.3388  1.8510  1.5805
 1340SOL     OW15481   4.346   4.406  16.633 -0.3365  0.3515  0.2235
 1340SOL    HW115482   4.280   4.366  16.577  0.2190 -0.6984  0.3135
 1340SOL    HW215483   4.425   4.380  16.584 -0.4133 -2.1032  1.3754
 1341SOL     OW15484   4.631   0.107   8.438  0.2658  0.2090 -0.6527
 1341SOL    HW115485   4.717   0.092   8.400 -0.1681 -0.2266 -1.4667
 1341SOL    HW215486   4.657   0.166   8.509 -0.8268 -0.1096  0.0123
 1342SOL     OW15487   0.791   0.105  11.413 -0.2259 -0.5545 -0.5830
 1342SOL    HW115488   0.841   0.160  11.353 -2.5178  3.4565  1.2329
 1342SOL    HW215489   0.855   0.112  11.484 -0.3049  0.0391 -0.5706
 1343SOL     OW15490   4.366   0.041   3.075  0.0419 -0.2270 -0.2208
 1343SOL    HW115491   4.298   0.086   3.023 -0.9030  0.9646  2.0486
 1343SOL    HW215492   4.440   0.098   3.055  1.1574 -1.3192  0.7939
 1344SOL     OW15493   2.191   0.451  17.489  0.4415 -0.1683  0.1467
 1344SOL    HW115494   2.117   0.508  17.511  1.7944  2.7642 -2.9755
 1344SOL    HW215495   2.257   0.494  17.543 -0.2910  0.4264  0.5699
 1345SOL     OW15496   2.288   3.829   4.101  0.2772  0.1676  0.2709
 1345SOL    HW115497   2.324   3.790   4.180 -0.5549 -1.7519 -0.3044
 1345SOL    HW215498   2.198   3.843   4.130  0.5170  0.9433  0.6331
 1346SOL     OW15499   4.678   3.143   7.094  0.3131 -0.4619 -0.3726
 1346SOL    HW115500   4.587   3.138   7.063 -0.0628  0.6767  0.5649
 1346SOL    HW215501   4.687   3.236   7.116 -2.4434 -0.5597  1.1783
 1347SOL     OW15502   4.465   2.334  16.645 -0.3872  0.6875 -0.4235
 1347SOL    HW115503   4.390   2.279  16.668  0.3282  0.0751  0.4482
 1347SOL    HW215504   4.420   2.404  16.598 -1.4016  0.8040  0.7260
 1348SOL     OW15505   0.689   2.115   7.155  1.1839  0.3644  0.5488
 1348SOL    HW115506   0.737   2.072   7.226  1.4386  0.2733  0.3175
 1348SOL    HW215507   0.711   2.208   7.152  4.7914 -0.5076  0.3196
 1349SOL     OW15508   0.454   2.977   7.112  0.0370  0.1762 -0.1844
 1349SOL    HW115509   0.414   2.891   7.095 -0.9617  0.5619  0.1777
 1349SOL    HW215510   0.384   3.038   7.088 -0.9755 -0.8072  0.2589
 1350SOL     OW15511   1.888   0.943  15.844  0.5693  0.2521  0.2974
 1350SOL    HW115512   1.815   1.000  15.818  0.5599  0.8929  1.7445
 1350SOL    HW215513   1.877   0.867  15.787  2.2311  1.9466 -2.2692
 1351SOL     OW15514   2.244   3.365   5.638 -0.2226 -0.1279 -0.0385
 1351SOL    HW115515   2.178   3.330   5.698 -0.7958 -0.3389 -0.7888
 1351SOL    HW215516   2.302   3.292   5.619  0.5047  0.4357  0.0395
 1352SOL     OW15517   3.566   0.090   8.936 -0.6966 -0.1051 -0.3693
 1352SOL    HW115518   3.576   0.010   8.885 -1.1191 -0.4535  0.0949
 1352SOL    HW215519   3.641   0.088   8.995 -1.8865  0.0931  1.1612
 1353SOL     OW15520   2.785   1.672  10.270  0.0249 -0.4896  0.2492
 1353SOL    HW115521   2.692   1.652  10.262 -0.1275  0.0060  0.7711
 1353SOL    HW215522   2.787   1.670  10.366 -2.0429 -0.0174  0.3038
 1354SOL     OW15523   2.338   4.209   1.935  0.1433 -0.4929 -0.4770
 1354SOL    HW115524   2.334   4.135   1.995  0.2502  0.6517  0.9282
 1354SOL    HW215525   2.382   4.171   1.859 -2.5113  0.3153 -2.4658
 1355SOL     OW15526   2.921   2.648   1.229  0.5397  0.0853 -0.1258
 1355SOL    HW115527   2.890   2.653   1.319 -0.3744 -1.3370 -0.3659
 1355SOL    HW215528   3.013   2.667   1.248  0.5353  2.2124 -2.1307
 1356SOL     OW15529   3.898   1.446  10.952 -0.0972  0.2152  0.2755
 1356SOL    HW115530   3.878   1.392  11.029  0.4514 -2.5361 -1.5047
 1356SOL    HW215531   3.811   1.454  10.913  0.9758  1.5975 -1.8158
 1357SOL     OW15532   4.519   0.551   5.275 -0.2943 -0.2748 -0.0949
 1357SOL    HW115533   4.503   0.534   5.368  1.8468  0.3087  0.3722
 1357SOL    HW215534   4.515   0.457   5.255  0.9888 -0.3841  0.1603
 1358SOL     OW15535   2.640   3.508   8.527  0.3147 -0.1965 -0.2012
 1358SOL    HW115536   2.722   3.459   8.538  1.5128  1.5071 -1.3554
 1358SOL    HW215537   2.665   3.589   8.573  0.8041 -1.0885  1.1080
 1359SOL     OW15538   3.372   3.638  12.973 -0.3664  0.4357 -0.0759
 1359SOL    HW115539   3.365   3.695  13.050  0.7088  0.3833  0.0717
 1359SOL    HW215540   3.467   3.629  12.965 -0.4537 -0.4721 -0.0622
 1360SOL     OW15541   1.597   3.624  10.505  0.2502  0.8617  0.2405
 1360SOL    HW115542   1.528   3.690  10.496 -0.0963  0.4174 -0.3724
 1360SOL    HW215543   1.549   3.563  10.449 -0.1087  0.6452  0.7874
 1361SOL     OW15544   0.443   2.957   2.359 -0.0153 -0.3978  0.1420
 1361SOL    HW115545   0.367   2.936   2.305  0.2273  0.7780 -0.6467
 1361SOL    HW215546   0.493   3.009   2.296 -2.7472  2.0851  0.0292
 1362SOL     OW15547   1.968   1.655   0.491  0.3754 -0.2425  0.3893
 1362SOL    HW115548   1.942   1.723   0.552  1.7223  0.0096  0.6677
 1362SOL    HW215549   2.034   1.702   0.439  0.4508 -0.1722  0.5506
 1363SOL     OW15550   0.027   4.053  12.774 -0.2512  0.8286 -0.4966
 1363SOL    HW115551   0.092   4.010  12.830 -0.3173 -0.0081 -1.0574
 1363SOL    HW215552   0.047   4.003  12.695  0.2357  0.7197 -0.3078
 1364SOL     OW15553   3.670   3.341   3.063 -0.7745  0.1427 -0.1242
 1364SOL    HW115554   3.629   3.375   2.983 -3.0017 -2.0622  0.0572
 1364SOL    HW215555   3.751   3.390   3.071 -0.9249  0.7546 -2.2560
 1365SOL     OW15556   3.822   4.149  12.865 -0.2704  0.5136 -0.0997
 1365SOL    HW115557   3.799   4.237  12.836 -5.3225 -0.6874  0.3563
 1365SOL    HW215558   3.771   4.102  12.800  1.3923  0.9737 -1.7382
 1366SOL     OW15559   3.442   1.685   9.436  0.4300 -0.3371 -0.0275
 1366SOL    HW115560   3.493   1.604   9.436  0.3883 -0.3639  0.0640
 1366SOL    HW215561   3.360   1.663   9.481 -0.5399 -0.4452 -1.8218
 1367SOL     OW15562   4.188   0.096   6.293 -0.6914 -0.5228 -0.1047
 1367SOL    HW115563   4.237   0.020   6.323  0.7781  0.9159  1.1751
 1367SOL    HW215564   4.210   0.103   6.200  2.1132  2.5161  0.7752
 1368SOL     OW15565   2.843   0.778   8.924  0.1306  0.4718  0.3205
 1368SOL    HW115566   2.922   0.807   8.971 -0.5575  0.5049  1.4715
 1368SOL    HW215567   2.792   0.732   8.991 -0.8769 -1.2778 -1.6637
 1369SOL     OW15568   2.081   4.649   8.654  0.1202  0.1976 -0.8421
 1369SOL    HW115569   2.027   4.711   8.702  1.4465 -0.1990  1.1497
 1369SOL    HW215570   2.084   4.579   8.719  0.2898  0.6171 -0.4047
 1370SOL     OW15571   4.073   1.875   5.443 -0.0777  0.1416  0.3266
 1370SOL    HW115572   4.095   1.965   5.465 -1.7401  0.9664 -1.4252
 1370SOL    HW215573   4.161   1.838   5.432 -0.0864 -0.7233  3.1391
 1371SOL     OW15574   0.038   4.011   0.766 -0.6800  0.2910 -0.5037
 1371SOL    HW115575   4.706   4.065   0.712  3.1305  4.0966 -0.7568
 1371SOL    HW215576   0.065   4.064   0.842  0.0008  0.0578 -0.5796
 1372SOL     OW15577   2.721   2.530   3.978 -0.0304 -0.0529  0.1461
 1372SOL    HW115578   2.662   2.478   3.924  1.4040 -1.0493 -0.4482
 1372SOL    HW215579   2.646   2.568   4.024 -2.0577 -2.0740 -1.5111
 1373SOL     OW15580   3.692   4.602  11.051  0.2412 -0.2949 -0.0387
 1373SOL    HW115581   3.630   4.634  11.116  0.2932 -0.6841  0.2010
 1373SOL    HW215582   3.667   4.641  10.967 -2.8042  0.7591  1.3481
 1374SOL     OW15583   0.826   0.985   1.032  0.2219  0.7654  0.6883
 1374SOL    HW115584   0.733   0.970   1.014 -0.2363  1.6861  2.3066
 1374SOL    HW215585   0.829   1.078   1.008  3.0551  0.0494 -1.6718
 1375SOL     OW15586   0.841   1.673  15.965  0.4382 -0.4203 -0.0068
 1375SOL    HW115587   0.784   1.691  15.890 -0.0242 -0.9304  0.2294
 1375SOL    HW215588   0.780   1.702  16.032 -1.3322 -1.8091 -1.0310
 1376SOL     OW15589   0.635   1.043  15.119  0.2954  0.5017  0.2064
 1376SOL    HW115590   0.708   1.077  15.067  0.6243 -0.7556 -0.1586
 1376SOL    HW215591   0.606   1.117  15.172 -0.2100  0.5691 -0.1679
 1377SOL     OW15592   0.261   3.055   8.630 -0.0156 -0.0230  0.0659
 1377SOL    HW115593   0.291   2.966   8.648 -0.5612 -0.3682 -0.7134
 1377SOL    HW215594   0.177   3.047   8.675 -0.7582 -3.7130 -1.9867
 1378SOL     OW15595   3.640   2.644   8.939 -0.2907 -0.2293 -0.2783
 1378SOL    HW115596   3.691   2.693   8.874 -0.1477 -1.0518 -0.7809
 1378SOL    HW215597   3.557   2.674   8.903 -0.2268  2.1050  1.5060
 1379SOL     OW15598   1.394   2.775  14.704  0.5143  0.4038 -0.1725
 1379SOL    HW115599   1.359   2.829  14.775 -0.6716  0.4415 -0.7749
 1379SOL    HW215600   1.446   2.715  14.757 -1.5795 -0.5509  0.8024
 1380SOL     OW15601   3.651   0.981  13.523  0.5110 -0.0295 -0.2706
 1380SOL    HW115602   3.669   1.072  13.544 -2.7882  0.8111 -1.0342
 1380SOL    HW215603   3.559   0.980  13.498  0.4590 -2.1026  0.0204
 1381SOL     OW15604   0.447   3.310   8.190  0.1779 -1.0153 -0.6589
 1381SOL    HW115605   0.401   3.226   8.193 -0.8888 -0.2727  3.3025
 1381SOL    HW215606   0.525   3.283   8.238  0.8783 -0.5403 -1.5209
 1382SOL     OW15607   2.779   4.343   6.642  0.2757 -0.1639 -0.0480
 1382SOL    HW115608   2.720   4.270   6.624 -0.4742  0.4706 -0.1311
 1382SOL    HW215609   2.844   4.328   6.573 -1.5004 -1.4860 -1.4386
 1383SOL     OW15610   2.282   2.039  15.089  0.3419 -0.2683  0.2635
 1383SOL    HW115611   2.369   2.008  15.114  0.8383  2.3280  1.7583
 1383SOL    HW215612   2.281   2.123  15.135 -1.5493  0.2102 -0.6428
 1384SOL     OW15613   1.520   4.099  14.632  0.3564 -0.1414 -0.4164
 1384SOL    HW115614   1.473   4.034  14.579 -0.0018  1.5486 -2.1784
 1384SOL    HW215615   1.548   4.043  14.704 -0.3740  2.7390  2.1015
 1385SOL     OW15616   1.748   1.201   9.199  0.0469 -0.4020 -0.7418
 1385SOL    HW115617   1.721   1.145   9.272  0.8975 -0.4023 -0.4235
 1385SOL    HW215618   1.843   1.196   9.209 -0.2539  0.8826  2.8106
 1386SOL     OW15619   0.277   2.558   8.868 -0.0056 -0.4667 -0.0192
 1386SOL    HW115620   0.251   2.506   8.944 -2.9023  2.7626  1.2175
 1386SOL    HW215621   0.349   2.505   8.833 -2.3279 -3.8633  0.3249
 1387SOL     OW15622   0.515   3.709   5.375 -0.2520  0.2938  0.4901
 1387SOL    HW115623   0.472   3.744   5.297 -1.6739  0.2060  1.2412
 1387SOL    HW215624   0.465   3.759   5.440 -0.5846  0.0172  0.4487
 1388SOL     OW15625   0.022   1.627   3.852  0.3423 -0.0035  0.1617
 1388SOL    HW115626   0.003   1.540   3.816 -2.4919 -0.3903  2.5318
 1388SOL    HW215627   0.116   1.628   3.837  0.2325  0.5266 -0.4942
 1389SOL     OW15628   2.464   1.788   1.789  0.1981  0.4603  0.2159
 1389SOL    HW115629   2.520   1.750   1.857 -0.3975 -0.9753 -0.0908
 1389SOL    HW215630   2.388   1.732   1.801  0.0674  0.6135  0.1025
 1390SOL     OW15631   2.647   3.611   5.012  0.5100  0.2064 -0.3741
 1390SOL    HW115632   2.566   3.657   5.030 -0.1379 -0.6716 -1.0780
 1390SOL    HW215633   2.663   3.615   4.918 -0.8463 -1.1867 -0.6631
 1391SOL     OW15634   2.880   2.996  13.318  0.0061 -0.0172  0.1456
 1391SOL    HW115635   2.880   3.066  13.252  0.4118  0.9149  1.1416
 1391SOL    HW215636   2.944   3.020  13.385 -0.4248  1.6455 -0.0460
 1392SOL     OW15637   2.406   1.837   8.916  0.0766  0.0403  0.0763
 1392SOL    HW115638   2.445   1.861   9.001 -3.7200 -1.1462  2.1527
 1392SOL    HW215639   2.460   1.888   8.855 -1.2172  1.2033 -0.0990
 1393SOL     OW15640   2.782   3.957  15.679  0.4629  0.1094  0.0541
 1393SOL    HW115641   2.779   4.033  15.738 -1.1316 -0.4903  0.7265
 1393SOL    HW215642   2.863   3.982  15.635  1.0824  1.7505  2.1101
 1394SOL     OW15643   0.194   3.964   2.576 -0.5859  0.2789  0.2816
 1394SOL    HW115644   0.276   4.009   2.553 -0.4023 -1.5096 -2.5854
 1394SOL    HW215645   0.166   3.996   2.662 -0.2425 -0.8728  0.8337
 1395SOL     OW15646   1.171   4.185  15.618 -0.5854 -0.1356 -0.5589
 1395SOL    HW115647   1.266   4.177  15.611 -0.4495  1.1115 -0.2893
 1395SOL    HW215648   1.143   4.115  15.677  1.3306 -0.1858  0.3137
 1396SOL     OW15649   1.918   3.594   7.577 -0.4432 -0.3010 -0.2851
 1396SOL    HW115650   1.983   3.629   7.516 -0.4269 -0.6021 -0.4395
 1396SOL    HW215651   1.850   3.660   7.563 -0.8824 -1.1375 -2.0842
 1397SOL     OW15652   4.339   3.807   4.546 -0.3086 -0.1113  0.3705
 1397SOL    HW115653   4.345   3.896   4.512 -0.0151 -0.3836 -0.3006
 1397SOL    HW215654   4.431   3.797   4.571 -0.8067 -0.0502  2.2099
 1398SOL     OW15655   0.554   4.013   7.171 -0.1741 -0.1551 -0.6086
 1398SOL    HW115656   0.584   3.922   7.166 -1.9295 -0.7438 -0.6248
 1398SOL    HW215657   0.641   4.052   7.164  0.1844 -0.9441 -0.6083
 1399SOL     OW15658   4.647   3.391   5.380  0.4546 -0.1470 -0.1082
 1399SOL    HW115659   4.617   3.482   5.386 -0.4432 -0.3601 -1.4942
 1399SOL    HW215660   0.002   3.398   5.327  1.2960  1.3675  1.3423
 1400SOL     OW15661   2.472   2.869  13.589  0.1346  0.0717  0.0562
 1400SOL    HW115662   2.434   2.944  13.544  1.0197  1.0777  0.9788
 1400SOL    HW215663   2.458   2.805  13.519 -0.8176  1.9771 -1.4982
 1401SOL     OW15664   0.800   4.100   4.737  0.0091 -0.3150  0.4561
 1401SOL    HW115665   0.868   4.069   4.677  0.4205 -3.4249  2.5178
 1401SOL    HW215666   0.728   4.103   4.674 -0.0389  0.2273  0.5365
 1402SOL     OW15667   0.540   3.632   7.651 -0.5151 -0.1148 -0.0632
 1402SOL    HW115668   0.628   3.626   7.613 -1.1953 -0.1245 -1.5982
 1402SOL    HW215669   0.525   3.541   7.678 -0.8851  0.1778  0.7264
 1403SOL     OW15670   1.497   2.034   3.117  0.3420  0.1246  0.4378
 1403SOL    HW115671   1.472   2.061   3.029 -0.9868 -1.8544  0.2137
 1403SOL    HW215672   1.417   2.056   3.166  1.3758  1.6131  1.4767
 1404SOL     OW15673   2.903   1.341   4.640  0.2797 -0.1250 -0.4869
 1404SOL    HW115674   2.946   1.423   4.617 -1.4489  0.4088 -1.7893
 1404SOL    HW215675   2.963   1.313   4.710  0.1900  0.6225 -0.1151
 1405SOL     OW15676   0.194   1.089   5.587  0.0974  0.6584 -0.4517
 1405SOL    HW115677   0.288   1.100   5.570  0.3549 -0.0462  0.4805
 1405SOL    HW215678   0.158   1.173   5.558 -0.7884  1.0088  1.6657
 1406SOL     OW15679   1.990   0.484   1.871  0.3033 -0.1872  0.3779
 1406SOL    HW115680   1.936   0.546   1.919 -0.2618  0.5559 -1.2015
 1406SOL    HW215681   1.926   0.437   1.816  1.6986  0.4676 -1.8275
 1407SOL     OW15682   0.195   0.813   5.752  0.0139 -0.0443  0.1794
 1407SOL    HW115683   0.153   0.871   5.816  3.3587  0.8939  1.5136
 1407SOL    HW215684   0.238   0.869   5.687  1.3701 -2.0790 -0.6676
 1408SOL     OW15685   4.282   2.243   2.251 -0.4310 -0.1391  0.5880
 1408SOL    HW115686   4.201   2.271   2.293 -1.5427  0.1477 -1.7637
 1408SOL    HW215687   4.299   2.322   2.201  0.6340  2.8753  5.8224
 1409SOL     OW15688   4.024   4.588   9.963  0.3838  0.4343 -0.2799
 1409SOL    HW115689   4.068   4.673   9.960 -0.1905  0.6788 -1.9730
 1409SOL    HW215690   4.079   4.538  10.023 -0.4779  2.2842  2.0534
 1410SOL     OW15691   0.541   4.340   8.119  0.2451 -0.2097 -0.2633
 1410SOL    HW115692   0.550   4.435   8.126 -2.3741  0.1716 -2.1857
 1410SOL    HW215693   0.605   4.316   8.186  0.1579 -0.3888 -0.2453
 1411SOL     OW15694   4.142   3.136  13.106  0.9658 -0.6405 -0.4302
 1411SOL    HW115695   4.198   3.120  13.030 -0.4178 -2.0981 -1.1487
 1411SOL    HW215696   4.181   3.062  13.153  1.2358  0.9684  1.8556
 1412SOL     OW15697   4.179   3.575   2.750 -0.3125 -0.5075 -0.1188
 1412SOL    HW115698   4.157   3.635   2.821 -3.5715 -1.5084 -0.2751
 1412SOL    HW215699   4.259   3.534   2.783 -0.2866  0.3303  0.8588
 1413SOL     OW15700   3.569   3.386   2.809 -0.0593  0.0393 -0.1646
 1413SOL    HW115701   3.596   3.478   2.810 -0.5049  0.1782 -1.0033
 1413SOL    HW215702   3.515   3.383   2.730  1.1751  2.0926 -1.0990
 1414SOL     OW15703   2.563   1.703   6.306 -0.3262  0.3729 -0.1558
 1414SOL    HW115704   2.568   1.637   6.236 -0.2278  0.5849 -0.3468
 1414SOL    HW215705   2.487   1.743   6.265 -0.0817 -0.0576 -1.0512
 1415SOL     OW15706   2.164   1.503   7.453  0.0024  0.4139 -0.1427
 1415SOL    HW115707   2.182   1.409   7.457  3.0086  1.0080  0.4600
 1415SOL    HW215708   2.134   1.509   7.544 -0.4190 -0.8491 -0.2001
 1416SOL     OW15709   3.036   4.494   8.373  0.4132  0.5899 -0.3286
 1416SOL    HW115710   3.050   4.458   8.285  0.8462 -1.5384  0.6007
 1416SOL    HW215711   3.124   4.513   8.406  0.8144  1.0159 -1.6323
 1417SOL     OW15712   0.073   1.880  17.419 -0.2902 -0.6515 -0.4300
 1417SOL    HW115713   0.141   1.903  17.483  0.2145 -1.7869 -0.5673
 1417SOL    HW215714   0.037   1.799  17.456 -2.5962 -0.6914 -2.7942
 1418SOL     OW15715   3.654   3.031   5.481  0.1478  0.0634 -0.3103
 1418SOL    HW115716   3.726   2.969   5.493  1.1874  1.5042  0.7667
 1418SOL    HW215717   3.599   3.008   5.555  0.2101  2.4163  0.4603
 1419SOL     OW15718   0.688   2.581   2.572 -0.6917  0.2036 -0.3404
 1419SOL    HW115719   0.760   2.599   2.512  3.3752 -3.4532  3.4407
 1419SOL    HW215720   0.620   2.616   2.515 -0.2685  0.2270 -0.8373
 1420SOL     OW15721   0.361   0.950   3.548  0.2407  1.0105 -0.6853
 1420SOL    HW115722   0.314   1.023   3.507  1.0780  0.4365 -2.6360
 1420SOL    HW215723   0.408   0.999   3.615 -0.7648  0.2906  0.5455
 1421SOL     OW15724   1.526   0.409  17.693  0.3470 -0.4633 -0.0243
 1421SOL    HW115725   1.528   0.491   0.042 -1.0994 -0.9114  0.7773
 1421SOL    HW215726   1.612   0.407  17.652  1.1174 -0.5112  1.5653
 1422SOL     OW15727   0.109   3.203   8.382 -0.6729 -0.1206  0.1856
 1422SOL    HW115728   0.135   3.172   8.468  2.7937  1.6166 -0.2067
 1422SOL    HW215729   0.174   3.272   8.364  0.1116 -1.0504 -0.6099
 1423SOL     OW15730   0.167   2.970   7.084  0.5433 -0.3718  0.5477
 1423SOL    HW115731   0.083   3.014   7.075  1.1151  0.7286  0.5816
 1423SOL    HW215732   0.155   2.917   7.163 -3.7227 -0.2284 -0.0311
 1424SOL     OW15733   0.169   3.285  15.927 -0.5723  0.0456 -0.2826
 1424SOL    HW115734   0.135   3.324  15.847  1.3129  2.0263 -0.1028
 1424SOL    HW215735   0.175   3.363  15.983 -0.9908  0.4543 -0.7971
 1425SOL     OW15736   3.681   3.420   5.449  0.1543  0.1482 -0.6326
 1425SOL    HW115737   3.660   3.513   5.436 -0.8115  0.3374  2.4123
 1425SOL    HW215738   3.608   3.397   5.506  0.9756  1.4013  0.9148
 1426SOL     OW15739   4.018   3.798  14.486  0.1002  0.4596  0.6042
 1426SOL    HW115740   3.940   3.794  14.431  0.8631  3.1420 -0.6682
 1426SOL    HW215741   4.084   3.844  14.435 -0.6899 -2.0980 -2.7162
 1427SOL     OW15742   2.781   2.217  15.076  0.2124  0.2702 -0.1037
 1427SOL    HW115743   2.762   2.281  15.007 -0.7511 -1.2697 -1.2810
 1427SOL    HW215744   2.806   2.279  15.144  0.2439 -2.2991  2.2167
 1428SOL     OW15745   1.724   0.469   3.410 -0.1695  0.2273 -0.3174
 1428SOL    HW115746   1.705   0.559   3.383  4.6227  1.2242 -0.4740
 1428SOL    HW215747   1.814   0.459   3.378 -0.4136  2.7236 -1.7141
 1429SOL     OW15748   3.610   1.801  12.426 -0.2216  0.6491  0.3382
 1429SOL    HW115749   3.603   1.732  12.491 -0.2445  0.6180  0.3027
 1429SOL    HW215750   3.668   1.758  12.364 -2.5499 -0.2935 -1.2094
 1430SOL     OW15751   1.816   3.159   5.936 -0.3677 -0.1657  0.2022
 1430SOL    HW115752   1.811   3.177   5.842  1.0646  1.2136  0.4006
 1430SOL    HW215753   1.768   3.076   5.937 -3.3890  1.5975 -0.7301
 1431SOL     OW15754   3.702   1.547   6.814  0.0956  0.4940 -0.3128
 1431SOL    HW115755   3.630   1.596   6.854 -0.0292  0.3301 -0.3362
 1431SOL    HW215756   3.661   1.516   6.734 -0.4480  0.3149  0.0381
 1432SOL     OW15757   0.541   3.233   5.997  0.1442 -0.0002  0.6030
 1432SOL    HW115758   0.555   3.327   5.998  1.0792 -0.1513  1.5372
 1432SOL    HW215759   0.600   3.214   5.924  0.7669  0.0723  1.0912
 1433SOL     OW15760   0.210   1.242   2.286 -0.5977 -0.4200 -0.6972
 1433SOL    HW115761   0.279   1.306   2.268  0.4127 -1.2994 -0.0207
 1433SOL    HW215762   0.262   1.180   2.339  1.5473  0.7208 -1.4634
 1434SOL     OW15763   0.871   0.135  10.272 -0.4437 -0.3503 -0.1902
 1434SOL    HW115764   0.879   0.044  10.302 -1.5422 -0.5591 -0.5125
 1434SOL    HW215765   0.886   0.117  10.179 -0.9384  1.8333 -0.6832
 1435SOL     OW15766   3.545   4.142   3.963  0.1831 -0.3927  0.2934
 1435SOL    HW115767   3.595   4.223   3.971 -0.9394  0.4434 -1.1925
 1435SOL    HW215768   3.460   4.175   3.933  1.7008  2.2726 -1.1346
 1436SOL     OW15769   0.944   0.789   3.560 -0.2500 -0.1912 -0.2851
 1436SOL    HW115770   0.851   0.765   3.560 -0.6977  1.5306 -2.7815
 1436SOL    HW215771   0.964   0.798   3.653 -1.1324  0.2436 -0.1303
 1437SOL     OW15772   1.614   3.367  17.081 -0.0775  0.3070 -0.4689
 1437SOL    HW115773   1.674   3.409  17.142 -1.6445  2.6992 -0.5756
 1437SOL    HW215774   1.546   3.434  17.077 -0.6019 -0.4390 -3.8164
 1438SOL     OW15775   1.735   1.256   5.382 -0.2100 -0.2128  0.0215
 1438SOL    HW115776   1.655   1.234   5.430  0.3527 -0.8623  0.6500
 1438SOL    HW215777   1.736   1.351   5.395  0.6745  0.0136 -1.7151
 1439SOL     OW15778   0.266   1.670   5.426  0.3789 -0.1440  0.0899
 1439SOL    HW115779   0.174   1.687   5.404  0.4911  0.5348  0.1593
 1439SOL    HW215780   0.276   1.731   5.499 -2.7222  1.9066 -1.1809
 1440SOL     OW15781   0.056   3.672  14.144  0.2199 -0.2569 -0.0494
 1440SOL    HW115782   4.689   3.662  14.165  0.2424 -1.4686 -0.4998
 1440SOL    HW215783   0.084   3.685  14.234 -0.6873  1.8465 -0.0778
 1441SOL     OW15784   3.750   0.522   8.557 -0.2520 -0.1405  0.1944
 1441SOL    HW115785   3.701   0.497   8.478  1.7759  0.5722 -1.2956
 1441SOL    HW215786   3.720   0.457   8.620 -1.1414  0.9885  0.9359
 1442SOL     OW15787   2.103   2.441   7.768 -0.8277 -0.2791  0.0478
 1442SOL    HW115788   2.107   2.535   7.754 -0.5695 -0.3410 -0.2745
 1442SOL    HW215789   2.196   2.420   7.779 -0.4461  1.6742  0.5041
 1443SOL     OW15790   0.739   3.864   3.087 -0.0133 -0.2350  0.1186
 1443SOL    HW115791   0.819   3.891   3.042 -0.3033  1.1475  0.4234
 1443SOL    HW215792   0.736   3.930   3.156 -0.6325 -0.6081  0.4490
 1444SOL     OW15793   1.040   2.589   0.082 -0.9173 -0.5287 -0.5410
 1444SOL    HW115794   1.071   2.643   0.010  1.2547  1.3468  1.8053
 1444SOL    HW215795   0.953   2.626   0.098 -0.9022 -0.0907 -1.5026
 1445SOL     OW15796   2.248   2.711  11.715 -0.0088  0.3501 -0.0285
 1445SOL    HW115797   2.253   2.633  11.660  0.8537 -0.2285  0.8665
 1445SOL    HW215798   2.209   2.672  11.794  0.3826 -1.2842 -0.6401
 1446SOL     OW15799   0.215   1.284   5.928  0.0239 -0.3586 -0.0964
 1446SOL    HW115800   0.296   1.301   5.880 -0.8519  1.6102 -0.8962
 1446SOL    HW215801   0.241   1.210   5.982 -0.2854 -0.8393 -0.6114
 1447SOL     OW15802   3.846   2.806   5.119  0.3526  0.2795 -0.3786
 1447SOL    HW115803   3.757   2.778   5.139 -0.5184  2.7158 -0.8711
 1447SOL    HW215804   3.889   2.727   5.085 -0.2781 -0.7854  1.2709
 1448SOL     OW15805   3.230   4.049   6.648  0.5199  0.1440 -1.0244
 1448SOL    HW115806   3.227   4.135   6.689  1.3185  0.1288 -0.9455
 1448SOL    HW215807   3.207   3.989   6.719 -0.1881  4.0075  2.0102
 1449SOL     OW15808   2.675   2.569   3.025 -0.5801 -0.1074 -0.2443
 1449SOL    HW115809   2.609   2.557   3.094 -0.4519 -0.6221 -0.2138
 1449SOL    HW215810   2.635   2.642   2.978 -0.2763  2.2656  3.1609
 1450SOL     OW15811   1.550   3.617  14.804 -0.1190 -0.4049 -0.3286
 1450SOL    HW115812   1.617   3.574  14.750  0.2667  1.0325 -0.9986
 1450SOL    HW215813   1.498   3.539  14.820  0.9384 -0.9021  0.6686
 1451SOL     OW15814   2.143   2.907   5.425  0.0271 -0.0616  0.3558
 1451SOL    HW115815   2.094   2.917   5.344  0.1142  1.0780  0.4343
 1451SOL    HW215816   2.099   2.974   5.478 -0.2703  0.1831 -0.2141
 1452SOL     OW15817   3.702   0.388   6.697  0.6629  0.2638 -0.1152
 1452SOL    HW115818   3.746   0.474   6.697  0.4684  0.3627 -1.4909
 1452SOL    HW215819   3.783   0.339   6.682  0.8570  0.6405 -0.3153
 1453SOL     OW15820   0.779   2.185   9.287  0.1776 -0.8934  0.0646
 1453SOL    HW115821   0.837   2.215   9.357 -0.0473 -0.5944  0.1174
 1453SOL    HW215822   0.771   2.091   9.305 -1.8039 -1.0378 -1.5094
 1454SOL     OW15823   4.493   3.956   5.894  0.0465 -0.4325  0.3607
 1454SOL    HW115824   4.566   3.922   5.946  0.8698  0.7234 -0.0404
 1454SOL    HW215825   4.528   3.968   5.806 -1.8484 -3.1251 -0.7553
 1455SOL     OW15826   3.408   3.313  12.419 -0.6242  0.4573  0.2251
 1455SOL    HW115827   3.430   3.278  12.333  2.1420  0.4306  0.9616
 1455SOL    HW215828   3.495   3.319  12.456  0.0324 -0.9239 -1.1181
 1456SOL     OW15829   1.444   4.681  17.303 -0.3915  0.3919  0.0474
 1456SOL    HW115830   1.477   4.608  17.355  2.7090  0.6633 -1.5683
 1456SOL    HW215831   1.430   0.023  17.371 -0.9720  0.7666 -0.4413
 1457SOL     OW15832   1.428   3.119   7.310 -0.1812 -0.2400  0.4443
 1457SOL    HW115833   1.334   3.137   7.305  0.3134  2.1402 -0.3775
 1457SOL    HW215834   1.451   3.134   7.401 -0.1691  2.9244 -0.1075
 1458SOL     OW15835   3.297   3.328   4.279  0.3767  0.0488 -0.7804
 1458SOL    HW115836   3.296   3.239   4.245  1.5267  0.0316 -0.7607
 1458SOL    HW215837   3.369   3.353   4.221  0.7898 -1.1496 -0.7876
 1459SOL     OW15838   2.611   1.869   3.057 -0.1987 -0.7892  0.4831
 1459SOL    HW115839   2.647   1.780   3.063  1.0664 -0.3468 -0.7466
 1459SOL    HW215840   2.666   1.907   2.989 -1.1641 -1.8441 -0.8948
 1460SOL     OW15841   0.514   3.430  16.252  0.1489  0.2695  0.6938
 1460SOL    HW115842   0.486   3.513  16.213 -0.0869 -0.2329 -0.1804
 1460SOL    HW215843   0.568   3.391  16.183  1.0089  3.2433 -0.3169
 1461SOL     OW15844   0.914   4.129   4.383  0.3373  0.2159 -0.1426
 1461SOL    HW115845   0.962   4.047   4.389  0.7708  0.4487 -0.4947
 1461SOL    HW215846   0.987   4.164   4.331  1.3419 -2.3219 -0.4165
 1462SOL     OW15847   2.065   2.653  11.909  0.3987  0.2381  0.2366
 1462SOL    HW115848   2.040   2.566  11.941  1.9036 -1.0534 -2.1403
 1462SOL    HW215849   2.027   2.712  11.974 -2.2587 -0.6917 -0.4748
 1463SOL     OW15850   0.632   4.696   3.623 -0.2327 -0.1436  0.4260
 1463SOL    HW115851   0.688   0.018   3.685  0.5456  0.1565 -0.4944
 1463SOL    HW215852   0.654   0.018   3.542 -0.6019  1.1457  1.0746
 1464SOL     OW15853   1.291   4.438  15.778  0.1440  0.0826  0.6574
 1464SOL    HW115854   1.376   4.407  15.810 -0.0252  0.5426  1.5460
 1464SOL    HW215855   1.308   4.528  15.805  0.1393 -0.3497  2.0524
 1465SOL     OW15856   1.899   1.541  13.309  0.4084  0.0769 -0.1282
 1465SOL    HW115857   1.963   1.539  13.380  0.7228  2.0438 -0.3638
 1465SOL    HW215858   1.965   1.548  13.240 -0.7781 -2.0551 -1.4940
 1466SOL     OW15859   0.957   1.337   6.032  0.5628  0.2975 -0.3851
 1466SOL    HW115860   0.962   1.257   5.979  1.0621 -0.8455  1.4024
 1466SOL    HW215861   0.953   1.293   6.117  0.5051  0.6686 -0.1974
 1467SOL     OW15862   2.125   0.523   0.685  0.6176  0.0230 -0.8233
 1467SOL    HW115863   2.094   0.471   0.611  2.3851 -0.0542 -1.5093
 1467SOL    HW215864   2.069   0.495   0.757 -0.1491 -0.1779 -1.5018
 1468SOL     OW15865   4.581   4.521   8.836  0.0723  0.3678 -0.5279
 1468SOL    HW115866   4.582   4.582   8.909 -1.4581 -1.7885  1.2885
 1468SOL    HW215867   4.489   4.510   8.810 -0.5233 -0.9562  2.1060
 1469SOL     OW15868   3.090   2.605   4.314 -0.2461  0.3193 -0.3168
 1469SOL    HW115869   3.101   2.681   4.370  3.5659 -0.3316 -0.1673
 1469SOL    HW215870   3.075   2.532   4.374  0.4640  0.5375  0.1207
 1470SOL     OW15871   1.123   1.510   6.567 -0.2266 -0.4834  0.7734
 1470SOL    HW115872   1.141   1.553   6.484 -1.7572 -0.6158  0.3652
 1470SOL    HW215873   1.154   1.425   6.537 -0.4662 -0.5267  0.6505
 1471SOL     OW15874   2.992   3.343   5.267  0.5698  0.4575 -0.1739
 1471SOL    HW115875   2.919   3.381   5.316 -1.5157 -2.4137 -1.0517
 1471SOL    HW215876   3.008   3.269   5.325 -2.3084  0.1355  0.2314
 1472SOL     OW15877   3.349   3.003  12.543  1.1934  0.1722  0.7577
 1472SOL    HW115878   3.292   3.064  12.496 -0.6337 -1.7554  0.4557
 1472SOL    HW215879   3.421   3.065  12.541  3.0028 -1.9513 -0.1969
 1473SOL     OW15880   3.108   0.477   9.345 -0.3279 -0.1069  0.2181
 1473SOL    HW115881   3.198   0.494   9.373 -1.1144  1.0859  2.0651
 1473SOL    HW215882   3.096   0.518   9.260 -0.0380 -2.0201 -0.7339
 1474SOL     OW15883   1.624   3.890   7.178 -0.0762 -0.4286  0.0879
 1474SOL    HW115884   1.543   3.933   7.150 -0.8357 -0.8092  1.6876
 1474SOL    HW215885   1.686   3.963   7.189 -0.7266  0.1238  0.0866
 1475SOL     OW15886   1.524   0.804   5.738 -0.3783  0.6114 -0.0627
 1475SOL    HW115887   1.592   0.867   5.761 -1.5597  1.6997  0.4060
 1475SOL    HW215888   1.445   0.855   5.755 -0.8684  0.0308 -0.5591
 1476SOL     OW15889   1.531   0.916   3.583  0.1147  0.2111  0.7954
 1476SOL    HW115890   1.461   0.859   3.616 -0.1297  0.0461 -0.0231
 1476SOL    HW215891   1.497   0.934   3.496  0.6055 -1.1265  0.3231
 1477SOL     OW15892   3.321   4.196   5.749 -0.5171  0.6105 -0.2085
 1477SOL    HW115893   3.298   4.162   5.836  0.7300  0.6318  0.1310
 1477SOL    HW215894   3.375   4.265   5.787 -0.6137  0.1918  0.7025
 1478SOL     OW15895   1.657   1.195   6.557  0.0219  1.1648 -0.0739
 1478SOL    HW115896   1.746   1.230   6.565  0.7358 -0.4564 -0.6647
 1478SOL    HW215897   1.603   1.273   6.566  1.3432  2.1014 -0.2586
 1479SOL     OW15898   0.831   3.204   5.061  0.0794  0.1915 -0.6642
 1479SOL    HW115899   0.818   3.235   5.151  0.4972  0.4526 -0.6926
 1479SOL    HW215900   0.757   3.245   5.017 -0.8480  0.0591  0.7769
 1480SOL     OW15901   3.245   3.432   2.100 -0.5035  0.7281 -0.3307
 1480SOL    HW115902   3.265   3.350   2.145  1.3721  1.3657  0.0038
 1480SOL    HW215903   3.151   3.419   2.092 -0.2798 -1.6060  0.8143
 1481SOL     OW15904   0.739   4.510  14.182  0.4528  0.0288  0.2859
 1481SOL    HW115905   0.739   4.594  14.227  2.0226 -0.4522  1.1785
 1481SOL    HW215906   0.829   4.507  14.150  0.6370 -0.5733  0.8396
 1482SOL     OW15907   0.756   0.291  13.240  0.2001 -0.5511 -0.0442
 1482SOL    HW115908   0.742   0.346  13.163 -0.1620 -1.3340 -0.5430
 1482SOL    HW215909   0.703   0.213  13.219  0.8683 -0.9735 -0.1523
 1483SOL     OW15910   2.966   0.694   6.721  0.4610 -0.3754 -0.2852
 1483SOL    HW115911   2.936   0.637   6.792  0.8573 -0.7932 -0.4536
 1483SOL    HW215912   2.978   0.631   6.650 -0.3000 -0.8870  0.0402
 1484SOL     OW15913   4.565   1.124   2.901 -0.3435  0.5107  0.7679
 1484SOL    HW115914   4.646   1.074   2.896 -0.1452  0.8812  0.1903
 1484SOL    HW215915   4.578   1.188   2.830  3.1727 -2.4384 -1.2710
 1485SOL     OW15916   0.003   2.278   7.519 -0.8871 -0.1164 -0.0880
 1485SOL    HW115917   4.651   2.225   7.540  0.7147 -2.1197  0.6183
 1485SOL    HW215918   0.024   2.242   7.433  2.0234  1.5881 -0.0960
 1486SOL     OW15919   0.345   4.322  13.356 -0.5434 -0.1804 -0.0757
 1486SOL    HW115920   0.328   4.409  13.320 -1.9077 -1.8245 -3.4124
 1486SOL    HW215921   0.410   4.278  13.302  0.0955  0.0138  0.5338
 1487SOL     OW15922   1.046   2.808   2.032 -0.4114  0.5703 -0.1666
 1487SOL    HW115923   1.005   2.735   2.079  0.0272  2.1812  2.7212
 1487SOL    HW215924   0.981   2.823   1.963 -1.3400  1.3132  0.8543
 1488SOL     OW15925   1.607   4.194   7.700 -0.6044 -0.5495  0.3163
 1488SOL    HW115926   1.618   4.106   7.665 -2.4400 -1.0095  0.9422
 1488SOL    HW215927   1.693   4.215   7.737 -0.0706  0.0223 -1.2023
 1489SOL     OW15928   1.353   0.997   3.014  0.5568  0.0700  0.0425
 1489SOL    HW115929   1.424   1.024   2.955  0.2255  0.0955 -0.3444
 1489SOL    HW215930   1.370   1.056   3.088 -0.6805  1.3720 -0.7174
 1490SOL     OW15931   1.094   0.037   1.750  0.2828  0.8564  0.2682
 1490SOL    HW115932   1.057   4.674   1.759  1.0611  0.3215 -1.8383
 1490SOL    HW215933   1.026   0.093   1.713 -0.6592  0.2451  1.0469
 1491SOL     OW15934   3.017   4.068   4.881 -0.3174 -0.2903  0.7863
 1491SOL    HW115935   3.042   3.986   4.923  2.3516  0.2673  0.2835
 1491SOL    HW215936   3.081   4.126   4.921  0.0703 -1.0366  1.2467
 1492SOL     OW15937   2.030   0.036   9.442 -0.0170  0.6969  0.4667
 1492SOL    HW115938   1.935   0.043   9.448 -0.3038  0.1269 -3.0707
 1492SOL    HW215939   2.055   0.099   9.508  0.7430  1.6338 -0.7202
 1493SOL     OW15940   3.377   3.708   9.046  0.1809  0.5277  0.0121
 1493SOL    HW115941   3.338   3.628   9.011 -2.3230  1.5392  0.5599
 1493SOL    HW215942   3.300   3.755   9.078 -1.9538 -2.6957 -0.4243
 1494SOL     OW15943   1.530   4.368   1.764  0.5573 -0.0880 -0.1145
 1494SOL    HW115944   1.527   4.303   1.694 -2.2601  0.3430 -0.3666
 1494SOL    HW215945   1.515   4.320   1.845  0.9901 -2.1099 -1.2389
 1495SOL     OW15946   0.008   1.503   5.619  0.5187  0.2718  0.1241
 1495SOL    HW115947   4.664   1.453   5.576 -0.2837  0.7561  0.8752
 1495SOL    HW215948   0.081   1.444   5.602 -0.4275 -0.6205 -0.8237
 1496SOL     OW15949   1.304   0.570  15.076 -0.0384  0.1320  0.0797
 1496SOL    HW115950   1.313   0.517  14.997 -1.4337  0.7715 -0.5052
 1496SOL    HW215951   1.243   0.522  15.132 -0.7230 -2.5702 -2.9611
 1497SOL     OW15952   1.675   1.539   8.511 -0.3277 -0.0409 -0.2515
 1497SOL    HW115953   1.680   1.530   8.416 -0.1827  0.5586 -0.2999
 1497SOL    HW215954   1.602   1.596   8.534  0.0927 -1.2352  4.0025
 1498SOL     OW15955   0.070   4.651  16.868 -0.0759  0.1140  0.0855
 1498SOL    HW115956   4.708   4.629  16.901  0.6561 -1.6183  0.8604
 1498SOL    HW215957   0.045   0.013  16.836  2.3360  0.9514  0.4922
 1499SOL     OW15958   4.715   0.317   3.735  0.4744  0.0202  0.3795
 1499SOL    HW115959   0.062   0.276   3.686  0.5139  0.6446 -0.0892
 1499SOL    HW215960   0.028   0.317   3.823  1.0567 -0.1580  0.1332
 1500SOL     OW15961   4.533   2.246   3.232 -0.2155  0.4085  0.0822
 1500SOL    HW115962   4.601   2.314   3.232 -1.6077  1.7900 -0.8082
 1500SOL    HW215963   4.578   2.183   3.289  0.0787  1.2675  0.8049
 1501SOL     OW15964   4.098   2.513  10.956 -0.3173 -0.0485 -0.4907
 1501SOL    HW115965   4.187   2.480  10.953 -0.2495  0.2441 -1.6917
 1501SOL    HW215966   4.059   2.459  10.887 -0.6365  0.9276 -1.0706
 1502SOL     OW15967   2.815   1.080   9.053 -0.5313 -0.0561 -0.1970
 1502SOL    HW115968   2.765   0.999   9.062  1.3090 -1.1313  0.2774
 1502SOL    HW215969   2.840   1.093   9.144  0.2729 -0.0942 -0.4103
 1503SOL     OW15970   1.180   3.004   1.164  0.7783 -0.6650 -0.6399
 1503SOL    HW115971   1.253   2.996   1.103  0.6164  0.5287 -0.9930
 1503SOL    HW215972   1.162   2.910   1.164 -0.4641 -0.4265  1.0944
 1504SOL     OW15973   3.868   3.936   7.721  0.3343  0.0545 -0.0792
 1504SOL    HW115974   3.818   4.007   7.680 -0.5919 -1.3297 -1.3711
 1504SOL    HW215975   3.840   3.937   7.813  0.8376 -0.1844  0.0738
 1505SOL     OW15976   4.102   0.025   1.078  0.2492 -0.4635 -0.0230
 1505SOL    HW115977   4.108   0.098   1.017 -1.2773  0.5566  1.0471
 1505SOL    HW215978   4.037   4.696   1.033 -0.4220  0.4533 -0.1563
 1506SOL     OW15979   3.945   2.388   4.003 -0.1002  0.3053 -0.3088
 1506SOL    HW115980   4.008   2.345   3.944 -0.9992 -1.1733 -0.1890
 1506SOL    HW215981   3.865   2.359   3.960 -0.6358  1.3936 -0.0487
 1507SOL     OW15982   2.290   0.885  16.496  0.2892  0.6279  0.1328
 1507SOL    HW115983   2.257   0.802  16.465  2.4328 -0.1130 -0.2010
 1507SOL    HW215984   2.332   0.855  16.577  0.1735  0.5853  0.1773
 1508SOL     OW15985   1.657   0.177  13.975 -0.1779  0.3117 -0.0382
 1508SOL    HW115986   1.657   0.102  14.035 -1.0151  1.0956  0.9309
 1508SOL    HW215987   1.746   0.207  13.993 -0.5500  1.9999 -0.9932
 1509SOL     OW15988   4.147   0.879   1.301 -0.0504  0.0272  0.2429
 1509SOL    HW115989   4.192   0.798   1.326 -2.2650 -0.8591  1.4224
 1509SOL    HW215990   4.134   0.854   1.209  2.9912 -0.1935 -0.1191
 1510SOL     OW15991   1.062   4.472  11.189  0.0407 -0.4717  0.1052
 1510SOL    HW115992   1.046   4.419  11.267 -0.0615  0.9546  1.0565
 1510SOL    HW215993   1.123   4.536  11.224  0.5861 -0.2014 -1.3525
 1511SOL     OW15994   3.072   2.686   6.799  0.4752 -0.2223  0.6473
 1511SOL    HW115995   3.164   2.658   6.801  0.3294 -0.7124  0.5336
 1511SOL    HW215996   3.082   2.753   6.731  1.0294 -2.1485 -1.1895
 1512SOL     OW15997   4.406   4.568  10.536 -0.3327  0.4626 -0.1299
 1512SOL    HW115998   4.459   4.568  10.456 -0.6094 -1.7679 -0.3110
 1512SOL    HW215999   4.478   4.544  10.595  1.1749  0.7320 -1.8525
 1513SOL     OW16000   2.516   3.892   4.865  0.3654  0.1312  0.1638
 1513SOL    HW116001   2.585   3.834   4.833 -1.2028 -0.2867 -2.5005
 1513SOL    HW216002   2.506   3.871   4.958 -2.9481 -0.7679 -0.3984
 1514SOL     OW16003   3.504   1.233   6.782 -0.0767  0.4510 -0.2866
 1514SOL    HW116004   3.453   1.240   6.863  0.7716 -2.1027  0.4667
 1514SOL    HW216005   3.447   1.261   6.711 -0.6387 -0.3404 -0.1383
 1515SOL     OW16006   2.915   1.420  14.272  0.0063 -0.0632 -0.4778
 1515SOL    HW116007   2.842   1.459  14.224  0.0249  1.5473  0.8044
 1515SOL    HW216008   2.927   1.346  14.213  0.1937 -0.6750  0.3256
 1516SOL     OW16009   2.127   3.019   6.561  0.0663  0.1330  0.2688
 1516SOL    HW116010   2.205   2.964   6.563  0.3591  0.5901  1.2134
 1516SOL    HW216011   2.067   2.977   6.623 -0.9181  0.1731 -0.6629
 1517SOL     OW16012   1.405   3.082   2.922  0.7051 -0.0655 -0.8902
 1517SOL    HW116013   1.433   2.992   2.941 -0.0545  0.0086  0.5838
 1517SOL    HW216014   1.470   3.135   2.968  0.6428 -0.6257 -0.1552
 1518SOL     OW16015   0.667   4.234   5.073 -0.3242 -0.0263 -0.2786
 1518SOL    HW116016   0.610   4.160   5.055 -0.4109 -0.1854  0.6671
 1518SOL    HW216017   0.620   4.280   5.143  0.5400  0.5799 -0.0951
 1519SOL     OW16018   2.224   1.467   5.967 -0.4146  0.1026  0.3856
 1519SOL    HW116019   2.141   1.514   5.956 -1.0947 -0.8902  1.3204
 1519SOL    HW216020   2.206   1.380   5.932  1.6651  1.2063 -3.5225
 1520SOL     OW16021   1.001   3.579   8.115 -0.3864  0.2282 -0.0543
 1520SOL    HW116022   0.986   3.665   8.155  0.5004 -0.2908  1.4232
 1520SOL    HW216023   1.093   3.585   8.088 -0.4794  0.0525 -0.4001
 1521SOL     OW16024   4.627   1.641   2.512 -0.4941 -0.8194 -0.3202
 1521SOL    HW116025   4.660   1.571   2.457 -3.0435 -1.4830 -0.9509
 1521SOL    HW216026   4.600   1.582   2.582  0.2156 -0.6728  0.0801
 1522SOL     OW16027   4.423   0.222   1.106  0.7372  0.7343  0.2910
 1522SOL    HW116028   4.338   0.223   1.149  1.3675 -1.3766  1.5899
 1522SOL    HW216029   4.453   0.137   1.137  0.7407  0.8635  0.6425
 1523SOL     OW16030   0.027   3.983   3.280 -0.0758 -0.0877  0.7014
 1523SOL    HW116031   0.010   3.892   3.257 -0.5128  0.3553 -0.7456
 1523SOL    HW216032   0.086   4.005   3.208 -0.4304 -1.6771 -0.0562
 1524SOL     OW16033   1.843   2.176   6.928 -0.0049 -0.7946 -0.9012
 1524SOL    HW116034   1.807   2.187   6.839 -2.9669 -0.0073  0.3815
 1524SOL    HW216035   1.926   2.220   6.941  0.2295 -1.2964 -0.6968
 1525SOL     OW16036   1.619   0.046  10.632  0.0698 -0.1086  0.2639
 1525SOL    HW116037   1.576   0.125  10.601 -1.0389 -0.6096  0.5443
 1525SOL    HW216038   1.565   0.010  10.702  0.4438 -1.2044  0.0056
 1526SOL     OW16039   1.605   3.641   2.203  0.6089  0.7344  0.1636
 1526SOL    HW116040   1.653   3.592   2.269  0.2178 -0.6140 -0.5518
 1526SOL    HW216041   1.517   3.633   2.241 -0.0134 -1.3422 -1.7139
 1527SOL     OW16042   3.383   2.456   9.270 -0.0097  0.0990  0.2634
 1527SOL    HW116043   3.299   2.428   9.305 -0.4043  0.4059 -0.4465
 1527SOL    HW216044   3.407   2.541   9.307  0.5684  0.2454 -0.4496
 1528SOL     OW16045   1.006   1.351  12.256 -0.3510  0.1253 -0.2412
 1528SOL    HW116046   0.968   1.310  12.178 -0.3715  0.2573 -0.2992
 1528SOL    HW216047   1.047   1.279  12.305 -1.5591 -0.7326 -0.4866
 1529SOL     OW16048   0.440   1.118   3.317  0.6433 -0.5117  0.0146
 1529SOL    HW116049   0.508   1.174   3.280 -2.8506  2.8813 -1.3646
 1529SOL    HW216050   0.472   1.031   3.292  2.1659  0.1872 -0.4658
 1530SOL     OW16051   1.489   2.685   4.916  0.2586 -0.0981  0.2343
 1530SOL    HW116052   1.403   2.723   4.935  1.2813  1.4139  1.8701
 1530SOL    HW216053   1.529   2.686   5.003 -0.3174  0.4403  0.4933
 1531SOL     OW16054   0.710   1.476   7.883 -0.5447  0.1164  0.4798
 1531SOL    HW116055   0.656   1.441   7.812  1.5716 -0.6127 -0.7619
 1531SOL    HW216056   0.664   1.426   7.950 -0.4877 -1.2566 -0.5028
 1532SOL     OW16057   2.413   0.207  13.922  0.2123  0.1668  0.0442
 1532SOL    HW116058   2.413   0.265  13.846 -0.2037 -1.3511 -1.1143
 1532SOL    HW216059   2.488   0.253  13.959  0.1590  0.2561  0.0438
 1533SOL     OW16060   2.229   0.995   3.406 -0.4372 -0.1249 -0.4794
 1533SOL    HW116061   2.194   0.919   3.358  1.1102  0.0973 -1.9473
 1533SOL    HW216062   2.150   1.016   3.456  1.0275  0.7088  1.4844
 1534SOL     OW16063   1.062   0.271   2.495  0.0610  0.0919 -0.2306
 1534SOL    HW116064   0.974   0.308   2.487 -0.2087 -0.8203 -1.4032
 1534SOL    HW216065   1.059   0.195   2.437  0.6446  0.5971 -0.9163
 1535SOL     OW16066   0.796   3.652  14.204  0.3153  0.1468  0.7163
 1535SOL    HW116067   0.752   3.728  14.168 -2.1920 -1.3068  0.7254
 1535SOL    HW216068   0.868   3.636  14.143 -1.8512 -1.2805 -1.4506
 1536SOL     OW16069   2.557   4.264  11.287 -0.6273 -0.3313 -1.4365
 1536SOL    HW116070   2.547   4.244  11.380 -0.5914 -0.6236 -1.4929
 1536SOL    HW216071   2.651   4.282  11.283 -0.4409 -1.0208 -0.2032
 1537SOL     OW16072   0.732   2.884  10.032  0.2029 -0.0823 -0.0779
 1537SOL    HW116073   0.742   2.920  10.121 -0.3726  1.2720 -0.5693
 1537SOL    HW216074   0.669   2.814  10.049  1.2034 -0.9503  0.0360
 1538SOL     OW16075   1.588   4.080   9.490  0.1694  0.8614 -0.4671
 1538SOL    HW116076   1.670   4.118   9.458  1.1516  1.4130  2.7325
 1538SOL    HW216077   1.550   4.058   9.405 -0.1525 -1.7445  0.3545
 1539SOL     OW16078   3.927   1.521   5.664  0.6160 -0.1140 -0.1176
 1539SOL    HW116079   3.946   1.610   5.635 -1.6217  0.0886 -0.9981
 1539SOL    HW216080   3.869   1.497   5.591 -1.2891  4.0411  0.0151
 1540SOL     OW16081   3.251   4.494   7.015 -0.0419 -0.2854  0.1376
 1540SOL    HW116082   3.157   4.478   7.019 -0.3633  1.1014 -1.8936
 1540SOL    HW216083   3.274   4.551   7.089  0.4424 -0.3723  0.0590
 1541SOL     OW16084   2.757   0.917   2.814 -0.3919 -0.2879  0.3461
 1541SOL    HW116085   2.678   0.946   2.859  1.1274  0.1078  2.7385
 1541SOL    HW216086   2.818   0.989   2.824  1.9510 -2.2241  0.0438
 1542SOL     OW16087   1.603   2.992   9.433  0.5348 -0.4423 -0.0939
 1542SOL    HW116088   1.542   3.065   9.440  0.0342 -0.7970 -0.7342
 1542SOL    HW216089   1.581   2.938   9.509  0.2613 -1.3384 -0.8097
 1543SOL     OW16090   3.707   0.108   8.037 -0.6375 -0.3100  0.3530
 1543SOL    HW116091   3.739   0.047   7.971 -0.3548 -0.2888  0.4709
 1543SOL    HW216092   3.624   0.068   8.064 -0.8231  1.6537  2.7329
 1544SOL     OW16093   1.317   3.606   5.960 -0.1960  0.3443 -0.2675
 1544SOL    HW116094   1.316   3.699   5.983  0.1017 -0.1272  1.6646
 1544SOL    HW216095   1.300   3.608   5.866 -0.9719  1.0596 -0.1135
 1545SOL     OW16096   1.828   0.479  16.771 -0.0407  0.5325 -0.4932
 1545SOL    HW116097   1.765   0.511  16.707 -1.0131  0.9051  0.6295
 1545SOL    HW216098   1.878   0.413  16.723 -0.4746  0.1663 -0.4555
 1546SOL     OW16099   1.498   1.925  13.914  0.2108 -0.4009 -0.1794
 1546SOL    HW116100   1.532   2.014  13.926 -2.0407  0.3696  0.5570
 1546SOL    HW216101   1.536   1.889  13.995 -1.8379 -1.3182  0.3656
 1547SOL     OW16102   2.960   3.212  14.798 -0.5019 -0.2594 -0.2252
 1547SOL    HW116103   2.945   3.146  14.866 -1.4179  1.4418  1.2083
 1547SOL    HW216104   3.000   3.283  14.848 -1.1438 -0.2119  0.2237
 1548SOL     OW16105   2.456   1.401   5.132  0.2076  0.0935 -0.4812
 1548SOL    HW116106   2.532   1.435   5.085 -1.2485  0.5867 -2.4783
 1548SOL    HW216107   2.509   1.368   5.205 -0.4404 -1.8888 -0.9120
 1549SOL     OW16108   2.061   2.672   6.458 -0.5073  0.3131  0.4750
 1549SOL    HW116109   2.102   2.588   6.480  0.7516  0.2780 -2.1295
 1549SOL    HW216110   2.114   2.720   6.522  0.4742  1.5100 -1.2620
 1550SOL     OW16111   2.534   4.431   5.298 -0.3179  0.4092 -0.6625
 1550SOL    HW116112   2.482   4.509   5.282 -0.2972  0.4927 -0.3254
 1550SOL    HW216113   2.559   4.416   5.207  2.6435 -1.6411  0.4878
 1551SOL     OW16114   4.096   1.777   2.007  0.4097 -0.0670 -0.1548
 1551SOL    HW116115   4.018   1.743   2.050  1.5601 -2.0414  0.3856
 1551SOL    HW216116   4.157   1.705   2.021  1.5246  0.9012 -0.0135
 1552SOL     OW16117   2.076   4.321  13.376  0.0242 -0.1749  0.0426
 1552SOL    HW116118   2.074   4.365  13.291 -0.0902  0.0248  0.1480
 1552SOL    HW216119   1.983   4.312  13.396  0.6495 -1.6079  2.3358
 1553SOL     OW16120   1.758   2.449  15.278 -0.3793  0.2326  0.2276
 1553SOL    HW116121   1.746   2.364  15.236 -1.2532  0.8880 -0.8357
 1553SOL    HW216122   1.683   2.501  15.247  0.1068  0.9936  0.3357
 1554SOL     OW16123   1.241   1.406   4.073 -0.0881 -0.4862 -0.5284
 1554SOL    HW116124   1.177   1.349   4.029 -1.6279 -0.7888  2.1193
 1554SOL    HW216125   1.226   1.493   4.037 -1.3347 -1.0223 -1.3180
 1555SOL     OW16126   0.935   2.139   8.925 -0.0644 -0.3552  0.1667
 1555SOL    HW116127   1.025   2.134   8.894  0.4499  1.6555  1.3556
 1555SOL    HW216128   0.933   2.225   8.967 -1.4971 -0.9696  1.3644
 1556SOL     OW16129   0.439   3.095   6.794 -0.8422 -0.6481 -0.2261
 1556SOL    HW116130   0.465   3.070   6.882  0.2398  0.6630 -0.1817
 1556SOL    HW216131   0.517   3.099   6.738 -1.5770  1.3866 -1.0965
 1557SOL     OW16132   1.218   3.281   1.100  0.3550 -0.0853 -0.0340
 1557SOL    HW116133   1.208   3.187   1.114  2.1609 -0.2369  0.2859
 1557SOL    HW216134   1.142   3.323   1.060  0.1710  0.2322  0.6492
 1558SOL     OW16135   4.677   4.582   2.332 -0.0485  0.7113  0.2486
 1558SOL    HW116136   4.683   4.529   2.253 -0.6702 -0.3464  0.9142
 1558SOL    HW216137   4.582   4.581   2.342  0.0162 -0.8209  0.6049
 1559SOL     OW16138   3.980   0.590   5.467  0.3708 -0.0193 -0.3576
 1559SOL    HW116139   3.964   0.670   5.417  0.1537  0.0312 -0.2108
 1559SOL    HW216140   3.887   0.581   5.489  0.8063  0.6323  1.7200
 1560SOL     OW16141   1.193   4.719   8.560 -0.1706 -0.1398  0.4126
 1560SOL    HW116142   1.254   4.667   8.508 -0.1151 -0.3064  0.6457
 1560SOL    HW216143   1.172   4.662   8.634 -1.5915 -0.0580  0.0708
 1561SOL     OW16144   1.739   0.997   4.947 -0.0456  1.1292 -0.3613
 1561SOL    HW116145   1.686   0.926   4.982  0.7681  1.2747  1.1754
 1561SOL    HW216146   1.790   1.002   5.028  0.1453  1.1626 -0.4838
 1562SOL     OW16147   4.141   4.135   5.403 -0.2661  0.0960  0.0727
 1562SOL    HW116148   4.185   4.216   5.428  1.0699 -0.1884 -1.3893
 1562SOL    HW216149   4.054   4.158   5.435 -0.5552  2.7081 -2.6024
 1563SOL     OW16150   2.485   2.746   2.884 -0.4271 -0.4653 -0.0685
 1563SOL    HW116151   2.496   2.841   2.888 -1.1780 -0.3528 -0.7341
 1563SOL    HW216152   2.463   2.745   2.791 -1.8316 -0.2076  0.2570
 1564SOL     OW16153   4.072   4.711  12.080  0.0081 -0.0817  0.2618
 1564SOL    HW116154   4.132   0.015  12.149  0.6807  2.7083 -1.5238
 1564SOL    HW216155   4.083   0.051  12.011 -0.9253  0.0347  0.2345
 1565SOL     OW16156   4.437   0.159   4.557 -0.7387 -0.0058  0.5202
 1565SOL    HW116157   4.354   0.134   4.596  0.6077 -0.2788  3.2112
 1565SOL    HW216158   4.472   0.075   4.525  0.5121  0.7153  0.0096
 1566SOL     OW16159   4.283   1.705   2.586  0.7304 -0.1585 -0.1840
 1566SOL    HW116160   4.334   1.755   2.522 -2.7027 -0.4226 -3.1643
 1566SOL    HW216161   4.301   1.760   2.662 -0.6695  0.4813 -0.3097
 1567SOL     OW16162   0.475   3.164   8.746  0.5800 -0.2751  0.1296
 1567SOL    HW116163   0.473   3.256   8.720 -0.2738 -0.4308 -0.3494
 1567SOL    HW216164   0.393   3.128   8.711  0.6681  0.1809 -0.5325
 1568SOL     OW16165   3.320   1.628   0.537 -0.3059  0.1483  0.2560
 1568SOL    HW116166   3.318   1.701   0.476 -0.4783 -0.6005 -0.6198
 1568SOL    HW216167   3.319   1.668   0.625  1.0477 -0.2403  0.4428
 1569SOL     OW16168   4.264   3.383   5.843  0.2855  0.4825  0.1415
 1569SOL    HW116169   4.271   3.463   5.790  2.7581  0.2188  0.0920
 1569SOL    HW216170   4.261   3.317   5.774  0.9488 -0.1783  0.7556
 1570SOL     OW16171   2.617   4.642   3.508 -0.8059 -0.2744  0.4149
 1570SOL    HW116172   2.608   4.704   3.581 -0.6174  1.1160 -0.7415
 1570SOL    HW216173   2.712   4.628   3.509 -0.3755  2.5051 -0.7551
 1571SOL     OW16174   2.231   3.474   7.481 -0.7481 -0.0423  0.2189
 1571SOL    HW116175   2.165   3.443   7.419 -1.3623  1.3578  0.1766
 1571SOL    HW216176   2.310   3.434   7.444 -0.6447  0.4381 -0.0650
 1572SOL     OW16177   4.485   1.561   8.241  0.0037  0.0139 -0.4943
 1572SOL    HW116178   4.445   1.608   8.167  3.5342  1.3311 -1.5793
 1572SOL    HW216179   4.411   1.521   8.286 -0.9690  0.0496 -2.0547
 1573SOL     OW16180   0.412   3.753   1.715  0.0119 -0.8862  0.1302
 1573SOL    HW116181   0.401   3.708   1.631  0.3214 -1.1325  0.2236
 1573SOL    HW216182   0.424   3.677   1.771 -0.9566 -1.7903 -0.8916
 1574SOL     OW16183   1.575   1.555   2.206  0.0188  0.8803 -0.0732
 1574SOL    HW116184   1.499   1.588   2.158 -0.6714 -0.3637  0.1651
 1574SOL    HW216185   1.621   1.501   2.142  0.0507 -1.7032  2.1424
 1575SOL     OW16186   4.352   4.648   6.428 -0.5736 -0.4842  1.0406
 1575SOL    HW116187   4.289   4.585   6.463 -1.4286  0.3596  0.9937
 1575SOL    HW216188   4.413   4.648   6.502 -1.5661  0.4372  1.8411
 1576SOL     OW16189   2.853   0.703  14.085 -0.2536  0.2867  0.3961
 1576SOL    HW116190   2.783   0.707  14.020 -0.0776  0.2409  0.2040
 1576SOL    HW216191   2.841   0.611  14.109  0.3474 -0.5099 -2.3659
 1577SOL     OW16192   4.006   0.129   3.379 -0.0201  0.2952 -0.0484
 1577SOL    HW116193   4.041   0.169   3.459 -1.3939 -0.0640  0.7419
 1577SOL    HW216194   4.049   0.181   3.312  0.5479  0.6927  0.6292
 1578SOL     OW16195   2.802   0.933   0.812  0.4173  0.0914 -0.4084
 1578SOL    HW116196   2.861   0.923   0.737  1.9163  1.0561  0.6469
 1578SOL    HW216197   2.868   0.947   0.880 -0.2114 -1.6614  0.5391
 1579SOL     OW16198   2.492   0.431   9.111  0.4238  0.2853 -0.2790
 1579SOL    HW116199   2.507   0.336   9.108 -0.3437  0.1340  0.6180
 1579SOL    HW216200   2.440   0.435   9.192  0.3710  0.7724 -0.3378
 1580SOL     OW16201   4.583   0.344  16.013 -0.2969 -0.1411 -0.0254
 1580SOL    HW116202   4.593   0.249  16.018  0.4743  0.0624  2.4490
 1580SOL    HW216203   4.541   0.349  15.927 -1.3396 -1.2514  0.4225
 1581SOL     OW16204   2.353   0.040   4.482 -0.4125 -0.3063 -0.3725
 1581SOL    HW116205   2.433   0.074   4.523 -0.1933 -1.7695  0.4365
 1581SOL    HW216206   2.295   0.089   4.541 -0.5211  2.2708 -2.6227
 1582SOL     OW16207   2.085   0.243   9.868  0.1932  0.3266 -0.2098
 1582SOL    HW116208   2.111   0.308   9.803  0.0394 -0.6025 -1.1985
 1582SOL    HW216209   2.116   0.157   9.840 -1.1139 -0.2413  0.0450
 1583SOL     OW16210   2.719   4.212   0.353 -0.5006  0.1886  0.0708
 1583SOL    HW116211   2.702   4.123   0.322 -0.1987  1.3172 -3.3563
 1583SOL    HW216212   2.792   4.196   0.412 -0.6438  1.8043  0.6926
 1584SOL     OW16213   2.870   4.719  10.833  0.0203  0.5132 -0.1221
 1584SOL    HW116214   2.880   0.087  10.812 -0.8302  1.1267  2.2315
 1584SOL    HW216215   2.833   4.673  10.758 -3.1808  1.1862  1.0212
 1585SOL     OW16216   1.080   0.734   4.087 -0.4379 -0.1325  0.0013
 1585SOL    HW116217   1.007   0.678   4.114  1.5753 -2.4682  0.5876
 1585SOL    HW216218   1.160   0.685   4.099 -0.8084 -0.6920  0.1750
 1586SOL     OW16219   3.417   2.272  12.788  0.1309 -0.1510  0.2444
 1586SOL    HW116220   3.491   2.304  12.839 -0.4426  1.5378  0.0301
 1586SOL    HW216221   3.388   2.357  12.755  1.5435  0.2610  0.0673
 1587SOL     OW16222   0.650   3.768   7.145 -0.0534  0.3405 -0.4771
 1587SOL    HW116223   0.735   3.758   7.102  0.3038  1.5350 -0.0376
 1587SOL    HW216224   0.630   3.685   7.188  1.1398 -0.1792 -0.9409
 1588SOL     OW16225   0.428   4.185  12.042 -0.5457 -0.1678  0.7400
 1588SOL    HW116226   0.388   4.154  11.960  2.2867 -1.8496  0.0083
 1588SOL    HW216227   0.382   4.269  12.049  0.1345  0.2181  0.5454
 1589SOL     OW16228   1.609   4.704   9.718  0.2562  0.6539 -0.4780
 1589SOL    HW116229   1.545   4.651   9.765  2.5404 -0.7134  1.1089
 1589SOL    HW216230   1.645   0.036   9.786  0.6882  1.3585 -1.2849
 1590SOL     OW16231   0.892   1.861  14.710 -0.0848 -0.2522  0.0650
 1590SOL    HW116232   0.953   1.852  14.637 -0.4052  1.9007 -0.4638
 1590SOL    HW216233   0.940   1.829  14.786 -1.3100 -0.4906  0.7489
 1591SOL     OW16234   3.452   1.399   3.732 -0.1360  0.1526  0.9235
 1591SOL    HW116235   3.389   1.375   3.663  0.2652 -0.6182  0.8256
 1591SOL    HW216236   3.524   1.427   3.676 -1.0242  0.4173 -0.0932
 1592SOL     OW16237   2.747   0.037   1.801 -0.0195 -0.2778 -0.4353
 1592SOL    HW116238   2.828   4.720   1.830  0.8131  1.5736 -0.0546
 1592SOL    HW216239   2.686   4.689   1.788  1.8060 -1.6258 -1.4564
 1593SOL     OW16240   0.319   2.168   4.964  0.0553 -0.6146  0.0846
 1593SOL    HW116241   0.340   2.188   4.872  0.0854 -0.8622  0.0358
 1593SOL    HW216242   0.278   2.254   4.975 -0.7796 -1.0838  0.6338
 1594SOL     OW16243   0.287   0.823   4.276 -0.1700 -0.1409  0.1175
 1594SOL    HW116244   0.340   0.876   4.334  0.1783  1.9171 -2.0896
 1594SOL    HW216245   0.297   0.729   4.293 -1.3811 -0.1431  0.8663
 1595SOL     OW16246   1.102   0.680  14.119  0.0826 -0.5025  0.0595
 1595SOL    HW116247   1.026   0.731  14.146  1.1261 -0.2661  2.5130
 1595SOL    HW216248   1.065   0.644  14.038 -0.4855 -2.4563  1.1856
 1596SOL     OW16249   2.392   0.400   1.651  0.6859 -0.2402  0.4991
 1596SOL    HW116250   2.416   0.481   1.606 -0.5347  0.0563  0.3747
 1596SOL    HW216251   2.302   0.384   1.622  0.7485 -2.6249  1.6251
 1597SOL     OW16252   3.654   3.951   4.124 -0.2051 -0.3181 -0.0874
 1597SOL    HW116253   3.615   4.032   4.090  1.3362 -0.4669 -2.2086
 1597SOL    HW216254   3.589   3.928   4.190 -0.7927 -1.1490 -0.9468
 1598SOL     OW16255   3.640   1.919   5.535 -0.1648 -0.0078  0.1915
 1598SOL    HW116256   3.723   1.875   5.553 -0.0552 -0.3679 -1.1693
 1598SOL    HW216257   3.660   2.010   5.559 -0.6666 -0.0534  0.7534
 1599SOL     OW16258   3.750   3.299   6.612 -0.1468 -0.2933  0.8542
 1599SOL    HW116259   3.670   3.348   6.590  3.2468  2.9909 -4.1041
 1599SOL    HW216260   3.785   3.296   6.523 -1.8992 -0.2978  0.1567
 1600SOL     OW16261   4.306   4.120   4.484 -0.3961  0.1681  0.0793
 1600SOL    HW116262   4.267   4.099   4.399  2.0388  0.9021 -1.2207
 1600SOL    HW216263   4.398   4.121   4.456 -0.8974  1.2222 -1.5227
 1601SOL     OW16264   3.195   3.939   4.657  0.0974  0.0145 -0.1945
 1601SOL    HW116265   3.277   3.988   4.660 -0.0504  0.2580 -0.1980
 1601SOL    HW216266   3.151   3.996   4.594  0.6956  1.3992  0.6696
 1602SOL     OW16267   3.074   3.642   9.031  0.1308  0.2758  0.3387
 1602SOL    HW116268   3.036   3.582   9.095 -0.3475 -0.2631 -0.4502
 1602SOL    HW216269   3.133   3.585   8.983  0.9868  0.8721  0.6755
 1603SOL     OW16270   0.827   0.024  14.310 -0.3262 -0.5501 -0.2097
 1603SOL    HW116271   0.913   4.715  14.334  0.1576  0.4748 -0.5087
 1603SOL    HW216272   0.784   0.044  14.393 -0.9475 -0.6856 -0.4956
 1604SOL     OW16273   1.307   1.353  17.606  0.2765 -0.6772  0.3362
 1604SOL    HW116274   1.223   1.327  17.645  0.6188 -1.3351  0.6345
 1604SOL    HW216275   1.326   1.426  17.665  0.5746  0.6039 -1.3494
 1605SOL     OW16276   2.110   3.637  13.681  0.3477 -0.3084  0.0116
 1605SOL    HW116277   2.059   3.620  13.760  0.2412  1.6025  0.3639
 1605SOL    HW216278   2.197   3.634  13.720  0.6366  1.2522 -0.5198
 1606SOL     OW16279   4.144   1.375   4.282 -0.3498  0.2855  0.0350
 1606SOL    HW116280   4.064   1.338   4.320 -1.4808  0.7011 -1.9439
 1606SOL    HW216281   4.151   1.331   4.198 -2.1841 -1.4705  0.8086
 1607SOL     OW16282   2.579   4.684   5.468 -0.8710 -0.4352  0.0624
 1607SOL    HW116283   2.648   4.672   5.534 -0.3482 -0.1512 -0.4267
 1607SOL    HW216284   2.628   4.678   5.386 -1.6634 -1.2312 -0.3429
 1608SOL     OW16285   0.210   2.447  10.221  0.3680  0.4375 -0.3719
 1608SOL    HW116286   0.171   2.518  10.271  3.1501  0.4335  1.7992
 1608SOL    HW216287   0.135   2.388  10.212  2.3087 -2.1880  0.7096
 1609SOL     OW16288   4.553   2.925   3.388 -0.0324 -0.6203  0.2654
 1609SOL    HW116289   4.609   2.987   3.435 -1.0750  0.6023 -0.1069
 1609SOL    HW216290   4.497   2.897   3.461 -0.0953  0.6609  0.7173
 1610SOL     OW16291   4.515   0.679   3.920 -0.3895  0.5264 -0.1915
 1610SOL    HW116292   4.466   0.730   3.985  1.4178  1.1722  0.6716
 1610SOL    HW216293   4.450   0.677   3.850 -1.2749 -3.4564  0.7440
 1611SOL     OW16294   1.422   4.560   3.602  0.8179  0.1291 -0.0562
 1611SOL    HW116295   1.490   4.585   3.664  1.0404 -0.8937  0.1093
 1611SOL    HW216296   1.448   4.599   3.518 -2.5289  0.1432 -1.1151
 1612SOL     OW16297   4.122   3.765   5.583 -0.2819 -0.2762 -0.0350
 1612SOL    HW116298   4.049   3.827   5.584  0.0057  0.0822 -0.9114
 1612SOL    HW216299   4.187   3.819   5.537  0.2705 -0.1598  0.8806
 1613SOL     OW16300   1.692   3.335   7.845 -0.0757 -0.4274 -0.3874
 1613SOL    HW116301   1.695   3.338   7.940 -3.1787  1.2303 -0.3181
 1613SOL    HW216302   1.645   3.415   7.821  0.0786 -0.4127 -0.6435
 1614SOL     OW16303   3.795   3.391   9.749 -0.1888  0.6348  0.2451
 1614SOL    HW116304   3.812   3.483   9.727 -0.6157  0.5422 -0.4767
 1614SOL    HW216305   3.735   3.387   9.823 -0.7186  0.6053 -0.1837
 1615SOL     OW16306   3.874   1.133   7.910 -0.0514  0.4114 -0.1139
 1615SOL    HW116307   3.782   1.141   7.936 -0.4234  1.6982 -1.8570
 1615SOL    HW216308   3.913   1.127   7.997 -0.5441  0.6893  0.1254
 1616SOL     OW16309   4.322   1.428   1.227 -0.2404  0.1551 -0.1845
 1616SOL    HW116310   4.332   1.502   1.167  0.6723 -0.1696 -0.4283
 1616SOL    HW216311   4.233   1.400   1.203  0.2764 -0.7015 -1.0745
 1617SOL     OW16312   0.101   0.287   1.092  0.0445 -0.8635 -0.4581
 1617SOL    HW116313   0.151   0.364   1.064 -0.3638 -0.3093  0.3339
 1617SOL    HW216314   0.014   0.324   1.108 -0.2524 -1.1608 -1.3885
 1618SOL     OW16315   0.510   2.419   0.882  0.5886 -0.7980 -0.1355
 1618SOL    HW116316   0.537   2.336   0.923  0.9214 -0.9232 -0.6111
 1618SOL    HW216317   0.589   2.472   0.890 -0.5652  0.6757  1.3950
 1619SOL     OW16318   1.926   3.597  13.314 -0.1206  0.0102 -0.4899
 1619SOL    HW116319   1.842   3.578  13.356 -0.3767  0.0767 -0.9670
 1619SOL    HW216320   1.891   3.628  13.230 -1.1932  0.3676  0.0893
 1620SOL     OW16321   0.092   3.749   8.502 -0.1222  0.2665  0.2347
 1620SOL    HW116322   0.175   3.746   8.549  1.4370  2.7077 -2.3336
 1620SOL    HW216323   0.061   3.659   8.513 -0.0710  0.2042 -0.1451
 1621SOL     OW16324   3.035   0.928   0.932 -0.4198  0.0479 -0.0082
 1621SOL    HW116325   3.048   0.884   1.017 -2.0126 -2.0298 -0.8228
 1621SOL    HW216326   3.119   0.971   0.919 -0.3985  1.0719  3.3931
 1622SOL     OW16327   2.261   0.102   8.353 -0.1004  0.1835 -0.5584
 1622SOL    HW116328   2.302   0.112   8.439 -2.0791 -3.7603  0.8452
 1622SOL    HW216329   2.182   0.153   8.374  0.3401 -0.1838  2.0442
 1623SOL     OW16330   1.747   4.180   6.145 -0.3213 -0.1921 -0.6071
 1623SOL    HW116331   1.837   4.209   6.133 -0.8557  1.6832 -0.0860
 1623SOL    HW216332   1.767   4.094   6.182  0.8273  0.4257  0.2239
 1624SOL     OW16333   4.412   1.695   5.209  0.3631  0.2219 -0.1176
 1624SOL    HW116334   4.411   1.742   5.292 -2.5867 -0.9066  0.4658
 1624SOL    HW216335   4.398   1.604   5.234  3.1519 -0.1874  0.0330
 1625SOL     OW16336   4.175   0.217   7.063  0.3288 -0.1979  0.2272
 1625SOL    HW116337   4.139   0.280   7.127 -2.4236 -0.9323 -0.5946
 1625SOL    HW216338   4.244   0.257   7.011  1.9384 -2.3001  0.7438
 1626SOL     OW16339   1.801   0.839  15.149 -0.1940 -0.3334  0.0259
 1626SOL    HW116340   1.729   0.779  15.170  2.4087 -2.4957  2.6578
 1626SOL    HW216341   1.746   0.908  15.111 -0.0844 -2.5688 -4.1749
 1627SOL     OW16342   3.888   0.560   2.913  0.2481  0.1525 -0.5234
 1627SOL    HW116343   3.895   0.592   2.824  0.5753  0.3952 -0.4096
 1627SOL    HW216344   3.878   0.465   2.905  0.4539 -0.2119  3.2440
 1628SOL     OW16345   4.096   1.828   8.866 -0.1867  0.0523 -0.2517
 1628SOL    HW116346   4.128   1.874   8.788 -1.6454  0.4307 -0.6255
 1628SOL    HW216347   4.058   1.745   8.837 -1.9307  0.6385  0.3438
 1629SOL     OW16348   3.883   1.145  10.265  0.5632  0.5899  0.0941
 1629SOL    HW116349   3.955   1.137  10.327 -0.3084  0.2046  1.0566
 1629SOL    HW216350   3.893   1.232  10.227  1.3583  0.8321  0.8697
 1630SOL     OW16351   4.073   1.852  10.089  0.1071 -0.2256  0.0712
 1630SOL    HW116352   4.106   1.858  10.179 -4.0552  2.2425  1.4217
 1630SOL    HW216353   4.058   1.759  10.074  4.0182 -0.8107 -0.1731
 1631SOL     OW16354   1.190   1.588   6.804 -0.9848  0.2411 -0.0972
 1631SOL    HW116355   1.156   1.564   6.718 -1.4698  2.4363 -0.5184
 1631SOL    HW216356   1.270   1.536   6.802  0.2027  2.0853 -0.0645
 1632SOL     OW16357   1.473   3.330   8.707  0.3183  0.0276  0.1062
 1632SOL    HW116358   1.495   3.237   8.703  2.5695  0.5118  1.1166
 1632SOL    HW216359   1.408   3.339   8.637  0.9056  0.3629 -0.3925
 1633SOL     OW16360   2.905   1.698   3.520 -0.1158 -0.3161  0.5540
 1633SOL    HW116361   2.932   1.735   3.603 -1.5235 -0.6073  1.1311
 1633SOL    HW216362   2.972   1.629   3.518  0.2971  0.0931  0.3455
 1634SOL     OW16363   1.298   2.182   6.933 -0.2299 -0.4326  0.1923
 1634SOL    HW116364   1.340   2.120   6.992  0.4449  0.6172  0.8200
 1634SOL    HW216365   1.366   2.248   6.919 -0.3692 -0.8425 -2.3074
 1635SOL     OW16366   3.398   3.360   1.869  0.2749  0.0805 -0.2698
 1635SOL    HW116367   3.346   3.358   1.788 -0.6238 -0.5367  0.3275
 1635SOL    HW216368   3.332   3.379   1.935  1.3730  1.6668  0.3729
 1636SOL     OW16369   0.134   1.156   8.661 -0.4034  0.7503  0.5125
 1636SOL    HW116370   0.149   1.237   8.709  0.7542  1.2126 -0.6261
 1636SOL    HW216371   0.063   1.187   8.605 -0.9549  2.2531  2.0714
 1637SOL     OW16372   4.256   4.627   5.773  0.0441 -0.1151 -0.1746
 1637SOL    HW116373   4.332   4.574   5.795 -1.2769 -2.8536 -2.1383
 1637SOL    HW216374   4.263   4.620   5.677 -1.5116 -1.3773 -0.2033
 1638SOL     OW16375   0.244   3.193   9.301 -0.5283 -0.2371 -0.1898
 1638SOL    HW116376   0.243   3.270   9.357 -1.9338 -0.7231  0.4813
 1638SOL    HW216377   0.309   3.214   9.234  0.3140  0.0072  0.7102
 1639SOL     OW16378   2.120   2.536   5.277 -1.1225  0.4575  0.0676
 1639SOL    HW116379   2.134   2.616   5.228 -1.0401 -0.4141 -1.3369
 1639SOL    HW216380   2.103   2.473   5.206 -2.5441  1.7525 -0.7418
 1640SOL     OW16381   2.488   0.843  16.718 -0.4255 -0.6843  0.0407
 1640SOL    HW116382   2.571   0.882  16.692  0.4296 -1.2256  1.9816
 1640SOL    HW216383   2.505   0.749  16.707  1.9887 -0.3659  1.1031
 1641SOL     OW16384   3.887   3.279   5.026 -0.0724 -0.3091 -0.2554
 1641SOL    HW116385   3.970   3.270   4.979  0.7504  1.1720  0.9492
 1641SOL    HW216386   3.853   3.189   5.017 -1.4635  0.1160  0.7213
 1642SOL     OW16387   2.659   4.135   4.568 -0.0421  0.1487 -0.6044
 1642SOL    HW116388   2.597   4.160   4.637  0.8101 -1.6734  0.7886
 1642SOL    HW216389   2.723   4.083   4.615 -1.4212 -1.1406 -0.1540
 1643SOL     OW16390   0.839   1.513  10.784 -0.3544 -0.1312 -0.6201
 1643SOL    HW116391   0.817   1.602  10.755  5.4722  2.2240  2.1678
 1643SOL    HW216392   0.835   1.470  10.699 -1.3506 -0.9550 -0.1624
 1644SOL     OW16393   4.394   0.238   4.297  0.5698  0.8205  0.1592
 1644SOL    HW116394   4.409   0.218   4.389 -1.8461  0.9704  0.5748
 1644SOL    HW216395   4.320   0.297   4.312  0.2692  0.2911  0.7429
 1645SOL     OW16396   1.392   0.140   6.366 -0.2148 -0.0585  0.6029
 1645SOL    HW116397   1.321   0.093   6.410 -1.9443  1.5445 -0.5061
 1645SOL    HW216398   1.346   0.197   6.305  2.0948  0.5353 -0.5987
 1646SOL     OW16399   4.154   2.285  12.813 -0.6338  0.5795  0.6579
 1646SOL    HW116400   4.073   2.240  12.837  0.1380 -0.5275  1.1995
 1646SOL    HW216401   4.119   2.374  12.802 -1.8682  0.0874  0.6543
 1647SOL     OW16402   1.282   2.704   1.951 -0.1415  0.2330  0.1789
 1647SOL    HW116403   1.189   2.729   1.956 -0.1736  0.3002 -0.6964
 1647SOL    HW216404   1.297   2.786   1.904 -1.3216  0.3155 -0.0453
 1648SOL     OW16405   1.170   0.454   4.737 -0.2516 -0.3297 -0.0381
 1648SOL    HW116406   1.145   0.536   4.779  5.2699  0.1702  2.2814
 1648SOL    HW216407   1.261   0.475   4.718  0.1880 -0.5097  1.8348
 1649SOL     OW16408   2.052   2.593   8.164  0.4901 -0.1966  0.4440
 1649SOL    HW116409   2.058   2.597   8.259  0.4060  2.5833  0.3227
 1649SOL    HW216410   2.091   2.505   8.157  1.0337  0.0453  0.3826
 1650SOL     OW16411   2.219   4.442  11.088  0.0717 -0.6025 -0.1322
 1650SOL    HW116412   2.226   4.425  11.182 -0.1516 -1.9708 -0.3531
 1650SOL    HW216413   2.313   4.449  11.073  0.0063  1.5073  0.4708
 1651SOL     OW16414   0.608   3.019  16.769  0.4949  0.0215  0.1664
 1651SOL    HW116415   0.598   3.114  16.776  0.9795  0.1908 -1.6128
 1651SOL    HW216416   0.635   3.008  16.678  1.2281 -1.5124  0.5769
 1652SOL     OW16417   1.443   4.159   4.383 -0.2482  0.3249 -0.4323
 1652SOL    HW116418   1.466   4.080   4.431 -2.6776 -0.7394 -1.0270
 1652SOL    HW216419   1.419   4.209   4.461 -0.6815  0.9984 -0.9940
 1653SOL     OW16420   0.442   3.063   8.417 -0.3703 -0.2334 -0.1471
 1653SOL    HW116421   0.392   3.068   8.498 -0.5573  1.7904 -0.4007
 1653SOL    HW216422   0.481   2.975   8.414  0.1901 -0.0417  2.0596
 1654SOL     OW16423   0.981   2.956   3.890 -0.2134 -0.1786 -0.2084
 1654SOL    HW116424   1.074   2.955   3.867  0.2043  1.0640  1.3583
 1654SOL    HW216425   0.938   2.940   3.807  0.4419 -0.8825 -0.4150
 1655SOL     OW16426   1.244   4.090   9.373 -0.1918 -0.3980  0.9670
 1655SOL    HW116427   1.161   4.042   9.371 -1.1076  1.2798 -1.4573
 1655SOL    HW216428   1.292   4.042   9.440 -0.6761 -0.6535  1.1321
 1656SOL     OW16429   0.560   4.631   1.638 -0.6319 -0.1095 -0.0911
 1656SOL    HW116430   0.504   4.670   1.571 -1.8613  0.2606  1.1583
 1656SOL    HW216431   0.500   4.571   1.681  0.2042 -2.7874 -2.6260
 1657SOL     OW16432   3.207   2.499   4.775 -0.5046  0.1457 -0.5244
 1657SOL    HW116433   3.119   2.464   4.786 -1.0104  0.8137 -2.3844
 1657SOL    HW216434   3.246   2.493   4.862 -1.1558 -2.2225 -0.3980
 1658SOL     OW16435   3.362   3.948  11.910 -0.2274  0.6798  0.4775
 1658SOL    HW116436   3.355   3.915  12.000  0.2493  2.5058  1.2016
 1658SOL    HW216437   3.329   4.038  11.920  1.9596  1.5527  0.0001
 1659SOL     OW16438   1.841   4.073   5.396 -0.0904  0.3313  0.8500
 1659SOL    HW116439   1.822   3.992   5.445 -0.4319 -0.4999 -0.6395
 1659SOL    HW216440   1.867   4.130   5.469  0.9490 -1.5048  1.9336
 1660SOL     OW16441   0.126   2.687  15.978  0.1991  0.5042 -0.3763
 1660SOL    HW116442   0.074   2.757  15.938 -2.6648 -0.7442  1.1880
 1660SOL    HW216443   0.190   2.740  16.025 -0.2078 -0.5795  1.3850
 1661SOL     OW16444   4.577   0.972   8.211  0.3361  0.2442 -0.1913
 1661SOL    HW116445   4.582   1.067   8.224 -0.7111 -0.1538  3.2009
 1661SOL    HW216446   4.483   0.959   8.224  0.7581 -0.9627  1.6179
 1662SOL     OW16447   4.222   4.351   7.587 -0.1786  0.4201 -0.0193
 1662SOL    HW116448   4.144   4.312   7.546 -0.0173 -0.0368  0.1100
 1662SOL    HW216449   4.193   4.414   7.652  0.6486 -0.7141  1.4410
 1663SOL     OW16450   1.652   2.883  11.253 -0.5059  0.1361  0.3743
 1663SOL    HW116451   1.655   2.830  11.333  0.4072  0.5382  0.6060
 1663SOL    HW216452   1.681   2.822  11.186 -0.2637  2.0532 -1.2694
 1664SOL     OW16453   2.409   3.734  14.174  1.0729  0.1043 -0.5089
 1664SOL    HW116454   2.488   3.696  14.211  0.5346  0.5595  1.0982
 1664SOL    HW216455   2.408   3.823  14.208 -0.8719  0.9007 -2.6602
 1665SOL     OW16456   4.337   4.384   3.384 -0.5074 -0.1037 -0.3971
 1665SOL    HW116457   4.346   4.478   3.396  1.2337 -0.2608 -0.5444
 1665SOL    HW216458   4.406   4.342   3.435 -1.3651 -0.0541  0.8002
 1666SOL     OW16459   3.734   3.399   2.173  0.1821  0.3430 -0.0205
 1666SOL    HW116460   3.801   3.468   2.174 -0.0309  0.5410  2.1609
 1666SOL    HW216461   3.676   3.417   2.247 -2.5678  1.2923 -2.4226
 1667SOL     OW16462   2.165   1.782   7.382 -0.5636  0.1822  0.0384
 1667SOL    HW116463   2.251   1.790   7.342  0.1287  0.3449  1.5710
 1667SOL    HW216464   2.162   1.687   7.396 -1.1818  0.2210  0.1984
 1668SOL     OW16465   2.971   2.765  12.246 -0.2427  0.3399 -0.2204
 1668SOL    HW116466   3.058   2.727  12.255 -0.3790  0.4431  1.5406
 1668SOL    HW216467   2.964   2.813  12.329  0.1794 -2.4376  1.4277
 1669SOL     OW16468   4.486   2.409   8.293 -0.5325  0.2812 -0.3833
 1669SOL    HW116469   4.482   2.376   8.383 -0.1160 -1.9841 -1.1837
 1669SOL    HW216470   4.480   2.504   8.299 -1.6340  0.1738  0.3016
 1670SOL     OW16471   4.265   1.764   0.234  0.1643 -0.9139 -0.1712
 1670SOL    HW116472   4.314   1.836   0.274  0.6258  0.4606 -3.2124
 1670SOL    HW216473   4.178   1.776   0.272  0.6251 -2.2828  1.3007
 1671SOL     OW16474   4.361   0.138   5.991  0.4592 -0.3271  0.5785
 1671SOL    HW116475   4.407   0.208   6.038 -0.1665 -1.4322  2.8837
 1671SOL    HW216476   4.322   0.181   5.916  1.7429 -1.8943 -0.9744
 1672SOL     OW16477   0.885   0.043  10.012  0.1555  0.6320 -0.2334
 1672SOL    HW116478   0.848   0.062   9.926 -1.6440  0.1843  0.4506
 1672SOL    HW216479   0.979   0.046   9.993  0.3241 -0.5005  0.4612
 1673SOL     OW16480   4.420   2.272  11.744 -0.4839  0.9944  0.2042
 1673SOL    HW116481   4.390   2.287  11.654  0.3704  1.0608 -0.0743
 1673SOL    HW216482   4.425   2.353  11.796 -0.8900  1.2035 -0.0821
 1674SOL     OW16483   1.896   3.722   4.305  0.1380 -0.4020  0.2301
 1674SOL    HW116484   1.844   3.643   4.289  0.2969 -0.3823 -0.3898
 1674SOL    HW216485   1.847   3.773   4.368 -0.0266  0.5907 -0.7119
 1675SOL     OW16486   3.579   4.496   9.610  0.0301  0.3058 -0.0244
 1675SOL    HW116487   3.542   4.445   9.538 -2.3606 -0.9300  2.0963
 1675SOL    HW216488   3.643   4.433   9.643  0.8944  1.4774  0.5346
 1676SOL     OW16489   1.556   1.703  16.401  0.3408 -0.3277  0.2040
 1676SOL    HW116490   1.526   1.709  16.311 -0.0265  1.1751  0.4346
 1676SOL    HW216491   1.474   1.700  16.451  0.6900  0.1652  0.8121
 1677SOL     OW16492   2.399   3.906   5.893  0.0946 -0.3115  1.0276
 1677SOL    HW116493   2.385   3.907   5.798 -0.3103 -1.3233  1.0727
 1677SOL    HW216494   2.478   3.959   5.892  0.7050 -1.3296 -2.6140
 1678SOL     OW16495   2.696   1.156   8.279  0.3916 -0.2764 -0.0669
 1678SOL    HW116496   2.607   1.121   8.285 -0.2482  1.4278  0.3971
 1678SOL    HW216497   2.740   1.085   8.233  0.1338  0.7200 -1.8600
 1679SOL     OW16498   3.077   1.537  17.408 -0.3532 -0.5121  0.1710
 1679SOL    HW116499   3.076   1.441  17.407  1.4614 -0.5516  2.5070
 1679SOL    HW216500   3.111   1.559  17.322  1.7984 -1.2821  0.8229
 1680SOL     OW16501   0.124   3.625  11.071  0.2494 -0.5734  0.2155
 1680SOL    HW116502   0.172   3.582  11.002 -0.7643 -2.0756  0.4526
 1680SOL    HW216503   0.136   3.567  11.146 -0.7966  0.9646  1.5993
 1681SOL     OW16504   2.896   3.751   6.938  0.1478  0.2566  0.1889
 1681SOL    HW116505   2.890   3.779   7.029 -1.9400 -0.0056  0.1383
 1681SOL    HW216506   2.910   3.830   6.885  2.2925  1.1890  2.1363
 1682SOL     OW16507   2.575   1.482   3.123  0.0644 -0.5062 -0.4361
 1682SOL    HW116508   2.652   1.539   3.128  0.0766 -0.5853  0.3002
 1682SOL    HW216509   2.593   1.410   3.184  0.6999  1.4037  1.6494
 1683SOL     OW16510   0.087   1.353   9.022  0.2119 -0.6743  0.1366
 1683SOL    HW116511   0.012   1.410   9.002  2.5851  2.2152 -0.5421
 1683SOL    HW216512   0.088   1.351   9.117  2.4598 -1.5321  0.0978
 1684SOL     OW16513   4.249   3.628   8.009 -0.1321  0.5479  0.1298
 1684SOL    HW116514   4.324   3.596   7.958 -1.8196 -0.1874 -1.8758
 1684SOL    HW216515   4.235   3.706   7.956  0.3186 -0.2285 -1.1297
 1685SOL     OW16516   2.653   3.263   7.971  0.0676 -0.3454  0.2061
 1685SOL    HW116517   2.558   3.259   7.979  0.1077  0.2400  0.9658
 1685SOL    HW216518   2.670   3.169   7.980  0.6851 -0.2489  0.0042
 1686SOL     OW16519   3.011   4.359  15.531  0.1326 -0.1737  0.0527
 1686SOL    HW116520   3.084   4.405  15.489  0.8300 -1.2809  0.0525
 1686SOL    HW216521   2.940   4.384  15.472  0.0596 -1.7678 -0.5516
 1687SOL     OW16522   2.197   0.589   8.490  0.3157  0.0074  0.5244
 1687SOL    HW116523   2.265   0.655   8.475 -1.1526  2.0657  3.0159
 1687SOL    HW216524   2.122   0.648   8.496 -0.6660 -1.1541 -0.2804
 1688SOL     OW16525   1.771   0.827   1.502  0.0033  0.0664  0.2072
 1688SOL    HW116526   1.752   0.809   1.594 -1.4133  1.4048  0.1763
 1688SOL    HW216527   1.830   0.901   1.518 -0.1430  0.6023 -1.7590
 1689SOL     OW16528   2.324   2.738   3.799  0.2169  0.1676  0.0037
 1689SOL    HW116529   2.248   2.730   3.740  0.3776 -1.0000 -0.0449
 1689SOL    HW216530   2.299   2.674   3.866  2.9669  0.1995  1.0559
 1690SOL     OW16531   1.849   2.751  15.597 -0.0496  0.1115  0.1746
 1690SOL    HW116532   1.934   2.794  15.604  0.5786 -1.0726 -0.1742
 1690SOL    HW216533   1.832   2.758  15.503  0.8370  0.2917  0.0347
 1691SOL     OW16534   1.773   0.117   1.044 -0.1059  0.3490 -0.1993
 1691SOL    HW116535   1.761   0.023   1.035 -2.0520  0.4160  1.7947
 1691SOL    HW216536   1.684   0.143   1.063  0.3277  1.7376 -0.0744
 1692SOL     OW16537   3.739   0.026   0.495 -0.3633 -1.0160  0.3554
 1692SOL    HW116538   3.801   0.038   0.567  1.0120 -0.8985 -0.8354
 1692SOL    HW216539   3.725   0.119   0.482 -0.4663 -1.2606 -1.2843
 1693SOL     OW16540   0.104   0.001   6.321  0.4352  0.4360 -0.0257
 1693SOL    HW116541   0.128   0.070   6.384 -1.4699 -0.0871  1.2660
 1693SOL    HW216542   0.015   0.025   6.295  0.9904  0.1299 -2.1906
 1694SOL     OW16543   2.993   2.274  16.009  0.6325 -0.5023 -0.5802
 1694SOL    HW116544   3.071   2.266  16.064  1.5967 -0.7495 -2.0159
 1694SOL    HW216545   3.016   2.230  15.928 -1.0953 -1.6859 -0.4505
 1695SOL     OW16546   3.433   0.328   5.671  0.3504  0.6310 -0.5469
 1695SOL    HW116547   3.366   0.346   5.737  0.4432  2.1301 -0.8704
 1695SOL    HW216548   3.377   0.351   5.597 -0.4512 -1.7323 -0.7038
 1696SOL     OW16549   1.962   2.873  11.730 -0.3191 -0.6342 -0.7750
 1696SOL    HW116550   2.022   2.803  11.756 -1.3478 -1.5875 -0.9728
 1696SOL    HW216551   1.913   2.877  11.812 -1.6715 -0.9393 -1.5778
 1697SOL     OW16552   0.792   2.547  13.990  0.4169 -0.3602  0.6744
 1697SOL    HW116553   0.705   2.581  13.968  0.5072  0.2754  1.3019
 1697SOL    HW216554   0.833   2.565  13.906 -0.4079  0.1100  0.3718
 1698SOL     OW16555   1.553   2.145   7.762  0.9262 -0.3436  0.0833
 1698SOL    HW116556   1.526   2.056   7.740 -1.3302  0.0831  1.1218
 1698SOL    HW216557   1.633   2.113   7.804  0.8033 -0.9962 -0.1857
 1699SOL     OW16558   4.591   3.668   5.584 -0.0795 -0.2377  0.1028
 1699SOL    HW116559   4.564   3.730   5.516 -1.5775 -0.4240  0.5077
 1699SOL    HW216560   4.502   3.638   5.605 -1.8066  3.5904 -1.6534
 1700SOL     OW16561   1.046   1.238   9.480  0.0210  0.0196  0.2207
 1700SOL    HW116562   1.088   1.177   9.540 -0.6972  2.1111  2.8457
 1700SOL    HW216563   1.089   1.217   9.397  1.4715 -1.0019  1.2385
 1701SOL     OW16564   4.720   3.947   6.440  0.3234 -0.3159 -0.2084
 1701SOL    HW116565   0.044   4.029   6.441 -0.8530  0.3932 -1.6209
 1701SOL    HW216566   0.016   3.924   6.530 -0.3069 -3.4672 -0.8479
 1702SOL     OW16567   3.347   1.547   6.657 -0.3379 -0.4790  0.0062
 1702SOL    HW116568   3.390   1.466   6.633 -1.8490 -0.9985 -0.9413
 1702SOL    HW216569   3.340   1.593   6.573  0.6157 -0.7350 -0.2065
 1703SOL     OW16570   2.353   1.052   7.336  0.5192 -0.0429 -0.3860
 1703SOL    HW116571   2.318   1.107   7.266  0.1150 -0.6002 -0.6229
 1703SOL    HW216572   2.377   0.972   7.289  1.4810 -0.6399  1.1130
 1704SOL     OW16573   2.790   3.407   8.873  0.3692  0.3815 -0.1334
 1704SOL    HW116574   2.753   3.398   8.962 -3.3245  0.3662 -1.6483
 1704SOL    HW216575   2.711   3.381   8.826 -0.6528  2.0637  0.6322
 1705SOL     OW16576   4.691   1.314  15.749  0.4450 -0.3776  0.3289
 1705SOL    HW116577   4.702   1.409  15.748 -0.2036 -0.2923  1.2211
 1705SOL    HW216578   0.054   1.279  15.766 -0.2517 -1.8879  0.8609
 1706SOL     OW16579   2.791   2.005   4.782  0.0216 -0.3168  0.7181
 1706SOL    HW116580   2.874   2.046   4.758 -0.1269  0.7385  2.0071
 1706SOL    HW216581   2.780   2.032   4.873 -0.5963  1.3138  0.1668
 1707SOL     OW16582   3.293   4.219   4.144 -0.1893  0.4053  0.0532
 1707SOL    HW116583   3.305   4.131   4.108 -0.3864 -0.3283  1.7771
 1707SOL    HW216584   3.334   4.203   4.229 -1.2972 -3.5468 -0.1761
 1708SOL     OW16585   1.017   0.591  16.973 -0.0716  0.7571 -0.0957
 1708SOL    HW116586   0.931   0.632  16.979 -0.8711 -1.2004  1.8160
 1708SOL    HW216587   1.009   0.534  16.896  1.9979 -0.1800  0.3826
 1709SOL     OW16588   4.374   2.280   8.518  0.1459 -0.2931 -0.2718
 1709SOL    HW116589   4.293   2.298   8.566  0.3964 -1.3469  0.5402
 1709SOL    HW216590   4.374   2.185   8.513  0.7669 -0.2271 -1.5064
 1710SOL     OW16591   3.658   3.016   3.637  0.6124 -0.4876 -0.0196
 1710SOL    HW116592   3.606   2.955   3.688  0.2158  0.0544  0.2200
 1710SOL    HW216593   3.711   2.953   3.587 -0.1931 -0.2461 -1.1754
 1711SOL     OW16594   0.718   2.405  15.890 -0.3583  0.3699  0.2079
 1711SOL    HW116595   0.791   2.370  15.939 -0.7050  0.4891  0.8092
 1711SOL    HW216596   0.690   2.476  15.948 -2.0900 -0.6269  0.5775
 1712SOL     OW16597   1.243   0.185   0.220 -0.3757  0.3865  0.4389
 1712SOL    HW116598   1.311   0.120   0.233 -0.3530  0.7015  1.8880
 1712SOL    HW216599   1.162   0.134   0.223  0.0394 -0.2164  1.1092
 1713SOL     OW16600   3.249   3.918  12.203 -0.2060 -0.4689 -0.7200
 1713SOL    HW116601   3.293   3.833  12.202 -0.9842 -0.8698 -0.3380
 1713SOL    HW216602   3.194   3.921  12.281  1.2420  0.9630  0.2500
 1714SOL     OW16603   3.127   2.216  13.585  0.3804  1.0279 -0.0969
 1714SOL    HW116604   3.139   2.172  13.669  1.7912  3.5095  0.9835
 1714SOL    HW216605   3.043   2.189  13.546  1.0708 -3.6187  1.6402
 1715SOL     OW16606   4.458   1.840   8.741  0.1818  0.7152 -0.3927
 1715SOL    HW116607   4.436   1.927   8.707 -0.3297  1.1253  0.9947
 1715SOL    HW216608   4.406   1.787   8.681  1.1976 -0.8935  0.1597
 1716SOL     OW16609   0.283   1.998   6.794 -0.0110  0.4213  0.1748
 1716SOL    HW116610   0.301   1.972   6.703 -1.1620  1.3989 -0.3286
 1716SOL    HW216611   0.302   1.919   6.844  0.3098  0.9781  0.9235
 1717SOL     OW16612   3.868   3.507   3.013  0.1836  0.0459  0.2516
 1717SOL    HW116613   3.903   3.595   3.031 -0.0154  0.1917 -0.0763
 1717SOL    HW216614   3.937   3.442   3.024 -1.8180 -2.1948 -0.3880
 1718SOL     OW16615   2.746   4.504  10.268  0.0574 -0.0101 -0.1061
 1718SOL    HW116616   2.708   4.566  10.206 -0.6505  2.0973  2.4739
 1718SOL    HW216617   2.686   4.512  10.341 -0.7764 -2.4871 -0.5071
 1719SOL     OW16618   0.473   0.195   8.131 -0.1167  0.0283 -0.1134
 1719SOL    HW116619   0.394   0.238   8.100  1.0301  0.6882 -2.1310
 1719SOL    HW216620   0.538   0.254   8.092  2.6531 -2.8212  0.1750
 1720SOL     OW16621   4.158   4.258   9.925  0.2256 -0.2516 -0.0974
 1720SOL    HW116622   4.237   4.288   9.879 -0.5685  1.3956 -0.3930
 1720SOL    HW216623   4.138   4.342   9.967  2.9121  0.1555  0.4118
 1721SOL     OW16624   0.313   0.917  12.932 -0.4589  0.2166 -0.0744
 1721SOL    HW116625   0.397   0.924  12.888  0.0598 -1.4567  0.6331
 1721SOL    HW216626   0.303   1.003  12.973 -0.2348  0.5710 -0.7678
 1722SOL     OW16627   1.019   4.081  13.116 -0.1467  0.4819 -0.1263
 1722SOL    HW116628   1.094   4.109  13.063 -0.8664 -1.1728 -2.0110
 1722SOL    HW216629   1.029   4.145  13.187  0.1562  1.3221 -0.9291
 1723SOL     OW16630   3.812   1.944   6.080  0.3732 -0.3098  0.2600
 1723SOL    HW116631   3.758   1.893   6.140 -0.8391 -0.5542 -1.0405
 1723SOL    HW216632   3.757   1.939   6.002  0.3777 -1.8318  0.3452
 1724SOL     OW16633   0.037   0.480  17.530  0.3011  0.1883 -0.3245
 1724SOL    HW116634   0.090   0.403  17.510  1.4231  0.9871 -0.3823
 1724SOL    HW216635   4.698   0.476  17.459  1.0007 -0.6507 -0.9053
 1725SOL     OW16636   3.052   3.855   5.924 -1.0199  0.5638 -0.6682
 1725SOL    HW116637   3.075   3.824   6.011 -0.4579  0.8149 -0.7205
 1725SOL    HW216638   2.957   3.846   5.921 -0.8622 -0.3921 -2.9828
 1726SOL     OW16639   1.007   0.817   8.202  0.2623  0.2356  0.0875
 1726SOL    HW116640   0.919   0.851   8.183  0.3500  0.9534  0.9581
 1726SOL    HW216641   1.028   0.865   8.282 -3.3921  0.0247  1.2042
 1727SOL     OW16642   1.892   1.856   4.684  0.2966  0.0571  0.2437
 1727SOL    HW116643   1.808   1.841   4.727 -1.6447  0.9081 -3.2444
 1727SOL    HW216644   1.866   1.889   4.598 -0.0761 -0.2610  0.2328
 1728SOL     OW16645   4.297   2.348   1.190 -0.0036 -0.8523 -0.0285
 1728SOL    HW116646   4.348   2.402   1.251  1.1730 -2.4016  0.3621
 1728SOL    HW216647   4.240   2.417   1.157 -0.2343 -1.5361 -1.0701
 1729SOL     OW16648   3.285   2.024   7.820 -0.3789  0.5545 -0.0960
 1729SOL    HW116649   3.309   1.968   7.746 -0.8330 -0.3454  0.4320
 1729SOL    HW216650   3.346   2.096   7.809 -0.0671  0.3813  0.5339
 1730SOL     OW16651   1.398   3.811   1.773  0.4103  0.3507  0.0975
 1730SOL    HW116652   1.445   3.830   1.692 -0.1230  0.3109 -0.2230
 1730SOL    HW216653   1.313   3.791   1.733 -0.8288  3.0037  1.4527
 1731SOL     OW16654   2.185   1.269   4.899  0.6443  0.2415  0.6599
 1731SOL    HW116655   2.105   1.284   4.849  1.1632 -0.5401 -0.4154
 1731SOL    HW216656   2.225   1.355   4.900 -0.5455  0.7719  2.3166
 1732SOL     OW16657   1.864   0.039  12.945  0.1610 -0.4434 -0.6319
 1732SOL    HW116658   1.819   4.705  12.884 -0.9685  0.7227 -0.9165
 1732SOL    HW216659   1.956   0.013  12.936  0.2820 -1.0599  2.5271
 1733SOL     OW16660   3.321   1.659   1.676  0.4396  0.4236 -0.4295
 1733SOL    HW116661   3.245   1.605   1.653  0.4814  0.9711 -1.8501
 1733SOL    HW216662   3.389   1.593   1.661 -0.2429 -0.6090  1.0096
 1734SOL     OW16663   0.119   2.570  10.900  0.2475  0.4714 -0.4851
 1734SOL    HW116664   0.196   2.621  10.875  0.7982 -0.9244 -1.6869
 1734SOL    HW216665   0.172   2.492  10.920 -0.9498 -0.2156  0.0060
 1735SOL     OW16666   2.071   1.188  12.417 -0.2545  0.7000 -0.3111
 1735SOL    HW116667   2.112   1.170  12.332 -2.6288 -1.4240 -1.0014
 1735SOL    HW216668   2.138   1.141  12.467 -0.7846  1.3339  1.0030
 1736SOL     OW16669   0.718   3.547   8.046 -0.2582 -0.6423  0.0626
 1736SOL    HW116670   0.717   3.638   8.017  0.0875 -0.7550 -0.3051
 1736SOL    HW216671   0.793   3.561   8.103 -0.5696 -0.6534  0.4786
 1737SOL     OW16672   0.705   4.544   4.621  0.2835  0.0660  0.1019
 1737SOL    HW116673   0.710   4.637   4.645  0.5268 -0.3041  1.5116
 1737SOL    HW216674   0.695   4.493   4.701  0.4050  1.3350  0.9329
 1738SOL     OW16675   0.860   3.181   2.287 -0.2103 -0.0913  0.4101
 1738SOL    HW116676   0.904   3.265   2.279 -2.1574  0.9615  0.8554
 1738SOL    HW216677   0.932   3.119   2.286  0.9116  1.2224  0.6836
 1739SOL     OW16678   2.554   1.032  15.396  0.2591  0.2009 -0.1223
 1739SOL    HW116679   2.464   1.061  15.382  0.1766 -0.8417 -1.7005
 1739SOL    HW216680   2.591   1.065  15.315  2.6876  0.3620  1.0596
 1740SOL     OW16681   1.370   0.837   0.584  0.1682  0.8632 -0.0176
 1740SOL    HW116682   1.380   0.931   0.570  2.5046  0.4995 -0.8427
 1740SOL    HW216683   1.309   0.827   0.657 -0.0428  0.1444 -0.2941
 1741SOL     OW16684   0.926   2.052   7.331 -0.4512  0.1095  0.2961
 1741SOL    HW116685   0.960   1.989   7.266  2.9427  2.1004  0.1257
 1741SOL    HW216686   1.004   2.093   7.368 -0.7784 -1.0323  2.2669
 1742SOL     OW16687   0.806   0.250   4.605  0.2864  0.4817 -0.1968
 1742SOL    HW116688   0.791   0.317   4.672  1.0425  0.0823  0.3733
 1742SOL    HW216689   0.851   0.302   4.538 -1.1454  2.0031  0.0160
 1743SOL     OW16690   0.187   3.671   7.608  0.2762 -0.0046 -0.4388
 1743SOL    HW116691   0.105   3.637   7.572 -0.2772  1.4578 -0.5632
 1743SOL    HW216692   0.151   3.757   7.629 -0.3384 -0.8610  2.0357
 1744SOL     OW16693   1.007   3.304   6.449  0.0256 -0.7201 -0.4594
 1744SOL    HW116694   0.946   3.339   6.384 -0.3527 -0.0075  0.2799
 1744SOL    HW216695   0.979   3.342   6.532 -1.3052  0.2293 -1.3391
 1745SOL     OW16696   3.071   3.206  16.709  0.2257  0.6856 -0.4760
 1745SOL    HW116697   3.066   3.144  16.782  0.5937 -0.5737 -1.5126
 1745SOL    HW216698   2.992   3.257  16.725 -0.5004 -1.8180  3.9012
 1746SOL     OW16699   4.391   2.428   4.678  0.2360  0.4213  0.0073
 1746SOL    HW116700   4.397   2.353   4.737 -2.7901  0.4557  0.3654
 1746SOL    HW216701   4.345   2.395   4.601  0.9831 -3.3032  1.1262
 1747SOL     OW16702   0.788   2.633   6.072  0.4118 -0.2325  0.0369
 1747SOL    HW116703   0.719   2.639   6.138 -1.0275 -0.3218 -1.4652
 1747SOL    HW216704   0.869   2.619   6.122  1.1835 -0.8746 -1.3824
 1748SOL     OW16705   0.312   2.643   4.832  0.6312  0.5462  0.7943
 1748SOL    HW116706   0.374   2.689   4.888  1.5317  0.1440  0.1092
 1748SOL    HW216707   0.370   2.583   4.786  1.3277  0.0790  2.2664
 1749SOL     OW16708   0.307   3.114   6.008 -0.3546 -0.3901  0.4247
 1749SOL    HW116709   0.276   3.155   5.927  0.9866 -2.6145 -1.1945
 1749SOL    HW216710   0.398   3.143   6.019  0.5217 -2.8862 -0.2290
 1750SOL     OW16711   3.462   2.867  12.317  0.7889  0.3628 -0.3658
 1750SOL    HW116712   3.513   2.821  12.384 -1.9610  0.2124  1.6311
 1750SOL    HW216713   3.406   2.912  12.380  1.1527 -0.0164  0.2314
 1751SOL     OW16714   1.293   2.245   7.901  0.1016 -0.1019  0.6476
 1751SOL    HW116715   1.379   2.222   7.866 -0.2760 -1.5986  0.7135
 1751SOL    HW216716   1.286   2.334   7.864  0.5526 -0.1793  0.3721
 1752SOL     OW16717   4.192   1.497  15.518 -0.3640  0.0734 -0.3073
 1752SOL    HW116718   4.103   1.492  15.483 -0.1095  0.1286 -0.9576
 1752SOL    HW216719   4.204   1.404  15.538 -0.6861  0.2434  0.6881
 1753SOL     OW16720   4.369   1.500  16.667  0.4371  0.0425  0.4353
 1753SOL    HW116721   4.283   1.460  16.683  0.6107 -0.7332 -0.5833
 1753SOL    HW216722   4.367   1.525  16.575  1.2631 -0.2521  0.3433
 1754SOL     OW16723   1.082   3.026   2.231 -0.4703 -0.2561 -0.1109
 1754SOL    HW116724   1.174   3.010   2.253 -0.3829  0.0829 -0.2161
 1754SOL    HW216725   1.078   2.954   2.168 -1.1251 -0.9880  0.7676
 1755SOL     OW16726   0.286   3.264  16.236  0.7820  0.0311  0.6306
 1755SOL    HW116727   0.347   3.338  16.241  0.9557 -0.0712 -0.0029
 1755SOL    HW216728   0.279   3.222  16.322  1.0152  0.7540  1.0111
 1756SOL     OW16729   3.755   1.791   7.779 -0.3082  0.2027  0.3594
 1756SOL    HW116730   3.828   1.775   7.718 -1.8251  0.4607 -1.4982
 1756SOL    HW216731   3.775   1.731   7.851 -0.1979  0.8690  0.8819
 1757SOL     OW16732   3.531   2.995   9.412  0.2798 -0.6979  0.5714
 1757SOL    HW116733   3.453   3.051   9.418  1.0275  0.4476 -0.4602
 1757SOL    HW216734   3.579   3.026   9.489 -0.2727 -1.0234  1.0464
 1758SOL     OW16735   4.581   4.169  11.308  0.1033 -0.5404  0.3676
 1758SOL    HW116736   4.533   4.090  11.332 -1.1083  0.1542  0.2493
 1758SOL    HW216737   4.657   4.125  11.272 -2.0970 -1.3895 -3.2121
 1759SOL     OW16738   1.207   1.627   6.345  0.7503  0.1265 -0.2054
 1759SOL    HW116739   1.175   1.589   6.263  0.0727 -0.7706  0.4780
 1759SOL    HW216740   1.208   1.719   6.317 -0.5044  0.4317  0.7814
 1760SOL     OW16741   2.749   4.276   2.299  0.3590  0.1756  0.0642
 1760SOL    HW116742   2.667   4.305   2.258  0.8882  0.9136 -0.4528
 1760SOL    HW216743   2.732   4.304   2.389  1.8229  0.4172  0.2515
 1761SOL     OW16744   2.891   1.057   2.547 -0.3106 -0.1593  0.3678
 1761SOL    HW116745   2.968   1.099   2.585 -1.0066 -0.5672  2.2244
 1761SOL    HW216746   2.919   0.967   2.531  0.3071 -0.0172  0.6528
 1762SOL     OW16747   2.571   4.475  10.465 -0.0747  0.1003 -0.1016
 1762SOL    HW116748   2.625   4.415  10.517 -1.8908 -0.8898  0.6460
 1762SOL    HW216749   2.505   4.417  10.426 -0.9192  0.4565  0.7990
 1763SOL     OW16750   3.157   0.281  16.627  0.4141  0.0308 -0.2428
 1763SOL    HW116751   3.128   0.248  16.542  0.0929 -1.2439  0.3648
 1763SOL    HW216752   3.088   0.345  16.639 -0.7264 -1.1030 -0.7609
 1764SOL     OW16753   3.163   0.659   3.987 -0.2103 -0.0352  0.2099
 1764SOL    HW116754   3.087   0.611   3.955 -0.6220  0.7865 -0.0414
 1764SOL    HW216755   3.221   0.588   4.014 -0.7067 -1.2931 -2.0181
 1765SOL     OW16756   1.908   2.817  15.023  0.1114  0.1816 -0.1263
 1765SOL    HW116757   1.849   2.772  14.963  0.6527  0.6970 -1.0535
 1765SOL    HW216758   1.994   2.813  14.980  1.3019  0.6486  2.1914
 1766SOL     OW16759   4.626   3.166   9.245  0.6140 -0.5487  0.5892
 1766SOL    HW116760   4.632   3.111   9.166 -0.1201 -2.0054  1.5408
 1766SOL    HW216761   4.663   3.110   9.314 -0.1281 -1.7412  0.0208
 1767SOL     OW16762   4.696   2.575   9.093  0.2487 -0.5791  0.4668
 1767SOL    HW116763   0.052   2.525   9.088  0.1860 -0.5119 -1.0645
 1767SOL    HW216764   4.698   2.604   9.184 -1.9882 -0.4210  0.4722
 1768SOL     OW16765   2.820   2.624  16.351  0.4982  0.2943 -0.0856
 1768SOL    HW116766   2.736   2.653  16.386 -0.3404  0.1411 -1.9437
 1768SOL    HW216767   2.864   2.646  16.433 -0.8924 -0.7489  0.9250
 1769SOL     OW16768   2.485   4.104   9.318  0.1266 -0.2245 -0.3653
 1769SOL    HW116769   2.518   4.059   9.396 -0.7228 -3.3607 -1.7996
 1769SOL    HW216770   2.508   4.195   9.333  0.1068 -0.1775 -0.6261
 1770SOL     OW16771   0.511   2.684  15.819  0.1796 -0.0389  0.0458
 1770SOL    HW116772   0.418   2.705  15.818  0.0646 -0.6073 -1.0073
 1770SOL    HW216773   0.512   2.605  15.764  0.4026 -0.0429  0.0577
 1771SOL     OW16774   2.400   1.949   5.279  0.4566  0.0620  0.1693
 1771SOL    HW116775   2.419   1.875   5.221 -1.3023 -0.3138  0.0817
 1771SOL    HW216776   2.482   1.999   5.270  0.8576 -0.9588 -1.7799
 1772SOL     OW16777   3.719   4.104   4.489 -0.0184 -0.1951  0.4978
 1772SOL    HW116778   3.791   4.137   4.435  0.6498 -0.9190  0.9501
 1772SOL    HW216779   3.656   4.174   4.472  0.9250  0.0382 -1.9039
 1773SOL     OW16780   4.687   0.482  11.307  0.2091 -0.0297  0.0374
 1773SOL    HW116781   0.038   0.454  11.358 -0.6410 -2.5876 -0.0668
 1773SOL    HW216782   4.652   0.397  11.280  0.5250 -1.0000  2.6831
 1774SOL     OW16783   3.084   3.361   2.357  0.3335 -0.5832  0.5482
 1774SOL    HW116784   3.041   3.367   2.272 -0.6947  1.8042  1.2256
 1774SOL    HW216785   3.168   3.321   2.336  0.8538  1.2378 -0.8230
 1775SOL     OW16786   2.400   1.831   5.722  0.5391 -0.3785 -0.5620
 1775SOL    HW116787   2.375   1.885   5.647  1.3503  0.3212 -0.3188
 1775SOL    HW216788   2.493   1.851   5.722  0.4469  0.0139  0.5570
 1776SOL     OW16789   3.040   1.418   3.186  0.4256  0.1544 -0.7939
 1776SOL    HW116790   2.975   1.396   3.119  0.0475  0.1363 -0.4229
 1776SOL    HW216791   2.996   1.365   3.252  2.6929  2.8227  2.8373
 1777SOL     OW16792   0.728   1.885   2.390 -0.5520 -0.4906  0.0875
 1777SOL    HW116793   0.644   1.925   2.415 -0.8191  0.7350 -2.8664
 1777SOL    HW216794   0.756   1.873   2.481  0.3240 -0.2484 -0.1573
 1778SOL     OW16795   3.080   4.619  16.659  0.1748  0.0832  0.4136
 1778SOL    HW116796   3.007   4.671  16.693  0.6435 -2.3986  5.2304
 1778SOL    HW216797   3.041   4.544  16.613  0.5717  0.5773 -0.7292
 1779SOL     OW16798   2.989   1.181  11.117  0.3267 -0.4079 -0.3253
 1779SOL    HW116799   2.947   1.142  11.194 -1.9395 -2.2531 -2.4655
 1779SOL    HW216800   2.928   1.152  11.049 -2.1765  3.0827  0.4605
 1780SOL     OW16801   3.081   1.547   8.085  0.3926 -0.0012 -0.1954
 1780SOL    HW116802   2.998   1.509   8.056 -0.4436  1.0250  0.8468
 1780SOL    HW216803   3.063   1.564   8.178 -3.3900 -0.8678 -0.7750
 1781SOL     OW16804   2.394   1.181   8.300 -0.2146 -0.0200 -0.4721
 1781SOL    HW116805   2.425   1.249   8.359 -3.3223  0.8510  0.1390
 1781SOL    HW216806   2.312   1.146   8.336 -0.4464  0.7232 -0.2721
 1782SOL     OW16807   2.840   0.647   9.259  0.6871 -0.1425  0.1541
 1782SOL    HW116808   2.763   0.624   9.207  2.0259  0.2586 -1.9866
 1782SOL    HW216809   2.813   0.612   9.344 -1.1551 -4.8171 -2.3622
 1783SOL     OW16810   2.538   4.333   2.084 -0.1327  0.7551 -0.0668
 1783SOL    HW116811   2.473   4.285   2.033 -1.9997  1.7176  1.4356
 1783SOL    HW216812   2.544   4.418   2.039  1.9105  1.4410  1.4606
 1784SOL     OW16813   3.139   4.521  15.363  0.0422  0.1492  0.0903
 1784SOL    HW116814   3.204   4.531  15.432  1.1531  0.3093 -0.9712
 1784SOL    HW216815   3.146   4.608  15.324  0.1500  1.1928  2.4688
 1785SOL     OW16816   2.672   3.819   6.664 -1.0177 -0.1042 -0.2152
 1785SOL    HW116817   2.662   3.737   6.617  2.5246 -0.5364 -0.2187
 1785SOL    HW216818   2.763   3.840   6.643 -0.6393 -0.4244  1.1498
 1786SOL     OW16819   3.723   4.056   0.290 -0.0593 -0.0400  0.2098
 1786SOL    HW116820   3.728   3.990   0.358  0.1162  0.9328  1.1503
 1786SOL    HW216821   3.796   4.118   0.296  0.3866 -0.4829 -0.7429
 1787SOL     OW16822   3.013   1.104   7.165 -0.5384  0.0175 -0.1014
 1787SOL    HW116823   3.053   1.125   7.249  1.2592 -1.7140 -0.5166
 1787SOL    HW216824   3.057   1.170   7.111 -0.0338 -0.0611  0.2155
 1788SOL     OW16825   2.190   0.758   3.884 -0.0635  0.7576  0.1493
 1788SOL    HW116826   2.156   0.698   3.817  0.3266  0.1888  0.4642
 1788SOL    HW216827   2.249   0.706   3.938 -0.2001  0.5031  0.0564
 1789SOL     OW16828   2.346   4.142  14.014 -1.1217 -0.1771  0.6984
 1789SOL    HW116829   2.361   4.051  14.038  0.7149  0.0382  0.4072
 1789SOL    HW216830   2.304   4.130  13.929  1.4105  0.7912 -0.7070
 1790SOL     OW16831   3.770   0.200   9.277 -0.0295 -0.5795  0.2112
 1790SOL    HW116832   3.795   0.149   9.200 -0.5607 -1.7697  0.8314
 1790SOL    HW216833   3.780   0.138   9.349  1.9908 -0.1257  0.3148
 1791SOL     OW16834   2.450   3.243  12.516  0.2381  0.2979  0.2548
 1791SOL    HW116835   2.426   3.295  12.440  0.3023  0.6553  0.4787
 1791SOL    HW216836   2.405   3.160  12.505  0.6253 -0.4325  4.0641
 1792SOL     OW16837   2.153   0.990   2.791 -0.0384  0.3277  0.1727
 1792SOL    HW116838   2.201   1.000   2.873  0.2705  2.2090 -0.2466
 1792SOL    HW216839   2.115   0.902   2.803 -0.1986  0.1409 -1.7913
 1793SOL     OW16840   2.652   2.896   3.179  0.2430  0.9509  0.1803
 1793SOL    HW116841   2.590   2.830   3.147  0.3144  0.7919  0.3726
 1793SOL    HW216842   2.701   2.851   3.248  1.0859  1.5663 -0.0220
 1794SOL     OW16843   0.247   4.516   1.485  0.1252  0.3441  0.0915
 1794SOL    HW116844   0.309   4.573   1.439  1.9537 -1.4073  0.3824
 1794SOL    HW216845   0.250   4.557   1.571 -2.9353 -0.3266  0.5295
 1795SOL     OW16846   0.046   4.288   1.445  0.2343 -0.0765  0.2189
 1795SOL    HW116847   4.695   4.346   1.453  0.6656  0.4444  0.5173
 1795SOL    HW216848   0.121   4.346   1.453 -0.1003  0.3613  0.1720
 1796SOL     OW16849   1.854   2.172   3.466 -0.5071 -0.2705 -0.0552
 1796SOL    HW116850   1.824   2.172   3.375 -0.7063  1.6414  0.0109
 1796SOL    HW216851   1.809   2.249   3.501  1.6461  0.0062  2.1387
 1797SOL     OW16852   3.061   2.120   7.919  0.6810  0.0122  0.0996
 1797SOL    HW116853   3.011   2.120   7.838 -1.1709 -0.4712  1.2467
 1797SOL    HW216854   3.147   2.090   7.888  1.8040  2.1970  1.0958
 1798SOL     OW16855   2.833   2.117   7.685 -0.3360 -0.1670  0.0217
 1798SOL    HW116856   2.886   2.135   7.608 -2.0646  1.0312 -0.8906
 1798SOL    HW216857   2.810   2.207   7.706 -0.1220  0.5184 -2.6838
 1799SOL     OW16858   2.624   3.361   5.386 -0.0415  0.1821  0.2690
 1799SOL    HW116859   2.581   3.361   5.300 -1.5998 -0.0285  1.0499
 1799SOL    HW216860   2.698   3.417   5.363  1.5230 -1.9500  0.1503
 1800SOL     OW16861   0.196   2.900  17.529  0.1477 -0.2229  0.1618
 1800SOL    HW116862   0.206   2.964  17.600  0.5132 -0.6258  0.4732
 1800SOL    HW216863   0.137   2.948  17.471  0.1431 -0.4148  0.0118
 1801SOL     OW16864   1.922   3.574   8.070  0.1631 -0.2767 -0.0499
 1801SOL    HW116865   1.980   3.579   8.147  1.0905  3.1749 -0.9802
 1801SOL    HW216866   1.970   3.616   7.999  0.4790 -0.6188 -0.0364
 1802SOL     OW16867   1.287   0.483   4.376 -0.9699  0.0773  0.1576
 1802SOL    HW116868   1.273   0.524   4.291  0.5186 -0.4151 -0.3315
 1802SOL    HW216869   1.219   0.416   4.373  0.6972 -1.5975 -0.9630
 1803SOL     OW16870   2.788   0.009  13.682 -0.1981 -0.2973 -0.1369
 1803SOL    HW116871   2.861   0.063  13.712  0.8301 -1.8065  0.0855
 1803SOL    HW216872   2.839   4.659  13.651  0.0742  0.2724 -1.0791
 1804SOL     OW16873   2.373   2.509   2.492  0.3001 -0.3823  0.0135
 1804SOL    HW116874   2.300   2.449   2.483  2.9734 -3.5448 -0.6086
 1804SOL    HW216875   2.400   2.522   2.401 -0.6261  0.0511 -0.1979
 1805SOL     OW16876   1.824   2.757   6.754 -0.3313  1.1215  0.3458
 1805SOL    HW116877   1.919   2.755   6.741 -0.2650 -0.3193  1.0437
 1805SOL    HW216878   1.798   2.790   6.668 -0.3192 -0.6985 -0.3372
 1806SOL     OW16879   0.107   3.864   0.120  0.5544  0.0487  0.4151
 1806SOL    HW116880   0.139   3.952   0.100  0.5747 -0.0684 -0.0851
 1806SOL    HW216881   0.138   3.850   0.209 -0.0037  0.1704  0.6288
 1807SOL     OW16882   1.217   2.267  16.938 -0.0071 -0.6912  0.0386
 1807SOL    HW116883   1.168   2.317  16.872 -2.9700 -0.6343  2.3178
 1807SOL    HW216884   1.152   2.205  16.971 -1.1125  0.4532 -0.0224
 1808SOL     OW16885   0.505   2.889   0.638  0.1481  0.0907 -0.2859
 1808SOL    HW116886   0.452   2.964   0.664  0.8752  0.7220 -0.6291
 1808SOL    HW216887   0.501   2.895   0.543 -1.2015  1.3194 -0.1374
 1809SOL     OW16888   2.961   2.023   0.496  0.0075  0.3391 -0.1209
 1809SOL    HW116889   2.959   2.074   0.577 -1.7120  0.9654 -0.5580
 1809SOL    HW216890   2.891   2.067   0.446 -0.8430  0.2813  1.0078
 1810SOL     OW16891   1.249   3.817  13.718 -0.2797 -0.4824 -0.3152
 1810SOL    HW116892   1.314   3.860  13.662 -2.1088  1.5115 -0.8991
 1810SOL    HW216893   1.240   3.850  13.807 -0.2834 -0.7310 -0.2241
 1811SOL     OW16894   0.490   0.409   8.302  0.5698 -0.0046  0.0109
 1811SOL    HW116895   0.401   0.431   8.275  0.0767 -1.1834  0.6998
 1811SOL    HW216896   0.492   0.314   8.296 -0.0597 -0.0505  0.5235
 1812SOL     OW16897   3.154   2.827   8.420 -0.2239 -0.0279  0.1075
 1812SOL    HW116898   3.147   2.732   8.407 -0.7633 -0.1200  1.1183
 1812SOL    HW216899   3.246   2.826   8.449 -0.0009 -0.7718 -0.6187
 1813SOL     OW16900   2.481   0.123  10.269  0.6015  0.5248  0.6211
 1813SOL    HW116901   2.438   0.064  10.332  0.1245  0.4366  0.2098
 1813SOL    HW216902   2.469   0.200  10.325  0.3535 -0.1241  1.4671
 1814SOL     OW16903   4.002   0.913   4.256  0.2030 -0.7531  0.3447
 1814SOL    HW116904   4.058   0.840   4.284 -0.2318 -2.2573 -2.8069
 1814SOL    HW216905   4.048   0.989   4.292 -1.4859  0.4397 -0.0511
 1815SOL     OW16906   3.289   4.647   9.202  0.2644  0.9031 -0.7219
 1815SOL    HW116907   3.375   4.607   9.202  0.5333  1.4875 -0.0194
 1815SOL    HW216908   3.290   4.698   9.121 -0.7784  2.0671  0.0004
 1816SOL     OW16909   2.560   4.032  11.903 -0.0121  0.0025  0.3343
 1816SOL    HW116910   2.598   4.088  11.835 -0.1599  0.3942  0.5712
 1816SOL    HW216911   2.538   3.950  11.859  1.1657 -1.2385  2.0321
 1817SOL     OW16912   4.541   4.568  10.282 -0.4630 -0.1739  0.0122
 1817SOL    HW116913   4.551   4.571  10.187  0.6745 -0.8549  0.1049
 1817SOL    HW216914   4.564   4.476  10.292  1.7629  0.2748 -0.8361
 1818SOL     OW16915   1.456   2.120   2.853 -0.0012 -0.3983  0.1430
 1818SOL    HW116916   1.522   2.188   2.839 -0.7748  0.2640 -0.2822
 1818SOL    HW216917   1.406   2.123   2.772 -1.0235  1.9987  0.8513
 1819SOL     OW16918   3.164   4.028   9.162  0.3117 -0.0734  0.6637
 1819SOL    HW116919   3.200   4.045   9.075  0.0395  2.6671  1.0859
 1819SOL    HW216920   3.079   4.067   9.144 -0.1328 -1.5186 -0.3087
 1820SOL     OW16921   3.656   3.938   6.870 -0.5069 -0.1594  0.2659
 1820SOL    HW116922   3.735   3.989   6.889 -0.5292 -1.5014  3.9463
 1820SOL    HW216923   3.589   3.982   6.923 -1.0520 -0.6104 -0.0554
 1821SOL     OW16924   0.995   2.652  15.523 -0.7439 -0.1283  0.2751
 1821SOL    HW116925   0.913   2.662  15.572 -0.5384 -0.4937  0.6996
 1821SOL    HW216926   1.046   2.600  15.585  1.0819  1.5662  0.2051
 1822SOL     OW16927   3.827   0.395  15.458  0.3213  0.5659  0.3533
 1822SOL    HW116928   3.825   0.490  15.448  1.8212  0.6949  1.2327
 1822SOL    HW216929   3.739   0.383  15.493  0.0475 -1.8781 -1.1705
 1823SOL     OW16930   3.206   0.032   2.912  0.3416 -0.3253  0.1957
 1823SOL    HW116931   3.205   4.720   2.824 -0.9293 -0.5043  0.2800
 1823SOL    HW216932   3.258   0.112   2.904 -0.6866  0.5743  2.4114
 1824SOL     OW16933   0.277   1.736   2.995 -0.1048  0.4590 -0.0020
 1824SOL    HW116934   0.348   1.709   2.937  0.9391 -0.3570  1.6524
 1824SOL    HW216935   0.210   1.747   2.928  2.1240  1.3337 -2.0951
 1825SOL     OW16936   1.307   3.219   8.263 -0.2045 -0.5620  0.0930
 1825SOL    HW116937   1.256   3.245   8.186  0.1100 -0.2675 -0.0149
 1825SOL    HW216938   1.377   3.161   8.232 -0.4678 -0.2990 -1.0237
 1826SOL     OW16939   4.056   1.393   3.467  0.4902  0.0577 -0.1092
 1826SOL    HW116940   4.147   1.418   3.485  0.1238  2.0109 -1.0218
 1826SOL    HW216941   4.070   1.351   3.382 -1.2059 -0.2219 -0.2474
 1827SOL     OW16942   0.222   2.200   3.849 -0.0061  0.5431 -0.1128
 1827SOL    HW116943   0.251   2.175   3.761  0.2976 -1.3083  0.5170
 1827SOL    HW216944   0.272   2.277   3.878 -0.5901  1.1879 -0.7904
 1828SOL     OW16945   1.500   1.487   2.796 -0.4924  0.6998  0.1110
 1828SOL    HW116946   1.502   1.553   2.865  0.3068  2.1443 -1.2680
 1828SOL    HW216947   1.462   1.533   2.720  1.3969  0.8795 -0.7315
 1829SOL     OW16948   2.075   4.702   4.583  0.6229 -0.1390 -0.2286
 1829SOL    HW116949   2.048   0.069   4.583  0.4824 -0.1815  0.3937
 1829SOL    HW216950   2.088   4.680   4.675 -0.2825  2.3081  0.5086
 1830SOL     OW16951   0.423   3.502   6.576 -0.1824  0.0410  0.6218
 1830SOL    HW116952   0.431   3.418   6.620  1.1345  0.1785  0.6448
 1830SOL    HW216953   0.466   3.562   6.638  1.5172 -1.2671  0.7014
 1831SOL     OW16954   4.469   3.856   0.641  0.4508 -0.1112  0.3312
 1831SOL    HW116955   4.435   3.774   0.679  0.4039 -0.7416 -1.0696
 1831SOL    HW216956   4.464   3.845   0.546  2.5560  0.0377  0.2013
 1832SOL     OW16957   1.057   4.452   5.449  0.4664 -0.4017  0.4926
 1832SOL    HW116958   1.048   4.397   5.527 -1.4753 -0.1734  0.4242
 1832SOL    HW216959   1.096   4.533   5.483  0.3080 -1.5923  3.5021
 1833SOL     OW16960   2.153   0.779   9.672 -0.2711  0.4000 -0.4986
 1833SOL    HW116961   2.209   0.817   9.605 -0.0825  0.1972 -0.4568
 1833SOL    HW216962   2.076   0.834   9.657 -0.5673 -0.2211 -1.2274
 1834SOL     OW16963   1.172   1.122  11.022  0.0999  0.2719  0.1744
 1834SOL    HW116964   1.259   1.096  10.992 -1.0799 -0.7747 -2.3106
 1834SOL    HW216965   1.144   1.032  11.043 -1.8993  0.8762  0.0796
 1835SOL     OW16966   2.857   0.481   6.866  0.5575 -0.0089  0.4468
 1835SOL    HW116967   2.832   0.407   6.921 -0.6231 -0.7960 -1.1313
 1835SOL    HW216968   2.806   0.464   6.787  1.2889  1.0435 -0.2488
 1836SOL     OW16969   3.659   2.206   7.623  0.2375 -0.2929  0.3892
 1836SOL    HW116970   3.584   2.242   7.576  0.3546 -0.7795 -0.1673
 1836SOL    HW216971   3.629   2.219   7.713  0.6099 -0.9296  0.6031
 1837SOL     OW16972   2.365   3.889   8.923 -0.1344  0.3974 -0.1854
 1837SOL    HW116973   2.388   3.916   8.834 -0.9839 -0.3911 -0.6404
 1837SOL    HW216974   2.373   3.969   8.974  2.2127 -1.2483  2.0186
 1838SOL     OW16975   2.215   1.266   5.776 -0.1429  0.4375 -0.0842
 1838SOL    HW116976   2.215   1.182   5.823  2.1933  1.2582  1.4276
 1838SOL    HW216977   2.299   1.260   5.730 -0.2000 -0.0162 -0.1317
 1839SOL     OW16978   2.346   0.919   0.855 -0.5713  0.0546  0.4306
 1839SOL    HW116979   2.389   0.979   0.915  2.0468 -2.8567  1.4530
 1839SOL    HW216980   2.402   0.842   0.859  0.5447  0.6947 -2.5019
 1840SOL     OW16981   3.576   3.136   2.722 -0.2184 -0.1457 -0.1231
 1840SOL    HW116982   3.663   3.158   2.755 -0.7910  2.6605 -0.5208
 1840SOL    HW216983   3.520   3.153   2.798  0.2451 -2.3183  0.7268
 1841SOL     OW16984   2.652   2.669   6.848  0.0700  0.3911 -0.2827
 1841SOL    HW116985   2.734   2.675   6.898 -1.1186 -2.7988  2.0564
 1841SOL    HW216986   2.613   2.587   6.878  1.6628 -0.7182 -1.2447
 1842SOL     OW16987   0.748   3.391  11.650  0.6991 -0.1108 -0.2433
 1842SOL    HW116988   0.713   3.335  11.720 -0.1431 -0.8856 -1.2921
 1842SOL    HW216989   0.732   3.471  11.700 -3.0587 -1.1452  0.2725
 1843SOL     OW16990   2.995   4.066   2.553  0.0612 -0.3133  0.2193
 1843SOL    HW116991   3.064   4.121   2.517 -0.2138  0.7715  1.3479
 1843SOL    HW216992   2.941   4.055   2.474 -0.0487  0.0231  0.2463
 1844SOL     OW16993   3.069   0.546   7.913 -0.1311  0.1141 -0.2113
 1844SOL    HW116994   3.083   0.609   7.842  2.8939 -0.1800  0.1437
 1844SOL    HW216995   3.119   0.470   7.883 -0.2067  0.9959 -2.5787
 1845SOL     OW16996   1.002   0.232  13.316  0.5444  0.2123  0.0069
 1845SOL    HW116997   0.907   0.244  13.316  0.6209  0.8434  0.6015
 1845SOL    HW216998   1.022   0.326  13.316  0.7801  0.1624  0.7796
 1846SOL     OW16999   4.369   2.966   5.422  0.4220 -0.1763 -0.2002
 1846SOL    HW117000   4.352   2.922   5.338 -1.0481  2.3120 -1.2015
 1846SOL    HW217001   4.344   3.053   5.393  0.2630 -0.2436 -0.2624
 1847SOL     OW17002   0.531   4.683   6.491 -0.3117  0.3972 -0.0567
 1847SOL    HW117003   0.453   4.661   6.441 -0.2183  0.3319 -0.1747
 1847SOL    HW217004   0.487   4.690   6.576 -0.9973 -2.7149 -0.1525
 1848SOL     OW17005   0.987   2.665  12.238  0.0089 -0.2852 -0.3541
 1848SOL    HW117006   0.987   2.587  12.182  0.8094 -0.7844  0.3338
 1848SOL    HW217007   1.076   2.701  12.229  0.1436 -0.8909 -1.4883
 1849SOL     OW17008   4.105   4.011   0.378  0.3838 -0.1983 -0.7543
 1849SOL    HW117009   4.074   4.074   0.312 -1.6489 -0.4069  0.0003
 1849SOL    HW217010   4.143   4.065   0.447 -2.8075  2.2981 -0.9563
 1850SOL     OW17011   0.979   4.307  15.900 -0.0191 -0.2406  0.2105
 1850SOL    HW117012   1.004   4.321  15.992  0.6477 -1.0752  0.1536
 1850SOL    HW217013   0.885   4.326  15.906  0.0868  0.8581 -1.7039
 1851SOL     OW17014   2.738   2.745   3.714 -0.4025 -0.3615  0.5051
 1851SOL    HW117015   2.717   2.808   3.783  2.8786 -0.4119  1.5799
 1851SOL    HW217016   2.786   2.676   3.761  2.4338 -0.6882 -2.7923
 1852SOL     OW17017   0.225   1.662   3.239 -0.1892  0.2507 -0.1799
 1852SOL    HW117018   0.236   1.667   3.145  0.6368 -0.3383 -0.1105
 1852SOL    HW217019   0.303   1.614   3.267  0.5270  1.4981 -0.0269
 1853SOL     OW17020   1.757   2.889  10.810  0.2417  0.3605 -0.0250
 1853SOL    HW117021   1.834   2.881  10.866  0.2827  1.5879  0.1049
 1853SOL    HW217022   1.711   2.966  10.844 -0.0483 -0.1214  0.6807
 1854SOL     OW17023   1.202   1.071  11.451  0.5557  0.1486  0.3519
 1854SOL    HW117024   1.244   1.010  11.391 -1.0868 -0.8584  0.2093
 1854SOL    HW217025   1.274   1.090  11.511  0.7494 -0.4500  0.3115
 1855SOL     OW17026   1.790   3.260   6.574  0.0779 -0.4035  0.0566
 1855SOL    HW117027   1.781   3.165   6.579  0.0376 -0.2883  2.0154
 1855SOL    HW217028   1.779   3.285   6.665  0.3265  1.7397 -0.4872
 1856SOL     OW17029   0.531   3.010   7.367 -0.2379 -0.9351 -0.1350
 1856SOL    HW117030   0.451   2.983   7.413  0.3962  0.8465  2.0093
 1856SOL    HW217031   0.520   2.988   7.275  0.9752 -0.4543 -0.3920
 1857SOL     OW17032   3.540   4.584   8.364 -0.5099 -0.1003  0.3005
 1857SOL    HW117033   3.457   4.568   8.319 -0.4344 -0.0865  0.1531
 1857SOL    HW217034   3.596   4.523   8.316 -0.5272  0.1824 -0.0834
 1858SOL     OW17035   4.169   0.287  11.159 -0.5805 -0.5078 -0.4520
 1858SOL    HW117036   4.256   0.292  11.199 -1.0917 -1.5337  0.7517
 1858SOL    HW217037   4.161   0.192  11.150  0.2467 -0.5011 -1.3879
 1859SOL     OW17038   1.099   1.612   5.563 -0.0296  0.4846  0.1054
 1859SOL    HW117039   1.153   1.576   5.492 -0.6519 -0.5215  0.1329
 1859SOL    HW217040   1.038   1.663   5.509 -0.5429 -1.5453 -1.2589
 1860SOL     OW17041   2.686   1.616  16.752 -0.1278  0.3005  0.3748
 1860SOL    HW117042   2.712   1.564  16.828  0.8453  1.7445  1.0301
 1860SOL    HW217043   2.754   1.684  16.755  0.5735 -0.1410 -4.5724
 1861SOL     OW17044   2.109   1.407   8.149 -0.1921 -0.1751  0.2150
 1861SOL    HW117045   2.063   1.384   8.229 -0.2944  1.1377  0.5440
 1861SOL    HW217046   2.187   1.455   8.179 -1.1204  0.8063  1.0471
 1862SOL     OW17047   2.934   1.485   2.508  0.0987  0.1751  0.2815
 1862SOL    HW117048   2.931   1.478   2.413 -0.5790 -0.0257  0.3199
 1862SOL    HW217049   2.988   1.410   2.534 -0.4637 -0.9007 -1.6594
 1863SOL     OW17050   1.271   3.611   6.908 -0.9101 -0.1440 -0.1577
 1863SOL    HW117051   1.224   3.618   6.991 -0.8778 -1.8012 -0.0058
 1863SOL    HW217052   1.260   3.517   6.900  0.9612 -0.2619 -1.2832
 1864SOL     OW17053   4.221   2.936  10.988  0.2001  0.5902  0.0619
 1864SOL    HW117054   4.155   2.872  10.962 -1.0249  1.1479  1.7794
 1864SOL    HW217055   4.164   2.993  11.039 -0.4439 -1.5958  1.8167
 1865SOL     OW17056   0.204   3.011   3.406 -0.3397  0.5960 -0.2568
 1865SOL    HW117057   0.129   3.021   3.465  0.0329  0.6586  0.2009
 1865SOL    HW217058   0.160   2.991   3.323  0.8832 -1.9529 -0.2955
 1866SOL     OW17059   2.187   0.255   0.135 -0.7664  0.1990 -0.0814
 1866SOL    HW117060   2.200   0.344   0.168 -1.1556  0.5390 -0.8469
 1866SOL    HW217061   2.268   0.217   0.169 -1.4202  0.0341  1.2889
 1867SOL     OW17062   3.300   3.725   6.616  0.3545  0.2050  0.6957
 1867SOL    HW117063   3.394   3.714   6.625  0.5776  1.1105 -0.5386
 1867SOL    HW217064   3.273   3.796   6.674 -0.4764  0.2773  0.2275
 1868SOL     OW17065   2.484   2.950   4.565  0.5102  0.2933  0.2939
 1868SOL    HW117066   2.417   3.006   4.606  0.8621 -0.0396  1.3113
 1868SOL    HW217067   2.537   2.924   4.639  0.3846 -0.7990 -0.0024
 1869SOL     OW17068   1.704   2.750   7.255  0.1359  0.2205 -0.1861
 1869SOL    HW117069   1.736   2.777   7.169 -1.1191 -2.2397 -1.4102
 1869SOL    HW217070   1.770   2.694   7.297  1.3774  0.6584 -1.5529
 1870SOL     OW17071   0.298   0.908  14.886 -0.7253  0.0149  0.0010
 1870SOL    HW117072   0.339   0.834  14.840  0.7212  1.9132 -1.7474
 1870SOL    HW217073   0.237   0.938  14.819  1.4156  1.3306 -1.3795
 1871SOL     OW17074   4.430   3.467  16.201  0.3288 -0.2855 -0.4595
 1871SOL    HW117075   4.477   3.460  16.284 -0.0715 -1.4118 -0.3163
 1871SOL    HW217076   4.491   3.531  16.165  0.6263  0.9483  2.2786
 1872SOL     OW17077   1.792   1.781   9.496 -0.2588 -0.0821  0.2708
 1872SOL    HW117078   1.728   1.746   9.434  0.5003 -1.6483  0.3754
 1872SOL    HW217079   1.867   1.804   9.440 -0.6963  2.1616  0.6081
 1873SOL     OW17080   3.827   3.279   2.559 -0.1558  0.0184 -0.0049
 1873SOL    HW117081   3.753   3.340   2.568 -0.4333 -0.0777 -1.6539
 1873SOL    HW217082   3.790   3.190   2.561  1.7508 -0.7372  1.3451
 1874SOL     OW17083   4.373   0.486   3.038  0.3309  0.3059 -0.4126
 1874SOL    HW117084   4.281   0.508   3.025 -0.5709 -2.3773  1.4742
 1874SOL    HW217085   4.409   0.456   2.955 -2.3320 -0.1497 -1.3983
 1875SOL     OW17086   1.960   3.840   1.867  0.2688 -0.7725  0.2043
 1875SOL    HW117087   2.039   3.790   1.849  1.5129  1.0585  0.5444
 1875SOL    HW217088   1.927   3.793   1.943  1.4693  1.2015  1.9393
 1876SOL     OW17089   2.234   3.020   4.698 -0.2647 -0.2826 -0.0036
 1876SOL    HW117090   2.188   2.936   4.702 -0.1220 -0.4151 -1.0438
 1876SOL    HW217091   2.239   3.048   4.789 -1.7049 -0.6831  0.1998
 1877SOL     OW17092   0.430   4.635  17.260  0.0096  0.3866 -0.0396
 1877SOL    HW117093   0.491   4.580  17.309  0.7950 -0.2583 -1.7500
 1877SOL    HW217094   0.361   4.576  17.230  1.5520 -1.5469  0.1682
 1878SOL     OW17095   3.193   1.871   6.512  0.1879 -0.2387  0.1586
 1878SOL    HW117096   3.110   1.826   6.524  0.3154 -0.5751 -0.1996
 1878SOL    HW217097   3.239   1.809   6.455 -0.5531 -0.0487 -0.6376
 1879SOL     OW17098   2.726   2.538  16.108  0.5136 -0.0327  0.2167
 1879SOL    HW117099   2.776   2.601  16.057  0.8652 -1.3789 -1.0985
 1879SOL    HW217100   2.764   2.556  16.194 -0.1891  2.1325  0.0747
 1880SOL     OW17101   1.261   1.090   9.131  0.4060  0.3702  0.2427
 1880SOL    HW117102   1.171   1.102   9.159  0.5961  2.2150  0.0822
 1880SOL    HW217103   1.275   1.005   9.172  0.3433  0.1370 -0.2191
 1881SOL     OW17104   1.526   0.281   4.639  0.3159  0.9523  0.1142
 1881SOL    HW117105   1.508   0.198   4.682  3.8162  1.2611  2.1447
 1881SOL    HW217106   1.618   0.303   4.654  0.2995  0.7505  0.5031
 1882SOL     OW17107   4.300   4.412   7.957 -0.0308 -0.3922  0.5049
 1882SOL    HW117108   4.301   4.391   8.050  0.5400 -2.4544  0.0365
 1882SOL    HW217109   4.388   4.447   7.948 -0.1237 -0.6908 -1.6299
 1883SOL     OW17110   1.313   1.942   0.677  0.0607 -0.3880 -0.6832
 1883SOL    HW117111   1.294   1.879   0.746  1.5634  1.0921  1.1066
 1883SOL    HW217112   1.248   2.010   0.694 -1.8424 -1.9385 -1.8943
 1884SOL     OW17113   3.167   2.393   6.567  0.5401 -0.2216 -0.3466
 1884SOL    HW117114   3.217   2.378   6.487 -0.1432  0.8444 -0.9583
 1884SOL    HW217115   3.108   2.318   6.577 -0.9923  0.7525 -2.2301
 1885SOL     OW17116   0.404   1.397   4.127 -0.6089 -0.1282 -0.1170
 1885SOL    HW117117   0.311   1.416   4.131 -1.0344 -2.0154 -1.2634
 1885SOL    HW217118   0.445   1.455   4.191  0.2978  1.4408 -2.1119
 1886SOL     OW17119   3.016   1.338  17.032  0.1416  0.0060  0.2905
 1886SOL    HW117120   2.938   1.287  17.053 -1.3551  1.3482 -1.9321
 1886SOL    HW217121   3.027   1.310  16.941  2.5751  1.8747  0.0009
 1887SOL     OW17122   0.039   2.819   2.616  0.3086 -0.0622 -0.2879
 1887SOL    HW117123   4.693   2.770   2.659  0.4145 -0.2382 -0.3148
 1887SOL    HW217124   0.006   2.909   2.625 -0.8686 -0.5870  0.7136
 1888SOL     OW17125   4.119   2.756   8.960 -0.1616 -0.1770  0.8465
 1888SOL    HW117126   4.069   2.785   8.883  0.2382 -0.6818  0.3986
 1888SOL    HW217127   4.199   2.718   8.923  0.4714  0.8230  1.2029
 1889SOL     OW17128   4.151   1.398   5.504  0.0771  0.3889  0.1801
 1889SOL    HW117129   4.113   1.311   5.505 -0.3590  0.5796  0.1876
 1889SOL    HW217130   4.095   1.453   5.559  0.7847  1.8606 -0.5481
 1890SOL     OW17131   0.317   1.761   4.243  0.3432  0.1225 -0.3415
 1890SOL    HW117132   0.239   1.816   4.243  0.4635  0.3041  2.0930
 1890SOL    HW217133   0.303   1.715   4.160 -1.6134 -2.7966  1.5627
 1891SOL     OW17134   1.048   3.635  12.933  0.6904 -0.0235  0.4183
 1891SOL    HW117135   1.002   3.591  13.005  2.5821  1.3134  2.4225
 1891SOL    HW217136   0.995   3.617  12.856 -1.2417 -0.6706  1.8831
 1892SOL     OW17137   0.650   4.561  12.689 -0.4445 -0.6042 -0.3797
 1892SOL    HW117138   0.602   4.625  12.636  2.1442  2.5101  1.0499
 1892SOL    HW217139   0.652   4.601  12.775  2.1861 -1.4302 -0.0632
 1893SOL     OW17140   3.351   1.236   5.970 -0.2691 -0.0431  0.1902
 1893SOL    HW117141   3.337   1.331   5.969  1.0209  0.1385 -2.0799
 1893SOL    HW217142   3.297   1.207   6.043 -0.4319  0.0365  0.1008
 1894SOL     OW17143   0.767   3.874  10.793  0.5951 -0.0628  0.0093
 1894SOL    HW117144   0.755   3.856  10.700 -2.4595  2.0917  0.0080
 1894SOL    HW217145   0.861   3.858  10.804  0.8277  1.9794  1.0003
 1895SOL     OW17146   2.612   3.483   2.880  0.0587 -0.3395 -0.6103
 1895SOL    HW117147   2.703   3.505   2.860 -0.1128  0.0857 -0.9109
 1895SOL    HW217148   2.621   3.404   2.932 -0.2910  0.0844  0.0891
 1896SOL     OW17149   2.827   0.586   8.027  0.4687  0.7278  0.3020
 1896SOL    HW117150   2.915   0.574   7.994  0.8366 -1.8584  2.1418
 1896SOL    HW217151   2.836   0.564   8.120 -2.3451  1.5120  0.7816
 1897SOL     OW17152   1.684   0.558   7.003 -0.4105  0.3629  0.6767
 1897SOL    HW117153   1.689   0.648   7.037 -0.1403  0.5517  0.1196
 1897SOL    HW217154   1.663   0.512   7.085  2.7400 -2.1575  0.0115
 1898SOL     OW17155   3.008   0.788   5.305  0.3698 -0.2221 -0.4593
 1898SOL    HW117156   2.946   0.841   5.356  1.2950  0.4092  0.0213
 1898SOL    HW217157   3.019   0.851   5.234 -0.0869  0.7565  0.3309
 1899SOL     OW17158   0.531   0.061  10.549  0.0211 -0.5245  0.7171
 1899SOL    HW117159   0.564   0.048  10.460 -1.3239 -1.8071  0.4139
 1899SOL    HW217160   0.438   0.079  10.536  0.7437  2.8661  0.3167
 1900SOL     OW17161   4.029   4.168  14.572 -0.0862  0.3256 -0.3781
 1900SOL    HW117162   4.035   4.151  14.478 -3.4128 -2.1189 -0.1510
 1900SOL    HW217163   4.122   4.162  14.594 -0.3467 -2.7246 -0.0291
 1901SOL     OW17164   3.672   4.358   7.245 -0.2168 -0.0908  0.1686
 1901SOL    HW117165   3.649   4.424   7.310 -1.4312  0.0415 -0.3948
 1901SOL    HW217166   3.606   4.380   7.179  1.6083 -0.7598 -1.8500
 1902SOL     OW17167   0.722   4.541   5.862  0.8813 -0.7839  0.8005
 1902SOL    HW117168   0.642   4.523   5.814  2.9237 -1.8850 -2.1596
 1902SOL    HW217169   0.752   4.620   5.819  0.3797  0.1191  2.1157
 1903SOL     OW17170   2.831   2.811   5.769  0.4507 -0.2739 -0.1684
 1903SOL    HW117171   2.870   2.769   5.692 -0.8917 -3.0221  0.6531
 1903SOL    HW217172   2.879   2.894   5.773  0.2366 -0.0741 -1.9309
 1904SOL     OW17173   3.587   3.488  11.429 -0.8902  0.1166  0.4486
 1904SOL    HW117174   3.618   3.411  11.476 -0.7514  0.3520  0.7409
 1904SOL    HW217175   3.499   3.463  11.403 -0.7698 -1.0168  1.1358
 1905SOL     OW17176   4.503   2.072  13.070 -0.2973 -0.2167 -0.0436
 1905SOL    HW117177   4.536   2.071  12.980 -0.9101  1.1031 -0.2820
 1905SOL    HW217178   4.466   2.161  13.071  0.0668 -0.0860  0.9159
 1906SOL     OW17179   2.573   1.337   3.379 -1.0260  0.2353 -0.8130
 1906SOL    HW117180   2.638   1.365   3.442  0.8627  2.0387 -3.5755
 1906SOL    HW217181   2.541   1.256   3.420 -1.1462  0.4369 -0.5133
 1907SOL     OW17182   1.889   0.986   8.224  0.0294 -0.3165 -0.2695
 1907SOL    HW117183   1.901   1.020   8.312  0.5878 -3.0159  0.7058
 1907SOL    HW217184   1.810   1.024   8.185  0.0366  2.3613  2.3790
 1908SOL     OW17185   4.327   0.493   0.917 -0.0522 -0.1944  0.5824
 1908SOL    HW117186   4.371   0.577   0.931 -0.3960  0.1935 -0.6848
 1908SOL    HW217187   4.350   0.485   0.825 -0.7832 -1.3506  0.4990
 1909SOL     OW17188   1.677   3.713   9.959  0.1595  0.7069 -0.4296
 1909SOL    HW117189   1.620   3.730  10.034 -0.7579 -0.0512 -0.9511
 1909SOL    HW217190   1.757   3.686  10.005  1.3585  1.7529 -1.9224
 1910SOL     OW17191   0.966   4.181   5.135 -0.0898 -0.3696 -0.4809
 1910SOL    HW117192   0.889   4.234   5.113 -1.5031 -1.1265  2.6653
 1910SOL    HW217193   0.990   4.142   5.051  2.8950 -0.3394  0.3600
 1911SOL     OW17194   2.081   4.003  11.349  0.2321  0.5733 -0.1236
 1911SOL    HW117195   2.036   4.088  11.351 -1.0529 -0.0988 -0.7377
 1911SOL    HW217196   2.161   4.024  11.301 -0.3985  1.5865 -0.7368
 1912SOL     OW17197   4.354   3.238   6.275  0.7721  0.7506  0.2033
 1912SOL    HW117198   4.429   3.223   6.217 -0.0860 -3.8225  0.2552
 1912SOL    HW217199   4.289   3.264   6.210  0.8357 -1.1884 -0.6416
 1913SOL     OW17200   2.435   0.221   3.472  0.3115 -0.0979 -0.5193
 1913SOL    HW117201   2.413   0.276   3.548 -0.0497 -0.6798 -0.2023
 1913SOL    HW217202   2.525   0.248   3.457 -0.8222  3.2094 -1.6165
 1914SOL     OW17203   2.628   3.193   4.221 -0.4374 -0.3477 -0.1409
 1914SOL    HW117204   2.536   3.219   4.218 -0.2269  0.3512 -0.6045
 1914SOL    HW217205   2.637   3.119   4.161  0.4737  0.0876 -0.5492
 1915SOL     OW17206   0.382   3.231   7.938  0.6063 -0.2457  0.0044
 1915SOL    HW117207   0.363   3.295   8.008  1.0517  0.7297 -0.7772
 1915SOL    HW217208   0.464   3.192   7.967  1.4616  2.4562  1.2779
 1916SOL     OW17209   0.327   1.836   3.440  0.1396  0.2615 -0.1324
 1916SOL    HW117210   0.403   1.783   3.461 -1.8460 -2.1320  1.0194
 1916SOL    HW217211   0.283   1.792   3.368  0.0488 -0.6942  0.5111
 1917SOL     OW17212   4.187   1.948  12.845  0.7329  0.0798 -0.6063
 1917SOL    HW117213   4.184   1.866  12.796 -1.6734  0.0138 -0.3854
 1917SOL    HW217214   4.204   2.019  12.783  0.4847 -1.0369 -1.9518
 1918SOL     OW17215   3.833   3.634   6.328 -0.0890 -0.5447  0.3894
 1918SOL    HW117216   3.828   3.602   6.238  1.0610 -1.6318  0.7167
 1918SOL    HW217217   3.801   3.723   6.311  1.0472 -0.4289 -1.2342
 1919SOL     OW17218   2.680   0.029  12.352 -0.1561  0.4078 -0.5568
 1919SOL    HW117219   2.650   0.103  12.301  0.7601  1.6398  0.6994
 1919SOL    HW217220   2.705   0.063  12.438 -0.0748 -1.5894  0.2229
 1920SOL     OW17221   1.596   2.787   3.577 -0.5414 -0.0425 -0.0668
 1920SOL    HW117222   1.502   2.774   3.591 -0.1174 -0.7555  2.1345
 1920SOL    HW217223   1.623   2.802   3.668  0.0276  0.9677 -0.4084
 1921SOL     OW17224   1.657   4.656   2.452  0.3527 -0.1109  0.0346
 1921SOL    HW117225   1.738   4.706   2.442 -0.3916  0.8162 -1.4439
 1921SOL    HW217226   1.604   4.683   2.377  0.0666 -0.9840 -0.0850
 1922SOL     OW17227   2.133   3.465   4.518  0.2254  0.0104 -0.0194
 1922SOL    HW117228   2.140   3.558   4.496  1.1130 -0.3569 -1.2972
 1922SOL    HW217229   2.209   3.430   4.472  0.4547  0.1301  0.2786
 1923SOL     OW17230   1.610   1.054   3.839 -0.1408  0.3714  0.5779
 1923SOL    HW117231   1.704   1.063   3.821  0.1733 -0.5905  1.7674
 1923SOL    HW217232   1.599   1.107   3.918 -2.0106  0.2789  0.3773
 1924SOL     OW17233   0.967   1.212   3.251 -0.4672  0.4383 -0.0867
 1924SOL    HW117234   0.905   1.281   3.276  0.1014  0.5597  1.0105
 1924SOL    HW217235   0.991   1.175   3.335 -0.6390  0.7471  0.1026
 1925SOL     OW17236   1.352   0.694   5.980  0.6234 -1.0995  0.0536
 1925SOL    HW117237   1.315   0.744   5.907 -2.3129  0.3306  2.4936
 1925SOL    HW217238   1.280   0.707   6.042  1.2931  2.5183  0.0688
 1926SOL     OW17239   0.780   0.401   9.932 -0.0806 -0.1476  0.3100
 1926SOL    HW117240   0.773   0.313   9.894  1.4443  0.3236 -1.0477
 1926SOL    HW217241   0.737   0.460   9.871  1.3178  0.8064  0.2583
 1927SOL     OW17242   2.818   4.307   0.060 -0.2002 -0.0316  0.3870
 1927SOL    HW117243   2.748   4.274   0.116 -1.0432 -0.4709 -0.9301
 1927SOL    HW217244   2.872   4.230   0.041 -1.0599 -0.4631 -0.3506
 1928SOL     OW17245   3.000   4.371   5.012  0.8711  0.2413  0.1263
 1928SOL    HW117246   2.933   4.416   4.961 -0.1114  0.0777  1.2610
 1928SOL    HW217247   3.074   4.367   4.952 -0.0727  0.6636 -1.0410
 1929SOL     OW17248   3.682   3.115  15.894 -0.2265 -0.1980  0.2029
 1929SOL    HW117249   3.733   3.039  15.920  1.1124  0.9056  0.7672
 1929SOL    HW217250   3.603   3.078  15.854 -1.0714 -1.1779  2.7362
 1930SOL     OW17251   3.868   3.286  16.742 -0.1419  0.0699 -0.1402
 1930SOL    HW117252   3.886   3.352  16.809  2.6099 -2.1665  1.3117
 1930SOL    HW217253   3.893   3.334  16.663 -1.8947 -0.3151 -0.9258
 1931SOL     OW17254   3.183   3.711   8.094  0.1962 -0.2276  0.1557
 1931SOL    HW117255   3.244   3.637   8.081 -0.5388 -0.6017 -1.1477
 1931SOL    HW217256   3.107   3.669   8.055 -0.8840  1.6485  0.2807
 1932SOL     OW17257   2.847   2.290   6.758 -0.3779  0.7169 -0.9174
 1932SOL    HW117258   2.871   2.379   6.732 -1.5508  0.8948 -1.3565
 1932SOL    HW217259   2.915   2.250   6.704  1.8948  0.1600  2.3439
 1933SOL     OW17260   3.788   2.312   6.615 -0.3150 -0.4147  0.3922
 1933SOL    HW117261   3.694   2.321   6.625 -0.4660  0.9311 -2.3100
 1933SOL    HW217262   3.805   2.369   6.539  1.2655 -0.6726  0.5521
 1934SOL     OW17263   1.516   0.044   0.358 -0.5681 -0.8077 -0.0059
 1934SOL    HW117264   1.541   0.078   0.272 -3.5207  1.4161  0.0304
 1934SOL    HW217265   1.583   0.075   0.419  0.6437 -0.0517 -1.7213
 1935SOL     OW17266   2.121   1.126   9.533  0.4458 -0.1057 -0.2247
 1935SOL    HW117267   2.210   1.112   9.564  0.4344  1.5735  0.5380
 1935SOL    HW217268   2.092   1.038   9.558  2.2853 -0.0762  1.9674
 1936SOL     OW17269   3.346   2.757   1.778  0.8050 -0.3676  0.4787
 1936SOL    HW117270   3.359   2.667   1.749  1.9869 -0.4483  1.2659
 1936SOL    HW217271   3.415   2.763   1.843  1.2779  1.1568 -0.1500
 1937SOL     OW17272   0.976   3.678   0.579  0.5998 -0.2978  0.1657
 1937SOL    HW117273   0.905   3.729   0.541  1.6699  0.5283 -0.7159
 1937SOL    HW217274   1.043   3.675   0.511 -0.2583 -1.9289 -0.6009
 1938SOL     OW17275   3.979   3.445  16.520 -0.2291 -0.2909 -0.2617
 1938SOL    HW117276   3.955   3.520  16.575  0.3394  0.7323 -1.4006
 1938SOL    HW217277   4.074   3.444  16.532 -0.3712 -1.9713  0.6046
 1939SOL     OW17278   2.048   0.531   2.473 -0.3630 -0.4381 -0.0610
 1939SOL    HW117279   2.060   0.439   2.450 -0.4677 -0.6659  0.7890
 1939SOL    HW217280   1.958   0.524   2.505  0.0120 -3.4944  0.2897
 1940SOL     OW17281   4.559   1.495   6.070 -0.2014 -0.0025 -0.0811
 1940SOL    HW117282   4.654   1.487   6.077  0.0519  2.0241 -1.2167
 1940SOL    HW217283   4.535   1.520   5.981  2.1235 -0.1164 -0.7350
 1941SOL     OW17284   3.879   0.590   4.007  0.0151  0.0500 -0.3168
 1941SOL    HW117285   3.794   0.577   4.049 -0.3552 -0.1147 -1.1394
 1941SOL    HW217286   3.915   0.504   3.988  0.8838 -0.0095  1.5386
 1942SOL     OW17287   0.535   2.311   7.826 -0.1725 -0.1330  0.4199
 1942SOL    HW117288   0.609   2.362   7.859  0.3717 -0.1604 -0.7495
 1942SOL    HW217289   0.475   2.383   7.806 -0.7801 -0.1038  2.4431
 1943SOL     OW17290   0.911   1.445  14.712 -0.1508  0.0766 -0.0656
 1943SOL    HW117291   1.000   1.434  14.678 -0.1754 -0.6943  0.1348
 1943SOL    HW217292   0.863   1.387  14.654  1.6396 -0.5571 -0.9011
 1944SOL     OW17293   0.127   0.995  14.698  0.2500 -0.0726 -0.0322
 1944SOL    HW117294   0.070   1.072  14.695  0.1207 -0.1954 -0.7862
 1944SOL    HW217295   0.131   0.973  14.604  0.5627 -0.4762  0.0777
 1945SOL     OW17296   2.013   4.538   0.767  0.0105 -0.1544 -0.4059
 1945SOL    HW117297   1.974   4.468   0.716  0.2831 -2.1362  2.0797
 1945SOL    HW217298   2.095   4.539   0.719  0.3589 -1.3694  0.1574
 1946SOL     OW17299   4.090   4.099   3.980 -0.3162 -0.5049  0.1535
 1946SOL    HW117300   4.023   4.037   3.952 -2.0621  0.2579  2.6405
 1946SOL    HW217301   4.161   4.074   3.921  0.4617  0.9107  0.4762
 1947SOL     OW17302   2.653   2.071   5.300  0.6933 -0.7722 -0.1386
 1947SOL    HW117303   2.661   2.166   5.289 -0.1161 -1.0129 -2.6211
 1947SOL    HW217304   2.741   2.046   5.271  0.9529  0.1604 -0.1578
 1948SOL     OW17305   0.208   0.853   6.483 -0.3953 -0.2805  0.3913
 1948SOL    HW117306   0.138   0.798   6.448 -0.1321  0.2361 -0.9581
 1948SOL    HW217307   0.224   0.910   6.408  1.0626 -1.3439 -0.1218
 1949SOL     OW17308   4.228   2.133   3.365 -0.2245 -0.9499  0.5656
 1949SOL    HW117309   4.215   2.085   3.447  0.8482 -2.7241 -0.3043
 1949SOL    HW217310   4.321   2.155   3.372 -0.0393 -1.7126  0.5878
 1950SOL     OW17311   4.189   1.396  15.987 -0.0008  0.4892 -0.0361
 1950SOL    HW117312   4.125   1.442  16.042 -1.2371 -0.9128 -0.2922
 1950SOL    HW217313   4.153   1.309  15.971  2.0782 -0.5273  0.7563
 1951SOL     OW17314   2.770   3.769   4.828 -0.6008  0.3281  0.5762
 1951SOL    HW117315   2.862   3.770   4.856 -0.6091 -1.4780  0.6396
 1951SOL    HW217316   2.770   3.698   4.765 -0.1123  1.0973 -0.2932
 1952SOL     OW17317   2.271   3.922  14.305  0.1427 -0.2860  0.4771
 1952SOL    HW117318   2.228   3.931  14.220  0.9292 -1.3310 -0.0350
 1952SOL    HW217319   2.212   3.977  14.357  2.6883  1.5380  1.4557
 1953SOL     OW17320   0.922   1.919   3.871 -0.2173  0.0384  0.0092
 1953SOL    HW117321   0.841   1.962   3.844 -1.0176 -0.5504  1.4621
 1953SOL    HW217322   0.942   1.953   3.958 -0.0885  0.9271 -0.3697
 1954SOL     OW17323   0.528   2.723  14.566 -0.3178 -0.0162  0.6904
 1954SOL    HW117324   0.498   2.634  14.583  1.8183 -0.3562  2.5080
 1954SOL    HW217325   0.592   2.726  14.636  0.2229  1.1223  0.1437
 1955SOL     OW17326   1.999   1.325   6.751  0.4270  0.3622  0.0547
 1955SOL    HW117327   1.951   1.399   6.788  0.6965  0.4201  0.2882
 1955SOL    HW217328   1.951   1.311   6.669  0.8453 -1.7142  0.1709
 1956SOL     OW17329   0.205   1.307   1.965  0.1069  0.1245  0.0618
 1956SOL    HW117330   0.230   1.216   1.984  0.6728  0.3281  0.2953
 1956SOL    HW217331   0.295   1.339   1.958 -0.1633  0.7591 -0.4857
 1957SOL     OW17332   3.447   0.828   2.801 -0.2701  0.2628  0.0483
 1957SOL    HW117333   3.375   0.774   2.833 -0.4584 -1.2993 -3.0483
 1957SOL    HW217334   3.525   0.795   2.846 -1.2796 -2.6315 -0.3505
 1958SOL     OW17335   2.839   3.614   7.313  0.2499 -0.0029  0.0104
 1958SOL    HW117336   2.860   3.641   7.403  1.7623  0.5492 -0.5087
 1958SOL    HW217337   2.744   3.607   7.318  0.2179 -0.9140 -1.9776
 1959SOL     OW17338   4.701   4.438   2.087 -1.0423 -0.0487  0.2009
 1959SOL    HW117339   0.024   4.410   2.008  0.4847  1.0707  0.7395
 1959SOL    HW217340   4.664   4.523   2.064  1.0046  0.8637  0.2696
 1960SOL     OW17341   1.058   2.435   3.321  0.0677  0.6573  0.3086
 1960SOL    HW117342   1.069   2.516   3.273  2.9260  0.2576  0.2471
 1960SOL    HW217343   1.099   2.374   3.259 -2.6175 -0.2449 -0.5599
 1961SOL     OW17344   2.309   4.253   5.560  0.2159  1.0344  0.0073
 1961SOL    HW117345   2.288   4.256   5.466  1.7530 -0.6857 -0.3982
 1961SOL    HW217346   2.353   4.336   5.575  0.5394  0.9828 -0.6442
 1962SOL     OW17347   0.902   2.602   5.509  0.1371 -0.2736  0.0030
 1962SOL    HW117348   0.863   2.545   5.442  1.2681 -0.1491 -0.7781
 1962SOL    HW217349   0.835   2.597   5.576 -0.5813 -0.1252 -0.7062
 1963SOL     OW17350   2.079   4.432   6.616 -0.3744 -0.4205 -0.2847
 1963SOL    HW117351   2.000   4.380   6.603  0.0107 -0.8762 -0.7734
 1963SOL    HW217352   2.047   4.521   6.632 -0.3883 -0.3023 -0.9593
 1964SOL     OW17353   2.011   4.215   5.977 -0.4905  0.1283 -0.1121
 1964SOL    HW117354   2.061   4.257   5.907 -1.0976  2.5040  0.8590
 1964SOL    HW217355   1.984   4.135   5.932 -1.1172 -0.3574  1.1321
 1965SOL     OW17356   3.484   3.955   0.929 -0.3225  0.5476  0.1129
 1965SOL    HW117357   3.564   3.986   0.886 -0.0535 -0.9379 -0.4633
 1965SOL    HW217358   3.415   3.961   0.863 -0.9806 -1.5814  0.6170
 1966SOL     OW17359   2.492   1.290  16.863  0.3657  0.3450 -0.3720
 1966SOL    HW117360   2.569   1.296  16.806 -0.3791  2.1534 -1.1919
 1966SOL    HW217361   2.508   1.199  16.887  3.4913  1.2781  1.1395
 1967SOL     OW17362   2.278   4.599   4.294  0.6475 -0.3408  0.3524
 1967SOL    HW117363   2.216   4.649   4.241 -2.5584 -2.9259  1.6916
 1967SOL    HW217364   2.280   4.648   4.376 -0.1874  1.1114 -0.4900
 1968SOL     OW17365   3.632   0.713   4.914 -0.0433  0.4417 -0.2053
 1968SOL    HW117366   3.665   0.623   4.923  1.3138  0.9828  0.2084
 1968SOL    HW217367   3.543   0.684   4.894  0.1289  1.4286 -2.3739
 1969SOL     OW17368   1.865   3.577   6.897  0.1830 -0.5163  0.2593
 1969SOL    HW117369   1.801   3.617   6.955 -0.5002 -0.8022 -0.3024
 1969SOL    HW217370   1.941   3.633   6.913 -0.2684  0.7275 -1.8679
 1970SOL     OW17371   2.624   1.258   2.154  0.0634  0.5366  0.0529
 1970SOL    HW117372   2.543   1.241   2.106 -0.0176  1.4965 -0.1540
 1970SOL    HW217373   2.588   1.323   2.215 -1.1985 -1.6464  1.6159
 1971SOL     OW17374   4.699   4.216  10.817 -0.5385 -0.3121  0.2662
 1971SOL    HW117375   0.030   4.167  10.877  1.2634  2.0437  0.5357
 1971SOL    HW217376   4.671   4.294  10.866 -0.4244  0.2822 -0.6077
 1972SOL     OW17377   4.595   4.662   1.954  0.3710 -0.4708 -0.1513
 1972SOL    HW117378   4.523   4.725   1.944 -0.6683 -1.5087  0.8106
 1972SOL    HW217379   4.607   4.635   1.863 -0.0972 -0.1818 -0.3012
 1973SOL     OW17380   0.452   2.907   7.964 -0.2404 -0.6838 -0.2649
 1973SOL    HW117381   0.516   2.870   8.024 -1.5236 -0.6426  1.1258
 1973SOL    HW217382   0.476   2.856   7.887 -2.4519  0.3934 -1.6793
 1974SOL     OW17383   2.868   0.982  12.420  0.5957  0.0718 -0.1506
 1974SOL    HW117384   2.830   1.027  12.496 -0.6805 -0.8280 -0.2476
 1974SOL    HW217385   2.817   0.902  12.414  2.9388 -1.5729  1.7345
 1975SOL     OW17386   1.096   3.944  10.460  0.2966 -0.5937  0.3379
 1975SOL    HW117387   1.047   3.978  10.535  1.2538  0.2990  0.5491
 1975SOL    HW217388   1.163   4.008  10.439 -0.5111 -0.3167 -1.4174
 1976SOL     OW17389   1.714   1.498   0.441 -0.3235 -0.6259 -0.5669
 1976SOL    HW117390   1.786   1.534   0.492 -1.7540  1.3949  0.0419
 1976SOL    HW217391   1.764   1.431   0.394 -2.6654 -2.3467 -0.6146
 1977SOL     OW17392   0.724   3.369   9.711 -0.1095  0.5062  0.8244
 1977SOL    HW117393   0.691   3.456   9.689 -0.3321  0.4189  0.8207
 1977SOL    HW217394   0.707   3.323   9.628 -0.6086  1.2063  0.5435
 1978SOL     OW17395   4.224   0.589   5.615  0.1042  0.4109 -0.4552
 1978SOL    HW117396   4.169   0.601   5.693  0.3268  1.6807 -0.4959
 1978SOL    HW217397   4.162   0.550   5.553 -1.4183  2.4093 -0.1939
 1979SOL     OW17398   2.330   0.656   3.570 -0.4317 -0.9476  0.3698
 1979SOL    HW117399   2.384   0.578   3.571 -1.0255 -1.3835 -2.5741
 1979SOL    HW217400   2.302   0.659   3.479  0.4727  1.7633  0.1755
 1980SOL     OW17401   2.728   1.368   6.485  0.2135 -0.4852  0.0472
 1980SOL    HW117402   2.646   1.353   6.533 -0.2442  1.0684 -0.2182
 1980SOL    HW217403   2.743   1.462   6.496  0.4653 -0.0706 -3.7853
 1981SOL     OW17404   3.318   4.186   9.530  0.5349 -0.3721 -0.3117
 1981SOL    HW117405   3.352   4.247   9.465 -0.6663  0.0693 -0.5191
 1981SOL    HW217406   3.332   4.235   9.611 -1.0713  0.4881 -0.5592
 1982SOL     OW17407   0.408   0.004   6.765 -0.3983 -0.0049 -0.2705
 1982SOL    HW117408   0.441   0.088   6.797 -0.3672 -0.5006  0.9940
 1982SOL    HW217409   0.375   4.697   6.849 -1.0831 -0.8367 -0.8671
 1983SOL     OW17410   1.075   0.674   9.040  0.0457 -0.4509 -0.1835
 1983SOL    HW117411   1.094   0.605   8.976  1.7714  0.0447 -0.2174
 1983SOL    HW217412   0.980   0.679   9.040  0.0290 -0.8246  2.0460
 1984SOL     OW17413   3.864   1.933   2.475  0.1957  0.5250 -0.4569
 1984SOL    HW117414   3.878   1.996   2.404  0.9814  0.4578 -0.3639
 1984SOL    HW217415   3.930   1.967   2.536 -1.0173  0.6518  0.7882
 1985SOL     OW17416   4.276   3.567   2.260  0.3214  0.0035 -0.0566
 1985SOL    HW117417   4.234   3.509   2.197  0.1504 -1.8477  1.7567
 1985SOL    HW217418   4.306   3.505   2.326 -1.4518 -0.7433  0.0429
 1986SOL     OW17419   2.627   1.699   6.752 -0.7448 -0.6811 -0.4955
 1986SOL    HW117420   2.721   1.713   6.762 -1.1279  1.7088 -0.1437
 1986SOL    HW217421   2.626   1.604   6.747  2.1566 -0.6306 -2.1436
 1987SOL     OW17422   2.761   1.534  17.016 -0.1353  0.3372 -0.1952
 1987SOL    HW117423   2.747   1.443  16.990 -0.6878 -0.3489  2.4635
 1987SOL    HW217424   2.778   1.530  17.111 -0.9330 -1.1062 -0.1125
 1988SOL     OW17425   1.401   0.141  17.490  0.1096 -0.4848  0.2917
 1988SOL    HW117426   1.359   0.135  17.575  0.6574  0.1873  0.6190
 1988SOL    HW217427   1.353   0.216  17.454  1.5114 -0.0569 -0.7071
 1989SOL     OW17428   1.335   2.783  10.448  0.5432 -0.2738  0.1740
 1989SOL    HW117429   1.404   2.773  10.514  0.6116  0.3078  0.1939
 1989SOL    HW217430   1.295   2.696  10.451 -1.1056  0.5313  1.9812
 1990SOL     OW17431   4.223   2.347   8.179 -0.4406 -0.0790  0.1899
 1990SOL    HW117432   4.318   2.361   8.189 -0.1445 -1.7651 -0.2855
 1990SOL    HW217433   4.210   2.333   8.085 -0.8510  2.0230 -0.0825
 1991SOL     OW17434   0.707   2.273  15.649 -0.2711 -0.1860  0.6193
 1991SOL    HW117435   0.627   2.293  15.601  0.0771 -0.4840 -0.0921
 1991SOL    HW217436   0.676   2.299  15.735  0.1956  0.4559  0.5886
 1992SOL     OW17437   0.635   3.619   9.702  0.1934 -0.1117 -0.8920
 1992SOL    HW117438   0.696   3.678   9.658  2.1530 -0.1313  1.8140
 1992SOL    HW217439   0.632   3.643   9.794  0.4387 -0.6716 -0.7377
 1993SOL     OW17440   3.273   2.755   2.834  0.2676 -0.0484 -0.1987
 1993SOL    HW117441   3.232   2.672   2.808  0.1280  0.4462 -1.5299
 1993SOL    HW217442   3.365   2.732   2.833  0.9200  2.4814  1.4846
 1994SOL     OW17443   3.914   1.594   3.700  0.1245  0.0698 -0.1500
 1994SOL    HW117444   3.888   1.502   3.713 -1.9894  0.8508  1.2215
 1994SOL    HW217445   3.873   1.634   3.624  0.3236 -1.4775 -1.0724
 1995SOL     OW17446   0.112   2.159   9.053 -0.6703 -0.0035  0.1355
 1995SOL    HW117447   0.102   2.100   8.978  0.5252 -1.3243  1.0194
 1995SOL    HW217448   0.196   2.198   9.030  0.0464 -1.3501  0.4644
 1996SOL     OW17449   3.920   0.493   6.900 -0.0732 -0.0791  0.3376
 1996SOL    HW117450   3.878   0.450   6.974  1.8127 -0.6361  1.0639
 1996SOL    HW217451   3.971   0.427   6.854 -0.7959  0.6122 -1.4706
 1997SOL     OW17452   2.152   3.196   4.937 -0.4570 -0.0010  0.4296
 1997SOL    HW117453   2.202   3.147   5.002 -0.3889 -0.3508  0.1158
 1997SOL    HW217454   2.222   3.247   4.897 -0.5677 -0.1678  0.0198
 1998SOL     OW17455   2.718   4.302   8.235 -0.0814 -0.1425 -0.1459
 1998SOL    HW117456   2.692   4.394   8.230 -0.6419 -0.3413 -0.8290
 1998SOL    HW217457   2.633   4.259   8.243 -0.2198  0.4439  1.7014
 1999SOL     OW17458   3.605   1.082   7.084  0.5531 -0.2090  0.4598
 1999SOL    HW117459   3.548   1.156   7.066 -1.2865 -1.8753 -0.5735
 1999SOL    HW217460   3.540   1.023   7.123  1.6960 -0.3553  2.1578
 2000SOL     OW17461   4.619   4.534   9.733 -0.1780  0.6873 -0.0515
 2000SOL    HW117462   4.574   4.606   9.689  0.6357 -0.2068 -2.3554
 2000SOL    HW217463   4.712   4.554   9.722  0.1243 -1.1919 -0.8456
 2001SOL     OW17464   3.727   1.194   7.501 -0.0972  0.2926  0.2094
 2001SOL    HW117465   3.781   1.217   7.576 -0.3274 -0.9915  0.7694
 2001SOL    HW217466   3.657   1.259   7.510 -0.5755  0.0308 -1.5863
 2002SOL     OW17467   2.626   4.091   7.807 -0.3439 -0.2119 -0.2311
 2002SOL    HW117468   2.692   4.122   7.746  1.0010  1.1298  1.9134
 2002SOL    HW217469   2.563   4.052   7.746  0.7491 -0.5032 -1.1719
 2003SOL     OW17470   4.014   2.768  11.018 -0.4903 -0.2924  0.4519
 2003SOL    HW117471   3.991   2.752  11.109  3.3024 -2.3980  1.0363
 2003SOL    HW217472   4.050   2.684  10.992 -2.0189 -0.7788 -0.1007
 2004SOL     OW17473   0.675   3.679   4.306  0.6278 -0.6578 -0.0024
 2004SOL    HW117474   0.743   3.620   4.275  0.4283 -0.4353 -0.8507
 2004SOL    HW217475   0.633   3.700   4.222 -1.4507 -0.9706  0.9448
 2005SOL     OW17476   0.868   3.259   4.210 -0.0519  0.2248  0.3649
 2005SOL    HW117477   0.902   3.245   4.299  0.2631 -0.0140  0.2038
 2005SOL    HW217478   0.773   3.257   4.225  0.2162 -0.4152  2.0437
 2006SOL     OW17479   0.840   4.584   2.359  0.0054 -0.1078 -0.3157
 2006SOL    HW117480   0.766   4.645   2.364  0.6764  0.5256  1.8395
 2006SOL    HW217481   0.809   4.528   2.288 -0.5372 -0.5049  0.2269
 2007SOL     OW17482   2.681   2.578   6.573  0.2671 -0.3556 -0.1433
 2007SOL    HW117483   2.650   2.622   6.652  0.7211  0.7056 -0.5501
 2007SOL    HW217484   2.771   2.551   6.592  1.0828  0.9000 -2.2771
 2008SOL     OW17485   2.106   3.489   1.266  0.5584 -0.7666  0.2611
 2008SOL    HW117486   2.067   3.417   1.315  1.5722 -1.5104 -0.0348
 2008SOL    HW217487   2.035   3.508   1.204 -0.7980 -0.1910  2.0072
 2009SOL     OW17488   4.498   3.742  15.235 -0.2680 -0.3568 -0.8347
 2009SOL    HW117489   4.472   3.686  15.308  1.3204 -1.0068 -0.7573
 2009SOL    HW217490   4.433   3.728  15.166  0.2900  1.8093 -1.8047
 2010SOL     OW17491   3.818   0.928  12.095 -0.0784  0.4047  0.7621
 2010SOL    HW117492   3.837   0.961  12.007 -1.3291  2.4845  1.2728
 2010SOL    HW217493   3.834   0.834  12.085  3.3343  0.9300  1.3088
 2011SOL     OW17494   4.031   3.623   0.844  0.0406  0.4398 -0.2197
 2011SOL    HW117495   4.110   3.640   0.895 -1.1122  3.3353  0.6453
 2011SOL    HW217496   3.993   3.549   0.891 -0.6393  0.2308 -1.1098
 2012SOL     OW17497   3.665   4.095  12.668  0.5673 -0.4960  0.8043
 2012SOL    HW117498   3.601   4.152  12.711  0.9436 -0.1674  0.9209
 2012SOL    HW217499   3.611   4.024  12.633 -1.0476 -1.0646  4.4408
 2013SOL     OW17500   1.498   4.037   6.799 -0.4214  0.5066  0.2986
 2013SOL    HW117501   1.576   4.051   6.745  0.7063  2.3792  2.4073
 2013SOL    HW217502   1.454   3.964   6.756 -0.7101  0.9290 -0.1177
 2014SOL     OW17503   1.315   1.038   0.355 -0.4894 -0.2454 -0.4014
 2014SOL    HW117504   1.290   1.084   0.435  2.3280  0.5672  0.0145
 2014SOL    HW217505   1.227   1.006   0.333 -0.2812 -0.3680 -1.0570
 2015SOL     OW17506   2.171   1.911  15.772 -0.3197 -0.6849  0.0672
 2015SOL    HW117507   2.262   1.883  15.784  0.0924  0.0447 -1.3386
 2015SOL    HW217508   2.192   2.003  15.754 -0.7094 -0.7359 -0.6337
 2016SOL     OW17509   1.339   1.581   2.096 -0.6648  0.1030 -0.0702
 2016SOL    HW117510   1.286   1.655   2.127  0.2819  0.6009  0.3751
 2016SOL    HW217511   1.275   1.523   2.055 -2.2334  0.7683  1.3840
 2017SOL     OW17512   1.911   4.292   2.937  0.3282  0.1381  0.0690
 2017SOL    HW117513   1.843   4.232   2.906  0.5760 -1.1804  2.1098
 2017SOL    HW217514   1.971   4.228   2.973 -1.1651  0.1110  2.5069
 2018SOL     OW17515   2.394   0.701  11.464 -0.1225 -0.4743  0.3013
 2018SOL    HW117516   2.303   0.693  11.491 -0.4215  1.0242 -0.2058
 2018SOL    HW217517   2.437   0.623  11.498  0.1080  0.0368  1.1866
 2019SOL     OW17518   0.995   4.397   5.797 -0.4585 -0.0509  0.2993
 2019SOL    HW117519   0.916   4.444   5.823 -1.4685 -1.2696 -0.5207
 2019SOL    HW217520   0.959   4.350   5.721 -0.3134 -1.4796  1.1025
 2020SOL     OW17521   4.610   3.869   4.632  0.3438  0.7483 -0.6064
 2020SOL    HW117522   4.595   3.930   4.560 -1.4891  0.5967 -0.3677
 2020SOL    HW217523   4.696   3.891   4.667 -0.4911  2.2780  0.4978
 2021SOL     OW17524   0.431   2.763   6.645  0.0582  0.2506 -0.4629
 2021SOL    HW117525   0.463   2.702   6.711  1.3166  1.1927 -0.1999
 2021SOL    HW217526   0.507   2.779   6.589  0.7403 -0.5887  0.2224
 2022SOL     OW17527   1.394   0.129   1.368 -0.1093 -0.3241 -0.2930
 2022SOL    HW117528   1.365   0.143   1.458  0.7072  1.5907 -0.3420
 2022SOL    HW217529   1.358   0.042   1.349  1.0233 -0.9169  0.2729
 2023SOL     OW17530   1.119   0.436   4.132  0.1476 -0.3802 -0.1262
 2023SOL    HW117531   1.043   0.452   4.075 -0.6709 -0.5226  0.9301
 2023SOL    HW217532   1.158   0.353   4.105  1.1622  0.8054 -2.3301
 2024SOL     OW17533   0.320   3.329   2.693 -0.0826  0.0580 -0.0513
 2024SOL    HW117534   0.297   3.237   2.700 -1.5812  0.2478 -2.2270
 2024SOL    HW217535   0.230   3.361   2.700 -0.1949 -0.3015  0.1455
 2025SOL     OW17536   0.948   1.935  10.560  0.3724  0.2962  0.2362
 2025SOL    HW117537   0.996   1.905  10.637  2.7088  3.4071 -0.0345
 2025SOL    HW217538   1.008   2.006  10.539  0.3234  0.2341 -0.1107
 2026SOL     OW17539   1.054   4.722   4.592 -0.4866  0.1824 -0.6168
 2026SOL    HW117540   1.056   4.707   4.686  2.3364 -2.0592 -1.0402
 2026SOL    HW217541   1.114   4.657   4.557 -0.1690 -0.1683  0.5877
 2027SOL     OW17542   1.466   2.642   9.338  0.4438 -0.2717 -0.6454
 2027SOL    HW117543   1.380   2.684   9.341 -0.1363 -1.2922 -2.6833
 2027SOL    HW217544   1.438   2.563   9.292 -0.6662 -0.0094 -0.4398
 2028SOL     OW17545   3.966   2.851   9.201 -0.1985  0.4285  0.1726
 2028SOL    HW117546   3.887   2.801   9.179 -0.2899 -0.5044  2.6148
 2028SOL    HW217547   4.015   2.845   9.119  0.0811  1.1455  0.2926
 2029SOL     OW17548   3.390   3.193   1.149 -0.6605 -0.1156  0.2173
 2029SOL    HW117549   3.329   3.242   1.205 -1.7247  0.2566 -1.2650
 2029SOL    HW217550   3.468   3.190   1.205  0.4233  0.2996 -1.2685
 2030SOL     OW17551   3.226   2.216  13.851  0.6609  0.1294  0.4250
 2030SOL    HW117552   3.205   2.123  13.854 -0.9167  0.4383 -0.7468
 2030SOL    HW217553   3.304   2.204  13.905  0.6393 -0.0170  0.4243
 2031SOL     OW17554   4.411   1.782   3.002 -0.4309  0.6149  0.3216
 2031SOL    HW117555   4.441   1.823   3.084  1.2784  0.3190 -0.1457
 2031SOL    HW217556   4.426   1.690   3.023 -2.3161  0.6224  1.7396
 2032SOL     OW17557   4.162   4.639   4.081 -0.6414 -0.6635  0.0792
 2032SOL    HW117558   4.185   4.637   3.989 -0.4192 -0.2869  0.1289
 2032SOL    HW217559   4.238   4.683   4.119  0.1426 -0.6082 -1.5509
 2033SOL     OW17560   0.805   0.373   2.503  0.2668  0.3768  0.6528
 2033SOL    HW117561   0.727   0.353   2.452  0.5256 -2.0608  1.1840
 2033SOL    HW217562   0.787   0.460   2.537  1.0506  0.7292  0.1628
 2034SOL     OW17563   0.572   4.277   3.417 -0.0961 -0.0035 -0.0933
 2034SOL    HW117564   0.635   4.348   3.401  0.8613 -0.5116  1.4122
 2034SOL    HW217565   0.520   4.307   3.492  0.3421 -1.5624  0.8224
 2035SOL     OW17566   1.536   0.750   5.476 -0.1440 -0.1450 -0.6742
 2035SOL    HW117567   1.618   0.796   5.457  1.1578 -2.2319 -0.0455
 2035SOL    HW217568   1.542   0.757   5.571  1.2943  0.3279 -0.7965
 2036SOL     OW17569   2.950   0.217   6.134  0.0306  0.4673 -0.2725
 2036SOL    HW117570   3.034   0.257   6.160 -0.7336  0.8237  1.6495
 2036SOL    HW217571   2.908   0.220   6.220 -3.9350  0.5900 -2.2432
 2037SOL     OW17572   0.498   1.169  13.984 -0.0885 -1.0081  0.7478
 2037SOL    HW117573   0.449   1.095  14.019 -1.3970 -1.6214 -2.4479
 2037SOL    HW217574   0.536   1.133  13.904 -0.5416 -0.7904  0.4390
 2038SOL     OW17575   0.115   2.668   6.188  0.1443  0.6763  0.4534
 2038SOL    HW117576   0.047   2.697   6.127 -1.2261 -0.8911  1.2331
 2038SOL    HW217577   0.179   2.619   6.136  0.7372 -1.2625  2.9989
 2039SOL     OW17578   3.302   3.956  14.342 -0.3268 -0.2068  0.1853
 2039SOL    HW117579   3.291   3.930  14.250 -1.2149 -0.9489  0.4953
 2039SOL    HW217580   3.364   3.891  14.375 -1.2469 -1.0861  0.1899
 2040SOL     OW17581   3.413   0.326   5.237 -0.2975 -0.5822  0.0186
 2040SOL    HW117582   3.336   0.340   5.292  0.4636  1.0929  0.6665
 2040SOL    HW217583   3.423   0.233   5.256 -1.2114 -0.3509  1.6079
 2041SOL     OW17584   2.314   4.691   6.692 -0.7924 -0.5216  0.3404
 2041SOL    HW117585   2.231   4.719   6.654 -0.6043  0.4536  0.6489
 2041SOL    HW217586   2.367   4.693   6.612  0.7868 -1.7582  1.3541
 2042SOL     OW17587   3.691   0.088   3.798  0.9288  0.3329 -0.6419
 2042SOL    HW117588   3.705   0.090   3.704  1.1509  1.9067 -0.5790
 2042SOL    HW217589   3.601   0.059   3.808  0.2617  2.3391 -0.7519
 2043SOL     OW17590   3.468   3.071   6.594  0.1343  0.2350 -0.0155
 2043SOL    HW117591   3.440   3.005   6.658 -0.4175 -0.2054 -0.7142
 2043SOL    HW217592   3.447   3.155   6.636  1.1718 -0.3337  1.6683
 2044SOL     OW17593   2.127   2.176   3.546 -1.1198  0.0104  0.1074
 2044SOL    HW117594   2.047   2.164   3.495 -1.3329  0.5004  0.3268
 2044SOL    HW217595   2.182   2.101   3.524 -1.0484  0.2199 -0.4556
 2045SOL     OW17596   0.337   2.738   3.970  0.4790  0.6657  0.7721
 2045SOL    HW117597   0.278   2.712   4.041 -0.3699  0.5249  0.0090
 2045SOL    HW217598   0.417   2.689   3.988  0.5953  0.4487 -0.3417
 2046SOL     OW17599   0.912   0.449  11.253  0.3340  0.4467  0.5606
 2046SOL    HW117600   0.830   0.479  11.292  0.5714  1.6902  0.1170
 2046SOL    HW217601   0.883   0.380  11.194  2.7684 -1.7723  1.9943
 2047SOL     OW17602   3.260   1.270   8.190 -0.1826 -0.2327 -0.8851
 2047SOL    HW117603   3.265   1.239   8.100 -0.7058 -0.1691 -0.9326
 2047SOL    HW217604   3.257   1.186   8.236 -0.7045  0.5794  0.5627
 2048SOL     OW17605   3.574   2.034   8.177  0.2697  0.1870 -0.8123
 2048SOL    HW117606   3.662   2.071   8.171  1.0775 -1.1208  2.7246
 2048SOL    HW217607   3.579   1.976   8.101 -0.2651  1.1752 -1.5836
 2049SOL     OW17608   1.721   1.619  10.313 -0.3242 -0.1918  0.5130
 2049SOL    HW117609   1.633   1.583  10.307 -1.2614  1.7133  2.9930
 2049SOL    HW217610   1.755   1.583  10.231  0.3684 -0.8262  1.0795
 2050SOL     OW17611   1.730   1.223   8.773 -0.1676  0.2429 -0.8051
 2050SOL    HW117612   1.776   1.296   8.813 -0.3587  0.1356 -0.3877
 2050SOL    HW217613   1.767   1.159   8.834  1.1690 -0.7296 -2.6275
 2051SOL     OW17614   0.977   1.318   7.399  0.1098  0.3218 -0.7543
 2051SOL    HW117615   0.967   1.284   7.310  4.1687 -1.4900 -0.5193
 2051SOL    HW217616   1.053   1.375   7.407  1.1682 -1.1613 -0.2006
 2052SOL     OW17617   2.207   3.212   6.119 -0.7409  0.4064  0.5214
 2052SOL    HW117618   2.187   3.124   6.152 -0.4765  0.3390  0.4976
 2052SOL    HW217619   2.302   3.202   6.122 -0.6070  1.6058  0.0656
 2053SOL     OW17620   4.478   3.472   4.301  0.0488 -0.2063 -0.3884
 2053SOL    HW117621   4.556   3.514   4.264 -1.4393 -0.0886 -3.4791
 2053SOL    HW217622   4.435   3.456   4.217 -1.2867  1.3140 -0.0086
 2054SOL     OW17623   1.775   4.591   5.550 -0.2024  0.4329 -0.2335
 2054SOL    HW117624   1.811   4.594   5.638  1.8080 -0.7344 -1.0241
 2054SOL    HW217625   1.681   4.582   5.563  0.0310 -1.2247  0.1884
 2055SOL     OW17626   0.043   3.639  14.422  0.0594 -0.0607 -0.2056
 2055SOL    HW117627   0.031   3.627  14.516 -0.0347 -1.6170 -0.4305
 2055SOL    HW217628   4.686   3.597  14.397 -0.6126  2.0680 -1.6363
 2056SOL     OW17629   0.703   4.127   2.509  0.5257 -0.2612 -0.0801
 2056SOL    HW117630   0.763   4.179   2.456  1.5041  0.1136  1.4035
 2056SOL    HW217631   0.655   4.199   2.551 -1.0825 -0.1252 -2.1459
 2057SOL     OW17632   1.518   0.048   2.960 -0.1934 -0.2204  0.1096
 2057SOL    HW117633   1.492   0.020   2.872  1.1979 -1.8894  0.2417
 2057SOL    HW217634   1.613   0.036   2.959  0.1138  2.2539 -2.1031
 2058SOL     OW17635   0.004   4.122   5.149 -0.4995  0.3797 -0.3695
 2058SOL    HW117636   4.717   4.078   5.233 -0.9302 -2.1955 -1.7750
 2058SOL    HW217637   4.670   4.067   5.096  1.6157 -0.5873 -1.7563
 2059SOL     OW17638   3.979   3.819   4.512 -0.4006  0.2909  0.0654
 2059SOL    HW117639   3.972   3.908   4.546 -0.6255  0.1789  0.3122
 2059SOL    HW217640   3.901   3.782   4.554 -1.7394  1.5852 -1.3043
 2060SOL     OW17641   0.951   1.076  15.270 -0.9028  0.0963  0.1646
 2060SOL    HW117642   0.984   1.166  15.274 -0.0483 -0.1519 -1.5118
 2060SOL    HW217643   0.937   1.065  15.176  0.0589 -1.6179  0.2208
 2061SOL     OW17644   4.098   2.667   3.021 -0.4944 -0.1012 -0.0330
 2061SOL    HW117645   4.074   2.687   3.111 -0.7612  1.5084 -0.4507
 2061SOL    HW217646   4.191   2.654   3.038 -0.4078 -0.8459 -1.0866
 2062SOL     OW17647   2.620   0.833   3.587  0.4698 -0.5619 -0.1659
 2062SOL    HW117648   2.578   0.765   3.534  0.3187  1.7513 -3.0113
 2062SOL    HW217649   2.573   0.839   3.670 -0.1281  1.5182 -0.6532
 2063SOL     OW17650   0.517   0.955  14.595  0.0194 -0.3682 -0.3911
 2063SOL    HW117651   0.500   0.880  14.651 -1.0923  1.3297  1.5595
 2063SOL    HW217652   0.550   0.919  14.513 -0.4825 -1.0305 -0.2960
 2064SOL     OW17653   1.158   3.902   2.758  0.7185 -0.5085 -0.2995
 2064SOL    HW117654   1.086   3.840   2.769  0.2002  0.7548  3.4607
 2064SOL    HW217655   1.224   3.834   2.750 -0.4935 -1.7259 -0.0873
 2065SOL     OW17656   0.318   2.527   7.992  0.2391  0.0239 -0.9620
 2065SOL    HW117657   0.275   2.580   8.060  2.6727  0.5994  0.1366
 2065SOL    HW217658   0.295   2.572   7.911 -0.0830  2.3317  0.4115
 2066SOL     OW17659   3.096   0.590   2.726  0.0529 -0.1033  0.3989
 2066SOL    HW117660   3.188   0.573   2.708 -0.0428  0.5398 -0.6568
 2066SOL    HW217661   3.108   0.653   2.797  0.3560  1.7844 -1.3313
 2067SOL     OW17662   3.319   2.178   8.677 -0.6162  0.4422 -0.0246
 2067SOL    HW117663   3.264   2.104   8.703 -0.3143 -0.1953 -1.2242
 2067SOL    HW217664   3.326   2.169   8.582  0.5299  1.3239 -0.0245
 2068SOL     OW17665   1.385   0.440   1.928  0.8308  0.3440 -0.3029
 2068SOL    HW117666   1.438   0.373   1.971  0.0399  0.4205  0.7836
 2068SOL    HW217667   1.403   0.424   1.835 -0.2421 -0.5139 -0.3609
 2069SOL     OW17668   2.681   0.259   1.600  0.0735  0.3767 -0.4921
 2069SOL    HW117669   2.741   0.185   1.603  1.1835  1.2070 -1.8893
 2069SOL    HW217670   2.706   0.303   1.519 -0.6179  3.8914  1.1924
 2070SOL     OW17671   2.089   0.242   2.376 -0.2555 -0.3539  0.1184
 2070SOL    HW117672   2.172   0.193   2.373  0.2138  0.5384 -1.7145
 2070SOL    HW217673   2.017   0.179   2.370  1.3723 -2.2396  0.0323
 2071SOL     OW17674   4.477   1.867  14.822 -0.2446 -0.4813  0.5710
 2071SOL    HW117675   4.563   1.824  14.814  0.8395  1.3604  2.3239
 2071SOL    HW217676   4.499   1.941  14.766  2.1814  0.0344  2.1835
 2072SOL     OW17677   3.518   1.530   6.252 -0.3226  0.2397  0.2244
 2072SOL    HW117678   3.536   1.436   6.259 -0.7971  0.0200 -1.5585
 2072SOL    HW217679   3.583   1.568   6.193 -0.2109 -2.0197 -1.0932
 2073SOL     OW17680   3.909   3.222   6.032  0.4023 -0.3336  1.0043
 2073SOL    HW117681   3.992   3.268   6.046  0.4091 -0.1369  0.3371
 2073SOL    HW217682   3.917   3.214   5.937 -0.6534  1.4331  0.7601
 2074SOL     OW17683   3.249   0.013   8.431 -0.2394  0.4881 -0.0276
 2074SOL    HW117684   3.217   0.103   8.420  0.6680  0.7359 -0.5691
 2074SOL    HW217685   3.200   4.700   8.505  0.5121 -0.6506 -0.1217
 2075SOL     OW17686   0.912   3.594  13.896  0.2218 -0.0420  0.0089
 2075SOL    HW117687   0.923   3.687  13.919 -0.0927 -0.2495  1.0079
 2075SOL    HW217688   0.872   3.584  13.810  2.1852  0.8988 -1.0166
 2076SOL     OW17689   2.623   1.845   5.517 -0.0983  0.8187  0.1223
 2076SOL    HW117690   2.622   1.768   5.461  0.3771  0.5357  0.4964
 2076SOL    HW217691   2.618   1.915   5.452 -0.9227  2.3148  1.7937
 2077SOL     OW17692   3.158   1.031   2.562 -0.5320 -0.3573 -0.0240
 2077SOL    HW117693   3.163   1.124   2.582  1.2045 -0.7851  1.5162
 2077SOL    HW217694   3.212   1.001   2.635  2.4954  0.3219 -1.9392
 2078SOL     OW17695   2.049   2.806   4.722 -0.3390 -0.2115 -0.5719
 2078SOL    HW117696   2.056   2.743   4.793 -0.1289  0.0077 -0.4026
 2078SOL    HW217697   2.037   2.750   4.645  1.9393 -0.9747 -0.3628
 2079SOL     OW17698   1.083   1.551   3.087 -0.0731  0.2076  0.3139
 2079SOL    HW117699   1.143   1.477   3.074  0.0763  0.6716 -1.6731
 2079SOL    HW217700   1.142   1.625   3.072 -1.0740  1.0274  0.4149
 2080SOL     OW17701   2.972   1.054  15.986 -0.2198  0.8000 -0.0850
 2080SOL    HW117702   3.047   1.113  15.980 -1.3463  2.3394  0.8285
 2080SOL    HW217703   3.010   0.978  16.030 -3.1494  0.9290  2.7268
 2081SOL     OW17704   3.519   2.644   6.505 -0.5508  0.4565  0.5231
 2081SOL    HW117705   3.595   2.696   6.531  2.7926 -3.4113 -1.3982
 2081SOL    HW217706   3.557   2.586   6.438  0.5167  0.7464  0.8782
 2082SOL     OW17707   1.363   2.270  17.157  0.0284  0.0926  0.0605
 2082SOL    HW117708   1.324   2.295  17.072 -0.8115  1.3350  0.8011
 2082SOL    HW217709   1.286   2.267  17.214 -0.5889 -1.1694 -0.8335
 2083SOL     OW17710   4.684   1.853   6.654  0.5158  0.2036 -0.3665
 2083SOL    HW117711   4.618   1.884   6.591  0.1813 -0.1979 -0.2177
 2083SOL    HW217712   0.037   1.842   6.600  0.7881  1.1204 -0.1443
 2084SOL     OW17713   0.224   2.706   0.760 -0.0345  0.0533  0.0594
 2084SOL    HW117714   0.304   2.734   0.805  1.0912 -4.2403  0.6957
 2084SOL    HW217715   0.226   2.611   0.767  0.1737 -0.0063 -0.7982
 2085SOL     OW17716   1.796   0.820   0.880 -0.0603  0.6561 -0.1788
 2085SOL    HW117717   1.881   0.855   0.854  0.0137  0.9476  0.4774
 2085SOL    HW217718   1.740   0.891   0.850  0.5888  1.1082 -0.3214
 2086SOL     OW17719   1.916   2.782   2.485  0.6233 -0.4364  0.0806
 2086SOL    HW117720   1.965   2.722   2.429  1.3972 -0.5354  0.8505
 2086SOL    HW217721   1.842   2.726   2.509  0.0280  0.0112 -0.7473
 2087SOL     OW17722   0.390   0.424   4.112 -0.1418  0.4223 -0.2603
 2087SOL    HW117723   0.340   0.482   4.170  0.4803  1.7510 -1.0481
 2087SOL    HW217724   0.347   0.342   4.137  0.8828 -0.3120 -0.9081
 2088SOL     OW17725   2.276   4.191   7.348 -0.1111  0.4543 -0.6786
 2088SOL    HW117726   2.194   4.207   7.301 -1.2547 -2.2072  0.4163
 2088SOL    HW217727   2.236   4.193   7.435 -0.1998 -1.6441 -0.6820
 2089SOL     OW17728   1.431   0.947   4.899 -0.2968 -0.0419  0.2986
 2089SOL    HW117729   1.357   0.908   4.853  0.9492 -1.8897 -0.1174
 2089SOL    HW217730   1.508   0.894   4.878 -0.7531 -1.2671  1.6989
 2090SOL     OW17731   4.116   4.631  14.654 -0.2915 -0.3832 -0.4026
 2090SOL    HW117732   4.072   4.707  14.615  1.3533  1.5688  1.5613
 2090SOL    HW217733   4.118   4.663  14.744 -2.6858  2.1056 -1.2206
 2091SOL     OW17734   3.764   2.391   4.288 -0.0863  0.1693 -0.1680
 2091SOL    HW117735   3.694   2.456   4.283 -0.4484  0.0253  2.9798
 2091SOL    HW217736   3.722   2.313   4.250 -0.6700  0.2644  0.2810
 2092SOL     OW17737   3.705   3.047  17.599 -0.0415 -0.3417  0.1465
 2092SOL    HW117738   3.696   3.119  17.537  0.8174 -0.7408 -0.4361
 2092SOL    HW217739   3.718   2.972  17.541 -1.1561 -0.2268 -0.2485
 2093SOL     OW17740   1.941   2.772   3.864 -0.2080 -0.4818 -0.2498
 2093SOL    HW117741   1.986   2.857   3.859 -0.1080 -0.5996 -1.2232
 2093SOL    HW217742   2.014   2.714   3.846  0.0151 -0.7362  1.4017
 2094SOL     OW17743   3.195   4.411   1.689 -0.1608 -0.1401  0.0211
 2094SOL    HW117744   3.287   4.407   1.715 -0.3171 -2.3952  0.2365
 2094SOL    HW217745   3.204   4.400   1.594  1.7687  2.2052 -0.0632
 2095SOL     OW17746   0.496   2.633   8.582 -0.0417  0.1290  0.2237
 2095SOL    HW117747   0.510   2.622   8.676 -0.6323 -0.8944  0.2001
 2095SOL    HW217748   0.548   2.554   8.566  0.8237  0.3508  1.9170
 2096SOL     OW17749   2.088   0.276   7.308  0.2042 -0.0766  0.0761
 2096SOL    HW117750   2.106   0.306   7.397 -2.7384  1.2102  0.2360
 2096SOL    HW217751   2.085   0.182   7.321 -0.5342  0.1214  1.3000
 2097SOL     OW17752   0.606   2.591  17.110 -0.4227  0.8322  0.0097
 2097SOL    HW117753   0.527   2.600  17.059 -2.5332  1.3716  3.3585
 2097SOL    HW217754   0.669   2.615  17.043  0.5195  1.2232  1.0234
 2098SOL     OW17755   3.187   2.830  15.367 -0.0233 -0.4483 -0.0778
 2098SOL    HW117756   3.158   2.745  15.400 -0.0989 -0.2151  0.4533
 2098SOL    HW217757   3.265   2.803  15.317 -0.3026 -0.5903 -0.4389
 2099SOL     OW17758   3.232   4.575  15.902  0.2451 -0.3495  0.1221
 2099SOL    HW117759   3.261   4.489  15.933 -2.2215 -1.1103  0.3510
 2099SOL    HW217760   3.194   4.615  15.980  1.2128  2.1255 -0.6747
 2100SOL     OW17761   2.180   0.577   4.101  0.3640 -0.0227  0.7526
 2100SOL    HW117762   2.113   0.636   4.133 -0.7434  0.7619 -3.0041
 2100SOL    HW217763   2.143   0.494   4.131  2.0798 -1.3238 -0.6813
 2101SOL     OW17764   2.090   1.523   0.932 -0.5291  0.5292 -0.2019
 2101SOL    HW117765   2.163   1.573   0.895  0.1738 -0.1045  0.3130
 2101SOL    HW217766   2.072   1.467   0.856  2.4068 -0.3635 -0.2509
 2102SOL     OW17767   1.990   1.606   3.914 -0.5544  0.0040  0.1714
 2102SOL    HW117768   1.970   1.552   3.837 -0.5778 -1.1364  0.9849
 2102SOL    HW217769   2.022   1.554   3.987  0.1338 -0.1848 -0.2537
 2103SOL     OW17770   3.685   0.847   1.111  0.1011  0.3866  0.1403
 2103SOL    HW117771   3.757   0.865   1.172  0.8952 -1.4467 -0.2660
 2103SOL    HW217772   3.681   0.925   1.055 -1.4896  0.7717  0.7763
 2104SOL     OW17773   2.302   1.087  17.129  0.5216 -0.1303  0.0987
 2104SOL    HW117774   2.249   1.130  17.062 -0.6294  2.5649  2.7842
 2104SOL    HW217775   2.244   1.020  17.165  1.9233 -0.2944  2.0649
 2105SOL     OW17776   3.028   4.671   3.105  0.2805  0.0991 -0.2304
 2105SOL    HW117777   3.106   4.686   3.051  0.0534  1.9227 -0.0720
 2105SOL    HW217778   3.009   0.040   3.111  0.8507  0.0764  1.8448
 2106SOL     OW17779   4.335   3.007   4.933  0.5676 -0.0414 -0.3600
 2106SOL    HW117780   4.358   3.016   4.840  0.5795 -2.0666 -0.5481
 2106SOL    HW217781   4.244   2.978   4.925  0.2136  1.2809 -1.1412
 2107SOL     OW17782   2.457   4.649  14.142 -0.9063  0.1797  0.1974
 2107SOL    HW117783   2.464   4.554  14.136 -0.8031  0.3158 -1.8848
 2107SOL    HW217784   2.501   4.676  14.061  0.5416 -1.0812  0.5679
 2108SOL     OW17785   3.028   2.219   4.103 -0.1612  0.1999  0.2256
 2108SOL    HW117786   3.021   2.265   4.186  2.0763  0.6197  0.1929
 2108SOL    HW217787   3.094   2.154   4.124 -0.0252  0.5690  0.9494
 2109SOL     OW17788   4.240   1.004   0.613  0.2302 -0.0563 -0.3207
 2109SOL    HW117789   4.188   0.928   0.639  1.3667 -0.0451  2.0365
 2109SOL    HW217790   4.330   0.973   0.610  0.0493 -0.4898 -1.1732
 2110SOL     OW17791   3.352   3.356  12.985  0.0237  0.1607 -0.0605
 2110SOL    HW117792   3.438   3.397  12.991  0.7107 -1.1008 -1.2442
 2110SOL    HW217793   3.362   3.285  13.049  2.9377  1.8687  1.3968
 2111SOL     OW17794   2.642   4.007   4.328  0.5166  0.3119 -0.0023
 2111SOL    HW117795   2.567   4.036   4.276 -0.6811 -3.0656 -0.1760
 2111SOL    HW217796   2.632   4.068   4.401 -1.3932  2.2388 -1.9123
 2112SOL     OW17797   1.749   3.335   7.272  0.2693  1.0715  0.6727
 2112SOL    HW117798   1.837   3.368   7.253  1.3675 -1.9563  0.5509
 2112SOL    HW217799   1.754   3.264   7.335 -0.3769  0.4965  0.0832
 2113SOL     OW17800   2.860   3.205   6.915  0.6148 -0.5477  0.3444
 2113SOL    HW117801   2.788   3.173   6.861  0.3108 -2.5338  1.9300
 2113SOL    HW217802   2.911   3.255   6.851 -1.4363  0.6549 -0.3619
 2114SOL     OW17803   1.230   3.500   3.543  0.1382  0.1972  0.0252
 2114SOL    HW117804   1.274   3.536   3.619  1.6020 -0.2995 -0.5905
 2114SOL    HW217805   1.217   3.417   3.588  1.9888  0.2703  0.6663
 2115SOL     OW17806   3.157   1.343  11.556  0.2868  0.1795 -0.1735
 2115SOL    HW117807   3.186   1.431  11.532  1.4996 -0.7366 -2.1228
 2115SOL    HW217808   3.206   1.290  11.493 -0.4294 -0.8812  0.1698
 2116SOL     OW17809   1.756   1.656   3.622  0.0897 -0.1858 -0.0312
 2116SOL    HW117810   1.768   1.583   3.684 -0.0603  0.1088  0.3450
 2116SOL    HW217811   1.674   1.626   3.585  0.9817 -1.7794 -0.7213
 2117SOL     OW17812   0.704   4.619   4.155 -0.4065  0.4407 -0.4969
 2117SOL    HW117813   0.725   4.533   4.119 -0.4630  0.2512 -0.0853
 2117SOL    HW217814   0.735   4.599   4.244  1.1210  0.5137 -1.0101
 2118SOL     OW17815   3.328   1.119   0.634  0.9824 -0.0972  0.1689
 2118SOL    HW117816   3.246   1.163   0.613  0.2123  0.3246  4.1584
 2118SOL    HW217817   3.388   1.172   0.582 -0.2118  2.0261  0.9748
 2119SOL     OW17818   1.162   2.854   3.007  0.2356  0.0401 -0.1492
 2119SOL    HW117819   1.125   2.896   3.085  1.1507  0.3817  0.1105
 2119SOL    HW217820   1.128   2.920   2.947 -3.3839 -2.8047 -1.1747
 2120SOL     OW17821   2.912   1.998   4.001  0.0437 -0.3875 -0.5111
 2120SOL    HW117822   2.849   2.061   4.036  0.8053  1.6215 -2.6667
 2120SOL    HW217823   2.893   2.005   3.907  0.0606  0.8125 -0.4256
 2121SOL     OW17824   2.183   3.165   4.450 -0.2834  0.4030 -0.1368
 2121SOL    HW117825   2.102   3.166   4.502 -0.1282  2.2681  0.0731
 2121SOL    HW217826   2.241   3.129   4.517  0.9507  0.8347 -0.9639
 2122SOL     OW17827   2.239   0.181  15.428  0.0966 -0.1930  0.3199
 2122SOL    HW117828   2.207   0.249  15.486 -1.0905 -0.7476  0.3211
 2122SOL    HW217829   2.173   0.115  15.450  1.4085 -1.2726  1.0127
 2123SOL     OW17830   4.716   0.405   5.934  0.2229 -0.0082 -0.3498
 2123SOL    HW117831   0.057   0.474   5.942 -1.9307  1.6675  3.1518
 2123SOL    HW217832   4.702   0.400   6.029  1.5164 -1.5406 -0.2369
 2124SOL     OW17833   2.052   0.098   7.592  0.1282 -0.2104 -0.5253
 2124SOL    HW117834   2.001   0.097   7.510 -0.7089 -0.0448 -0.0129
 2124SOL    HW217835   2.008   0.023   7.633  0.4326  0.0831  0.3388
 2125SOL     OW17836   2.103   0.033   4.159 -0.2228  0.2690 -0.0718
 2125SOL    HW117837   2.016   0.060   4.190  0.1280  0.6145  0.6246
 2125SOL    HW217838   2.143   0.118   4.138  1.4024 -0.6726 -0.7262
 2126SOL     OW17839   1.371   0.523   5.756 -0.2451 -0.3504  0.4833
 2126SOL    HW117840   1.377   0.606   5.709 -0.4823 -0.9946 -0.6871
 2126SOL    HW217841   1.374   0.547   5.849  1.7934 -3.2187  1.1476
 2127SOL     OW17842   4.370   4.643   3.350 -0.6646 -0.5117  0.3300
 2127SOL    HW117843   4.317   4.679   3.278 -0.2370 -0.5776 -0.0203
 2127SOL    HW217844   4.454   4.686   3.330 -0.7212 -0.1656  0.8431
 2128SOL     OW17845   3.938   1.392   4.015 -0.2311  0.0431 -0.2953
 2128SOL    HW117846   3.927   1.322   3.951 -3.5522 -1.0324  1.4806
 2128SOL    HW217847   4.030   1.385   4.040  0.3863 -1.3550 -2.9787
 2129SOL     OW17848   4.531   4.214   8.186 -0.0470 -0.0668 -0.0300
 2129SOL    HW117849   4.448   4.258   8.167  0.8981  1.1931 -1.2169
 2129SOL    HW217850   4.557   4.280   8.249  0.2900  0.1133 -0.3571
 2130SOL     OW17851   2.657   4.350  14.460  0.5415  0.0461  1.0624
 2130SOL    HW117852   2.655   4.313  14.548 -2.0849  0.3786  1.1274
 2130SOL    HW217853   2.608   4.287  14.407  0.9572  1.6947 -1.2907
 2131SOL     OW17854   1.749   4.503   2.971 -0.2213 -0.3167 -1.2376
 2131SOL    HW117855   1.805   4.427   2.959  0.8652  0.4436 -0.9912
 2131SOL    HW217856   1.669   4.454   2.993  0.0666  0.1435  0.8398
 2132SOL     OW17857   3.678   0.823   3.456  0.2176  0.4455  0.4482
 2132SOL    HW117858   3.632   0.894   3.412 -0.3902  0.3997  1.0227
 2132SOL    HW217859   3.619   0.752   3.430 -1.4222  1.1072  2.3646
 2133SOL     OW17860   0.659   2.625  16.047  0.2225  0.0810  0.1833
 2133SOL    HW117861   0.604   2.629  16.126  1.4607 -2.9197  1.1945
 2133SOL    HW217862   0.606   2.657  15.974 -0.3221 -2.5575 -0.6070
 2134SOL     OW17863   0.852   1.945   3.338 -0.4079  0.1101  0.0346
 2134SOL    HW117864   0.855   2.012   3.270  0.1116 -0.0950 -0.1444
 2134SOL    HW217865   0.833   2.000   3.413 -0.3144 -0.5973  0.5816
 2135SOL     OW17866   2.126   2.808   2.946  0.3091 -0.4227  0.7877
 2135SOL    HW117867   2.125   2.783   2.853  0.3914 -0.0198  0.6771
 2135SOL    HW217868   2.030   2.811   2.952  0.3595  1.4855  0.5632
 2136SOL     OW17869   3.986   1.794   4.920  0.8307  0.2586 -0.3401
 2136SOL    HW117870   4.060   1.746   4.957  0.2621  0.0962  0.5756
 2136SOL    HW217871   3.923   1.784   4.991  1.4588  1.2402  0.3651
 2137SOL     OW17872   0.542   3.007   4.027 -0.0794  0.6232 -0.3272
 2137SOL    HW117873   0.449   3.013   4.050 -0.5020  1.1689 -2.2041
 2137SOL    HW217874   0.543   3.035   3.936  1.5312 -0.3206 -0.5950
 2138SOL     OW17875   2.031   4.060   8.428  0.0359 -0.1797 -0.1331
 2138SOL    HW117876   2.098   4.119   8.461  0.3186 -1.5469  1.7027
 2138SOL    HW217877   1.961   4.065   8.492 -0.0520  1.0906 -0.3319
 2139SOL     OW17878   2.867   0.934   0.504 -0.2534 -0.1299  0.8048
 2139SOL    HW117879   2.776   0.913   0.485 -0.7423  0.9698  1.9192
 2139SOL    HW217880   2.900   0.966   0.420 -0.6644 -0.2394  0.6046
 2140SOL     OW17881   2.243   0.329   1.993 -0.0043 -0.0290 -0.5613
 2140SOL    HW117882   2.272   0.333   1.902 -2.1616 -2.3100 -1.3398
 2140SOL    HW217883   2.228   0.419   2.023 -0.3990 -0.7458  1.4262
 2141SOL     OW17884   3.707   4.371  15.996 -0.4498  0.2338 -0.2438
 2141SOL    HW117885   3.640   4.319  15.954 -0.8428  0.4588  0.1022
 2141SOL    HW217886   3.656   4.451  16.007 -1.1588 -0.1456 -0.7550
 2142SOL     OW17887   4.379   2.759  10.281 -0.1707  0.6082 -0.3117
 2142SOL    HW117888   4.390   2.716  10.196 -0.8336 -0.2906  0.0591
 2142SOL    HW217889   4.417   2.693  10.338  2.0072 -0.0617 -2.5464
 2143SOL     OW17890   1.196   0.271   6.933 -0.0120  0.1946 -0.1152
 2143SOL    HW117891   1.286   0.284   6.965  0.8929 -0.6542 -2.3728
 2143SOL    HW217892   1.166   0.359   6.910 -0.3228 -0.1985 -1.1856
 2144SOL     OW17893   3.918   1.115   2.948  0.0977  0.1869  0.3221
 2144SOL    HW117894   3.927   1.157   2.862  1.9644  0.8259  0.8300
 2144SOL    HW217895   4.008   1.090   2.968  0.2772  0.9713  0.4840
 2145SOL     OW17896   2.133   0.988  16.705  0.2218  0.3756  0.2699
 2145SOL    HW117897   2.149   0.984  16.611 -0.1077 -2.1457  0.3236
 2145SOL    HW217898   2.154   1.079  16.726  0.3714 -0.2745  2.8781
 2146SOL     OW17899   3.360   2.734   2.429  0.2600  0.1017 -0.3149
 2146SOL    HW117900   3.387   2.658   2.481  0.0379  0.4742  0.3513
 2146SOL    HW217901   3.385   2.810   2.482 -0.3499 -2.5897  3.8362
 2147SOL     OW17902   0.081   1.783   4.074 -0.6508 -0.6107 -0.6977
 2147SOL    HW117903   0.058   1.732   3.996 -0.9142  1.1421 -1.7522
 2147SOL    HW217904   0.052   1.867   4.040 -2.4197 -0.5692  0.9275
 2148SOL     OW17905   1.269   4.345   1.851 -0.4787  0.4798  0.6494
 2148SOL    HW117906   1.263   4.294   1.932  0.1550 -0.9766 -0.2142
 2148SOL    HW217907   1.271   4.273   1.788  0.0952  0.8920  0.1961
 2149SOL     OW17908   4.072   0.859  17.318 -0.2305 -0.7180 -0.0102
 2149SOL    HW117909   4.012   0.901  17.381 -0.1504  1.6392 -1.5003
 2149SOL    HW217910   4.146   0.919  17.322  0.3793 -1.4207 -1.0681
 2150SOL     OW17911   4.656   2.374   4.321  0.4695  0.1713  0.0945
 2150SOL    HW117912   4.629   2.460   4.288 -2.1671 -0.8260 -0.3576
 2150SOL    HW217913   0.017   2.394   4.359  0.0555  0.2143  1.0023
 2151SOL     OW17914   4.264   2.037  10.006  0.4396  0.0296 -0.9711
 2151SOL    HW117915   4.335   1.996   9.957  0.0916  1.3375 -2.5719
 2151SOL    HW217916   4.210   1.959  10.018  2.2594 -0.6286  2.8971
 2152SOL     OW17917   2.495   4.435   4.221  0.0105 -0.3523  0.2739
 2152SOL    HW117918   2.500   4.445   4.126  1.7671 -0.8215  0.3313
 2152SOL    HW217919   2.421   4.492   4.244  0.6122  1.3932 -2.0754
 2153SOL     OW17920   1.285   0.287   2.668 -0.1789  0.4876 -0.5120
 2153SOL    HW117921   1.256   0.267   2.757  0.7423  0.5201 -0.1949
 2153SOL    HW217922   1.211   0.259   2.615 -1.5428 -0.1229  1.7026
 2154SOL     OW17923   4.064   3.229   7.711  0.2806 -0.0103  0.6167
 2154SOL    HW117924   4.018   3.268   7.786  0.2355 -2.0081  1.6188
 2154SOL    HW217925   4.130   3.297   7.699 -0.2025 -0.1185 -2.4765
 2155SOL     OW17926   0.353   1.788   6.938 -0.3463  0.4445  0.5889
 2155SOL    HW117927   0.434   1.742   6.915 -0.7641  0.6183 -1.2965
 2155SOL    HW217928   0.372   1.793   7.031 -1.2787  0.3243  0.7780
 2156SOL     OW17929   1.266   4.469   5.760 -0.9020  0.3859 -0.3012
 2156SOL    HW117930   1.171   4.464   5.775 -0.5219 -0.3378  1.9010
 2156SOL    HW217931   1.300   4.440   5.845 -2.5422  1.0485  0.5772
 2157SOL     OW17932   4.712   0.689   6.372 -0.1698  0.0293 -0.6234
 2157SOL    HW117933   4.698   0.758   6.307  1.2585  2.5839  1.7841
 2157SOL    HW217934   4.631   0.640   6.384 -2.1135  3.6203  1.1160
 2158SOL     OW17935   4.335   3.581   5.624  0.0891 -0.1969 -0.2145
 2158SOL    HW117936   4.269   3.649   5.610  0.1176  0.0778  0.9916
 2158SOL    HW217937   4.323   3.523   5.549  2.0734 -1.4808  0.4543
 2159SOL     OW17938   3.898   2.920  10.011 -0.3089 -0.5075 -0.3155
 2159SOL    HW117939   3.971   2.975   9.983  2.1334 -3.6688 -0.1268
 2159SOL    HW217940   3.923   2.836   9.973 -0.4880 -0.1052 -1.3187
 2160SOL     OW17941   1.628   1.836  10.080 -0.2704  0.2740  1.1497
 2160SOL    HW117942   1.590   1.760  10.037  0.8359  0.7819 -0.7043
 2160SOL    HW217943   1.702   1.789  10.119 -0.6641 -1.0855  0.2388
 2161SOL     OW17944   1.372   4.644   0.579  0.3871  0.1753  0.0529
 2161SOL    HW117945   1.413   4.659   0.494  0.3021  0.3864  0.0510
 2161SOL    HW217946   1.429   4.706   0.625  0.9768 -0.0637 -0.3466
 2162SOL     OW17947   1.146   3.159   3.420  0.4626 -0.0925  0.5919
 2162SOL    HW117948   1.113   3.220   3.485  1.4590  1.9568 -0.8373
 2162SOL    HW217949   1.239   3.168   3.442  0.5761 -0.1062  0.1163
 2163SOL     OW17950   2.085   0.020  14.849 -0.2633 -0.1451  0.5669
 2163SOL    HW117951   2.022   0.092  14.841  0.9094  0.9214  0.8775
 2163SOL    HW217952   2.086   4.714  14.759  0.1119 -1.9125  1.1783
 2164SOL     OW17953   1.195   4.076  11.850  0.1444  0.1517  0.6672
 2164SOL    HW117954   1.119   4.055  11.795  0.7692  0.3211 -0.2458
 2164SOL    HW217955   1.236   4.149  11.803 -0.6927  1.5458  2.0581
 2165SOL     OW17956   0.915   4.709   4.959  0.2784  0.0347  0.0167
 2165SOL    HW117957   0.923   4.671   5.046 -0.0676  3.5179  1.5565
 2165SOL    HW217958   0.979   4.654   4.913  1.9272  1.3179  0.7639
 2166SOL     OW17959   2.770   4.171   7.599  0.0141  0.5099 -0.1847
 2166SOL    HW117960   2.811   4.257   7.591 -0.1168  0.2861 -3.3348
 2166SOL    HW217961   2.844   4.118   7.571  0.4728  1.6835 -1.1983
 2167SOL     OW17962   2.323   4.669   3.750  0.2279 -0.5294  0.1014
 2167SOL    HW117963   2.324   0.035   3.781 -3.5944 -0.1385 -0.8329
 2167SOL    HW217964   2.261   4.635   3.815  0.1036 -0.5703 -0.0381
 2168SOL     OW17965   3.459   4.455   4.847 -0.1454  0.6708 -0.0898
 2168SOL    HW117966   3.543   4.498   4.828  1.2264 -1.8201  0.3245
 2168SOL    HW217967   3.486   4.406   4.925 -0.4005  0.0576 -0.3834
 2169SOL     OW17968   2.009   0.091   0.603  0.2507 -0.0548 -0.5129
 2169SOL    HW117969   1.985   0.054   0.688  2.3698 -0.1318  0.0640
 2169SOL    HW217970   2.105   0.097   0.607  0.1214  0.7156  1.3349
 2170SOL     OW17971   3.679   1.233   4.170 -0.3501  0.1195  0.0778
 2170SOL    HW117972   3.752   1.285   4.137 -0.5132 -0.2810 -0.9165
 2170SOL    HW217973   3.637   1.213   4.086 -0.0331  2.2130 -0.5847
 2171SOL     OW17974   0.737   3.063   6.703 -0.4184  0.1795 -0.0065
 2171SOL    HW117975   0.817   3.014   6.724 -0.7627  0.1925  1.3324
 2171SOL    HW217976   0.756   3.137   6.761 -1.6164 -0.4335  1.1513
 2172SOL     OW17977   2.078   2.486  14.596  0.5341  0.2009  0.3438
 2172SOL    HW117978   2.131   2.551  14.549  1.1887 -0.7231 -0.1902
 2172SOL    HW217979   2.131   2.406  14.594  2.0770  1.2478 -0.9449
 2173SOL     OW17980   2.161   4.267   8.585  0.6995  0.0045  0.4410
 2173SOL    HW117981   2.138   4.275   8.677  0.2897  0.5425  0.2951
 2173SOL    HW217982   2.174   4.357   8.554 -2.2472 -0.9159 -3.5465
 2174SOL     OW17983   3.528   1.043   6.494  0.0661 -0.0298  0.0435
 2174SOL    HW117984   3.622   1.054   6.508  0.1886 -0.1004 -0.7404
 2174SOL    HW217985   3.510   0.980   6.564 -0.3746 -0.0213 -0.0643
 2175SOL     OW17986   2.050   2.653  17.025  0.3106  0.2299 -0.1581
 2175SOL    HW117987   1.981   2.607  16.976 -1.1297  0.2748  1.8135
 2175SOL    HW217988   2.106   2.575  17.032  1.9191  1.3555 -0.6876
 2176SOL     OW17989   1.139   0.577   0.161  0.0125  0.6934 -0.2745
 2176SOL    HW117990   1.143   0.617   0.075 -1.4478 -0.5630 -0.9371
 2176SOL    HW217991   1.106   0.489   0.143 -0.9046  0.7319  1.1417
 2177SOL     OW17992   1.152   0.634  14.598 -0.1000  0.0470  0.3267
 2177SOL    HW117993   1.158   0.687  14.677  1.5613  0.8884 -0.3791
 2177SOL    HW217994   1.056   0.629  14.599 -0.2040  1.9110 -1.0240
 2178SOL     OW17995   0.797   3.546   7.551 -0.4476 -0.6311 -0.4852
 2178SOL    HW117996   0.816   3.639   7.553  0.6093 -0.8331 -1.7940
 2178SOL    HW217997   0.878   3.498   7.532  1.3817  2.2089  0.1685
 2179SOL     OW17998   1.046   0.968   0.340  0.1490 -0.0432 -0.2325
 2179SOL    HW117999   1.031   0.881   0.303 -0.6111 -0.0157  0.0059
 2179SOL    HW218000   1.017   0.949   0.429  0.9339  0.3145  0.0976
 2180SOL     OW18001   3.065   0.523   5.980  0.2217 -0.6016 -0.4578
 2180SOL    HW118002   3.108   0.465   6.043 -0.8257 -0.7124  0.1509
 2180SOL    HW218003   2.974   0.505   6.001 -0.3431  0.0671 -2.2995
 2181SOL     OW18004   2.523   4.011   5.642 -0.2205  1.0669  0.2473
 2181SOL    HW118005   2.513   4.100   5.608 -1.9598  0.5903 -0.5234
 2181SOL    HW218006   2.595   3.987   5.584  0.3565 -0.6961  1.7221
 2182SOL     OW18007   3.144   0.530   0.607  0.4756 -0.1097 -0.5601
 2182SOL    HW118008   3.165   0.509   0.698 -0.5276  1.1303 -0.0422
 2182SOL    HW218009   3.093   0.608   0.629  0.6610  0.4051 -1.9347
 2183SOL     OW18010   3.206   4.679   1.416 -0.0160  0.3547 -0.0008
 2183SOL    HW118011   3.125   4.637   1.444 -0.6610  0.3726 -1.8518
 2183SOL    HW218012   3.173   0.039   1.387  0.8996  0.7403  0.0680
 2184SOL     OW18013   1.474   4.331   0.784  0.0666 -0.5890  0.3828
 2184SOL    HW118014   1.379   4.316   0.787  0.5900 -3.4831  2.4774
 2184SOL    HW218015   1.469   4.424   0.807 -3.0905 -0.6120 -0.2046
 2185SOL     OW18016   0.835   1.006   4.111 -0.2403  0.7184 -0.4621
 2185SOL    HW118017   0.823   1.093   4.148 -0.3479  1.4808 -2.2712
 2185SOL    HW218018   0.752   0.998   4.064  0.9370  2.9380 -2.9042
 2186SOL     OW18019   2.050   0.875  17.110 -0.3624 -0.2433 -0.4271
 2186SOL    HW118020   1.969   0.902  17.152  0.3347 -1.2072  1.5138
 2186SOL    HW218021   2.113   0.849  17.177 -0.8173 -1.4185 -0.4536
 2187SOL     OW18022   3.049   4.486  17.587  0.1146  0.0389  0.2925
 2187SOL    HW118023   2.989   4.460  17.658 -0.2980  0.9704  0.2982
 2187SOL    HW218024   3.119   4.423  17.600  0.0519  0.3783  2.3612
 2188SOL     OW18025   3.455   3.128   6.095 -0.3868  0.2179  0.7070
 2188SOL    HW118026   3.491   3.216   6.086  0.3453 -0.2112 -0.5556
 2188SOL    HW218027   3.499   3.093   6.173 -0.4529  0.1747  0.7251
 2189SOL     OW18028   4.667   4.474   4.183 -0.0547  0.2142 -0.1196
 2189SOL    HW118029   0.016   4.427   4.145 -0.9550  0.0662 -1.7401
 2189SOL    HW218030   4.617   4.501   4.105 -0.7844 -0.1527  0.2169
 2190SOL     OW18031   4.315   4.229   3.784  0.6236  0.0673  0.1483
 2190SOL    HW118032   4.343   4.242   3.694  0.7150  1.2048  0.3291
 2190SOL    HW218033   4.259   4.305   3.799  0.0125 -0.8660  2.5616
 2191SOL     OW18034   0.042   3.540  16.544  0.2825 -0.5309  0.9640
 2191SOL    HW118035   0.102   3.479  16.587  1.2340  0.6692  1.3526
 2191SOL    HW218036   4.722   3.565  16.624  0.1399  2.0306  0.0798
 2192SOL     OW18037   3.483   0.849   6.101 -0.3942  0.4556 -0.2214
 2192SOL    HW118038   3.397   0.822   6.070 -1.5143  1.3951  2.0648
 2192SOL    HW218039   3.523   0.819   6.019  1.1577  1.0352  0.3335
 2193SOL     OW18040   2.872   1.262   5.532  0.3236  0.1294 -0.2615
 2193SOL    HW118041   2.923   1.337   5.562 -3.2732  1.6624  2.0676
 2193SOL    HW218042   2.797   1.271   5.591  0.9338 -2.5945  0.8857
 2194SOL     OW18043   2.943   0.729  17.099 -0.1116 -0.1839  0.0912
 2194SOL    HW118044   2.902   0.643  17.092 -1.4043  0.3291  1.2694
 2194SOL    HW218045   2.961   0.733  17.193 -1.2824  3.6577  0.1606
 2195SOL     OW18046   0.973   3.049   4.674 -0.3256 -0.2781 -0.1533
 2195SOL    HW118047   0.984   2.954   4.662 -3.1498 -0.7356  0.8755
 2195SOL    HW218048   0.965   3.043   4.769  0.7991  0.9278  0.0144
 2196SOL     OW18049   3.311   1.015   0.899 -0.6777  0.2155  0.2949
 2196SOL    HW118050   3.328   1.051   0.812 -0.2295 -1.2265 -0.2175
 2196SOL    HW218051   3.351   1.087   0.948  0.9029 -0.7771  0.4688
 2197SOL     OW18052   3.494   3.839  13.457 -0.6732  0.5415 -0.4275
 2197SOL    HW118053   3.566   3.899  13.475  0.5134 -0.6518 -1.2247
 2197SOL    HW218054   3.425   3.874  13.514 -0.4924  2.7055 -1.5555
 2198SOL     OW18055   1.094   1.743   5.238 -0.3867 -0.0542 -0.2093
 2198SOL    HW118056   1.177   1.791   5.228 -0.2785 -0.1479  0.2214
 2198SOL    HW218057   1.043   1.821   5.218  0.7743  0.9537  0.7389
 2199SOL     OW18058   0.924   3.863   3.781  0.2897  0.3316  0.1484
 2199SOL    HW118059   0.868   3.906   3.846  0.3857  2.6033 -1.2523
 2199SOL    HW218060   0.871   3.786   3.762  0.7982  0.1313 -0.4647
 2200SOL     OW18061   1.363   4.272   5.590 -1.0045 -0.3021 -0.2493
 2200SOL    HW118062   1.290   4.311   5.637 -0.2352 -1.1306  1.6106
 2200SOL    HW218063   1.429   4.272   5.658 -1.5759 -2.6678  0.3036
 2201SOL     OW18064   1.876   3.159   4.997  0.3198 -0.4506 -0.0092
 2201SOL    HW118065   1.879   3.100   4.922 -0.3331  1.9787 -1.9397
 2201SOL    HW218066   1.969   3.179   5.008  0.0155  0.8032  0.2305
 2202SOL     OW18067   3.872   0.140  10.391  0.1022  0.2870  0.2042
 2202SOL    HW118068   3.905   0.126  10.479 -0.4363  1.5751  0.6023
 2202SOL    HW218069   3.783   0.160  10.420 -0.8981  0.4781 -2.9548
 2203SOL     OW18070   3.502   0.160   2.525  0.3088 -0.0947 -0.3470
 2203SOL    HW118071   3.539   0.099   2.461  1.9086  1.6565 -1.0732
 2203SOL    HW218072   3.413   0.139   2.497  1.0741 -1.6330 -1.6053
 2204SOL     OW18073   0.624   1.181  14.411 -0.2252 -0.4024  0.2754
 2204SOL    HW118074   0.565   1.185  14.486  1.5313  1.6494  1.5460
 2204SOL    HW218075   0.596   1.256  14.359  0.5138 -0.2405  0.1080
 2205SOL     OW18076   0.135   3.077  13.908  0.2434 -0.4671 -0.2814
 2205SOL    HW118077   0.215   3.061  13.857  0.7025 -1.5471  0.7795
 2205SOL    HW218078   0.077   3.079  13.832 -0.0125 -0.1613 -0.0762
 2206SOL     OW18079   2.400   2.811   5.698  0.3971 -0.1834 -0.1474
 2206SOL    HW118080   2.350   2.759   5.634 -0.6708  0.6410  0.0074
 2206SOL    HW218081   2.399   2.897   5.655  0.0290  0.1296  0.4857
 2207SOL     OW18082   0.707   3.190   5.799  0.1624 -0.2891 -0.4785
 2207SOL    HW118083   0.724   3.223   5.710  3.6000 -0.1602  0.2350
 2207SOL    HW218084   0.781   3.130   5.812 -1.4978 -2.2931 -0.2853
 2208SOL     OW18085   2.234   0.613   4.658 -0.1122  0.4647  0.1287
 2208SOL    HW118086   2.236   0.635   4.565  0.8780  0.1521  0.0857
 2208SOL    HW218087   2.138   0.610   4.664 -0.2092  0.9891 -1.1336
 2209SOL     OW18088   0.988   0.077   2.858 -0.4016  0.1306  0.0769
 2209SOL    HW118089   1.063   0.133   2.873  1.2341 -1.9345 -0.3200
 2209SOL    HW218090   0.914   0.133   2.880  0.5579  1.3964  0.0117
 2210SOL     OW18091   3.046   1.746  15.661 -0.5455  0.5475 -0.0859
 2210SOL    HW118092   3.086   1.799  15.731  0.2762 -0.1456 -0.0384
 2210SOL    HW218093   3.040   1.666  15.714  1.2410 -0.8790 -2.0304
 2211SOL     OW18094   0.994   2.513   7.915  0.0967  1.0807 -0.1416
 2211SOL    HW118095   0.960   2.574   7.981 -0.5298 -1.4937  1.8899
 2211SOL    HW218096   1.043   2.580   7.867 -0.7999  1.5012 -0.4809
 2212SOL     OW18097   3.502   2.558   6.070  0.2409  0.3153  0.1120
 2212SOL    HW118098   3.423   2.575   6.020 -0.1315  0.9707  0.9233
 2212SOL    HW218099   3.570   2.588   6.009  0.6589  3.1803  1.9422
 2213SOL     OW18100   2.055   3.680   8.956  0.2618  0.4791  0.0344
 2213SOL    HW118101   1.994   3.662   9.028  0.6489  0.5978  0.3878
 2213SOL    HW218102   2.056   3.594   8.912  0.5517 -1.2063  3.3760
 2214SOL     OW18103   3.962   3.647   3.684 -0.8082  0.1509  1.0312
 2214SOL    HW118104   3.872   3.670   3.705 -1.0403  0.3622 -0.2451
 2214SOL    HW218105   3.959   3.658   3.589  0.2936  0.6733  1.0504
 2215SOL     OW18106   1.149   0.558   3.710  0.4597 -0.0898 -0.4837
 2215SOL    HW118107   1.176   0.466   3.709  1.5364  0.2051  2.1722
 2215SOL    HW218108   1.059   0.538   3.736  0.4554 -0.1178 -0.5190
 2216SOL     OW18109   1.955   0.834   1.239 -0.0470  0.3929 -0.6587
 2216SOL    HW118110   2.011   0.757   1.240 -0.0119  0.4249  0.1846
 2216SOL    HW218111   1.942   0.843   1.333  1.3625  0.8952 -0.5132
 2217SOL     OW18112   3.857   1.192   1.864  0.1610 -0.5622 -0.1832
 2217SOL    HW118113   3.950   1.216   1.861  0.4345 -1.5901  0.2527
 2217SOL    HW218114   3.813   1.271   1.895  0.5256 -0.3441 -0.2117
 2218SOL     OW18115   0.963   1.735   4.499  0.3911 -0.2715 -0.1799
 2218SOL    HW118116   0.945   1.704   4.410 -2.2777 -1.0148  0.6113
 2218SOL    HW218117   1.002   1.820   4.479  0.7380 -0.9168 -2.2635
 2219SOL     OW18118   2.577   1.435  11.831 -0.1212 -0.0365 -0.3744
 2219SOL    HW118119   2.596   1.343  11.850  2.0440  0.3774 -0.5327
 2219SOL    HW218120   2.544   1.424  11.742  0.2367  3.4552 -0.9514
 2220SOL     OW18121   0.584   3.385   2.058  0.1341  0.5154  0.3867
 2220SOL    HW118122   0.560   3.346   1.974 -0.0289  0.5266  0.4282
 2220SOL    HW218123   0.519   3.347   2.117 -0.1153 -0.4345 -0.5098
 2221SOL     OW18124   2.634   0.692   4.540  0.6194  0.5069  0.6308
 2221SOL    HW118125   2.723   0.724   4.532  0.9578 -0.1554  1.7749
 2221SOL    HW218126   2.599   0.774   4.576 -2.0367  0.0020 -0.7649
 2222SOL     OW18127   0.922   1.190   0.694 -0.2004  0.5308 -0.1109
 2222SOL    HW118128   0.987   1.259   0.702  0.1895  0.0225  1.1451
 2222SOL    HW218129   0.881   1.179   0.780  1.3014 -0.4939  0.4823
 2223SOL     OW18130   3.723   1.150   5.808  0.2683 -0.0448  0.0253
 2223SOL    HW118131   3.701   1.224   5.864  4.9748  0.3368  1.3874
 2223SOL    HW218132   3.781   1.195   5.746  0.1154 -1.3510 -1.0798
 2224SOL     OW18133   0.282   3.960   4.765  0.4902  0.4808  0.3626
 2224SOL    HW118134   0.338   3.885   4.744 -0.5104  0.1005 -0.9597
 2224SOL    HW218135   0.342   4.021   4.806  2.3492 -0.2301 -1.2855
 2225SOL     OW18136   0.450   2.789   8.350 -0.5949 -0.4399  0.3475
 2225SOL    HW118137   0.371   2.740   8.325 -0.6489 -0.0639 -0.2051
 2225SOL    HW218138   0.462   2.746   8.435  0.9398 -2.5953 -0.9740
 2226SOL     OW18139   0.411   1.317   4.645  0.7839 -0.3771  0.3156
 2226SOL    HW118140   0.316   1.316   4.657  0.3323  2.3475 -3.0477
 2226SOL    HW218141   0.433   1.317   4.738  0.3836  2.3269  0.4330
 2227SOL     OW18142   2.568   0.660  10.891 -0.6035  0.2894 -0.4014
 2227SOL    HW118143   2.559   0.618  10.977  1.6716  1.7259  0.5377
 2227SOL    HW218144   2.594   0.749  10.917  1.4255  0.2444 -2.2834
 2228SOL     OW18145   1.309   3.913   0.355  0.0241  0.8245  0.1088
 2228SOL    HW118146   1.307   4.006   0.377 -0.1411  0.1748  2.8394
 2228SOL    HW218147   1.387   3.886   0.404 -0.3200 -0.5315 -0.0849
 2229SOL     OW18148   0.109   0.790   6.717 -0.2844  0.0718  0.5953
 2229SOL    HW118149   0.102   0.861   6.781 -1.7207 -2.2222  2.9983
 2229SOL    HW218150   0.140   0.829   6.635 -3.6379  0.6452 -0.3956
 2230SOL     OW18151   3.735   3.855   6.175  0.0058 -0.3444 -0.4621
 2230SOL    HW118152   3.786   3.913   6.119  0.3092 -0.9832 -0.8421
 2230SOL    HW218153   3.667   3.826   6.114  0.8916 -1.6244 -0.8351
 2231SOL     OW18154   2.125   1.683  13.174  0.2636  0.0663  0.3014
 2231SOL    HW118155   2.184   1.610  13.196 -1.5555 -1.2454  0.8235
 2231SOL    HW218156   2.128   1.677  13.079 -2.7516 -0.2658  0.2294
 2232SOL     OW18157   1.924   3.049   7.212 -0.2763 -0.2250  0.7995
 2232SOL    HW118158   1.861   3.095   7.156  0.8211 -1.7468 -1.7270
 2232SOL    HW218159   1.957   2.986   7.148 -0.3464 -0.0675  0.6077
 2233SOL     OW18160   0.274   1.676  10.285 -0.4939  0.3791  0.6405
 2233SOL    HW118161   0.232   1.732  10.350 -0.9997  0.6325  0.0963
 2233SOL    HW218162   0.206   1.679  10.218  0.6759 -2.8414 -0.7122
 2234SOL     OW18163   2.487   3.897   3.779 -0.1040  0.0527  0.6732
 2234SOL    HW118164   2.464   3.808   3.751  2.4137 -0.5720  0.6577
 2234SOL    HW218165   2.532   3.878   3.861  3.5206  1.1579 -1.0614
 2235SOL     OW18166   3.662   4.493   5.528  0.0592  0.4147 -0.5460
 2235SOL    HW118167   3.671   4.439   5.606 -1.0722  0.2030 -0.5653
 2235SOL    HW218168   3.755   4.506   5.509  0.0302  0.1690 -0.8598
 2236SOL     OW18169   4.049   0.346  12.238  0.1901  0.0867 -0.0291
 2236SOL    HW118170   4.068   0.380  12.151  2.5238  1.2749  0.9428
 2236SOL    HW218171   4.121   0.284  12.253 -1.9218 -2.5063 -0.6999
 2237SOL     OW18172   0.984   0.633   2.531 -0.3885  0.4213 -0.0722
 2237SOL    HW118173   0.890   0.623   2.517 -0.5950  3.7563 -1.0717
 2237SOL    HW218174   0.999   0.718   2.490 -0.3255  0.7285  0.5853
 2238SOL     OW18175   4.060   3.620   6.598 -0.2524  0.0979 -0.3495
 2238SOL    HW118176   4.132   3.567   6.563  0.5746  1.4679 -0.7030
 2238SOL    HW218177   4.113   3.662   6.666 -1.7135  0.6731  0.4190
 2239SOL     OW18178   0.563   4.112   4.618 -0.4314  0.2106  0.5123
 2239SOL    HW118179   0.518   4.074   4.543  2.0797  0.0455 -0.8916
 2239SOL    HW218180   0.511   4.189   4.644  1.5252  1.4320  0.8130
 2240SOL     OW18181   4.235   3.766   5.043 -0.3421  0.2641  0.0276
 2240SOL    HW118182   4.139   3.771   5.036 -0.2516  0.1646 -1.3484
 2240SOL    HW218183   4.239   3.677   5.080 -0.4452  1.4673  2.9120
 2241SOL     OW18184   4.352   3.855   7.643 -0.0845 -0.0402 -0.3753
 2241SOL    HW118185   4.268   3.857   7.688  0.8343 -0.3547  1.3445
 2241SOL    HW218186   4.404   3.924   7.685  1.8111 -1.0194 -1.1149
 2242SOL     OW18187   0.513   1.560  16.207 -0.2866  0.3385 -0.4500
 2242SOL    HW118188   0.536   1.653  16.203 -4.3836  1.3039 -2.2178
 2242SOL    HW218189   0.419   1.563  16.228 -0.2833 -1.1302 -0.2444
 2243SOL     OW18190   3.959   1.231  13.539  0.3458 -0.1867  0.6689
 2243SOL    HW118191   3.983   1.169  13.470 -0.1567 -0.7120  0.9744
 2243SOL    HW218192   3.934   1.176  13.612  2.2575 -0.0472  1.4231
 2244SOL     OW18193   4.583   0.453   7.220 -0.3006  0.6339  0.1769
 2244SOL    HW118194   4.583   0.547   7.206 -2.3087  0.6002  0.0215
 2244SOL    HW218195   4.490   0.434   7.226 -0.1435  0.6595  2.7237
 2245SOL     OW18196   1.490   3.943   2.943 -0.2406 -0.2212  0.2156
 2245SOL    HW118197   1.510   3.860   2.985  2.6599  0.8494  0.9519
 2245SOL    HW218198   1.507   3.930   2.850 -1.4941 -2.2003  0.2741
 2246SOL     OW18199   2.961   0.592   5.049 -0.3122 -0.2134 -0.2392
 2246SOL    HW118200   2.870   0.562   5.058 -0.8020  1.9455  1.9459
 2246SOL    HW218201   2.946   0.666   4.990 -1.2730  0.2880  0.6271
 2247SOL     OW18202   3.890   0.308   3.573  0.0666  0.5289 -0.3425
 2247SOL    HW118203   3.825   0.264   3.517  0.0173 -0.3939  0.4270
 2247SOL    HW218204   3.920   0.373   3.510  0.0972  0.0302 -0.8481
 2248SOL     OW18205   3.596   3.709   4.448 -0.3293 -0.2971  0.3952
 2248SOL    HW118206   3.544   3.780   4.410 -0.9161 -0.4316  0.9608
 2248SOL    HW218207   3.671   3.713   4.388 -0.5001 -3.4745 -0.0083
 2249SOL     OW18208   0.120   0.191   9.941  0.1407  0.0502 -0.6654
 2249SOL    HW118209   0.061   0.225   9.874  0.3308  0.4396 -0.6354
 2249SOL    HW218210   0.205   0.209   9.901  0.2793 -2.1182 -1.3604
 2250SOL     OW18211   1.963   4.253   8.758  0.2576 -0.2064  0.3023
 2250SOL    HW118212   1.955   4.276   8.851  0.0014  1.1313 -0.0485
 2250SOL    HW218213   1.940   4.160   8.758  0.0514 -0.1391 -2.1845
 2251SOL     OW18214   3.587   1.908   8.941  0.6340  0.5799  0.2675
 2251SOL    HW118215   3.591   1.998   8.910 -1.9094  0.7701  0.4640
 2251SOL    HW218216   3.580   1.864   8.856  1.6385 -0.6057  0.8060
 2252SOL     OW18217   2.663   1.436  17.548  0.2449  0.1608  0.3722
 2252SOL    HW118218   2.628   1.384  17.620 -2.3101  0.4314 -0.6551
 2252SOL    HW218219   2.598   1.430  17.477  0.3941 -0.0247  0.2506
 2253SOL     OW18220   1.736   3.798   7.586 -0.1547 -0.1381  0.0825
 2253SOL    HW118221   1.732   3.821   7.679  2.2588  2.8096 -0.5197
 2253SOL    HW218222   1.648   3.769   7.565  0.4121 -2.5828  1.1396
 2254SOL     OW18223   3.823   3.565  11.987  0.0536  0.2140  0.1191
 2254SOL    HW118224   3.794   3.644  11.941 -0.8155 -0.4038 -0.4048
 2254SOL    HW218225   3.915   3.588  11.992  0.3941 -0.7335 -1.9344
 2255SOL     OW18226   3.625   1.619  13.732  0.2272  0.3828  0.2955
 2255SOL    HW118227   3.629   1.545  13.671  1.1395  0.0206  0.7878
 2255SOL    HW218228   3.676   1.580  13.803 -2.0546  0.0613  1.7413
 2256SOL     OW18229   3.682   0.206   5.708 -1.0531 -0.2863 -0.3098
 2256SOL    HW118230   3.596   0.248   5.698 -0.1101  1.4086 -1.1571
 2256SOL    HW218231   3.743   0.239   5.643  0.4559 -1.9129  0.2856
 2257SOL     OW18232   1.334   3.364   6.627  0.1715  0.4233 -0.0175
 2257SOL    HW118233   1.338   3.284   6.575  2.2302 -0.5876  1.7042
 2257SOL    HW218234   1.302   3.419   6.555 -1.2713 -0.3857  0.0063
 2258SOL     OW18235   0.080   2.619  15.327  0.1597 -0.0981  0.2866
 2258SOL    HW118236   0.004   2.650  15.375 -0.1936 -1.0490  0.3540
 2258SOL    HW218237   0.156   2.634  15.383 -1.0122  2.8920  1.0388
 2259SOL     OW18238   1.810   4.479   7.520  0.2333 -0.2305 -0.1497
 2259SOL    HW118239   1.852   4.421   7.584 -2.6130 -0.9682  1.0996
 2259SOL    HW218240   1.868   4.476   7.444 -0.3659  2.0939 -0.6888
 2260SOL     OW18241   0.570   1.854   3.171  0.3788 -0.3912 -0.0960
 2260SOL    HW118242   0.659   1.828   3.195  1.5917  1.1120 -3.0123
 2260SOL    HW218243   0.533   1.767   3.159  1.0234 -0.7979  0.8507
 2261SOL     OW18244   0.591   2.213   6.122  0.3424  0.7178  0.1608
 2261SOL    HW118245   0.622   2.286   6.069  1.3463  0.4453  0.3644
 2261SOL    HW218246   0.655   2.225   6.193  0.1540  1.3801  0.2144
 2262SOL     OW18247   4.714   1.329   3.401  0.1772  0.2978 -0.2982
 2262SOL    HW118248   4.657   1.269   3.353 -0.8285  1.0338 -0.0170
 2262SOL    HW218249   0.073   1.320   3.356 -0.3846 -2.3093 -0.8077
 2263SOL     OW18250   1.910   4.661   3.672  0.7181  0.4501 -0.1910
 2263SOL    HW118251   2.005   4.653   3.658  0.8235  0.2253  0.6775
 2263SOL    HW218252   1.898   0.021   3.629  0.1341  0.6274  0.3297
 2264SOL     OW18253   3.434   2.971   2.559  0.3080 -0.3207 -0.0097
 2264SOL    HW118254   3.472   3.023   2.488 -1.9360 -0.5684 -1.3907
 2264SOL    HW218255   3.479   3.010   2.634 -1.1442  2.1357 -0.4124
 2265SOL     OW18256   3.251   1.630   4.291 -0.1074  0.2221  0.0472
 2265SOL    HW118257   3.160   1.662   4.288  0.0200  0.3980 -1.7279
 2265SOL    HW218258   3.276   1.638   4.199  0.6065  1.2422  0.3325
 2266SOL     OW18259   0.258   2.128   0.298  0.1942 -0.8046  0.2415
 2266SOL    HW118260   0.252   2.217   0.264  1.6598 -0.4716  0.8528
 2266SOL    HW218261   0.188   2.126   0.364 -0.3673  1.4330 -0.3086
 2267SOL     OW18262   2.537   1.872  15.121  0.5318 -0.2234 -0.3386
 2267SOL    HW118263   2.545   1.898  15.029 -1.1375  0.3902 -0.3164
 2267SOL    HW218264   2.563   1.950  15.169 -1.3608  0.2481 -0.0538
 2268SOL     OW18265   4.183   1.630   9.363  0.4406  0.2379  0.2596
 2268SOL    HW118266   4.276   1.642   9.347  0.6368 -2.0378 -0.2973
 2268SOL    HW218267   4.157   1.719   9.385  2.0079  1.0880 -1.3757
 2269SOL     OW18268   4.155   0.475   2.146  0.1147 -0.0229 -0.1433
 2269SOL    HW118269   4.188   0.386   2.131  0.3149  0.3517 -1.9389
 2269SOL    HW218270   4.175   0.505   2.057  0.8667  2.9467  1.0455
 2270SOL     OW18271   0.751   1.231   4.248  1.2691  0.0908  0.3956
 2270SOL    HW118272   0.672   1.235   4.303 -0.7925  2.4397 -2.7729
 2270SOL    HW218273   0.713   1.279   4.175  0.5580 -1.1827 -0.0784
 2271SOL     OW18274   1.073   2.856  13.850 -0.2090  0.2618 -0.2218
 2271SOL    HW118275   1.071   2.801  13.772  3.9602  1.2915 -1.0728
 2271SOL    HW218276   1.169   2.865  13.852 -0.1139 -1.1351  1.0935
 2272SOL     OW18277   1.550   1.312  17.505  0.4036  0.3837 -0.2326
 2272SOL    HW118278   1.538   1.343  17.415 -1.0606 -0.1912 -0.2242
 2272SOL    HW218279   1.474   1.338  17.557  0.2605 -1.4357  0.4493
 2273SOL     OW18280   2.692   0.149  15.976  0.1625  0.7269 -0.2300
 2273SOL    HW118281   2.703   0.083  15.907 -0.9127 -1.2041  1.4669
 2273SOL    HW218282   2.609   0.119  16.012  1.3621 -0.0680  1.8980
 2274SOL     OW18283   3.128   1.859   9.577  0.2728  0.4227 -0.1531
 2274SOL    HW118284   3.146   1.785   9.519  2.0294 -0.5948  1.7037
 2274SOL    HW218285   3.161   1.831   9.662 -2.4916  2.2725  1.5144
 2275SOL     OW18286   3.236   3.137   6.501 -0.1338  0.3070  0.0578
 2275SOL    HW118287   3.268   3.227   6.510  0.2825  0.2200 -0.5181
 2275SOL    HW218288   3.320   3.095   6.515  0.2164  0.6417 -1.0218
 2276SOL     OW18289   2.921   1.755   8.847 -0.3557 -0.5216 -0.1107
 2276SOL    HW118290   2.875   1.835   8.871 -0.1013  0.0256 -1.4734
 2276SOL    HW218291   2.973   1.733   8.924 -0.9453  1.1965  0.7711
 2277SOL     OW18292   3.995   1.298  10.708  0.1807 -0.5862  0.0661
 2277SOL    HW118293   3.957   1.326  10.791  0.8178 -0.5838  0.3603
 2277SOL    HW218294   3.968   1.207  10.714 -1.7948  0.0123  0.4194
 2278SOL     OW18295   2.362   1.040   5.679 -0.1912 -0.1768  0.0396
 2278SOL    HW118296   2.390   1.007   5.764  0.2873 -1.8671 -0.7639
 2278SOL    HW218297   2.309   0.969   5.642  0.5712 -0.7515  0.0369
 2279SOL     OW18298   0.248   1.430   7.246 -0.1170  0.1648  0.3996
 2279SOL    HW118299   0.204   1.514   7.236  1.1073  1.2248  3.8151
 2279SOL    HW218300   0.320   1.450   7.306 -0.2446 -0.1290  0.6516
 2280SOL     OW18301   1.773   3.053   7.701  0.0828 -0.4448  0.2537
 2280SOL    HW118302   1.825   3.133   7.693 -2.2578  0.8614 -1.6792
 2280SOL    HW218303   1.755   3.035   7.609 -0.5579  3.8681 -0.4811
 2281SOL     OW18304   1.217   2.532   4.473 -0.0359  0.0116  0.2250
 2281SOL    HW118305   1.136   2.553   4.518 -0.7895  1.5574 -1.8472
 2281SOL    HW218306   1.193   2.565   4.386  3.5922  0.9354 -0.4529
 2282SOL     OW18307   0.777   0.348   7.847 -0.6211 -0.1856  0.0388
 2282SOL    HW118308   0.766   0.254   7.830 -0.0405 -0.6523  2.2295
 2282SOL    HW218309   0.740   0.360   7.934  1.3369 -3.7883  1.3893
 2283SOL     OW18310   2.342   1.176   3.241 -0.3153 -0.0771 -0.0272
 2283SOL    HW118311   2.294   1.123   3.305 -1.5197  2.1129  0.8988
 2283SOL    HW218312   2.401   1.233   3.290  0.2465 -2.3362  1.9378
 2284SOL     OW18313   0.114   4.307   1.869 -0.2343 -0.4960 -0.5484
 2284SOL    HW118314   0.047   4.335   1.808 -0.5980 -1.6335 -0.6704
 2284SOL    HW218315   0.093   4.214   1.868  0.4045 -0.6468 -0.4700
 2285SOL     OW18316   0.003   2.844   0.891 -0.2054 -0.2409  0.5441
 2285SOL    HW118317   4.717   2.789   0.969  2.6980  1.3724  2.0880
 2285SOL    HW218318   4.662   2.912   0.903  0.2917  0.0447  1.6552
 2286SOL     OW18319   0.808   4.079   2.094  0.2099 -0.4564 -0.4502
 2286SOL    HW118320   0.785   3.986   2.098  0.9446 -0.6311 -0.3791
 2286SOL    HW218321   0.776   4.119   2.013 -0.6923 -0.6065 -0.1676
 2287SOL     OW18322   0.275   4.575  13.279 -0.1488 -0.2386 -0.4807
 2287SOL    HW118323   0.251   4.626  13.202 -1.0519  0.3928  0.2097
 2287SOL    HW218324   0.327   4.639  13.328 -0.9724 -0.0108  0.0998
 2288SOL     OW18325   0.774   3.189   2.535  0.1526 -0.2407 -0.1371
 2288SOL    HW118326   0.807   3.175   2.446  0.9624 -1.8967  0.4260
 2288SOL    HW218327   0.839   3.256   2.557  0.8524 -0.6630 -0.9137
 2289SOL     OW18328   2.369   2.343  11.153  0.2203 -0.5457 -0.1045
 2289SOL    HW118329   2.425   2.296  11.091 -0.4757  0.2760 -1.3409
 2289SOL    HW218330   2.346   2.417  11.097  1.2603  1.7251  2.4547
 2290SOL     OW18331   1.251   2.007  14.087 -0.0126 -0.1142 -0.8322
 2290SOL    HW118332   1.343   2.021  14.066 -0.2402  1.2151 -0.9566
 2290SOL    HW218333   1.248   2.054  14.170 -0.2523  0.3882 -1.1247
 2291SOL     OW18334   1.193   3.799  14.835 -0.4635  0.2401 -0.1223
 2291SOL    HW118335   1.270   3.743  14.826  0.9731  2.2221  0.0271
 2291SOL    HW218336   1.130   3.771  14.768  0.3328  0.0991 -0.8103
 2292SOL     OW18337   3.608   3.738   9.223  0.3955 -0.3151  0.0481
 2292SOL    HW118338   3.635   3.829   9.232 -2.1686  0.3796  0.8795
 2292SOL    HW218339   3.526   3.734   9.175 -0.3652  0.5399  1.2690
 2293SOL     OW18340   4.479   1.915   9.878 -0.2632 -0.3445  0.0307
 2293SOL    HW118341   4.456   1.866   9.799  0.3400  1.2013 -1.0964
 2293SOL    HW218342   4.572   1.892   9.885 -0.2141 -0.0873  0.2383
 2294SOL     OW18343   4.051   4.597   5.293 -0.1007  0.2551  0.0466
 2294SOL    HW118344   4.059   4.511   5.251  0.0407  1.0336 -1.5184
 2294SOL    HW218345   4.125   4.641   5.251 -2.1713  3.1820 -0.4697
 2295SOL     OW18346   1.543   2.554   2.849  0.5374  0.1158 -0.4704
 2295SOL    HW118347   1.595   2.512   2.919  1.6866  1.3463 -0.6020
 2295SOL    HW218348   1.487   2.618   2.892  2.5422  0.6053  1.4567
 2296SOL     OW18349   0.672   1.441   4.590  0.1795 -0.1677 -0.0370
 2296SOL    HW118350   0.744   1.406   4.537 -1.8430 -0.2930 -2.6761
 2296SOL    HW218351   0.612   1.369   4.570 -2.2145  1.9460 -0.3496
 2297SOL     OW18352   2.363   2.420  16.066 -0.0917 -0.1760  0.8368
 2297SOL    HW118353   2.435   2.401  16.127  1.3276  0.4768 -0.6421
 2297SOL    HW218354   2.375   2.352  16.000  1.4798  0.1427  0.7974
 2298SOL     OW18355   2.856   0.785  16.793 -0.3662 -0.1212  0.1143
 2298SOL    HW118356   2.842   0.742  16.877 -0.9836 -2.5021 -1.2096
 2298SOL    HW218357   2.942   0.748  16.772 -0.1074 -0.1696  1.2506
 2299SOL     OW18358   0.937   1.301   6.537  0.3242 -0.2099  0.0818
 2299SOL    HW118359   0.882   1.233   6.576  1.7842 -0.7861  1.1497
 2299SOL    HW218360   0.904   1.381   6.578  2.2240 -0.0606  1.3324
 2300SOL     OW18361   0.463   4.585   2.620 -0.3375 -0.3932 -0.3620
 2300SOL    HW118362   0.405   4.618   2.551 -0.9413 -0.4952  0.0928
 2300SOL    HW218363   0.542   4.639   2.619  0.3980 -1.3928  3.0971
 2301SOL     OW18364   1.241   1.438   9.498  0.6571  0.3969  0.3689
 2301SOL    HW118365   1.167   1.389   9.535  1.0381 -0.8763 -0.5382
 2301SOL    HW218366   1.278   1.360   9.456 -3.3387 -1.2226 -0.1628
 2302SOL     OW18367   2.073   4.278   3.849 -0.2486 -0.2647  0.0502
 2302SOL    HW118368   2.120   4.211   3.898 -0.6485  0.3400  1.2574
 2302SOL    HW218369   2.025   4.324   3.917 -4.4166 -3.4997 -0.7073
 2303SOL     OW18370   3.257   3.627   5.014  0.0481  0.4537  0.4421
 2303SOL    HW118371   3.333   3.684   5.027  1.3804 -1.2229  0.0545
 2303SOL    HW218372   3.238   3.602   5.105 -1.6969  0.7357  0.1472
 2304SOL     OW18373   4.362   0.346  11.999 -0.6433  0.7275 -0.5997
 2304SOL    HW118374   4.411   0.422  12.030 -1.7641  1.3612 -0.4295
 2304SOL    HW218375   4.423   0.313  11.932 -0.3514 -0.0672  0.0554
 2305SOL     OW18376   3.937   0.049  17.492 -0.1625  0.2075  0.9532
 2305SOL    HW118377   3.918   4.683  17.512 -0.8967  0.2430  0.4379
 2305SOL    HW218378   3.884   0.056  17.412  0.4754 -0.0282  0.5126
 2306SOL     OW18379   0.220   1.264   2.655  0.3903  0.4128 -0.2665
 2306SOL    HW118380   0.253   1.195   2.597  0.9715 -0.8302  1.5577
 2306SOL    HW218381   0.261   1.237   2.737  1.5448 -0.2303 -1.0429
 2307SOL     OW18382   0.825   3.384   3.210  0.3504  0.7173 -0.0004
 2307SOL    HW118383   0.907   3.368   3.163 -0.6711 -0.7716 -1.2880
 2307SOL    HW218384   0.759   3.372   3.142  1.0920  1.3525 -0.8301
 2308SOL     OW18385   1.795   1.059   0.434 -0.0314 -0.7515 -0.5698
 2308SOL    HW118386   1.844   0.978   0.442 -0.0578 -0.6229  1.0126
 2308SOL    HW218387   1.724   1.039   0.373 -2.7087 -0.4516  2.4185
 2309SOL     OW18388   4.291   0.697   7.140  0.3615 -0.3993 -0.3148
 2309SOL    HW118389   4.380   0.725   7.121 -0.0064  1.2658  0.4967
 2309SOL    HW218390   4.241   0.720   7.061  1.0648  3.3281  0.3469
 2310SOL     OW18391   4.659   4.520  11.458 -0.0954 -0.7124  0.4574
 2310SOL    HW118392   4.704   4.549  11.538  0.6199  0.5396 -0.4033
 2310SOL    HW218393   4.689   4.590  11.400 -0.2962  0.3911  1.6731
 2311SOL     OW18394   0.765   2.129   3.528 -0.2097 -0.1588 -0.1106
 2311SOL    HW118395   0.769   2.225   3.518 -0.1238 -0.1688 -0.1722
 2311SOL    HW218396   0.677   2.120   3.563  0.9230  1.1507  3.0780
 2312SOL     OW18397   4.302   2.856   8.191  0.1681 -0.0953  0.6642
 2312SOL    HW118398   4.270   2.767   8.210 -0.3320 -0.0013  0.2546
 2312SOL    HW218399   4.277   2.914   8.263 -2.4062 -1.7082  1.0773
 2313SOL     OW18400   3.459   1.284   8.699  0.0157 -0.2387 -0.0567
 2313SOL    HW118401   3.464   1.189   8.687 -0.4145  0.1187 -3.0545
 2313SOL    HW218402   3.420   1.289   8.786 -0.6011 -1.7579 -0.2499
 2314SOL     OW18403   1.994   0.405  16.332  0.1520  0.0198 -0.7026
 2314SOL    HW118404   1.982   0.361  16.248 -0.7751  1.3085 -1.2642
 2314SOL    HW218405   1.918   0.463  16.326  0.1375  0.0548 -0.2002
 2315SOL     OW18406   3.819   0.880   5.004  0.4690  0.3730 -0.8428
 2315SOL    HW118407   3.835   0.901   4.912  0.4375 -0.4727 -1.0389
 2315SOL    HW218408   3.736   0.836   4.990  1.3589 -1.5178 -0.0980
 2316SOL     OW18409   0.045   3.057  17.136  0.2367 -0.1340 -0.1662
 2316SOL    HW118410   0.091   3.084  17.056  1.0222  0.2086  0.3992
 2316SOL    HW218411   0.096   2.980  17.161 -1.6733 -1.0204  1.0222
 2317SOL     OW18412   4.713   4.344   9.039 -0.2606 -0.1665  0.3831
 2317SOL    HW118413   0.003   4.316   9.130  2.0429 -0.1597 -0.0177
 2317SOL    HW218414   0.071   4.391   9.032 -0.4466  0.3713  1.6305
 2318SOL     OW18415   1.712   1.969   5.992  0.2922 -0.4250  0.1594
 2318SOL    HW118416   1.750   2.046   5.951 -3.2703  0.9621 -0.4710
 2318SOL    HW218417   1.769   1.909   5.944  1.3569 -1.2993  2.5199
 2319SOL     OW18418   1.651   2.127   6.706 -0.3173  0.4705  0.0711
 2319SOL    HW118419   1.589   2.063   6.741  0.2188  0.8657  1.7675
 2319SOL    HW218420   1.694   2.069   6.643  0.8928 -0.9871  2.2416
 2320SOL     OW18421   4.583   3.963   8.275 -0.2122  0.0178 -0.0078
 2320SOL    HW118422   4.636   3.979   8.353 -1.6039 -0.3538  1.0180
 2320SOL    HW218423   4.536   4.046   8.271  1.0789  0.8430  1.8959
 2321SOL     OW18424   1.789   4.323   4.666  0.0406 -0.1186 -0.0165
 2321SOL    HW118425   1.803   4.319   4.761 -0.3457 -0.5517  0.0231
 2321SOL    HW218426   1.805   4.231   4.644  0.3379 -0.4473  1.5456
 2322SOL     OW18427   3.975   0.829   2.811 -0.3459 -0.4085  0.0377
 2322SOL    HW118428   3.906   0.878   2.767 -1.5948 -0.8067  1.5647
 2322SOL    HW218429   3.996   0.764   2.744 -1.8595  0.6292 -1.4242
 2323SOL     OW18430   4.717   1.958   1.708  0.4504  0.1806  0.1601
 2323SOL    HW118431   0.068   2.006   1.741 -0.3805  2.9157 -1.8303
 2323SOL    HW218432   4.677   1.939   1.793  3.9768 -1.1278  1.5191
 2324SOL     OW18433   4.221   0.082   5.184  0.7959 -0.6446 -0.6667
 2324SOL    HW118434   4.150   0.121   5.134  2.6056  2.5265 -0.7706
 2324SOL    HW218435   4.248   0.146   5.249 -0.9274  0.6722 -1.2292
 2325SOL     OW18436   1.832   1.975  14.032  0.2463 -0.1662  0.6815
 2325SOL    HW118437   1.851   2.035  13.960  1.5652 -1.6724 -0.2380
 2325SOL    HW218438   1.737   1.985  14.044 -0.0445 -1.1753 -0.7305
 2326SOL     OW18439   2.291   2.327   3.912  0.2645  0.1413 -0.4256
 2326SOL    HW118440   2.204   2.343   3.950 -0.3411 -0.3808 -1.5748
 2326SOL    HW218441   2.280   2.380   3.833  1.8606  0.3779 -0.4857
 2327SOL     OW18442   0.560   1.357  13.105 -0.4968 -0.0350  0.3249
 2327SOL    HW118443   0.573   1.331  13.014  0.0178  5.0387 -1.0914
 2327SOL    HW218444   0.571   1.275  13.152  2.0860 -0.4994 -1.0613
 2328SOL     OW18445   1.299   2.515   2.331  0.1642 -0.3388 -0.1823
 2328SOL    HW118446   1.388   2.518   2.367  0.4206 -0.4057 -0.8095
 2328SOL    HW218447   1.311   2.554   2.244 -2.4080 -0.4230 -0.5726
 2329SOL     OW18448   1.148   1.136   2.313  0.4118  0.2673  0.1034
 2329SOL    HW118449   1.149   1.226   2.280 -0.6926  0.6561  1.1322
 2329SOL    HW218450   1.122   1.087   2.235  0.0391  1.7993 -0.7434
 2330SOL     OW18451   4.575   0.440   7.514  0.4726  0.0642 -0.1218
 2330SOL    HW118452   4.639   0.380   7.550 -0.6523 -0.1785  1.4670
 2330SOL    HW218453   4.580   0.418   7.421  1.2638  0.9815 -0.2951
 2331SOL     OW18454   3.515   4.621   4.406 -1.0172 -0.2668 -0.1723
 2331SOL    HW118455   3.439   4.676   4.420 -0.5624  0.2968  0.0941
 2331SOL    HW218456   3.547   4.641   4.318 -1.6946  0.2282 -0.3006
 2332SOL     OW18457   0.253   3.272   6.648 -0.2453 -0.5013 -0.3737
 2332SOL    HW118458   0.313   3.203   6.678 -0.3314 -0.3005  0.2542
 2332SOL    HW218459   0.209   3.302   6.728 -0.4186 -0.9966 -0.2807
 2333SOL     OW18460   2.736   4.725   4.571  0.0754 -0.1329  0.4631
 2333SOL    HW118461   2.826   0.014   4.544  0.0571  2.1221  1.6433
 2333SOL    HW218462   2.716   4.649   4.516 -0.0765  0.5324 -0.4083
 2334SOL     OW18463   0.045   0.363  12.121  0.5626  0.5985  0.2345
 2334SOL    HW118464   4.687   0.398  12.153  0.0086 -1.0462  0.6087
 2334SOL    HW218465   0.073   0.434  12.064 -0.6935 -0.7841 -2.0811
 2335SOL     OW18466   0.148   4.400   7.766 -0.4460 -0.1026 -0.0812
 2335SOL    HW118467   0.233   4.357   7.757  2.1370  4.8197  0.3873
 2335SOL    HW218468   0.119   4.396   7.675 -0.1353  1.5097 -0.2556
 2336SOL     OW18469   3.605   3.857   0.574 -0.5744 -0.0545  0.5015
 2336SOL    HW118470   3.657   3.830   0.649 -1.5661 -1.6095  0.6470
 2336SOL    HW218471   3.651   3.812   0.503  0.8133  1.5224  0.4023
 2337SOL     OW18472   2.909   1.911  10.110  0.2375  0.1610 -0.2380
 2337SOL    HW118473   2.886   1.898  10.202 -2.1205  0.8060 -0.7443
 2337SOL    HW218474   2.970   1.838  10.096  0.4543  0.1773  0.6018
 2338SOL     OW18475   1.731   1.554   4.014  0.3270  0.1683  0.5510
 2338SOL    HW118476   1.747   1.461   4.003 -0.1073  0.3677 -1.6544
 2338SOL    HW218477   1.813   1.591   3.980 -0.4879  2.2753  0.8840
 2339SOL     OW18478   0.354   2.826   2.746  0.0167 -0.6411  0.2726
 2339SOL    HW118479   0.351   2.771   2.668  0.9194  0.3261 -0.4439
 2339SOL    HW218480   0.450   2.827   2.752  0.0921 -0.6595 -0.9838
 2340SOL     OW18481   1.488   4.107  10.224  0.2556 -0.1985 -0.2225
 2340SOL    HW118482   1.459   4.021  10.192 -1.8859  1.4409 -2.7074
 2340SOL    HW218483   1.405   4.140  10.258  0.2174 -0.4539 -0.0667
 2341SOL     OW18484   3.348   0.681   8.567  0.0175  0.3048 -0.1478
 2341SOL    HW118485   3.268   0.722   8.598  1.0724  1.9340  0.3990
 2341SOL    HW218486   3.354   0.693   8.472 -2.1903 -0.1598 -0.3468
 2342SOL     OW18487   4.573   0.997  14.803  0.3953  0.6085 -0.0017
 2342SOL    HW118488   4.477   0.993  14.811  0.2551  0.3431 -1.7359
 2342SOL    HW218489   4.591   1.046  14.883 -2.4855 -2.8531  2.7844
 2343SOL     OW18490   1.216   4.269  14.037  0.8637 -0.2011  0.5115
 2343SOL    HW118491   1.234   4.284  13.944  0.9536  0.3638  0.6204
 2343SOL    HW218492   1.237   4.176  14.045 -0.0748 -0.4924 -0.3732
 2344SOL     OW18493   1.051   1.335  15.330 -0.0221 -0.6006  0.1365
 2344SOL    HW118494   1.031   1.426  15.355 -0.7163 -1.2142  1.8639
 2344SOL    HW218495   1.142   1.330  15.358 -0.4102 -1.3646  1.2997
 2345SOL     OW18496   3.453   3.291   9.264 -0.6672 -0.7541  0.5848
 2345SOL    HW118497   3.406   3.323   9.341 -1.9922 -0.9925 -0.1222
 2345SOL    HW218498   3.515   3.362   9.247 -2.3270  0.2077 -1.4245
 2346SOL     OW18499   2.342   3.375   2.352  0.1456 -0.5068 -0.2125
 2346SOL    HW118500   2.406   3.380   2.281 -0.4536  0.8879 -0.6413
 2346SOL    HW218501   2.401   3.383   2.427  0.6923 -0.2600 -0.6683
 2347SOL     OW18502   3.322   0.235   4.012  0.2201 -0.0913 -0.0060
 2347SOL    HW118503   3.287   0.263   4.097 -0.3984  1.3564 -0.7320
 2347SOL    HW218504   3.292   0.144   4.017 -1.9609  0.6905  1.4268
 2348SOL     OW18505   2.597   0.185  17.603 -0.8465 -0.4415  0.0836
 2348SOL    HW118506   2.621   0.160  17.514  0.4897 -2.4678  0.9895
 2348SOL    HW218507   2.595   0.092  17.626  0.0138 -0.5336 -0.2022
 2349SOL     OW18508   4.673   4.136   7.689 -1.0488 -0.0358 -0.1957
 2349SOL    HW118509   4.577   4.132   7.695 -0.9440 -0.3631  1.2384
 2349SOL    HW218510   4.695   4.149   7.782 -1.8405 -0.4333  0.0503
 2350SOL     OW18511   2.576   0.894   7.813  0.3285 -0.4024  0.7077
 2350SOL    HW118512   2.526   0.881   7.732  0.9690  0.9091  0.0946
 2350SOL    HW218513   2.546   0.842   7.887  1.0297  0.4315  1.5875
 2351SOL     OW18514   1.182   0.184   4.468 -0.1250 -0.0815  0.2517
 2351SOL    HW118515   1.118   0.123   4.505 -1.2005  0.9420  0.1026
 2351SOL    HW218516   1.128   0.264   4.468 -0.7718 -0.5289 -2.1663
 2352SOL     OW18517   3.896   3.438  14.016 -0.2704  0.3983 -0.0174
 2352SOL    HW118518   3.868   3.430  14.107  0.9747 -2.1296  0.1586
 2352SOL    HW218519   3.960   3.506  14.038 -0.7643  0.5112  1.0536
 2353SOL     OW18520   3.176   1.204   2.970  0.1204 -0.3131 -0.0025
 2353SOL    HW118521   3.255   1.172   2.926  2.9681  2.2398  3.2081
 2353SOL    HW218522   3.207   1.294   2.965  2.9407 -1.2762 -0.2119
 2354SOL     OW18523   3.106   3.082   6.278 -0.7533 -0.3631 -0.6155
 2354SOL    HW118524   3.148   3.089   6.363 -0.3359 -0.4778 -0.8126
 2354SOL    HW218525   3.096   2.987   6.280  3.0809 -0.8287 -3.9766
 2355SOL     OW18526   2.092   2.957   5.888 -0.5259 -0.1176 -0.3071
 2355SOL    HW118527   2.101   2.892   5.958  1.4702  1.6460  1.1087
 2355SOL    HW218528   2.056   2.923   5.807  1.9834 -1.0188 -1.0183
 2356SOL     OW18529   0.724   0.630   3.297  0.4911  0.4090 -0.0968
 2356SOL    HW118530   0.687   0.713   3.327 -0.0322  0.0722  0.1948
 2356SOL    HW218531   0.651   0.588   3.253 -0.5969  1.4760  0.6742
 2357SOL     OW18532   1.473   1.581   6.414  0.4590  0.0623 -0.6524
 2357SOL    HW118533   1.379   1.575   6.402  0.6164 -0.1896 -1.7452
 2357SOL    HW218534   1.485   1.676   6.421  1.1088 -0.1578  1.3365
 2358SOL     OW18535   1.637   1.829   7.505 -0.1678  0.4201  0.8900
 2358SOL    HW118536   1.676   1.754   7.460 -1.1642  0.4986 -0.0844
 2358SOL    HW218537   1.709   1.872   7.551 -0.4973  2.3510 -0.4222
 2359SOL     OW18538   1.468   1.447   4.320 -0.0567  0.0599 -0.1391
 2359SOL    HW118539   1.466   1.507   4.244 -0.6008 -0.6660 -0.6991
 2359SOL    HW218540   1.562   1.444   4.335 -0.1288  1.3757  0.5904
 2360SOL     OW18541   3.400   2.771   8.239 -0.1751  0.3727 -0.2240
 2360SOL    HW118542   3.415   2.778   8.334  0.6981 -0.4706 -0.2938
 2360SOL    HW218543   3.376   2.678   8.241 -1.7800  0.7555 -1.9407
 2361SOL     OW18544   3.939   0.065  13.572 -0.2113 -0.0087  0.3906
 2361SOL    HW118545   3.884   4.712  13.562 -0.3023 -0.1438  2.0604
 2361SOL    HW218546   4.024   0.029  13.597 -1.1243 -0.6959  2.4754
 2362SOL     OW18547   2.093   2.806   6.751  0.2423 -0.3225  0.0780
 2362SOL    HW118548   2.139   2.880   6.790  0.5363  0.7879 -2.3225
 2362SOL    HW218549   2.156   2.737   6.772 -1.8919 -2.0090  0.8999
 2363SOL     OW18550   2.133   0.366   2.781  0.3949 -0.0248  0.0549
 2363SOL    HW118551   2.211   0.355   2.727 -0.2712 -5.5482  0.2676
 2363SOL    HW218552   2.089   0.285   2.755 -1.4553  1.1704 -0.5616
 2364SOL     OW18553   3.506   4.201   3.588 -0.0544 -0.2568  0.2872
 2364SOL    HW118554   3.530   4.271   3.528  0.7492 -1.2859 -0.5842
 2364SOL    HW218555   3.569   4.132   3.567  0.3773  0.4013 -0.5737
 2365SOL     OW18556   1.238   4.167   1.404  0.5767 -0.0045  0.6693
 2365SOL    HW118557   1.152   4.205   1.420  1.3859  1.5028  1.4457
 2365SOL    HW218558   1.220   4.144   1.313  3.8063 -0.5639  0.1658
 2366SOL     OW18559   1.751   1.513   6.683 -0.4456  0.5051 -0.1634
 2366SOL    HW118560   1.750   1.536   6.775  1.1684  2.2628 -0.6069
 2366SOL    HW218561   1.657   1.522   6.663 -0.3019 -0.0712 -1.0851
 2367SOL     OW18562   0.664   1.621   3.838 -0.4060  0.5988 -0.5068
 2367SOL    HW118563   0.577   1.593   3.809 -1.0276  3.5871 -1.5969
 2367SOL    HW218564   0.642   1.701   3.888  0.5540  1.3632 -1.3134
 2368SOL     OW18565   3.810   4.328   5.736 -0.1906  0.6216 -0.4460
 2368SOL    HW118566   3.896   4.365   5.754  0.7796 -1.3832 -0.8952
 2368SOL    HW218567   3.841   4.243   5.704 -0.8662  1.1623 -2.4950
 2369SOL     OW18568   4.530   3.461   5.022 -0.2487 -0.6705 -0.2710
 2369SOL    HW118569   4.499   3.499   4.940 -0.9081  0.0284  0.3026
 2369SOL    HW218570   4.505   3.371   5.000  0.4946 -0.7288 -0.8594
 2370SOL     OW18571   3.752   1.013   8.572 -0.3074  0.2142  0.6309
 2370SOL    HW118572   3.799   0.931   8.558  0.1716  0.5940  0.0011
 2370SOL    HW218573   3.706   0.994   8.654 -3.3017  1.4769 -0.7633
 2371SOL     OW18574   0.821   1.960   2.660  0.0172 -1.0435 -0.0769
 2371SOL    HW118575   0.760   2.000   2.722 -2.1655 -0.1447 -2.8102
 2371SOL    HW218576   0.858   2.044   2.635 -2.8844 -0.7693 -3.4339
 2372SOL     OW18577   3.665   2.359   2.960 -0.2231 -0.2385 -0.5639
 2372SOL    HW118578   3.611   2.293   2.916  0.6724 -1.6843  0.4909
 2372SOL    HW218579   3.734   2.311   3.006 -1.1869  0.0753  1.1968
 2373SOL     OW18580   2.909   0.569  15.177  0.1235  0.5468 -0.7270
 2373SOL    HW118581   2.813   0.572  15.179  0.0791 -1.6073  0.7032
 2373SOL    HW218582   2.922   0.618  15.096  0.0364  1.2324 -0.3186
 2374SOL     OW18583   2.531   2.686   5.298  0.2283  0.0191 -0.5734
 2374SOL    HW118584   2.626   2.680   5.314  0.4263  0.1776 -1.7296
 2374SOL    HW218585   2.491   2.605   5.330  0.6171 -0.3327 -0.9812
 2375SOL     OW18586   0.870   1.627   4.719 -0.1495  0.2002  0.2806
 2375SOL    HW118587   0.909   1.657   4.637 -0.8262 -1.3220 -0.6211
 2375SOL    HW218588   0.792   1.579   4.689 -0.3686  0.4797  0.3990
 2376SOL     OW18589   3.887   2.102   2.261  0.3210  0.0955 -0.4129
 2376SOL    HW118590   3.945   2.058   2.198 -1.7628  0.2490 -2.4156
 2376SOL    HW218591   3.831   2.151   2.202 -0.3911  0.1179  0.2810
 2377SOL     OW18592   2.500   4.250   0.509  0.3954 -0.4845  0.5295
 2377SOL    HW118593   2.463   4.205   0.433 -0.1137 -1.1875  1.1907
 2377SOL    HW218594   2.589   4.252   0.475  0.5521  0.3933  0.9913
 2378SOL     OW18595   2.015   3.047   3.619  0.8162 -0.1755 -0.4421
 2378SOL    HW118596   2.054   3.120   3.667  0.7596  0.0359 -0.7186
 2378SOL    HW218597   1.980   3.095   3.544 -0.4004 -1.6545 -0.8182
 2379SOL     OW18598   3.967   0.528   8.290  0.2927  0.2670 -0.2412
 2379SOL    HW118599   3.926   0.459   8.342 -0.0495  1.5685  1.2380
 2379SOL    HW218600   3.960   0.494   8.201 -1.0089 -0.3289  0.0864
 2380SOL     OW18601   2.972   0.735   0.144  0.1333  0.5122 -0.7590
 2380SOL    HW118602   2.938   0.808   0.196  1.3005  1.2842 -1.0852
 2380SOL    HW218603   3.056   0.765   0.108  0.2488  0.6415 -0.3840
 2381SOL     OW18604   2.247   3.800   8.136  0.2834  0.3299 -0.2072
 2381SOL    HW118605   2.308   3.817   8.207 -2.9085  0.0689  2.5775
 2381SOL    HW218606   2.279   3.712   8.115 -3.7156 -0.7844 -1.6914
 2382SOL     OW18607   1.548   3.515   7.313 -0.8247  0.3007 -0.2246
 2382SOL    HW118608   1.615   3.520   7.245 -0.8300  1.9071 -0.1174
 2382SOL    HW218609   1.584   3.447   7.370  0.4345  1.8212  0.8019
 2383SOL     OW18610   4.271   1.532   4.856 -0.0787  0.0096  0.0167
 2383SOL    HW118611   4.267   1.616   4.810  1.6221  1.6164  2.8138
 2383SOL    HW218612   4.206   1.546   4.925 -1.4402  4.0807 -2.0962
 2384SOL     OW18613   3.632   0.188  10.720 -0.8388 -0.0884  0.2379
 2384SOL    HW118614   3.577   0.267  10.720 -1.2321 -0.3556  1.1799
 2384SOL    HW218615   3.638   0.178  10.625 -1.8027  3.3646 -0.1943
 2385SOL     OW18616   1.131   1.257  11.281 -0.1663  0.3790 -0.6392
 2385SOL    HW118617   1.148   1.188  11.346 -2.6013 -0.2285 -0.6389
 2385SOL    HW218618   1.146   1.211  11.199  0.5756  1.7244 -1.2640
 2386SOL     OW18619   4.584   2.087   7.742  0.4788  0.0093 -0.0780
 2386SOL    HW118620   4.583   2.018   7.676  2.7131  0.9545 -1.0597
 2386SOL    HW218621   4.509   2.136   7.707 -0.4863 -0.0608  1.8460
 2387SOL     OW18622   1.074   1.734   3.394 -0.1011  0.1368 -0.1995
 2387SOL    HW118623   1.036   1.784   3.322  1.5743 -0.0645 -1.2428
 2387SOL    HW218624   1.076   1.804   3.460 -3.1396 -0.2804  0.3189
 2388SOL     OW18625   0.112   3.710   3.781 -0.6766 -0.0158  0.3505
 2388SOL    HW118626   0.165   3.706   3.702  0.1434 -0.2850  0.9144
 2388SOL    HW218627   0.100   3.804   3.793  1.1993 -0.1052  2.9600
 2389SOL     OW18628   2.451   0.587   7.731  0.6769 -0.0364 -0.3632
 2389SOL    HW118629   2.528   0.531   7.721  0.0533 -1.1123  0.8638
 2389SOL    HW218630   2.419   0.592   7.641 -0.3990 -0.4718 -0.0031
 2390SOL     OW18631   2.176   1.242  16.454 -0.0171  0.2943 -0.2144
 2390SOL    HW118632   2.197   1.336  16.459 -0.6222  0.4508 -0.6014
 2390SOL    HW218633   2.199   1.229  16.546  2.3568  0.5753 -0.7763
 2391SOL     OW18634   2.183   4.034   5.053  0.2364 -0.1487  0.3529
 2391SOL    HW118635   2.233   4.088   4.992 -0.7408  1.6988  1.1815
 2391SOL    HW218636   2.175   4.086   5.133  2.7883 -2.3635  2.0557
 2392SOL     OW18637   4.223   4.522   4.359  0.1345 -0.3505 -0.1796
 2392SOL    HW118638   4.175   4.510   4.441 -2.4723  0.5722 -1.5799
 2392SOL    HW218639   4.170   4.474   4.296 -0.2348 -0.6967  0.3955
 2393SOL     OW18640   2.590   1.556   5.647  0.1302 -0.8758  0.1231
 2393SOL    HW118641   2.658   1.623   5.636  0.7059 -1.3515  0.8097
 2393SOL    HW218642   2.518   1.601   5.691 -1.8053 -0.6277 -3.2694
 2394SOL     OW18643   3.665   4.428   1.371  0.4031  0.3924 -0.2532
 2394SOL    HW118644   3.714   4.510   1.382  0.3723  0.7211 -2.6484
 2394SOL    HW218645   3.647   4.449   1.279  2.3159 -0.0276 -0.7234
 2395SOL     OW18646   1.504   2.360   2.671  0.0186  0.2478  0.1491
 2395SOL    HW118647   1.494   2.427   2.738 -1.7689  0.3029 -0.1689
 2395SOL    HW218648   1.522   2.422   2.600  0.7133  0.4143  0.4710
 2396SOL     OW18649   1.934   1.236   0.022 -0.1997  0.1027  0.6891
 2396SOL    HW118650   1.969   1.152  17.694 -1.0349 -0.2172  0.6205
 2396SOL    HW218651   1.881   1.260  17.648  0.2764  1.3496  0.7616
 2397SOL     OW18652   1.606   0.772   4.671 -0.5840 -0.4515  0.5480
 2397SOL    HW118653   1.648   0.857   4.657 -2.3038  0.1218 -1.0410
 2397SOL    HW218654   1.545   0.776   4.597  0.2913 -1.0648 -0.2125
 2398SOL     OW18655   0.199   4.074   3.042  0.7949  0.1498 -0.3220
 2398SOL    HW118656   0.277   4.129   3.039  0.7563  0.2210 -0.0265
 2398SOL    HW218657   0.240   3.996   3.077 -0.7734  0.2802  1.8136
 2399SOL     OW18658   0.060   0.827   7.315  0.0753 -0.1847  0.4809
 2399SOL    HW118659   0.036   0.865   7.399 -0.9611 -2.9168  1.4138
 2399SOL    HW218660   0.022   0.739   7.321  0.4419 -0.2992  1.0808
 2400SOL     OW18661   1.659   2.803   9.214 -0.1314 -0.1532 -0.1748
 2400SOL    HW118662   1.651   2.873   9.279 -0.6460 -1.1874  0.8638
 2400SOL    HW218663   1.603   2.737   9.254 -3.8120  2.2998 -1.3186
 2401SOL     OW18664   0.733   3.619   1.705 -0.2557 -0.1725 -0.0392
 2401SOL    HW118665   0.656   3.672   1.726  0.6868  1.7560 -1.4454
 2401SOL    HW218666   0.786   3.639   1.782 -1.3210 -1.9178  1.1711
 2402SOL     OW18667   3.209   1.112   7.682 -0.3129 -0.6444  0.5093
 2402SOL    HW118668   3.126   1.075   7.710  0.0821 -0.9951  1.2088
 2402SOL    HW218669   3.250   1.137   7.765 -0.3951 -1.3958  0.7776
 2403SOL     OW18670   1.221   4.210   7.766  0.6113  0.2126  0.1797
 2403SOL    HW118671   1.250   4.142   7.705 -2.5450 -0.7572 -0.2668
 2403SOL    HW218672   1.195   4.269   7.696  1.9952 -0.3830 -0.8332
 2404SOL     OW18673   1.591   0.619   6.745  0.6559 -0.6722 -0.1981
 2404SOL    HW118674   1.515   0.665   6.780  1.0805 -1.7487  2.1579
 2404SOL    HW218675   1.658   0.627   6.814  0.3207  3.1114 -0.3180
 2405SOL     OW18676   1.768   2.637  14.847 -0.2542 -0.2470 -0.1068
 2405SOL    HW118677   1.674   2.618  14.845 -0.1173 -0.9193 -0.3611
 2405SOL    HW218678   1.802   2.583  14.776 -0.6124 -0.8958  0.2139
 2406SOL     OW18679   1.526   0.037   4.828 -0.8451 -0.3978  0.4565
 2406SOL    HW118680   1.620   0.028   4.813 -0.4958 -3.1957  4.4949
 2406SOL    HW218681   1.518   0.100   4.900  1.0584  0.4064 -0.0327
 2407SOL     OW18682   1.542   2.588  12.290 -0.4515  0.2189  0.9949
 2407SOL    HW118683   1.523   2.537  12.211  0.5770  1.6053 -0.1543
 2407SOL    HW218684   1.455   2.626  12.303 -1.4268 -1.5230 -0.3552
 2408SOL     OW18685   1.026   0.401   4.464 -0.4548  0.5104 -0.0947
 2408SOL    HW118686   1.086   0.438   4.529 -0.9677 -0.5849  1.0082
 2408SOL    HW218687   0.971   0.476   4.442 -0.2187  0.6295 -0.2838
 2409SOL     OW18688   3.617   1.736   3.875 -0.5867 -0.1210  0.6104
 2409SOL    HW118689   3.678   1.666   3.851 -0.9800  0.1073 -1.0782
 2409SOL    HW218690   3.534   1.703   3.842 -1.5959  1.8726  1.1712
 2410SOL     OW18691   0.286   2.766  14.430 -0.6501 -0.3122  0.9949
 2410SOL    HW118692   0.377   2.786  14.449 -1.2379  3.3906 -0.1442
 2410SOL    HW218693   0.245   2.775  14.516 -0.9529  0.6377  0.7506
 2411SOL     OW18694   3.810   1.521   4.424 -0.3831  0.1904 -0.4332
 2411SOL    HW118695   3.862   1.584   4.374 -0.7746 -0.8645 -2.1845
 2411SOL    HW218696   3.723   1.530   4.384 -0.7605  2.3687  0.8773
 2412SOL     OW18697   3.948   2.291   0.774 -0.0238  0.0077  0.0452
 2412SOL    HW118698   3.863   2.330   0.794 -0.7212 -0.4000 -2.1369
 2412SOL    HW218699   3.993   2.372   0.749 -1.0908  0.3481 -0.7856
 2413SOL     OW18700   0.019   0.282   4.600  0.4013 -0.0697  0.5124
 2413SOL    HW118701   0.105   0.269   4.562  0.3355  1.5125 -0.1691
 2413SOL    HW218702   4.707   0.196   4.581  3.1935 -1.0753 -0.3126
 2414SOL     OW18703   2.222   0.785  13.858  0.7512  0.4866  0.5476
 2414SOL    HW118704   2.162   0.847  13.899 -0.2886 -1.1895  1.5428
 2414SOL    HW218705   2.176   0.755  13.780 -1.0855 -0.7428  2.1225
 2415SOL     OW18706   2.318   3.573   7.722  0.7186 -0.3591  0.2641
 2415SOL    HW118707   2.291   3.549   7.634  0.2881  0.7932  0.0793
 2415SOL    HW218708   2.336   3.666   7.708  1.2862 -0.7065 -1.2463
 2416SOL     OW18709   3.587   2.060  13.278 -0.1340 -0.1455 -0.1848
 2416SOL    HW118710   3.663   2.002  13.281  1.2485  1.6849  0.4991
 2416SOL    HW218711   3.584   2.089  13.370  1.0501  0.8843 -0.4753
 2417SOL     OW18712   0.352   1.040   8.413 -0.0629 -0.0893 -0.0771
 2417SOL    HW118713   0.264   1.001   8.409  0.7271 -1.6720 -2.1372
 2417SOL    HW218714   0.365   1.022   8.506 -0.7842 -0.9608 -0.1387
 2418SOL     OW18715   3.591   1.098   4.595  0.2579  0.2295 -0.1384
 2418SOL    HW118716   3.574   1.013   4.553 -3.4264  1.9787 -2.1873
 2418SOL    HW218717   3.584   1.167   4.528  1.5131  3.0758  2.6968
 2419SOL     OW18718   3.045   1.310  12.036  0.0616 -0.2051  0.1794
 2419SOL    HW118719   3.065   1.346  11.949  0.8585  0.0368  0.4578
 2419SOL    HW218720   3.123   1.339  12.084  0.1777  0.1592 -0.2262
 2420SOL     OW18721   3.059   3.160   4.055 -0.2021 -0.1687 -0.0344
 2420SOL    HW118722   3.105   3.192   3.977  0.6089 -0.6065  0.2603
 2420SOL    HW218723   3.129   3.117   4.106  1.5477 -1.9348 -3.9257
 2421SOL     OW18724   3.064   2.911   6.629 -0.0266  0.4866  0.0610
 2421SOL    HW118725   2.974   2.933   6.608  0.9514  2.2960 -2.1238
 2421SOL    HW218726   3.101   2.957   6.554 -2.1805  2.5152  0.2432
 2422SOL     OW18727   0.988   4.494  14.080  0.0005 -0.0883  0.2950
 2422SOL    HW118728   1.032   4.471  13.998 -0.4558 -1.4388  0.4243
 2422SOL    HW218729   1.026   4.425  14.135  1.6405 -0.7372 -1.6354
 2423SOL     OW18730   0.914   3.717   9.040  0.3058 -0.2702 -0.3033
 2423SOL    HW118731   0.947   3.786   9.099  0.2160 -1.5567  1.2524
 2423SOL    HW218732   0.863   3.668   9.105 -2.6963 -0.7594 -3.0642
 2424SOL     OW18733   2.481   1.204  17.286  0.4662 -0.1575  0.1915
 2424SOL    HW118734   2.423   1.159  17.225 -1.6145 -0.2766  2.2245
 2424SOL    HW218735   2.556   1.145  17.295  1.0095  0.9326  2.7127
 2425SOL     OW18736   2.607   1.046   6.933  0.0703 -0.3322 -0.3593
 2425SOL    HW118737   2.658   1.047   6.852 -1.1409 -0.9865 -1.1379
 2425SOL    HW218738   2.589   1.139   6.947  1.9510  0.1650 -1.3419
 2426SOL     OW18739   3.995   2.587   2.331 -0.1999 -0.1987 -1.1024
 2426SOL    HW118740   4.013   2.494   2.318  1.5401 -0.2887  2.0560
 2426SOL    HW218741   4.063   2.624   2.388 -0.1957  0.2429 -1.3899
 2427SOL     OW18742   1.014   1.578   0.747  0.4525  0.5150 -0.1683
 2427SOL    HW118743   1.025   1.666   0.711  1.0929  0.2245 -0.6840
 2427SOL    HW218744   0.919   1.585   0.739  0.3575  0.7267  1.0961
 2428SOL     OW18745   4.483   3.089   5.887  0.1751  0.4667  0.6767
 2428SOL    HW118746   4.543   3.083   5.813 -1.8284 -1.3892 -0.7879
 2428SOL    HW218747   4.525   3.127   5.964  1.5824  0.7677 -0.2416
 2429SOL     OW18748   3.154   4.462   2.582  0.1717 -0.6349 -0.1438
 2429SOL    HW118749   3.072   4.436   2.625 -0.2596  2.7703  1.0388
 2429SOL    HW218750   3.208   4.390   2.616  1.4579 -0.3329 -1.5402
 2430SOL     OW18751   3.132   0.866   7.148 -0.1257  0.4639  0.6202
 2430SOL    HW118752   3.088   0.948   7.128 -1.1960  0.0026  1.1056
 2430SOL    HW218753   3.056   0.810   7.139  0.8962 -0.9228  0.6197
 2431SOL     OW18754   4.442   0.371   7.816  0.1109 -0.0873  0.4348
 2431SOL    HW118755   4.408   0.392   7.903  1.0854  1.1961  0.4986
 2431SOL    HW218756   4.412   0.437   7.753  3.1107  1.5122  0.7128
 2432SOL     OW18757   3.398   2.020   3.936 -0.1303 -0.6439  0.5225
 2432SOL    HW118758   3.371   2.074   3.862  1.2001 -1.8507 -0.8298
 2432SOL    HW218759   3.494   2.022   3.927 -0.1603  2.7772  0.9872
 2433SOL     OW18760   0.387   3.513   5.717 -0.7006  0.2254 -0.4382
 2433SOL    HW118761   0.343   3.538   5.636 -1.4097  1.6711  0.3902
 2433SOL    HW218762   0.346   3.568   5.784  0.3877  4.0873 -2.9443
 2434SOL     OW18763   3.978   1.734   2.771 -0.2429 -0.1216  0.5609
 2434SOL    HW118764   4.050   1.741   2.708  1.0692 -1.5203  1.9178
 2434SOL    HW218765   4.033   1.747   2.848  1.1799 -1.9554 -0.1240
 2435SOL     OW18766   2.000   1.326   0.756  0.5293 -0.7367 -0.7013
 2435SOL    HW118767   1.918   1.373   0.743  0.2075 -1.2654 -0.6060
 2435SOL    HW218768   1.990   1.232   0.741 -0.4764 -0.4864 -1.5757
 2436SOL     OW18769   1.128   4.229   4.581  0.2786 -0.5595  0.0415
 2436SOL    HW118770   1.085   4.242   4.496  2.2086 -0.0806 -0.8495
 2436SOL    HW218771   1.219   4.255   4.572  0.2305  0.0720  1.4582
 2437SOL     OW18772   0.647   2.750   7.850  0.4401 -0.1640 -0.2492
 2437SOL    HW118773   0.690   2.666   7.833  1.9614  0.6629 -0.5129
 2437SOL    HW218774   0.713   2.817   7.869 -0.9947  1.7426 -2.1118
 2438SOL     OW18775   0.525   4.375   2.028  0.2793 -0.0750 -0.0860
 2438SOL    HW118776   0.549   4.397   1.938 -4.1869  0.0687 -1.2489
 2438SOL    HW218777   0.454   4.312   2.011 -0.1518 -0.4065  2.8968
 2439SOL     OW18778   1.652   0.109   6.291 -0.1098 -0.3175  0.1337
 2439SOL    HW118779   1.567   0.098   6.333  0.3837  0.7886  1.4217
 2439SOL    HW218780   1.712   0.055   6.343  1.2364  0.1687 -0.8963
 2440SOL     OW18781   2.514   1.914   4.838 -0.2553 -0.3520 -0.0067
 2440SOL    HW118782   2.560   1.955   4.765 -1.9431  1.3666 -0.1186
 2440SOL    HW218783   2.460   1.990   4.863 -0.2471 -0.5105  0.4910
 2441SOL     OW18784   4.397   1.346  13.062 -0.8004  0.6922  0.3330
 2441SOL    HW118785   4.474   1.402  13.053  0.8109 -1.3544  1.6020
 2441SOL    HW218786   4.399   1.344  13.158 -0.1846 -0.1765  0.2933
 2442SOL     OW18787   3.754   3.721   5.664 -0.3758 -0.3658 -0.2274
 2442SOL    HW118788   3.664   3.753   5.657 -0.4206 -0.6002 -0.6753
 2442SOL    HW218789   3.794   3.787   5.607 -2.4837  1.9840  0.9724
 2443SOL     OW18790   0.958   1.082   3.702 -0.0822 -0.6923 -0.0913
 2443SOL    HW118791   1.000   1.151   3.651  0.1008  0.3750  1.5033
 2443SOL    HW218792   0.965   1.016   3.633  2.3207 -1.3482  0.7813
 2444SOL     OW18793   4.710   1.855   6.241  0.4201  0.2995 -0.2389
 2444SOL    HW118794   4.673   1.768   6.255  1.7934 -0.1180  0.7011
 2444SOL    HW218795   0.049   1.857   6.312 -0.1031  1.9646  0.2026
 2445SOL     OW18796   3.822   1.961   6.664  0.0707 -0.3093 -0.1651
 2445SOL    HW118797   3.884   1.889   6.678 -1.1730 -1.1843  0.8611
 2445SOL    HW218798   3.884   2.030   6.644 -0.2298 -0.3415 -1.2435
 2446SOL     OW18799   4.155   2.467   1.478 -0.5708 -0.4675 -0.4560
 2446SOL    HW118800   4.172   2.493   1.569 -1.7616 -0.5339 -0.2186
 2446SOL    HW218801   4.173   2.551   1.435 -3.0646  0.4384  0.2676
 2447SOL     OW18802   0.859   4.148  10.671 -0.0733 -0.3108 -0.0539
 2447SOL    HW118803   0.887   4.228  10.625 -2.2968  0.6853  0.3014
 2447SOL    HW218804   0.936   4.132  10.726 -0.2742  0.5919  0.4979
 2448SOL     OW18805   0.027   1.608   4.818 -0.4839  0.2243  0.6492
 2448SOL    HW118806   0.028   1.699   4.789 -0.3216  0.4355  1.3296
 2448SOL    HW218807   4.720   1.608   4.908 -0.9008 -2.5647  0.4842
 2449SOL     OW18808   4.523   2.417  10.000 -1.0917  0.1758 -0.0853
 2449SOL    HW118809   4.481   2.388   9.919  0.7384  1.1375 -1.3722
 2449SOL    HW218810   4.477   2.501   9.999  1.7027  1.6778 -1.8245
 2450SOL     OW18811   1.060   3.240   8.720 -0.3857  0.7006 -0.7834
 2450SOL    HW118812   1.133   3.222   8.660 -0.0029 -0.3477 -0.0051
 2450SOL    HW218813   1.048   3.335   8.714 -3.0736  0.4200  0.2052
 2451SOL     OW18814   3.602   1.789   4.515 -0.0203 -0.6328  0.3805
 2451SOL    HW118815   3.572   1.772   4.605 -2.2646 -1.4418 -0.5417
 2451SOL    HW218816   3.636   1.702   4.493  0.9422  0.0039 -0.6674
 2452SOL     OW18817   2.230   1.437   5.350 -0.0684 -0.1450  0.5704
 2452SOL    HW118818   2.279   1.472   5.276  0.4362  1.4276  1.6413
 2452SOL    HW218819   2.265   1.349   5.358  2.9212  1.1603  2.0042
 2453SOL     OW18820   0.417   3.130   9.064  0.6118  0.0292 -0.8464
 2453SOL    HW118821   0.475   3.145   9.138 -2.3176  1.5892  1.1469
 2453SOL    HW218822   0.486   3.106   9.002  2.2428 -0.0927  1.0222
 2454SOL     OW18823   1.613   3.330  10.778 -0.2052 -0.0071 -0.3015
 2454SOL    HW118824   1.630   3.235  10.782 -2.7934 -0.5059 -1.1782
 2454SOL    HW218825   1.520   3.341  10.795 -0.7300 -0.7957 -2.5610
 2455SOL     OW18826   4.539   1.574   4.440  0.0928  0.6112 -0.1374
 2455SOL    HW118827   4.562   1.498   4.387  1.0414 -0.1354  1.3375
 2455SOL    HW218828   4.447   1.557   4.461  0.1592  1.8274  1.1439
 2456SOL     OW18829   0.970   1.218   0.222  0.1999 -0.2386  0.0274
 2456SOL    HW118830   1.016   1.136   0.242  1.4784 -0.0911 -2.3126
 2456SOL    HW218831   0.879   1.195   0.240 -0.5219  3.3727  0.9531
 2457SOL     OW18832   3.489   1.280   0.911 -0.0477  0.3176  0.2048
 2457SOL    HW118833   3.462   1.293   1.002  0.5941 -0.6355  0.5360
 2457SOL    HW218834   3.415   1.324   0.870 -0.2003 -0.5927 -0.5005
 2458SOL     OW18835   1.820   3.902   0.535  0.7364  0.1705 -0.7727
 2458SOL    HW118836   1.756   3.973   0.535 -2.1604 -2.4864  0.0460
 2458SOL    HW218837   1.847   3.918   0.626 -0.8255 -4.0553  0.4298
 2459SOL     OW18838   4.363   2.824  11.933 -0.1256 -0.2791 -0.1723
 2459SOL    HW118839   4.370   2.767  12.009  1.5239  0.2449  0.0567
 2459SOL    HW218840   4.425   2.790  11.868 -0.3868  1.6919 -1.4495
 2460SOL     OW18841   1.714   3.818   9.276  0.0977 -0.3262 -0.5023
 2460SOL    HW118842   1.711   3.725   9.251 -0.1504 -0.1638 -1.0850
 2460SOL    HW218843   1.769   3.846   9.203  1.3374 -0.0325  0.5495
 2461SOL     OW18844   3.949   2.142   9.448  0.7536 -0.2928  0.1495
 2461SOL    HW118845   3.901   2.153   9.530 -0.7524 -1.4523 -0.5570
 2461SOL    HW218846   3.986   2.230   9.442  2.4404 -1.1359 -1.6767
 2462SOL     OW18847   1.242   4.222   3.956  0.0349  0.4083 -0.2372
 2462SOL    HW118848   1.306   4.287   3.928 -0.5409  0.2994 -1.8076
 2462SOL    HW218849   1.294   4.187   4.027  2.8239 -0.4599 -2.7420
 2463SOL     OW18850   1.100   3.557   2.068 -0.0257  0.3082 -0.0023
 2463SOL    HW118851   1.028   3.504   2.103  0.7551 -1.6730 -1.4225
 2463SOL    HW218852   1.164   3.490   2.091 -1.0528 -1.8783 -3.4940
 2464SOL     OW18853   3.392   4.552   3.091 -0.0791 -0.1740 -0.4685
 2464SOL    HW118854   3.474   4.587   3.126 -0.0459 -0.4497 -0.2710
 2464SOL    HW218855   3.369   4.626   3.035  1.2836 -0.0522 -0.8797
 2465SOL     OW18856   2.935   1.660   4.291 -0.0713  0.1851 -0.4782
 2465SOL    HW118857   2.976   1.738   4.254  1.5822 -0.0599  0.8273
 2465SOL    HW218858   2.875   1.639   4.220  0.4357  0.0501 -0.8679
 2466SOL     OW18859   2.967   0.296   5.104  0.3362 -0.5678  0.0641
 2466SOL    HW118860   2.992   0.388   5.114  0.2271 -0.3799 -1.4290
 2466SOL    HW218861   3.012   0.270   5.024  1.0547 -0.9725  0.6049
 2467SOL     OW18862   4.060   1.386   0.801 -0.0516 -0.1197 -0.0958
 2467SOL    HW118863   4.113   1.455   0.762  0.8537 -0.8638 -0.1591
 2467SOL    HW218864   4.008   1.429   0.870 -1.8585 -0.8539 -0.9899
 2468SOL     OW18865   0.322   0.096   5.204  0.2163  0.7889  0.0306
 2468SOL    HW118866   0.411   0.061   5.203 -1.0333 -2.3682 -1.6748
 2468SOL    HW218867   0.338   0.140   5.120 -2.5299  0.5415 -0.6271
 2469SOL     OW18868   0.726   4.585   2.939  0.3100  0.0771  0.2424
 2469SOL    HW118869   0.799   4.578   2.878  2.1934 -1.0217  2.6349
 2469SOL    HW218870   0.703   4.674   2.915 -0.7996 -0.1077  0.6170
 2470SOL     OW18871   3.461   0.516   0.831 -0.2391  0.3589  0.5223
 2470SOL    HW118872   3.525   0.492   0.899 -0.1290 -1.0343 -0.0802
 2470SOL    HW218873   3.399   0.558   0.891 -0.7649  0.2032  0.0821
 2471SOL     OW18874   4.037   2.220   5.317  0.1798  0.0442 -0.1363
 2471SOL    HW118875   4.124   2.192   5.347  0.4757 -1.5364 -2.4038
 2471SOL    HW218876   4.060   2.232   5.225  1.5080 -0.9675  0.0534
 2472SOL     OW18877   3.478   3.353   4.063 -0.6347 -0.0179 -0.3090
 2472SOL    HW118878   3.517   3.278   4.020 -0.6757  0.5616 -1.3455
 2472SOL    HW218879   3.532   3.425   4.030 -0.1643 -1.3439 -2.3865
 2473SOL     OW18880   1.809   2.081   5.293 -0.1544 -0.4909  0.2848
 2473SOL    HW118881   1.794   2.151   5.229  3.7501 -1.5741 -1.8668
 2473SOL    HW218882   1.892   2.041   5.266 -0.1097 -1.0194  1.2059
 2474SOL     OW18883   0.727   3.807   2.753 -0.2318  0.0194 -0.3668
 2474SOL    HW118884   0.645   3.849   2.729  0.5249  1.7018 -0.0014
 2474SOL    HW218885   0.765   3.853   2.828 -1.8059  1.0760 -0.2092
 2475SOL     OW18886   2.141   2.892   8.493  0.0552  0.2035  0.1598
 2475SOL    HW118887   2.203   2.956   8.529  1.1668  0.3830 -2.0661
 2475SOL    HW218888   2.085   2.948   8.439  1.2263 -0.3198 -1.5939
 2476SOL     OW18889   0.064   2.649  12.268 -0.5654 -0.0432 -0.0379
 2476SOL    HW118890   0.152   2.653  12.229 -0.6137 -1.0502 -0.2597
 2476SOL    HW218891   0.084   2.598  12.346  0.7535  0.0091 -0.3341
 2477SOL     OW18892   2.688   4.173   6.456 -0.0370  0.1944 -0.5665
 2477SOL    HW118893   2.701   4.211   6.369  1.0202 -1.3657 -1.0806
 2477SOL    HW218894   2.622   4.103   6.454  0.6949 -0.4569 -1.5821
 2478SOL     OW18895   3.602   0.543   7.663 -0.5041 -0.1383 -0.0977
 2478SOL    HW118896   3.596   0.563   7.757  0.2725 -0.4820  0.0245
 2478SOL    HW218897   3.570   0.623   7.622  1.4058  0.3901 -0.5796
 2479SOL     OW18898   3.578   0.129   8.384  0.1461 -0.1357  0.6050
 2479SOL    HW118899   3.546   0.040   8.395  1.6777 -0.9578 -1.6845
 2479SOL    HW218900   3.539   0.149   8.299  0.5615 -2.5708 -0.1525
 2480SOL     OW18901   3.094   0.557   4.682 -0.2710 -0.1206  0.0245
 2480SOL    HW118902   3.131   0.585   4.765 -0.2709  1.5395 -0.5226
 2480SOL    HW218903   3.170   0.584   4.630 -0.7647  2.4917  0.6186
 2481SOL     OW18904   1.299   1.586   9.836  0.1070 -0.4946 -0.2721
 2481SOL    HW118905   1.227   1.535   9.799 -0.9502 -0.8966  2.3389
 2481SOL    HW218906   1.334   1.639   9.764  1.1953 -0.5252  0.2307
 2482SOL     OW18907   3.121   2.830   9.119  0.6657  0.2878  0.1516
 2482SOL    HW118908   3.051   2.894   9.111  0.2822 -0.2534 -0.7943
 2482SOL    HW218909   3.077   2.746   9.131  1.4012 -0.1612 -0.2706
 2483SOL     OW18910   4.188   0.443   2.773  0.0289  0.2673  0.0404
 2483SOL    HW118911   4.146   0.526   2.749  0.1893  0.0772 -0.9024
 2483SOL    HW218912   4.246   0.438   2.697  1.3999 -1.4604  1.2307
 2484SOL     OW18913   2.009   2.670  17.336 -0.6279 -0.1381 -0.0893
 2484SOL    HW118914   2.070   2.739  17.311 -0.7321  0.1275  0.3758
 2484SOL    HW218915   1.968   2.658  17.250  1.0641  2.5227 -1.2576
 2485SOL     OW18916   3.625   2.051   1.904 -0.5514 -0.4146  0.1488
 2485SOL    HW118917   3.698   2.009   1.859  1.3529  3.9178 -0.8264
 2485SOL    HW218918   3.555   1.988   1.888 -1.3709  0.7811 -0.9757
 2486SOL     OW18919   0.588   2.738   3.276  0.4666 -0.2271  0.3636
 2486SOL    HW118920   0.495   2.732   3.255  1.0572 -2.2119 -1.6300
 2486SOL    HW218921   0.617   2.810   3.221 -1.1459 -0.0459 -0.2458
 2487SOL     OW18922   4.293   1.977   8.043  0.0591 -0.1225 -0.0098
 2487SOL    HW118923   4.319   1.892   8.079  2.6660  1.0252  0.8047
 2487SOL    HW218924   4.381   2.013   8.041 -0.5746  1.4200  0.1460
 2488SOL     OW18925   3.429   2.699   9.398 -0.3155 -0.3375 -0.8727
 2488SOL    HW118926   3.445   2.724   9.489  2.3211  1.8836 -1.9732
 2488SOL    HW218927   3.423   2.782   9.351 -1.9931 -0.6065 -1.1479
 2489SOL     OW18928   3.356   3.269   8.048  0.0343 -0.5511  0.1001
 2489SOL    HW118929   3.339   3.289   8.140  1.0484 -0.2386  0.2165
 2489SOL    HW218930   3.441   3.225   8.059  1.2110  1.2813 -1.7202
 2490SOL     OW18931   4.016   0.033   7.400 -0.0954 -0.6134 -0.0330
 2490SOL    HW118932   3.938   0.079   7.367 -2.3154 -2.7637  2.1605
 2490SOL    HW218933   3.988   4.708   7.476 -1.8682  1.4148  0.6672
 2491SOL     OW18934   0.128   0.183  16.123  0.7467  0.2802  0.1174
 2491SOL    HW118935   0.161   0.261  16.080  0.4197 -0.0552 -0.7377
 2491SOL    HW218936   0.105   0.213  16.211  1.1109  1.9615 -0.3741
 2492SOL     OW18937   2.564   3.076   7.370  0.0258  0.2470  0.3775
 2492SOL    HW118938   2.589   3.044   7.284 -3.8556 -0.3460 -0.5553
 2492SOL    HW218939   2.645   3.092   7.419  1.5380  0.4345 -2.2023
 2493SOL     OW18940   0.846   0.016   3.832  0.6137  0.1992  0.2297
 2493SOL    HW118941   0.869   0.048   3.920  1.3912 -2.3711  0.9408
 2493SOL    HW218942   0.752   0.005   3.848  0.4450  1.4978  0.1312
 2494SOL     OW18943   0.028   1.877   4.768 -0.3930  0.2129  0.3961
 2494SOL    HW118944   0.113   1.872   4.725 -0.6628 -0.4289 -0.0562
 2494SOL    HW218945   4.701   1.891   4.689  0.2962 -0.5246 -0.1924
 2495SOL     OW18946   1.161   2.148   5.311 -0.3857 -0.2551  0.2629
 2495SOL    HW118947   1.170   2.080   5.245 -0.0129 -0.0315  0.0831
 2495SOL    HW218948   1.162   2.225   5.254 -1.6067 -0.3982  0.0422
 2496SOL     OW18949   2.014   1.265   2.011 -0.5704  0.0310  0.2989
 2496SOL    HW118950   2.066   1.198   2.055  0.7849 -0.4183 -1.9771
 2496SOL    HW218951   2.067   1.344   2.018 -1.8655  1.2269 -3.1158
 2497SOL     OW18952   3.648   1.751   7.219 -0.0045 -0.2681  0.0267
 2497SOL    HW118953   3.593   1.814   7.174  1.9883  0.0817 -1.9580
 2497SOL    HW218954   3.730   1.800   7.222 -0.0173 -0.3275  1.1629
 2498SOL     OW18955   3.324   3.024   1.898  0.0431  0.0431 -0.0812
 2498SOL    HW118956   3.296   3.104   1.855 -1.2653  0.0652  0.8161
 2498SOL    HW218957   3.285   2.953   1.846 -0.3820 -0.1533  0.5079
 2499SOL     OW18958   0.183   4.570   4.948 -0.7296 -0.0581  0.0827
 2499SOL    HW118959   0.145   4.608   4.868 -1.0177 -0.1615  0.1700
 2499SOL    HW218960   0.277   4.581   4.939 -0.7370  2.5284  2.9687
 2500SOL     OW18961   1.814   1.653   2.315  1.0098 -0.1449 -0.0245
 2500SOL    HW118962   1.750   1.583   2.308  0.8374 -0.0050  0.1269
 2500SOL    HW218963   1.763   1.700   2.381 -4.5884 -1.8131 -3.2081
 2501SOL     OW18964   0.190   0.734   9.816 -0.1758 -0.1503 -0.4962
 2501SOL    HW118965   0.119   0.693   9.866 -0.9927  0.7896 -0.8758
 2501SOL    HW218966   0.258   0.692   9.867 -1.2759 -1.6866 -0.3077
 2502SOL     OW18967   3.961   0.408   1.345 -0.5304  0.1262  0.0395
 2502SOL    HW118968   3.899   0.397   1.416  1.1215  1.1319  1.6396
 2502SOL    HW218969   3.945   0.332   1.289  1.0313  0.3639 -0.7368
 2503SOL     OW18970   0.249   4.682   7.724  0.0925  0.1269  0.4551
 2503SOL    HW118971   0.237   0.039   7.771 -1.1449  0.5110 -0.5242
 2503SOL    HW218972   0.214   4.617   7.785 -1.3634  1.3207  0.8913
 2504SOL     OW18973   4.054   1.838  13.517 -0.2158 -0.1351  0.4380
 2504SOL    HW118974   4.144   1.862  13.541  1.5058 -2.5452 -3.6178
 2504SOL    HW218975   4.046   1.752  13.557 -0.1476  0.8203  2.5373
 2505SOL     OW18976   2.434   1.384   1.866 -0.3983  0.4566 -0.0321
 2505SOL    HW118977   2.431   1.297   1.906 -0.4364 -0.6521 -2.4090
 2505SOL    HW218978   2.518   1.394   1.822  0.5787 -0.9778  1.5559
 2506SOL     OW18979   0.418   1.958   4.447 -0.2994  0.3534  0.0437
 2506SOL    HW118980   0.457   1.903   4.515 -0.1807 -2.4748 -2.3188
 2506SOL    HW218981   0.404   1.901   4.371 -1.1249 -1.1314  1.3290
 2507SOL     OW18982   2.762   2.844  11.427  0.3621 -0.7676 -0.3505
 2507SOL    HW118983   2.675   2.877  11.449  0.5311 -0.8786  0.4646
 2507SOL    HW218984   2.762   2.860  11.332 -1.0275 -0.0669 -0.2362
 2508SOL     OW18985   1.566   4.014   9.973 -0.4789  0.6316 -0.1814
 2508SOL    HW118986   1.474   3.995   9.957 -0.1805  0.0366 -1.1841
 2508SOL    HW218987   1.587   3.960  10.049 -1.1674  0.9285  0.2228
 2509SOL     OW18988   3.452   4.229   8.300 -0.0561 -0.0658 -0.1019
 2509SOL    HW118989   3.538   4.188   8.309  0.3831  0.8154 -0.2830
 2509SOL    HW218990   3.430   4.234   8.393 -1.0484  1.4273 -0.4280
 2510SOL     OW18991   3.967   0.911   7.330  0.3426  0.8679 -0.4676
 2510SOL    HW118992   3.915   0.858   7.270 -0.0510  0.7152  0.0118
 2510SOL    HW218993   3.921   0.993   7.312  0.9838  1.3681  0.1830
 2511SOL     OW18994   2.562   2.327   5.075 -0.4753 -0.1924  0.2767
 2511SOL    HW118995   2.553   2.284   4.990 -0.7624  1.2882 -0.4399
 2511SOL    HW218996   2.470   2.337   5.099 -0.4124  0.0756  0.4004
 2512SOL     OW18997   4.032   0.320   8.561 -0.3820  0.1496  0.1970
 2512SOL    HW118998   4.003   0.245   8.508  1.6357 -1.3139  1.1646
 2512SOL    HW218999   3.955   0.340   8.613 -1.6601 -0.0041 -1.6198
 2513SOL     OW19000   0.026   0.151  15.324 -0.3044 -0.4820  0.0171
 2513SOL    HW119001   0.099   0.127  15.381 -0.5616 -0.1953  0.4689
 2513SOL    HW219002   0.065   0.203  15.254  0.5864 -0.2730  0.6707
 2514SOL     OW19003   0.256   4.083   6.068  0.2341 -0.1102  0.5251
 2514SOL    HW119004   0.283   4.014   6.008 -3.3632 -1.6485  0.7287
 2514SOL    HW219005   0.167   4.059   6.092  0.3376 -0.9509  0.0576
 2515SOL     OW19006   4.634   0.813   7.814  0.4866  0.2271  0.1872
 2515SOL    HW119007   0.003   0.819   7.794  0.2523 -1.8958 -1.5328
 2515SOL    HW219008   4.662   0.810   7.906 -0.9821 -1.4942  0.5611
 2516SOL     OW19009   0.813   0.194   4.273 -0.0196 -0.4935  0.0975
 2516SOL    HW119010   0.819   0.106   4.309  0.2760  1.1945  4.2192
 2516SOL    HW219011   0.893   0.242   4.293 -0.2226 -1.1992  2.5484
 2517SOL     OW19012   1.691   2.501  11.205 -0.6388 -0.2439  0.1030
 2517SOL    HW119013   1.753   2.479  11.275  0.7007 -1.0967 -1.3483
 2517SOL    HW219014   1.728   2.587  11.184  0.6188 -0.4116  1.6874
 2518SOL     OW19015   2.359   0.701   9.285  0.2077 -0.1967 -0.2097
 2518SOL    HW119016   2.420   0.716   9.358 -0.6107 -2.0431  0.8480
 2518SOL    HW219017   2.277   0.666   9.319  0.4512  0.4700  1.0823
 2519SOL     OW19018   3.469   0.974   4.979 -0.2119 -0.0706  0.2963
 2519SOL    HW119019   3.526   0.897   4.975 -1.5351 -1.1515  1.9134
 2519SOL    HW219020   3.420   0.950   4.900  1.3324  2.5511 -1.4297
 2520SOL     OW19021   4.069   1.246  17.612 -0.0346  0.4729 -0.3542
 2520SOL    HW119022   4.115   1.166  17.585 -0.1606  0.3942 -0.3362
 2520SOL    HW219023   3.992   1.244  17.555  1.2123 -0.8735 -1.9773
 2521SOL     OW19024   3.321   4.070   7.240  0.7310  0.4662  0.2451
 2521SOL    HW119025   3.313   4.127   7.317 -0.9568  0.8651 -0.2107
 2521SOL    HW219026   3.393   4.014   7.270  1.1176 -0.8065 -3.0469
 2522SOL     OW19027   3.800   1.838   9.173  0.0095 -0.2781  0.0337
 2522SOL    HW119028   3.767   1.877   9.092  1.5794  1.5359  0.2889
 2522SOL    HW219029   3.890   1.869   9.178  0.3949 -1.2584 -0.8108
 2523SOL     OW19030   1.126   1.758   8.782 -0.7914  0.3372  0.5196
 2523SOL    HW119031   1.141   1.824   8.714  1.0471 -0.2430  0.3907
 2523SOL    HW219032   1.039   1.728   8.754 -0.6974  0.5289  0.0208
 2524SOL     OW19033   4.568   3.721   4.030 -0.1561  0.1470 -0.3187
 2524SOL    HW119034   4.649   3.759   3.996  0.2166 -0.2459  0.1337
 2524SOL    HW219035   4.538   3.654   3.968 -1.6747  0.2628  0.2784
 2525SOL     OW19036   1.641   1.536   0.071 -0.1725  0.0529  0.0691
 2525SOL    HW119037   1.673   1.558   0.159 -1.6597  1.6614  0.2198
 2525SOL    HW219038   1.548   1.548   0.091 -0.0807 -0.6097  0.8712
 2526SOL     OW19039   3.726   1.059   3.700  0.5504  0.3112 -0.1945
 2526SOL    HW119040   3.672   0.984   3.676  0.0512 -0.3807  3.1843
 2526SOL    HW219041   3.706   1.119   3.628  3.5493  0.2709 -1.0879
 2527SOL     OW19042   1.588   3.868   4.576  0.2897 -0.6077  0.4367
 2527SOL    HW119043   1.608   3.786   4.622 -0.0167 -0.6685  0.4572
 2527SOL    HW219044   1.511   3.894   4.626  1.0340 -0.6530  1.6195
 2528SOL     OW19045   3.463   1.077   5.802 -0.4407 -0.1752 -0.1208
 2528SOL    HW119046   3.554   1.105   5.792 -0.3905 -0.3513 -0.1525
 2528SOL    HW219047   3.435   1.126   5.879 -2.5623 -2.4070  0.5454
 2529SOL     OW19048   1.217   1.869  11.499  0.2626 -0.2789 -0.1186
 2529SOL    HW119049   1.188   1.960  11.503  0.1068 -0.4075  1.8298
 2529SOL    HW219050   1.292   1.862  11.557  1.2100 -1.9731 -1.5412
 2530SOL     OW19051   0.676   0.248   3.225  0.1462 -0.5138  0.3010
 2530SOL    HW119052   0.712   0.257   3.313  2.0749  1.6440 -0.6906
 2530SOL    HW219053   0.599   0.304   3.240  0.9512  0.6166  0.2465
 2531SOL     OW19054   2.849   4.439   4.798 -0.6345 -0.4052  0.4113
 2531SOL    HW119055   2.770   4.440   4.743 -0.9954  1.4832  0.9657
 2531SOL    HW219056   2.906   4.371   4.762 -1.1946  0.0426 -1.3314
 2532SOL     OW19057   4.339   4.469   5.317 -0.3993  0.5121 -0.2555
 2532SOL    HW119058   4.350   4.463   5.222 -1.3433 -3.0188 -0.1420
 2532SOL    HW219059   4.420   4.429   5.348  0.1846  2.3207  0.5467
 2533SOL     OW19060   1.261   3.881   5.963 -0.0400 -0.1590 -0.1176
 2533SOL    HW119061   1.215   3.957   5.998  1.2745  1.3139 -1.5900
 2533SOL    HW219062   1.337   3.927   5.928  0.7715 -0.2736  1.5036
 2534SOL     OW19063   1.977   4.609   7.779 -0.5225  0.1228  0.1910
 2534SOL    HW119064   2.039   4.594   7.851 -0.6078 -0.3887  0.1620
 2534SOL    HW219065   1.923   4.674   7.823  0.9028 -0.3651  2.6566
 2535SOL     OW19066   1.977   3.679   3.526  0.2073 -0.4132  0.0998
 2535SOL    HW119067   2.021   3.634   3.455 -1.1220 -1.2870 -0.1771
 2535SOL    HW219068   1.892   3.707   3.493  1.6159  1.9291 -1.4867
 2536SOL     OW19069   3.434   3.994   4.920 -0.0996  0.3664  0.4523
 2536SOL    HW119070   3.455   3.927   4.984 -0.8902  0.3867  0.7309
 2536SOL    HW219071   3.383   4.057   4.972  0.5547  0.6344  0.7619
 2537SOL     OW19072   3.240   2.735  12.586 -0.3876 -0.0205  0.4180
 2537SOL    HW119073   3.296   2.812  12.591 -0.3533 -0.1382  1.7567
 2537SOL    HW219074   3.239   2.704  12.495  0.6753  1.8478 -0.2267
 2538SOL     OW19075   1.460   1.857   2.784  0.2977  0.0046  0.2465
 2538SOL    HW119076   1.439   1.950   2.778  0.2887 -0.0535 -0.6527
 2538SOL    HW219077   1.556   1.853   2.786  0.3181 -0.0530 -0.5739
 2539SOL     OW19078   1.895   3.909   9.084  0.7466  0.5020 -0.1719
 2539SOL    HW119079   1.955   3.926   9.156  0.4085  1.3623 -0.0874
 2539SOL    HW219080   1.958   3.897   9.013  0.7607 -0.4631 -0.0033
 2540SOL     OW19081   4.560   2.860   0.612  0.3286 -0.4213 -0.6078
 2540SOL    HW119082   4.485   2.841   0.555 -0.9565  0.8908  0.6635
 2540SOL    HW219083   4.522   2.942   0.645 -1.2991 -1.9646  1.2854
 2541SOL     OW19084   1.483   4.179   5.057 -0.4107  0.1359  0.5498
 2541SOL    HW119085   1.473   4.137   4.971 -1.6251 -2.1994  1.8039
 2541SOL    HW219086   1.395   4.188   5.095 -1.1895  3.3926 -2.0302
 2542SOL     OW19087   3.780   1.579   9.028  0.0158  0.6967  0.0916
 2542SOL    HW119088   3.826   1.645   9.080 -0.9029 -0.6540  2.6247
 2542SOL    HW219089   3.856   1.543   8.983 -0.9265 -0.4447 -0.5791
 2543SOL     OW19090   4.311   2.616   3.626 -0.0871 -0.9000  0.1031
 2543SOL    HW119091   4.356   2.586   3.705 -2.3790  0.6507  2.0056
 2543SOL    HW219092   4.351   2.567   3.555  1.6009  0.6729 -0.0187
 2544SOL     OW19093   4.140   2.073   8.268  0.4293  0.4527 -0.5345
 2544SOL    HW119094   4.185   2.157   8.259  3.4434 -1.1027  0.1740
 2544SOL    HW219095   4.197   2.002   8.240 -1.2070 -0.4740 -1.5456
 2545SOL     OW19096   3.884   3.886   0.963  0.1116  0.3071  0.0513
 2545SOL    HW119097   3.957   3.947   0.946 -0.7715  0.8960 -1.6056
 2545SOL    HW219098   3.813   3.932   0.919 -0.3238 -0.6640 -0.2538
 2546SOL     OW19099   0.225   0.023  16.497  0.0666  0.2634 -0.1728
 2546SOL    HW119100   0.279   4.689  16.445  0.8110  0.2455  0.6181
 2546SOL    HW219101   0.272   0.037  16.580 -1.1843  0.0262  0.5794
 2547SOL     OW19102   0.203   3.652   6.667 -0.0912  0.4968 -0.5543
 2547SOL    HW119103   0.292   3.668   6.699  0.5024 -1.0887 -1.4514
 2547SOL    HW219104   0.207   3.589   6.595  0.9868  1.0256 -0.9554
 2548SOL     OW19105   2.106   2.042   7.280  0.4181  0.1732  0.0973
 2548SOL    HW119106   2.129   1.961   7.326  0.0757 -0.3034 -0.5760
 2548SOL    HW219107   2.159   2.048   7.200  0.5519 -0.3389  0.1470
 2549SOL     OW19108   3.186   1.122   3.914  0.1689 -0.2636  0.6420
 2549SOL    HW119109   3.177   1.057   3.984 -3.4560 -0.9394 -0.4589
 2549SOL    HW219110   3.234   1.078   3.843  1.8492  0.7711  1.1334
 2550SOL     OW19111   0.923   0.202   1.641  0.3594 -0.1935 -1.0732
 2550SOL    HW119112   0.970   0.241   1.567  0.8473 -0.6633 -1.0108
 2550SOL    HW219113   0.842   0.173   1.598  0.6311 -0.7489 -1.2054
 2551SOL     OW19114   3.249   1.529  14.159  0.0811 -0.0004  0.3237
 2551SOL    HW119115   3.250   1.435  14.142 -0.9628  0.1125 -0.3538
 2551SOL    HW219116   3.218   1.563  14.075 -0.4004 -1.3287 -0.0369
 2552SOL     OW19117   4.692   3.823   8.942  0.7294  0.1924  0.2384
 2552SOL    HW119118   0.013   3.880   9.004  1.3910 -0.1577  0.0691
 2552SOL    HW219119   0.006   3.738   8.960  1.5187  0.1929 -1.5343
 2553SOL     OW19120   3.391   1.454   4.765  0.0163 -0.0259 -0.1019
 2553SOL    HW119121   3.395   1.408   4.849 -0.2208 -1.7149 -1.0280
 2553SOL    HW219122   3.317   1.515   4.771 -1.0223 -1.4203  1.2921
 2554SOL     OW19123   1.452   4.370   7.871 -0.4097  0.1170 -0.1944
 2554SOL    HW119124   1.363   4.340   7.856 -0.4338  0.7866 -1.3693
 2554SOL    HW219125   1.496   4.301   7.821  1.8024  1.6176 -0.3336
 2555SOL     OW19126   4.438   0.828  11.367 -0.3163  0.7185 -0.9311
 2555SOL    HW119127   4.351   0.821  11.405 -1.0632  2.0122 -2.4267
 2555SOL    HW219128   4.428   0.876  11.285  1.1817  0.5597 -1.2104
 2556SOL     OW19129   0.957   0.981   7.353 -0.2786  0.3584 -0.2507
 2556SOL    HW119130   0.945   0.997   7.260  0.3718 -2.8444 -0.8692
 2556SOL    HW219131   0.901   0.904   7.364  3.3167 -2.1050  0.7201
 2557SOL     OW19132   4.246   1.734  12.134 -0.3781  0.6514 -0.7118
 2557SOL    HW119133   4.319   1.758  12.077  0.5120 -3.3659 -1.2725
 2557SOL    HW219134   4.179   1.725  12.066 -0.3957 -3.0756 -0.2115
 2558SOL     OW19135   3.291   4.225   9.808 -0.0766  0.2374  0.3393
 2558SOL    HW119136   3.205   4.266   9.814 -0.9840 -1.6216 -0.0824
 2558SOL    HW219137   3.258   4.137   9.822 -0.2511  0.0267 -1.3371
 2559SOL     OW19138   3.167   3.235   7.511  0.7205 -0.2111  0.5841
 2559SOL    HW119139   3.200   3.161   7.459 -2.8333 -1.3902  0.0075
 2559SOL    HW219140   3.106   3.191   7.570  1.1481 -0.5337  0.7857
 2560SOL     OW19141   4.442   1.666   6.815  0.3688 -0.2333 -0.2593
 2560SOL    HW119142   4.405   1.713   6.741  0.8316  0.4282 -0.0744
 2560SOL    HW219143   4.394   1.675   6.897 -1.5087 -0.5641 -1.3367
 2561SOL     OW19144   2.617   2.460   2.579  0.3859 -0.3957  0.2275
 2561SOL    HW119145   2.627   2.415   2.495 -0.5175  2.9375 -1.6244
 2561SOL    HW219146   2.523   2.475   2.577  0.5606  0.7876  0.7090
 2562SOL     OW19147   2.639   0.354   0.707  0.3749 -0.5904 -0.0569
 2562SOL    HW119148   2.689   0.405   0.771 -0.6563  1.2708 -0.7516
 2562SOL    HW219149   2.547   0.382   0.708  0.9694  1.2845  0.1814
 2563SOL     OW19150   0.580   1.106   5.859 -0.4993 -0.2140 -0.3313
 2563SOL    HW119151   0.541   1.019   5.870 -1.2698  0.4795  2.1682
 2563SOL    HW219152   0.604   1.138   5.945  1.1321  2.2290 -1.6986
 2564SOL     OW19153   0.064   0.453   7.780 -0.6776 -0.6737 -0.2423
 2564SOL    HW119154   0.081   0.365   7.746  1.3663 -0.3446 -0.0574
 2564SOL    HW219155   4.697   0.468   7.760 -0.1555  0.8219 -1.4854
 2565SOL     OW19156   2.526   2.374  12.091  0.2342  0.0915 -0.1518
 2565SOL    HW119157   2.519   2.284  12.124 -0.5520  0.4805  0.7309
 2565SOL    HW219158   2.451   2.375  12.033  1.1347 -3.7349 -1.3889
 2566SOL     OW19159   1.539   2.482   8.165  0.3254  0.3221 -0.0202
 2566SOL    HW119160   1.504   2.553   8.111 -0.0185  0.7103  0.7152
 2566SOL    HW219161   1.609   2.523   8.215  1.3989 -0.6625 -0.7118
 2567SOL     OW19162   1.465   4.518   1.011 -0.6180 -0.2813 -0.3560
 2567SOL    HW119163   1.482   4.464   1.088  0.8427 -1.2007 -1.3335
 2567SOL    HW219164   1.372   4.522   1.033 -0.0648  2.1897  1.5508
 2568SOL     OW19165   0.879   2.143   3.160 -0.1959 -0.3767 -0.0844
 2568SOL    HW119166   0.858   2.108   3.073 -0.6857 -1.0418  0.3011
 2568SOL    HW219167   0.856   2.235   3.174 -0.7644 -0.5622  0.2029
 2569SOL     OW19168   3.864   1.142   3.916  0.9938  0.4808  0.0339
 2569SOL    HW119169   3.834   1.097   3.994 -1.0768  0.9075 -0.5205
 2569SOL    HW219170   3.815   1.098   3.847  0.7849  0.9258 -0.1049
 2570SOL     OW19171   1.584   4.045  12.753 -0.4008  0.0608 -0.3496
 2570SOL    HW119172   1.510   4.035  12.692  0.3945 -0.3957 -1.2515
 2570SOL    HW219173   1.550   3.996  12.828  0.5925  0.4514  0.3492
 2571SOL     OW19174   0.150   1.658  15.837  0.4396 -0.2023 -0.0677
 2571SOL    HW119175   0.111   1.727  15.890 -1.5754 -0.6713 -0.9534
 2571SOL    HW219176   0.071   1.645  15.784  0.4184  1.1938 -0.3683
 2572SOL     OW19177   4.694   3.353   6.630  0.8636 -0.4517  0.1869
 2572SOL    HW119178   0.047   3.379   6.582 -1.5921  1.4291 -2.8262
 2572SOL    HW219179   4.696   3.258   6.617  0.1510 -0.9371  3.6552
 2573SOL     OW19180   3.667   4.541  16.809 -0.3735 -0.1639  0.0207
 2573SOL    HW119181   3.662   4.491  16.891  3.3632 -1.7140 -0.6959
 2573SOL    HW219182   3.758   4.567  16.799 -0.1615 -0.9561 -0.1617
 2574SOL     OW19183   2.069   2.350   6.272 -0.8398  0.2630 -0.6893
 2574SOL    HW119184   2.111   2.264   6.267 -0.3773  0.5145 -1.0579
 2574SOL    HW219185   2.106   2.390   6.351  2.3988 -1.3112 -1.3985
 2575SOL     OW19186   2.577   3.645  11.534  0.3882  0.0979  0.0391
 2575SOL    HW119187   2.546   3.576  11.593  2.6116  1.6738  3.0433
 2575SOL    HW219188   2.498   3.694  11.513  0.5304  1.1946  2.0464
 2576SOL     OW19189   3.782   0.019  12.104 -0.7038 -0.3641  0.1216
 2576SOL    HW119190   3.870   4.723  12.138 -0.3422 -1.1592 -1.3269
 2576SOL    HW219191   3.752   4.653  12.104 -1.1545 -0.2251  1.9875
 2577SOL     OW19192   2.542   4.468   0.760 -0.1120 -0.2045 -0.5476
 2577SOL    HW119193   2.610   4.471   0.694  0.4766  2.2930  0.1777
 2577SOL    HW219194   2.551   4.375   0.779 -0.1864 -0.3948 -1.4455
 2578SOL     OW19195   2.430   3.440  14.933 -0.2118 -0.5850 -0.0654
 2578SOL    HW119196   2.497   3.442  15.002  2.0085  0.2547 -2.2313
 2578SOL    HW219197   2.488   3.422  14.859 -1.1906 -2.1212 -0.4535
 2579SOL     OW19198   2.322   3.464   6.452  0.0546 -0.4519  0.0121
 2579SOL    HW119199   2.251   3.402   6.467  0.1046 -0.2631  1.0648
 2579SOL    HW219200   2.378   3.407   6.399 -0.2543  1.8759 -2.7985
 2580SOL     OW19201   2.107   2.440   3.664 -0.1394  0.1978  0.0066
 2580SOL    HW119202   2.133   2.360   3.618  0.2401  1.5326 -2.0762
 2580SOL    HW219203   2.122   2.505   3.596 -1.2433  1.1155  0.6464
 2581SOL     OW19204   2.485   3.791   7.553 -0.7542  0.1927  0.2140
 2581SOL    HW119205   2.425   3.840   7.497 -0.4252 -1.5265 -1.6514
 2581SOL    HW219206   2.522   3.724   7.495 -0.8604  2.4724 -2.4454
 2582SOL     OW19207   4.268   0.563   1.910  0.3069 -0.7392 -0.2923
 2582SOL    HW119208   4.297   0.652   1.893  0.9840 -0.7983  0.5301
 2582SOL    HW219209   4.287   0.526   1.823 -0.7129  1.3572 -1.4041
 2583SOL     OW19210   0.303   2.865  17.185 -0.3032  0.1751 -0.1224
 2583SOL    HW119211   0.317   2.779  17.225 -0.7435  1.5258  2.9325
 2583SOL    HW219212   0.344   2.928  17.245 -1.5721  0.1161  0.8093
 2584SOL     OW19213   1.794   0.420  17.638 -0.3928 -0.4789  0.6791
 2584SOL    HW119214   1.879   0.464  17.635 -1.0007  0.5898 -1.0942
 2584SOL    HW219215   1.816   0.336  17.677  0.4347 -0.4853  0.2179
 2585SOL     OW19216   0.188   3.695   7.239  0.2047  0.5928 -0.6862
 2585SOL    HW119217   0.123   3.685   7.309  0.3901 -0.2553 -0.6401
 2585SOL    HW219218   0.133   3.696   7.160 -2.2004 -0.2355  0.9783
 2586SOL     OW19219   1.499   4.151   1.510 -0.1456  0.0890 -0.1727
 2586SOL    HW119220   1.542   4.156   1.425  2.6545  0.8334  1.3009
 2586SOL    HW219221   1.409   4.159   1.478  0.1619 -3.2763 -1.8304
 2587SOL     OW19222   1.734   3.046   7.409  0.0490  0.0881  0.3220
 2587SOL    HW119223   1.646   3.024   7.380 -0.2981  0.4964  1.0769
 2587SOL    HW219224   1.793   3.025   7.336  0.4788  2.2706  0.0323
 2588SOL     OW19225   1.027   2.252   1.799 -0.0056  0.4574 -0.0398
 2588SOL    HW119226   0.978   2.235   1.719  1.2213 -1.9933 -0.2491
 2588SOL    HW219227   1.120   2.237   1.780 -0.0800  0.3327 -0.2965
 2589SOL     OW19228   3.693   0.747   3.087 -0.3495 -0.1165 -0.1949
 2589SOL    HW119229   3.652   0.833   3.083  0.8929  0.4476 -0.5643
 2589SOL    HW219230   3.779   0.773   3.056  0.1550  2.3331  3.2379
 2590SOL     OW19231   0.766   1.212   1.500 -0.2722  0.5705 -0.1535
 2590SOL    HW119232   0.824   1.265   1.554  1.5212 -2.1758  0.6137
 2590SOL    HW219233   0.829   1.168   1.443  1.1495  0.7092  1.3009
 2591SOL     OW19234   0.276   1.968   2.519 -0.3233 -0.4962  0.0660
 2591SOL    HW119235   0.187   2.004   2.518  0.4621  1.4124 -0.1306
 2591SOL    HW219236   0.262   1.890   2.464  1.9699 -2.7071  2.6159
 2592SOL     OW19237   1.829   2.045   2.467 -0.1049 -0.0294 -0.7022
 2592SOL    HW119238   1.858   2.099   2.393  1.0853  0.4154  0.0871
 2592SOL    HW219239   1.734   2.052   2.471 -0.1343 -0.6045 -0.5112
 2593SOL     OW19240   2.578   0.042  11.444 -0.7686  0.1008  0.2781
 2593SOL    HW119241   2.576   0.133  11.475 -0.5645  0.3772 -0.5034
 2593SOL    HW219242   2.664   0.046  11.403  0.5049  1.9003  3.0821
 2594SOL     OW19243   0.603   0.052   2.385  0.0698  0.5892 -0.5845
 2594SOL    HW119244   0.544   0.126   2.373  0.0018  0.6899  0.3657
 2594SOL    HW219245   0.581   0.014   2.300 -0.4216 -1.5284  0.4926
 2595SOL     OW19246   4.296   3.119   1.112 -0.1467  0.3607  0.2783
 2595SOL    HW119247   4.323   3.188   1.172 -0.5985 -0.3280  1.2722
 2595SOL    HW219248   4.243   3.057   1.163 -1.9712  2.1969  0.6014
 2596SOL     OW19249   0.533   4.350   1.508  0.3719 -0.3805  0.0585
 2596SOL    HW119250   0.566   4.433   1.472 -0.6634 -0.8026 -1.8626
 2596SOL    HW219251   0.560   4.354   1.600 -0.3825 -2.0557  0.3524
 2597SOL     OW19252   0.075   4.307   4.959 -0.7117  0.6168  0.2578
 2597SOL    HW119253   0.063   4.271   5.047 -1.4676 -0.3429 -0.2337
 2597SOL    HW219254   0.100   4.399   4.967 -0.4859  0.5259  0.6065
 2598SOL     OW19255   1.530   4.358  15.863  0.6224  0.5880 -0.0943
 2598SOL    HW119256   1.484   4.274  15.865  0.1666  0.8264 -0.3743
 2598SOL    HW219257   1.536   4.379  15.956  1.8674 -0.3983  0.0360
 2599SOL     OW19258   0.600   0.067   3.957 -0.0237  0.0653  0.0519
 2599SOL    HW119259   0.618   0.048   4.049 -0.4713 -0.9421 -0.0685
 2599SOL    HW219260   0.514   0.026   3.944  0.5530 -1.2266  0.2940
 2600SOL     OW19261   1.599   0.732   8.183  0.0475  0.2152  0.0895
 2600SOL    HW119262   1.532   0.687   8.132  0.3209  2.8979 -2.6549
 2600SOL    HW219263   1.572   0.724   8.275 -0.0420  0.4092  0.0795
 2601SOL     OW19264   1.009   1.551   3.583 -0.0483  0.2067  0.3699
 2601SOL    HW119265   0.959   1.589   3.656 -0.2903  0.3264  0.1396
 2601SOL    HW219266   1.028   1.626   3.527  0.8554 -1.2770 -1.3197
 2602SOL     OW19267   4.081   3.764  14.982  0.1008  0.4115 -0.1221
 2602SOL    HW119268   4.064   3.818  14.905  1.1372 -0.0037 -0.6360
 2602SOL    HW219269   4.174   3.786  14.986 -0.2378  1.7946  0.0287
 2603SOL     OW19270   3.358   4.354  16.015  0.3037  0.0789  0.4447
 2603SOL    HW119271   3.439   4.320  15.977  1.0469  0.9374  1.2751
 2603SOL    HW219272   3.376   4.393  16.101 -0.5764  0.1527  0.6024
 2604SOL     OW19273   4.565   0.227   6.499  0.5587 -0.4285 -0.3990
 2604SOL    HW119274   4.563   0.290   6.571  1.0938 -2.2534  1.2166
 2604SOL    HW219275   4.592   0.144   6.539 -1.5548 -1.1117 -0.3769
 2605SOL     OW19276   0.793   2.234   6.284 -0.4039 -0.8343  0.1478
 2605SOL    HW119277   0.837   2.209   6.203 -0.9050  0.7425 -0.6036
 2605SOL    HW219278   0.796   2.155   6.338 -0.9960  0.1172  1.5843
 2606SOL     OW19279   3.498   4.656  10.569 -0.2037  0.1854  0.0338
 2606SOL    HW119280   3.431   4.639  10.503 -1.9524  0.6655  1.6749
 2606SOL    HW219281   3.541   0.008  10.533  0.5298  0.1645  0.8569
 2607SOL     OW19282   2.154   0.991  13.017  0.0937 -0.2587 -0.0171
 2607SOL    HW119283   2.198   1.038  12.946  5.7088 -0.9124  3.0364
 2607SOL    HW219284   2.224   0.947  13.065  1.7000  2.2751 -0.0238
 2608SOL     OW19285   3.526   1.405   7.545 -0.3400  0.1876 -0.4434
 2608SOL    HW119286   3.483   1.362   7.472  0.2922 -2.2528  0.6236
 2608SOL    HW219287   3.514   1.498   7.527 -0.4551  0.1892 -0.3593
 2609SOL     OW19288   0.513   0.646   2.916  0.4027 -0.0873  0.6206
 2609SOL    HW119289   0.541   0.571   2.970  0.5300  1.2492  2.4084
 2609SOL    HW219290   0.534   0.610   2.830  1.4559  1.0631  0.3992
 2610SOL     OW19291   0.480   4.655   2.154 -0.1993 -0.0045  0.1494
 2610SOL    HW119292   0.391   4.651   2.118  0.0668  1.2390 -0.6249
 2610SOL    HW219293   0.503   4.563   2.139  0.2378  0.1634 -0.1924
 2611SOL     OW19294   1.968   1.551  12.649  0.6822  0.6726  0.6459
 2611SOL    HW119295   2.063   1.546  12.638  0.6055  1.3438 -0.2955
 2611SOL    HW219296   1.946   1.559  12.556  2.2847 -1.7684  0.0684
 2612SOL     OW19297   4.113   1.593   5.085 -0.0681 -0.2375 -0.0497
 2612SOL    HW119298   4.120   1.508   5.128 -0.2897  0.1763  0.8137
 2612SOL    HW219299   4.051   1.624   5.152  0.4639  1.0150 -0.1364
 2613SOL     OW19300   1.213   0.682  13.415 -0.2829  0.5395 -0.4065
 2613SOL    HW119301   1.218   0.610  13.477 -2.4263  1.4420  0.8126
 2613SOL    HW219302   1.163   0.640  13.345  0.2318  0.9256 -1.0018
 2614SOL     OW19303   0.161   1.821   6.465 -0.5586 -0.0199  0.1203
 2614SOL    HW119304   0.246   1.864   6.456 -0.1329 -1.1558 -1.3211
 2614SOL    HW219305   0.183   1.728   6.468  0.7955  0.3842  2.4039
 2615SOL     OW19306   1.248   0.680  15.967 -0.3116 -0.0722 -0.7079
 2615SOL    HW119307   1.200   0.639  15.895 -1.8806 -1.3651  1.0861
 2615SOL    HW219308   1.184   0.730  16.019 -1.3171 -1.9258 -0.1885
 2616SOL     OW19309   0.263   4.073  10.350  0.2647  0.6595  0.5968
 2616SOL    HW119310   0.304   4.159  10.367 -0.7849  1.4116 -0.7036
 2616SOL    HW219311   0.272   4.073  10.255 -1.1577  3.4243  0.4488
 2617SOL     OW19312   1.425   3.077   5.945  0.0196  0.5308 -0.2049
 2617SOL    HW119313   1.487   3.005   5.934 -0.2049  0.1610  0.9429
 2617SOL    HW219314   1.470   3.153   5.909  1.0078  1.1692  2.3961
 2618SOL     OW19315   2.586   2.631   6.125  0.7398  0.1393  0.3345
 2618SOL    HW119316   2.585   2.652   6.032 -0.9035 -1.1793  0.0646
 2618SOL    HW219317   2.610   2.539   6.116 -2.1293 -0.6378  0.7310
 2619SOL     OW19318   2.456   2.373   3.556 -0.2952 -0.2325  0.0549
 2619SOL    HW119319   2.410   2.298   3.519  0.9707 -1.6258  1.3147
 2619SOL    HW219320   2.391   2.438   3.531  1.3810  1.6024  0.4722
 2620SOL     OW19321   1.500   2.355   6.194 -0.1411  0.0899  0.2451
 2620SOL    HW119322   1.566   2.372   6.261  1.5394 -0.8708 -1.1649
 2620SOL    HW219323   1.455   2.439   6.205 -0.0023  0.4572 -2.0500
 2621SOL     OW19324   3.159   0.154   7.008 -0.0122  0.2982  0.1698
 2621SOL    HW119325   3.214   0.117   6.940 -1.8922 -1.5919 -0.3384
 2621SOL    HW219326   3.074   0.109   7.001  0.4452 -0.7337  1.1722
 2622SOL     OW19327   0.096   2.196   0.735  0.4321  0.0227  0.1047
 2622SOL    HW119328   0.167   2.249   0.699  0.1571  0.9786  0.9561
 2622SOL    HW219329   0.133   2.180   0.822  1.4060 -1.1161 -0.5207
 2623SOL     OW19330   0.740   0.822   6.523 -0.4313  0.1686  0.1825
 2623SOL    HW119331   0.774   0.736   6.550 -0.7223  0.1909  0.6238
 2623SOL    HW219332   0.650   0.793   6.509 -1.4064  2.5038  1.5105
 2624SOL     OW19333   1.731   3.692   3.385 -0.0702  0.2315  0.0415
 2624SOL    HW119334   1.645   3.728   3.405 -0.6343 -0.7212 -0.7187
 2624SOL    HW219335   1.704   3.617   3.332  2.0110  0.4552 -1.3532
 2625SOL     OW19336   2.027   1.172   9.291  0.5591 -0.5811 -0.4934
 2625SOL    HW119337   2.045   1.263   9.269  0.1455 -0.3079  0.3376
 2625SOL    HW219338   2.081   1.159   9.369 -1.2324 -2.1769  0.4606
 2626SOL     OW19339   2.169   2.955   6.256 -0.7588  0.2904 -0.4137
 2626SOL    HW119340   2.213   2.881   6.212 -0.2031  2.0269 -2.7927
 2626SOL    HW219341   2.170   2.919   6.344 -1.8952  3.8919  1.0686
 2627SOL     OW19342   3.349   3.539   7.986  0.2809  0.4721  0.3730
 2627SOL    HW119343   3.309   3.534   7.899  1.0047  3.2162 -0.1072
 2627SOL    HW219344   3.357   3.446   8.008 -0.3995  0.3722  0.1994
 2628SOL     OW19345   2.901   4.613  13.010 -0.0781 -0.0505 -0.0823
 2628SOL    HW119346   2.945   4.697  12.996  0.0237  0.0381  0.8218
 2628SOL    HW219347   2.972   4.553  12.984 -1.2169 -1.7421  0.7722
 2629SOL     OW19348   3.063   0.845   8.322  0.7340  0.3519 -0.2615
 2629SOL    HW119349   2.978   0.815   8.353  0.3474  0.9671 -0.7183
 2629SOL    HW219350   3.093   0.758   8.294  0.0336  0.3681 -1.0575
 2630SOL     OW19351   4.189   1.832  15.996  0.0567  0.0003 -0.0930
 2630SOL    HW119352   4.178   1.808  15.904  0.4549 -1.5392  0.2532
 2630SOL    HW219353   4.150   1.919  16.003 -0.0246 -0.2378  2.4323
 2631SOL     OW19354   4.514   3.046   1.721 -0.5419 -0.3210 -0.0140
 2631SOL    HW119355   4.551   3.040   1.809 -0.6116  0.2773  0.0571
 2631SOL    HW219356   4.454   3.120   1.726  0.7270  0.6609  0.4579
 2632SOL     OW19357   0.414   2.010   6.513  0.1320 -0.0720  0.4133
 2632SOL    HW119358   0.396   2.029   6.421  1.1761 -0.7698  0.0708
 2632SOL    HW219359   0.449   1.921   6.513  0.0727 -0.0925 -0.6792
 2633SOL     OW19360   4.612   3.797  11.110  0.1169 -0.9532  0.0386
 2633SOL    HW119361   4.670   3.732  11.071  0.2902  0.0474 -1.3883
 2633SOL    HW219362   4.600   3.763  11.199  0.5169 -1.2479 -0.0223
 2634SOL     OW19363   0.330   1.884   4.970  0.0710 -0.4681  0.6657
 2634SOL    HW119364   0.323   1.979   4.969 -1.1081 -0.5690 -0.2189
 2634SOL    HW219365   0.251   1.868   5.022  0.5036 -2.4669  0.7038
 2635SOL     OW19366   2.697   1.955   4.376  0.1447  0.8557  0.3772
 2635SOL    HW119367   2.631   2.024   4.368  0.8921  1.3869 -1.0971
 2635SOL    HW219368   2.687   1.907   4.294  1.1967  0.9637  0.1818
 2636SOL     OW19369   0.521   2.338   3.363 -0.1695  0.0496  0.2895
 2636SOL    HW119370   0.574   2.359   3.286  0.7800  2.1733  1.5018
 2636SOL    HW219371   0.507   2.244   3.352 -3.0639  0.5688 -0.3888
 2637SOL     OW19372   1.692   3.673  11.593 -0.2199 -0.6023  0.3241
 2637SOL    HW119373   1.616   3.688  11.537  0.5667  0.2883 -0.4910
 2637SOL    HW219374   1.640   3.681  11.674 -2.3360 -1.4825 -0.9574
 2638SOL     OW19375   3.395   3.441   8.652 -0.5562 -0.5466  0.5146
 2638SOL    HW119376   3.478   3.398   8.673 -0.1966  0.2968  0.7859
 2638SOL    HW219377   3.383   3.430   8.558 -0.7511 -1.1025  0.6018
 2639SOL     OW19378   4.689   0.531  12.605 -0.2888 -0.3759  0.0095
 2639SOL    HW119379   4.608   0.522  12.555  0.8820  0.0651 -1.9678
 2639SOL    HW219380   4.677   0.618  12.643  2.3124  0.5451 -1.2539
 2640SOL     OW19381   3.340   0.326   2.717 -0.4986 -0.1627  0.0441
 2640SOL    HW119382   3.252   0.319   2.679  0.2558 -1.3275 -1.4641
 2640SOL    HW219383   3.399   0.299   2.647 -1.7735  0.1396 -1.1525
 2641SOL     OW19384   3.063   0.903   9.016  0.0912  0.3436  0.4219
 2641SOL    HW119385   3.039   0.978   8.961 -1.0881 -1.0228 -0.9312
 2641SOL    HW219386   3.155   0.897   8.992  0.1527 -1.8028  1.1723
 2642SOL     OW19387   1.927   0.687   5.367 -0.3638  0.1660 -0.6092
 2642SOL    HW119388   1.915   0.598   5.332  0.8350 -0.2159 -0.0392
 2642SOL    HW219389   2.019   0.682   5.394 -0.2175  0.5803 -1.0250
 2643SOL     OW19390   2.248   2.551   3.439 -0.1629 -0.5010  0.4803
 2643SOL    HW119391   2.238   2.543   3.344  1.4526 -0.0978  0.2730
 2643SOL    HW219392   2.244   2.646   3.452  0.6224 -0.0032 -2.9087
 2644SOL     OW19393   1.736   0.360  10.778 -0.2944 -0.1133 -0.2511
 2644SOL    HW119394   1.792   0.284  10.763 -0.7732 -0.2259 -1.4466
 2644SOL    HW219395   1.657   0.311  10.800 -0.3152  0.8147  1.6789
 2645SOL     OW19396   0.676   2.008  11.519 -0.5028 -0.2377  0.0978
 2645SOL    HW119397   0.760   2.006  11.473 -0.7646  1.9917 -0.4384
 2645SOL    HW219398   0.624   2.063  11.461 -1.7310  0.5973  1.9933
 2646SOL     OW19399   0.638   0.378   1.459 -0.1004 -0.0491 -0.2738
 2646SOL    HW119400   0.674   0.293   1.482 -0.8943 -0.9189 -2.2306
 2646SOL    HW219401   0.714   0.436   1.461  1.7645 -2.5454  1.6960
 2647SOL     OW19402   4.175   2.735   2.471  0.3998 -0.2146  0.1589
 2647SOL    HW119403   4.133   2.789   2.538 -0.9176 -0.5344 -0.4251
 2647SOL    HW219404   4.250   2.788   2.442  0.2413  0.9673  1.8513
 2648SOL     OW19405   2.235   3.233   9.035 -0.1679  0.8771 -0.1577
 2648SOL    HW119406   2.221   3.265   8.945 -0.0522  0.5869 -0.2778
 2648SOL    HW219407   2.310   3.181   9.008  0.6547  1.6003  0.7385
 2649SOL     OW19408   1.908   2.954   3.216 -0.6345  0.1111  0.6494
 2649SOL    HW119409   1.932   3.022   3.153 -1.3075 -0.8191 -0.6061
 2649SOL    HW219410   1.817   2.975   3.239 -0.8147 -2.0431  1.8684
 2650SOL     OW19411   1.091   4.523  16.761 -0.2137 -0.3361  0.6609
 2650SOL    HW119412   1.002   4.557  16.771 -0.5527 -0.7742 -0.8539
 2650SOL    HW219413   1.108   4.470  16.839  1.7261  1.5726  1.5324
 2651SOL     OW19414   2.704   4.513  17.482  0.1321  0.5122 -0.2007
 2651SOL    HW119415   2.792   4.483  17.461  0.6622  1.6740  0.3010
 2651SOL    HW219416   2.717   4.547  17.571  2.5140 -0.1759 -0.2897
 2652SOL     OW19417   3.045   2.232   5.714  0.2995 -0.2743 -0.3261
 2652SOL    HW119418   2.969   2.290   5.715 -0.4576 -1.2561 -1.2814
 2652SOL    HW219419   3.038   2.206   5.622 -2.1807 -2.2272  0.4042
 2653SOL     OW19420   1.033   3.191   5.584 -0.2230 -0.3128 -0.1187
 2653SOL    HW119421   0.952   3.186   5.635  0.1566 -0.1704  0.4981
 2653SOL    HW219422   1.002   3.147   5.505  0.0434 -1.4070  0.3815
 2654SOL     OW19423   4.352   1.954   6.717  0.0076  0.0812  0.0304
 2654SOL    HW119424   4.394   1.986   6.637  0.2761  0.0809  0.1712
 2654SOL    HW219425   4.270   1.909   6.696  1.0382 -0.0284 -3.7398
 2655SOL     OW19426   3.999   4.407   2.628  0.0340  0.3399 -0.3803
 2655SOL    HW119427   3.973   4.498   2.617 -1.8706 -0.1554  0.0635
 2655SOL    HW219428   4.021   4.401   2.721  0.9477 -1.7292 -0.7205
 2656SOL     OW19429   3.463   0.072   9.590  0.8753  0.4372 -0.3021
 2656SOL    HW119430   3.481   0.134   9.519 -0.2606 -0.3653 -1.2918
 2656SOL    HW219431   3.389   0.033   9.543  2.5943 -0.6636 -2.1125
 2657SOL     OW19432   4.648   2.301   8.123 -0.0219 -0.6336  0.2715
 2657SOL    HW119433   4.582   2.337   8.181  0.0275  0.9622 -0.6836
 2657SOL    HW219434   0.002   2.340   8.161 -1.0604  0.3327  1.4313
 2658SOL     OW19435   2.701   4.589   7.762  0.4884 -0.1687  0.7927
 2658SOL    HW119436   2.637   4.523   7.790 -0.2822 -0.1808 -0.9329
 2658SOL    HW219437   2.644   4.642   7.706  1.7645 -0.2153 -0.5564
 2659SOL     OW19438   1.223   1.324  13.047 -0.1842  0.6771 -0.3543
 2659SOL    HW119439   1.302   1.377  13.037  1.4790 -1.7933 -0.3891
 2659SOL    HW219440   1.161   1.397  13.045 -3.2354 -1.8957  0.3983
 2660SOL     OW19441   0.258   1.856   5.694 -0.3944 -0.5394 -0.7814
 2660SOL    HW119442   0.176   1.813   5.669 -1.5388  1.5229 -0.5196
 2660SOL    HW219443   0.218   1.927   5.743  2.1899 -0.5923  1.4281
 2661SOL     OW19444   3.339   1.523   6.020  0.1327 -0.6783 -0.4687
 2661SOL    HW119445   3.376   1.528   6.108 -0.8268  3.1420 -0.2584
 2661SOL    HW219446   3.398   1.574   5.964  0.0269  0.0108  0.0416
 2662SOL     OW19447   0.235   0.430   8.244  0.3243 -0.9223  0.6116
 2662SOL    HW119448   0.165   0.389   8.294 -1.8123  1.4674 -0.4292
 2662SOL    HW219449   0.191   0.454   8.162  0.5318 -2.1396  0.1333
 2663SOL     OW19450   2.607   3.041   2.922 -0.7952  0.4113 -0.6091
 2663SOL    HW119451   2.688   3.036   2.871 -0.8406  2.1727 -0.8547
 2663SOL    HW219452   2.648   3.013   3.004 -1.1797 -1.3490 -1.0208
 2664SOL     OW19453   4.441   1.231  13.768  0.3478  0.8026  0.0141
 2664SOL    HW119454   4.423   1.202  13.679  0.6653  1.1162 -0.1544
 2664SOL    HW219455   4.379   1.303  13.780  0.1307  0.4626  0.9904
 2665SOL     OW19456   2.230   0.317   6.517 -0.8278 -0.7021  0.0234
 2665SOL    HW119457   2.317   0.287   6.492 -1.6990 -1.9583 -1.5041
 2665SOL    HW219458   2.192   0.253   6.457  0.4959 -0.6427 -0.8804
 2666SOL     OW19459   2.168   3.676   1.987  0.4507  0.2251  0.5738
 2666SOL    HW119460   2.189   3.682   2.080 -0.4195 -0.6105  0.8298
 2666SOL    HW219461   2.084   3.631   1.994  1.1745 -1.1747  0.3427
 2667SOL     OW19462   2.628   0.218   7.719  0.3408 -0.3138 -0.1977
 2667SOL    HW119463   2.688   0.287   7.744 -1.4832  1.4273 -0.6496
 2667SOL    HW219464   2.583   0.263   7.647 -1.9923  0.0985  1.5422
 2668SOL     OW19465   2.625   0.362  16.658  0.0860 -0.2022 -0.1538
 2668SOL    HW119466   2.635   0.309  16.579 -2.1528 -2.3275  0.9831
 2668SOL    HW219467   2.565   0.304  16.705 -0.2583  0.3308  0.0637
 2669SOL     OW19468   1.646   2.030  16.372 -0.3669  0.7053  0.1742
 2669SOL    HW119469   1.551   2.024  16.383 -0.1702 -2.5492  0.1420
 2669SOL    HW219470   1.664   1.992  16.286 -2.7629  4.4834 -2.0010
 2670SOL     OW19471   1.062   0.095   3.699 -0.1608  0.0237 -0.2003
 2670SOL    HW119472   1.095   0.018   3.745  0.9216  0.1514 -0.7601
 2670SOL    HW219473   0.967   0.092   3.711 -0.0952 -1.9964 -0.1914
 2671SOL     OW19474   4.606   1.496  16.082  0.3121 -0.0056  0.1371
 2671SOL    HW119475   4.628   1.564  16.145  0.8131 -1.5087  1.6007
 2671SOL    HW219476   4.523   1.519  16.040  1.5441  1.9343 -1.2068
 2672SOL     OW19477   2.094   0.041  10.136  0.2773  0.3137 -0.6531
 2672SOL    HW119478   2.021   4.709  10.159  0.4522  0.4048  0.1368
 2672SOL    HW219479   2.174   4.714  10.141 -0.7193 -0.9568  2.1527
 2673SOL     OW19480   2.148   0.996   4.870  0.1065  0.3827  0.2704
 2673SOL    HW119481   2.223   0.969   4.817 -0.3535  0.2494 -0.3160
 2673SOL    HW219482   2.142   1.089   4.847 -1.1710  0.0036 -0.9713
 2674SOL     OW19483   3.625   2.089   4.720 -0.2068  0.4113  0.8197
 2674SOL    HW119484   3.706   2.096   4.770  1.4536  1.3490 -1.9424
 2674SOL    HW219485   3.650   2.151   4.651 -2.3566 -0.3752 -0.6838
 2675SOL     OW19486   3.933   1.097   0.724 -0.3976 -0.3975  0.1201
 2675SOL    HW119487   3.921   1.010   0.688  2.5515 -1.0077  0.5959
 2675SOL    HW219488   3.871   1.149   0.673  0.6349  0.8241  0.1012
 2676SOL     OW19489   1.552   2.797   8.769 -0.9511 -0.1606  0.1193
 2676SOL    HW119490   1.608   2.838   8.835 -0.9871  1.8484 -1.0914
 2676SOL    HW219491   1.564   2.704   8.788  0.8766 -0.4657 -2.5075
 2677SOL     OW19492   4.168   2.975  12.386 -0.0503  0.5455 -0.8459
 2677SOL    HW119493   4.194   3.051  12.333 -1.8541  1.9603  0.2660
 2677SOL    HW219494   4.227   2.913  12.345 -1.4550 -1.6185  0.4405
 2678SOL     OW19495   0.876   4.684   0.659  0.0434  0.3053 -0.1259
 2678SOL    HW119496   0.921   0.033   0.618 -3.4907  1.6488 -1.5086
 2678SOL    HW219497   0.837   4.722   0.738 -0.7339  0.0866 -0.4067
 2679SOL     OW19498   3.392   2.695   5.311 -0.2810 -0.0359 -0.4061
 2679SOL    HW119499   3.451   2.687   5.237 -0.7216  0.2971 -0.7948
 2679SOL    HW219500   3.455   2.703   5.383  0.9745  0.6535 -1.5925
 2680SOL     OW19501   3.864   3.751  13.398 -0.8265 -0.0427 -0.5084
 2680SOL    HW119502   3.832   3.837  13.373 -0.5661  0.9239  2.4712
 2680SOL    HW219503   3.781   3.702  13.392 -1.9337  1.4598  2.2997
 2681SOL     OW19504   0.079   2.818   8.017 -0.3256 -0.1182 -0.4407
 2681SOL    HW119505   0.058   2.760   7.944  2.7004 -0.0097 -1.3628
 2681SOL    HW219506   4.715   2.829   8.051 -0.2960 -0.1809 -0.3448
 2682SOL     OW19507   0.944   0.571   8.139  0.0251 -0.0695 -0.6500
 2682SOL    HW119508   0.950   0.664   8.158  0.9620  0.0866 -1.7350
 2682SOL    HW219509   0.938   0.573   8.043  0.5015  1.4364 -0.6357
 2683SOL     OW19510   0.075   1.739   8.512  0.5452  0.5271  0.3454
 2683SOL    HW119511   0.141   1.743   8.581 -0.5463  1.2707  1.3525
 2683SOL    HW219512   0.004   1.695   8.557 -0.0455 -1.1333 -2.1825
 2684SOL     OW19513   4.080   1.007   7.571  1.1069  0.5432 -0.1724
 2684SOL    HW119514   4.172   1.017   7.547  0.9253  0.2271 -1.0453
 2684SOL    HW219515   4.041   0.991   7.485  0.7647  1.2453 -0.1453
 2685SOL     OW19516   3.168   3.582   1.415 -0.2747  0.3762 -0.2357
 2685SOL    HW119517   3.199   3.593   1.325 -0.0255  1.7867  0.0284
 2685SOL    HW219518   3.213   3.648   1.467 -1.7318 -0.1097  1.6141
 2686SOL     OW19519   2.287   3.606   5.775 -0.2880 -0.2620 -0.3319
 2686SOL    HW119520   2.300   3.527   5.722  0.8315  0.6170 -1.3844
 2686SOL    HW219521   2.378   3.613   5.803 -0.7154 -0.2116  1.0197
 2687SOL     OW19522   1.535   4.695  13.161 -0.0615  0.3866  0.0866
 2687SOL    HW119523   1.517   0.064  13.158 -1.2640  0.1924  1.4469
 2687SOL    HW219524   1.449   4.654  13.166  0.4310 -0.8085 -1.2473
 2688SOL     OW19525   0.312   3.804   5.519  0.4857  0.6321  0.3124
 2688SOL    HW119526   0.242   3.743   5.544  0.3167  0.3680 -0.8319
 2688SOL    HW219527   0.275   3.851   5.445  1.0254  0.7711  0.1308
 2689SOL     OW19528   0.266   2.310   7.650 -0.3116  0.1155 -0.2633
 2689SOL    HW119529   0.339   2.267   7.606 -0.0909  0.5362 -0.3066
 2689SOL    HW219530   0.189   2.272   7.606 -0.0951  0.3298 -0.8177
 2690SOL     OW19531   2.587   0.901  11.789  0.0387 -0.2969 -0.3711
 2690SOL    HW119532   2.590   0.882  11.695  0.6263 -1.3805 -0.1270
 2690SOL    HW219533   2.516   0.841  11.811  0.9186 -1.0793  0.3418
 2691SOL     OW19534   1.889   0.644  16.978 -0.1704 -0.2549 -0.3091
 2691SOL    HW119535   1.818   0.705  16.960 -0.1880 -0.3833 -0.6814
 2691SOL    HW219536   1.873   0.587  16.903  1.5259  0.1907 -1.0125
 2692SOL     OW19537   3.918   3.654   3.429 -0.4348 -0.1140  0.0146
 2692SOL    HW119538   3.828   3.642   3.397  0.3389 -0.5514 -2.0347
 2692SOL    HW219539   3.966   3.576   3.399 -1.0744 -0.1283 -0.9953
 2693SOL     OW19540   3.157   4.310  12.962 -0.0149  0.0886  0.0589
 2693SOL    HW119541   3.200   4.394  12.980 -0.7835  1.2816 -3.6631
 2693SOL    HW219542   3.115   4.283  13.044  0.8939  1.9065  1.1388
 2694SOL     OW19543   1.727   2.299   2.802  0.5558 -0.4220 -0.1651
 2694SOL    HW119544   1.664   2.322   2.732  0.8568 -0.2934 -0.3931
 2694SOL    HW219545   1.767   2.384   2.818 -0.7306 -0.1428  1.5800
 2695SOL     OW19546   2.013   1.917   5.208 -0.3655  1.1789  0.3616
 2695SOL    HW119547   2.019   1.828   5.242 -0.0717  0.5177 -1.4265
 2695SOL    HW219548   1.976   1.916   5.120  0.8446 -0.3379 -0.1127
 2696SOL     OW19549   2.142   3.521  16.548 -0.0860  0.3134  0.5330
 2696SOL    HW119550   2.109   3.461  16.481 -1.4088 -0.0863  1.5344
 2696SOL    HW219551   2.069   3.575  16.577  1.0530  1.7869  0.6489
 2697SOL     OW19552   3.211   0.426   5.485 -0.3489 -0.0017 -0.7209
 2697SOL    HW119553   3.132   0.458   5.441  0.8545 -1.2860 -3.8371
 2697SOL    HW219554   3.225   0.336   5.454  0.2312 -0.2331  0.2086
 2698SOL     OW19555   1.623   3.942   5.063  0.1535  0.4873  0.7455
 2698SOL    HW119556   1.599   3.859   5.104  1.6990 -0.3909 -0.1163
 2698SOL    HW219557   1.539   3.989   5.054  1.7815  3.5461  1.5039
 2699SOL     OW19558   4.038   2.376   9.367 -0.0104  0.4940  0.0675
 2699SOL    HW119559   4.116   2.431   9.359  0.1612  0.0105 -1.6270
 2699SOL    HW219560   3.981   2.413   9.300  1.3151 -1.6672 -2.2674
 2700SOL     OW19561   0.067   4.064   7.099  0.3421 -0.6186 -0.1016
 2700SOL    HW119562   0.143   4.058   7.041 -1.5489 -1.7747 -2.4413
 2700SOL    HW219563   0.099   4.105   7.180 -0.1212 -1.2024  0.3835
 2701SOL     OW19564   0.776   2.644  15.693  0.1639 -0.4527  0.0713
 2701SOL    HW119565   0.749   2.576  15.754 -0.1717 -0.6372 -0.2843
 2701SOL    HW219566   0.688   2.673  15.671  0.0092 -0.3576  0.8301
 2702SOL     OW19567   1.642   0.789   5.089 -0.3028  0.1698 -0.0709
 2702SOL    HW119568   1.559   0.778   5.136 -1.1008  2.2375 -0.9773
 2702SOL    HW219569   1.704   0.821   5.154 -0.6117 -0.6922  0.6433
 2703SOL     OW19570   1.989   1.218   5.286 -0.2099 -0.0986 -0.2983
 2703SOL    HW119571   2.005   1.306   5.253 -1.8377 -1.0240 -3.4878
 2703SOL    HW219572   1.898   1.226   5.314  0.0090  0.4109  0.2723
 2704SOL     OW19573   2.397   3.157   5.620  0.7209 -0.7699 -0.2339
 2704SOL    HW119574   2.491   3.175   5.623  0.5046  0.2287  0.4446
 2704SOL    HW219575   2.399   3.080   5.562 -2.9665 -0.9702 -0.1014
 2705SOL     OW19576   2.793   4.001   8.754 -0.2079 -0.1217  0.8047
 2705SOL    HW119577   2.803   3.945   8.831 -1.2944  1.2449  1.9362
 2705SOL    HW219578   2.879   4.042   8.769  0.1866 -0.8315  0.4889
 2706SOL     OW19579   0.864   1.442  16.147  0.0571 -0.2332  0.4928
 2706SOL    HW119580   0.959   1.439  16.147  0.0759  1.0760  3.1123
 2706SOL    HW219581   0.841   1.474  16.059  2.3157  0.9459  0.3574
 2707SOL     OW19582   1.939   4.009   5.828  0.1548 -0.5459 -0.0381
 2707SOL    HW119583   2.005   3.950   5.792  2.1013  1.1322  0.7787
 2707SOL    HW219584   1.908   3.954   5.900 -3.9297 -0.3609 -1.6410
 2708SOL     OW19585   2.424   0.094   1.653  0.1810  0.1315 -0.4695
 2708SOL    HW119586   2.426   0.181   1.613  2.2247  0.0056 -0.6456
 2708SOL    HW219587   2.464   0.114   1.738 -0.9582 -0.6547  0.2483
 2709SOL     OW19588   4.260   1.711   7.088  0.2942  0.5684  0.3434
 2709SOL    HW119589   4.285   1.793   7.129 -0.3704 -0.0671  2.0318
 2709SOL    HW219590   4.223   1.679   7.170  1.5936  1.1069  1.1405
 2710SOL     OW19591   3.853   1.651  12.362  0.2690  0.3442 -0.1286
 2710SOL    HW119592   3.881   1.563  12.385  1.6545  0.1884 -2.3821
 2710SOL    HW219593   3.863   1.659  12.267  1.0323  4.8811  0.3220
 2711SOL     OW19594   3.950   1.634   8.123 -0.4894 -0.5333  0.4471
 2711SOL    HW119595   3.958   1.596   8.210  0.3243 -1.4707 -0.0394
 2711SOL    HW219596   3.902   1.716   8.133 -2.6536 -1.8338  0.7127
 2712SOL     OW19597   2.521   0.955  12.856 -0.2050  0.1743 -0.6391
 2712SOL    HW119598   2.565   1.040  12.850  0.0583  0.1065  0.2359
 2712SOL    HW219599   2.461   0.954  12.782 -1.0318 -1.5877  0.0429
 2713SOL     OW19600   3.701   4.367  17.030  0.3156  0.2524  0.2567
 2713SOL    HW119601   3.792   4.396  17.042  0.2564  0.5028  0.0887
 2713SOL    HW219602   3.665   4.399  17.112 -0.4412 -0.5938  0.2579
 2714SOL     OW19603   3.102   0.183   4.887 -0.6582  0.3095  0.2661
 2714SOL    HW119604   3.082   0.090   4.893 -1.7120  0.6555  1.8598
 2714SOL    HW219605   3.174   0.178   4.823 -1.0288  1.1582 -0.2226
 2715SOL     OW19606   1.917   2.922   5.250 -0.0699  0.3194  0.3538
 2715SOL    HW119607   1.881   3.003   5.286 -3.1976 -0.7303 -0.3797
 2715SOL    HW219608   1.890   2.927   5.159 -1.3315  1.4613  0.7839
 2716SOL     OW19609   4.373   1.610  11.194 -0.2706  0.1178  0.5184
 2716SOL    HW119610   4.285   1.574  11.191 -0.8684  1.7124 -1.3717
 2716SOL    HW219611   4.395   1.578  11.281  2.2393 -0.2969 -0.2530
 2717SOL     OW19612   3.443   2.155   6.488  0.3129 -0.4798 -0.2137
 2717SOL    HW119613   3.488   2.208   6.554  0.0084  0.6542 -0.9226
 2717SOL    HW219614   3.467   2.064   6.508 -1.6059 -1.1273 -0.9201
 2718SOL     OW19615   3.528   2.825   6.232  0.1761  0.4621  0.3131
 2718SOL    HW119616   3.481   2.847   6.152  0.2478  0.7183  0.3384
 2718SOL    HW219617   3.541   2.734   6.207 -0.4304  0.9514 -1.7515
 2719SOL     OW19618   3.328   3.631   7.082 -0.0668  0.1526  0.4487
 2719SOL    HW119619   3.283   3.556   7.120  1.2214 -0.3416  0.9891
 2719SOL    HW219620   3.298   3.699   7.142  0.2928  0.8592 -0.1786
 2720SOL     OW19621   0.350   0.082  13.416 -0.4942  0.6851 -0.2560
 2720SOL    HW119622   0.387   0.095  13.503 -1.2981  1.9846 -0.1111
 2720SOL    HW219623   0.256   0.076  13.437 -0.8464  0.6926 -1.8388
 2721SOL     OW19624   4.149   3.552   9.320  0.1239 -0.0155 -0.0826
 2721SOL    HW119625   4.055   3.571   9.326  0.4160  1.6331 -0.6993
 2721SOL    HW219626   4.149   3.463   9.284  0.9298 -0.6950  1.6033
 2722SOL     OW19627   1.820   2.420   5.414  0.0219  0.1322 -0.0080
 2722SOL    HW119628   1.741   2.472   5.398 -0.9243 -2.1216 -2.7456
 2722SOL    HW219629   1.781   2.351   5.468  1.5447 -0.7537 -0.0207
 2723SOL     OW19630   2.348   4.427  14.877 -0.0889  0.3441  0.4886
 2723SOL    HW119631   2.323   4.484  14.804 -1.2000 -0.5205  0.1880
 2723SOL    HW219632   2.369   4.492  14.944  0.3044 -0.5182  1.1910
 2724SOL     OW19633   3.861   0.355  10.666 -0.2445 -0.2851  0.2349
 2724SOL    HW119634   3.941   0.352  10.719  0.4775 -0.9269 -0.8809
 2724SOL    HW219635   3.792   0.302  10.707 -1.9941  1.0503 -0.9777
 2725SOL     OW19636   0.129   0.193  11.466  0.1434  0.3207  0.1475
 2725SOL    HW119637   0.144   0.263  11.403  1.4881 -0.1791 -0.0883
 2725SOL    HW219638   0.197   0.132  11.436  1.1547  0.8198  1.4294
 2726SOL     OW19639   4.203   1.202   2.773 -0.1263 -0.0593 -0.0353
 2726SOL    HW119640   4.119   1.193   2.727 -0.4413  0.9471  0.3283
 2726SOL    HW219641   4.250   1.266   2.718 -1.8241 -0.4760 -1.9825
 2727SOL     OW19642   3.824   3.025  16.712  0.1127  0.3787 -0.2549
 2727SOL    HW119643   3.848   3.109  16.749 -0.8753  1.2466 -1.6025
 2727SOL    HW219644   3.832   2.975  16.794  0.4666 -0.4699 -0.8016
 2728SOL     OW19645   3.413   2.752  17.418  0.3155 -0.0912  0.1097
 2728SOL    HW119646   3.332   2.705  17.432  1.0009 -1.1681  0.4716
 2728SOL    HW219647   3.437   2.770  17.509 -1.9412  1.1089  0.4616
 2729SOL     OW19648   2.240   2.184  12.250  0.0016  0.0641  0.7734
 2729SOL    HW119649   2.335   2.183  12.240 -0.1745 -0.8992 -0.7539
 2729SOL    HW219650   2.219   2.260  12.196 -0.8482  1.6640  3.3710
 2730SOL     OW19651   4.711   3.512   7.484 -0.1428  0.9251 -0.8306
 2730SOL    HW119652   4.661   3.566   7.423  0.5384 -0.0041 -2.1956
 2730SOL    HW219653   4.656   3.437   7.507 -1.4156  1.7194 -1.2700
 2731SOL     OW19654   2.823   3.575  14.103 -0.0131  0.0909 -0.0133
 2731SOL    HW119655   2.745   3.539  14.061 -0.5390 -0.7127  1.6505
 2731SOL    HW219656   2.771   3.606  14.177  0.7882  1.8799 -0.2024
 2732SOL     OW19657   2.635   1.038  16.960 -0.1710  0.1968  0.2816
 2732SOL    HW119658   2.665   1.027  16.870 -1.2814 -2.8587  0.2727
 2732SOL    HW219659   2.642   0.945  16.982 -1.4050 -0.2387 -1.1607
 2733SOL     OW19660   2.287   2.472  11.600 -1.1182 -0.2518  0.1913
 2733SOL    HW119661   2.337   2.472  11.519  1.8238 -0.2854  2.0016
 2733SOL    HW219662   2.285   2.378  11.617  1.7632 -0.2564  0.5434
 2734SOL     OW19663   3.875   1.926   7.199 -0.4911  0.3543 -0.0151
 2734SOL    HW119664   3.940   1.934   7.129  0.0593 -0.2959  0.4277
 2734SOL    HW219665   3.847   2.017   7.208  1.5249  0.7967  1.9133
 2735SOL     OW19666   2.957   2.100   8.747 -0.0713 -0.4547 -0.1932
 2735SOL    HW119667   2.863   2.116   8.747 -0.1211 -0.7482  0.1657
 2735SOL    HW219668   2.984   2.173   8.804 -1.6230 -0.9725  1.2085
 2736SOL     OW19669   2.261   4.581   1.719  0.2268  0.0886  0.3640
 2736SOL    HW119670   2.173   4.614   1.705  0.6244 -0.5864 -3.7230
 2736SOL    HW219671   2.313   4.657   1.691  1.4069 -0.5727  0.7257
 2737SOL     OW19672   2.993   1.014   5.115  0.1361  0.0176  0.0273
 2737SOL    HW119673   2.913   1.040   5.162 -1.0884 -1.7360 -1.1069
 2737SOL    HW219674   2.964   1.058   5.035  1.2850  0.1441 -0.3172
 2738SOL     OW19675   0.162   3.452   6.444  0.2363 -0.5712  0.1130
 2738SOL    HW119676   0.246   3.431   6.485 -0.5164 -0.6701  1.6032
 2738SOL    HW219677   0.148   3.383   6.379 -0.8820  1.9571 -2.3501
 2739SOL     OW19678   2.004   3.760   2.913  0.1775 -0.5101  0.0835
 2739SOL    HW119679   2.092   3.786   2.942  0.5626 -0.1403 -1.4358
 2739SOL    HW219680   1.944   3.809   2.969  1.2497  0.0765  0.7120
 2740SOL     OW19681   0.580   4.629   8.141  0.4601 -0.0815 -0.4175
 2740SOL    HW119682   0.600   4.680   8.219  0.4491 -1.2409  0.3380
 2740SOL    HW219683   0.539   4.695   8.085  1.5399 -0.3701 -1.5391
 2741SOL     OW19684   2.994   4.096   0.018 -0.5171  0.1740  0.2332
 2741SOL    HW119685   2.958   4.010  17.700  1.2683 -0.5527  0.0952
 2741SOL    HW219686   3.056   4.101  17.646  0.9128 -0.3730  1.3995
 2742SOL     OW19687   0.873   0.560  10.463  0.4034 -0.6002 -0.2927
 2742SOL    HW119688   0.808   0.561  10.392 -1.0831  0.5585  1.1007
 2742SOL    HW219689   0.884   0.465  10.465  0.2801 -0.5267  2.9792
 2743SOL     OW19690   4.153   3.108   5.760  0.0089 -0.4517  0.2351
 2743SOL    HW119691   4.127   3.048   5.690  0.9421 -0.3807 -0.1677
 2743SOL    HW219692   4.228   3.062   5.797  0.1896  0.8013  1.4303
 2744SOL     OW19693   2.482   4.453   8.629 -0.0296  0.1545  0.9762
 2744SOL    HW119694   2.565   4.496   8.652  0.0159 -0.4172  1.8769
 2744SOL    HW219695   2.489   4.371   8.677 -0.9533 -0.0147  0.8232
 2745SOL     OW19696   2.886   1.444   6.757  0.0205 -0.7510  0.3719
 2745SOL    HW119697   2.925   1.359   6.735  1.2628 -0.1728  0.3113
 2745SOL    HW219698   2.791   1.437   6.756 -0.0321 -0.0136  0.0433
 2746SOL     OW19699   0.299   2.829  15.682 -0.1689 -0.5560  1.1439
 2746SOL    HW119700   0.271   2.913  15.719 -1.4538 -1.3741  2.0304
 2746SOL    HW219701   0.220   2.776  15.676  0.2612 -1.0815  0.2362
 2747SOL     OW19702   3.242   4.230   6.330  0.6098 -0.7241  0.3416
 2747SOL    HW119703   3.298   4.160   6.364 -1.4528 -1.9369  1.2223
 2747SOL    HW219704   3.310   4.298   6.329 -1.0146  0.8975 -0.4723
 2748SOL     OW19705   0.143   1.736   2.428 -0.3092 -0.3768  0.1614
 2748SOL    HW119706   0.051   1.712   2.439 -0.4784  0.0583 -0.2953
 2748SOL    HW219707   0.194   1.658   2.446  1.2716  0.9168  1.2911
 2749SOL     OW19708   1.345   2.547   5.443 -0.1666 -0.5552 -0.7072
 2749SOL    HW119709   1.281   2.537   5.514 -1.5969 -0.4462 -1.9848
 2749SOL    HW219710   1.299   2.613   5.392 -0.8282 -0.7327 -0.3406
 2750SOL     OW19711   1.003   1.118   6.801  0.2226 -0.3851 -0.0549
 2750SOL    HW119712   1.074   1.153   6.748  0.5840  1.5618  1.7133
 2750SOL    HW219713   0.931   1.180   6.793  1.3010  0.9632  0.7601
 2751SOL     OW19714   2.844   3.476   8.274 -0.5193  0.5894 -0.0572
 2751SOL    HW119715   2.876   3.511   8.191  2.5546  1.3913  1.4756
 2751SOL    HW219716   2.847   3.556   8.327  2.8860  0.8194 -0.5625
 2752SOL     OW19717   2.725   4.350   9.247  0.2850  0.3087  0.4671
 2752SOL    HW119718   2.691   4.355   9.158 -0.5816  1.0189  0.8414
 2752SOL    HW219719   2.649   4.381   9.297 -2.8417 -1.6441 -3.1436
 2753SOL     OW19720   0.688   2.051   8.821 -0.5012  0.0200 -0.2375
 2753SOL    HW119721   0.783   2.060   8.831 -0.3347  0.2015 -2.0144
 2753SOL    HW219722   0.650   2.066   8.907 -0.4737  0.8261 -0.3699
 2754SOL     OW19723   0.086   4.282   9.308 -0.4793 -1.1043  0.0629
 2754SOL    HW119724   0.113   4.239   9.389 -1.3374 -0.5486  0.6387
 2754SOL    HW219725   0.164   4.336   9.292 -0.9429 -0.2713  0.6388
 2755SOL     OW19726   3.623   4.265   6.100 -0.1002 -0.0736 -0.3167
 2755SOL    HW119727   3.571   4.185   6.105  0.0848 -0.3640 -3.0413
 2755SOL    HW219728   3.668   4.257   6.184 -1.1045  1.1677  0.3503
 2756SOL     OW19729   2.449   3.903   2.452 -0.2717  0.5095  0.3862
 2756SOL    HW119730   2.493   3.824   2.421  0.6006  2.5747 -3.7073
 2756SOL    HW219731   2.357   3.879   2.466  0.6961 -2.9080  0.7933
 2757SOL     OW19732   0.364   2.895   6.168 -0.1144  0.2667  0.0787
 2757SOL    HW119733   0.284   2.844   6.175  0.0950  0.1450  1.6027
 2757SOL    HW219734   0.333   2.952   6.097  1.1942  1.4728  0.4739
 2758SOL     OW19735   3.117   2.809   6.331 -0.1375 -0.0840  0.4392
 2758SOL    HW119736   3.049   2.776   6.272  1.6723 -1.2835 -0.9817
 2758SOL    HW219737   3.182   2.739   6.329 -1.2509 -1.2174  4.7003
 2759SOL     OW19738   1.873   3.306  16.729 -0.6186 -0.2206  0.2914
 2759SOL    HW119739   1.861   3.267  16.815 -2.0827  1.1988  0.7437
 2759SOL    HW219740   1.891   3.231  16.673 -3.5192  1.2085 -2.6022
 2760SOL     OW19741   2.048   1.034   0.615 -0.5751 -0.2756  0.2667
 2760SOL    HW119742   2.117   0.982   0.575  0.5075  2.3656 -1.2711
 2760SOL    HW219743   2.035   0.977   0.691 -2.1656  0.1872  0.3450
 2761SOL     OW19744   0.573   2.200   2.712 -0.0468 -0.0978 -0.3392
 2761SOL    HW119745   0.558   2.152   2.630 -0.7157  3.4970 -2.3213
 2761SOL    HW219746   0.512   2.149   2.766  0.3053 -0.3526 -0.1853
 2762SOL     OW19747   0.058   0.429   4.366 -0.1310  0.6607  0.3154
 2762SOL    HW119748   0.022   0.398   4.283 -1.7389  1.1761  0.8204
 2762SOL    HW219749   0.029   0.362   4.429 -1.2936  1.7540  0.9563
 2763SOL     OW19750   4.595   3.642   4.767  0.6117  0.4085 -0.3270
 2763SOL    HW119751   4.583   3.728   4.726 -2.1655 -0.9222 -2.3204
 2763SOL    HW219752   4.661   3.659   4.834 -0.1235 -1.0171  0.7589
 2764SOL     OW19753   4.546   3.523  14.934 -0.2027  0.2893  0.0604
 2764SOL    HW119754   4.619   3.579  14.960  0.7896 -1.4540  0.9744
 2764SOL    HW219755   4.570   3.443  14.979  1.4457 -0.9065 -2.9255
 2765SOL     OW19756   0.652   1.353   7.377  0.1673  0.1162  0.4716
 2765SOL    HW119757   0.697   1.390   7.301 -2.0710  0.0119 -0.9263
 2765SOL    HW219758   0.724   1.297   7.407 -0.8237 -1.0638  0.6747
 2766SOL     OW19759   2.282   1.154  11.966 -0.3648 -0.2179 -0.1112
 2766SOL    HW119760   2.306   1.174  12.057 -1.7984 -1.8089  0.6122
 2766SOL    HW219761   2.368   1.156  11.923 -0.2956  0.7686  0.0745
 2767SOL     OW19762   4.426   1.788   8.999  0.1973 -0.0786  0.0106
 2767SOL    HW119763   4.394   1.706   8.960  1.9297 -0.7188 -0.1136
 2767SOL    HW219764   4.439   1.829   8.914  0.0842 -0.9062 -0.4112
 2768SOL     OW19765   4.415   0.807  16.060  0.8455  0.3155 -0.4804
 2768SOL    HW119766   4.413   0.899  16.087 -1.7949 -0.0019  0.4196
 2768SOL    HW219767   4.339   0.811  16.002  0.7050 -0.7202 -0.3598
 2769SOL     OW19768   2.934   1.696   5.137 -0.8683 -0.3290 -0.2933
 2769SOL    HW119769   3.002   1.678   5.202  0.0653  1.0318 -0.9075
 2769SOL    HW219770   2.918   1.607   5.105  0.0172  0.0473 -1.7618
 2770SOL     OW19771   0.259   1.139   9.053 -0.0633  0.7089  0.1201
 2770SOL    HW119772   0.201   1.215   9.045 -0.4992  0.4108  0.4456
 2770SOL    HW219773   0.314   1.154   8.976 -0.6105  0.3153 -0.3566
 2771SOL     OW19774   1.668   4.373   5.971 -0.0465  0.2120 -0.3543
 2771SOL    HW119775   1.709   4.313   6.034  1.2636  0.7120 -0.7313
 2771SOL    HW219776   1.601   4.318   5.932 -0.4333  1.7533 -1.8533
 2772SOL     OW19777   3.429   0.155   4.612 -0.3064  0.0734 -0.7655
 2772SOL    HW119778   3.335   0.161   4.630 -0.1435  0.9654 -0.1867
 2772SOL    HW219779   3.436   0.196   4.526  0.8689  0.8502 -0.3000
 2773SOL     OW19780   3.969   3.303  17.333  0.5767  0.0686 -0.4537
 2773SOL    HW119781   3.877   3.298  17.309 -0.0511 -1.7057  2.2763
 2773SOL    HW219782   3.974   3.248  17.412  2.1185 -0.7604 -1.1139
 2774SOL     OW19783   3.170   0.384   6.196 -0.1261 -0.7570 -0.0689
 2774SOL    HW119784   3.170   0.390   6.292 -0.4861  0.0873 -0.1166
 2774SOL    HW219785   3.237   0.323   6.166  1.5967  0.7000  0.7952
 2775SOL     OW19786   2.853   4.269   5.238 -0.2144  0.5562 -0.2391
 2775SOL    HW119787   2.870   4.284   5.145 -0.0763 -0.6755 -0.4217
 2775SOL    HW219788   2.921   4.321   5.281  0.8333 -1.4286  0.5061
 2776SOL     OW19789   0.403   2.171   7.217 -0.3256 -0.0051 -0.5684
 2776SOL    HW119790   0.497   2.157   7.207 -0.7462 -1.9497 -1.8983
 2776SOL    HW219791   0.391   2.146   7.308  1.5188 -2.5454 -1.0153
 2777SOL     OW19792   1.653   4.688  11.499 -0.2676  0.6116  0.1627
 2777SOL    HW119793   1.647   0.036  11.560  1.2755  2.4982 -1.9054
 2777SOL    HW219794   1.563   4.663  11.479  0.1198 -0.4294 -0.3079
 2778SOL     OW19795   0.558   1.632   7.626 -0.1979  0.3646  0.2298
 2778SOL    HW119796   0.643   1.588   7.632 -1.0624 -1.4992 -1.3427
 2778SOL    HW219797   0.545   1.658   7.717 -0.9674  0.0565  0.2045
 2779SOL     OW19798   3.687   2.817   7.988  0.6939  0.4846 -0.1900
 2779SOL    HW119799   3.723   2.728   7.995  2.3652  1.1147 -0.6655
 2779SOL    HW219800   3.739   2.865   8.052 -1.1733  2.7179 -0.3700
 2780SOL     OW19801   2.090   0.619   1.330  0.0899  0.2610 -0.2492
 2780SOL    HW119802   2.164   0.560   1.317  1.2520  0.8505  3.7560
 2780SOL    HW219803   2.040   0.573   1.398 -0.9134  2.6007  0.5822
 2781SOL     OW19804   3.229   3.707   8.658  0.3835  0.1158  0.2927
 2781SOL    HW119805   3.160   3.717   8.592 -1.0884 -3.2192  1.3024
 2781SOL    HW219806   3.195   3.645   8.722 -0.1540  0.6682  0.5443
 2782SOL     OW19807   4.268   3.903   4.785 -0.3447  0.0914 -0.0492
 2782SOL    HW119808   4.255   3.850   4.863  2.3505 -3.0773 -1.7261
 2782SOL    HW219809   4.284   3.838   4.716  0.1652 -1.9386  1.9892
 2783SOL     OW19810   4.685   2.004   3.658 -0.7063  0.5768 -0.1043
 2783SOL    HW119811   4.652   1.914   3.668  1.6865 -0.1686  1.0807
 2783SOL    HW219812   4.686   2.028   3.750  1.9719 -0.1014  0.0605
 2784SOL     OW19813   4.539   0.780   6.699 -0.0039  0.4221  0.2485
 2784SOL    HW119814   4.626   0.771   6.739  1.4733  2.5437 -2.4744
 2784SOL    HW219815   4.544   0.858   6.643 -4.2025 -0.6365 -1.5224
 2785SOL     OW19816   4.656   1.370  15.470  0.8104  0.3801  0.2584
 2785SOL    HW119817   4.607   1.447  15.499 -0.3618 -1.1437  2.2710
 2785SOL    HW219818   4.672   1.329  15.555 -1.9252  1.5960  1.3581
 2786SOL     OW19819   1.944   0.923   3.092 -0.1599 -0.2222  0.0690
 2786SOL    HW119820   1.902   0.920   3.005  2.0033  0.4534 -1.0010
 2786SOL    HW219821   1.900   0.996   3.135  1.7474  0.4131  0.9102
 2787SOL     OW19822   1.602   4.032   0.314 -0.2018  0.2199  0.5129
 2787SOL    HW119823   1.630   4.100   0.254  0.6702 -0.8804 -0.3341
 2787SOL    HW219824   1.583   4.086   0.391 -1.7702 -1.1821  1.1119
 2788SOL     OW19825   1.632   0.080   0.600  0.0695  0.1715  0.3440
 2788SOL    HW119826   1.632   0.019   0.673 -0.4970 -0.5598 -0.2746
 2788SOL    HW219827   1.578   0.153   0.631  2.0833  0.8901  2.2193
 2789SOL     OW19828   0.801   2.426   3.498  0.1345 -0.5252 -0.2376
 2789SOL    HW119829   0.875   2.480   3.471  1.8597 -2.9820 -0.3807
 2789SOL    HW219830   0.746   2.435   3.420  1.0081  0.9628 -0.6847
 2790SOL     OW19831   2.631   0.714  17.541  0.5370 -0.4793  0.0019
 2790SOL    HW119832   2.590   0.719  17.454 -2.4641 -1.7569  1.3461
 2790SOL    HW219833   2.722   0.695  17.517  0.5937  1.0345 -1.0258
 2791SOL     OW19834   4.680   1.683   3.267 -0.7260 -0.1803 -0.5391
 2791SOL    HW119835   0.051   1.682   3.266 -0.7425 -2.8705  0.4720
 2791SOL    HW219836   4.665   1.727   3.183 -1.8414 -1.6135 -1.0749
 2792SOL     OW19837   0.267   0.361   5.871  0.2264  0.0043  0.4185
 2792SOL    HW119838   0.194   0.412   5.838 -0.2047 -2.7224 -2.8391
 2792SOL    HW219839   0.231   0.321   5.951  0.9528 -1.3669  0.0640
 2793SOL     OW19840   3.629   1.952   7.515  0.1988  0.9399 -0.2581
 2793SOL    HW119841   3.628   2.034   7.564  1.5328  1.5600 -1.2634
 2793SOL    HW219842   3.661   1.892   7.582  3.4054  2.0840 -0.7697
 2794SOL     OW19843   2.722   0.060   4.195  0.0577  0.0696 -0.8025
 2794SOL    HW119844   2.710   4.725   4.268  0.8430  0.8027 -0.0663
 2794SOL    HW219845   2.649   0.042   4.136  0.8549  2.2317 -2.4726
 2795SOL     OW19846   1.430   3.287   6.178 -0.5657  0.3018 -0.3561
 2795SOL    HW119847   1.514   3.275   6.221 -0.0179 -2.7319 -2.2709
 2795SOL    HW219848   1.371   3.294   6.253  0.0993 -1.9608  0.3667
 2796SOL     OW19849   1.767   0.107   1.835  0.6711 -0.6510  0.5753
 2796SOL    HW119850   1.736   0.189   1.797  2.6613 -0.4990 -0.6779
 2796SOL    HW219851   1.740   0.046   1.766 -0.4066 -0.0770  0.4969
 2797SOL     OW19852   3.337   3.567   4.463 -0.3505 -0.1215  0.2319
 2797SOL    HW119853   3.328   3.479   4.427 -0.3053 -0.0876  0.1371
 2797SOL    HW219854   3.430   3.575   4.441 -0.4946 -0.3180 -0.4518
 2798SOL     OW19855   1.205   4.403   2.732  0.2900  0.0722  0.7546
 2798SOL    HW119856   1.231   4.333   2.791  0.8975 -1.1732 -0.9915
 2798SOL    HW219857   1.282   4.393   2.677 -0.4651  3.7226 -0.9718
 2799SOL     OW19858   3.526   4.344   5.840 -0.4741 -0.0550 -0.2279
 2799SOL    HW119859   3.609   4.340   5.793 -0.5082 -0.8471 -0.2134
 2799SOL    HW219860   3.560   4.306   5.921  1.6318  1.0162 -0.6154
 2800SOL     OW19861   0.074   0.270   3.111  0.0921  0.0371  0.1248
 2800SOL    HW119862   0.114   0.344   3.064 -0.1145  1.4249  2.1048
 2800SOL    HW219863   0.113   0.195   3.066 -0.6570  0.1728 -0.7521
 2801SOL     OW19864   0.910   0.482   5.490  0.6877  0.1517  0.1734
 2801SOL    HW119865   0.915   0.472   5.395  3.6652  0.8570  0.2600
 2801SOL    HW219866   1.002   0.459   5.502  0.2502 -0.9545  1.4470
 2802SOL     OW19867   0.049   3.057   1.949  0.6998  0.0893  0.4454
 2802SOL    HW119868   0.102   3.050   2.029 -0.0996 -2.2674  0.7531
 2802SOL    HW219869   4.702   3.109   1.985  0.6722 -0.0063  0.5296
 2803SOL     OW19870   3.347   1.888  13.999 -0.2740  0.2212  0.3592
 2803SOL    HW119871   3.296   1.904  13.919 -1.4110  0.5041  1.1461
 2803SOL    HW219872   3.268   1.886  14.053  0.0313 -1.6975  0.7303
 2804SOL     OW19873   3.664   2.024   2.629  0.4972  0.0873 -0.4471
 2804SOL    HW119874   3.753   2.019   2.595 -0.3109 -2.7513 -2.1528
 2804SOL    HW219875   3.620   1.955   2.580 -2.2929  1.7258 -0.2176
 2805SOL     OW19876   0.691   0.592   0.134 -1.1090  0.4497 -0.2547
 2805SOL    HW119877   0.701   0.582   0.040  2.0494 -4.2808  0.5588
 2805SOL    HW219878   0.596   0.599   0.143 -1.0856  1.7299 -1.0766
 2806SOL     OW19879   1.661   0.537   1.526 -0.6978  0.1732  0.0148
 2806SOL    HW119880   1.616   0.524   1.443  0.0042  2.3362 -0.6940
 2806SOL    HW219881   1.687   0.629   1.521 -0.2444  0.0483  0.0062
 2807SOL     OW19882   3.009   0.026   5.174 -0.2770  0.1785  0.1337
 2807SOL    HW119883   2.999   0.108   5.126 -1.9728 -0.8662 -1.2535
 2807SOL    HW219884   3.010   4.691   5.100  1.7667  0.8709 -0.4089
 2808SOL     OW19885   4.669   0.796   0.378 -0.1418  0.0356  0.4113
 2808SOL    HW119886   0.038   0.806   0.361  0.2373 -1.6833  1.5922
 2808SOL    HW219887   4.655   0.724   0.439 -0.3811 -0.7695 -0.6037
 2809SOL     OW19888   1.088   0.366   3.139 -0.2893 -0.2089 -0.3860
 2809SOL    HW119889   1.048   0.444   3.178 -1.9748 -1.2519 -0.0076
 2809SOL    HW219890   1.173   0.369   3.183 -1.3630 -0.6799  1.7176
 2810SOL     OW19891   1.885   0.465   4.806 -0.2097 -0.2687 -0.6916
 2810SOL    HW119892   1.940   0.506   4.739 -0.8215 -2.1667 -2.3438
 2810SOL    HW219893   1.938   0.390   4.832  1.5600  1.0899 -0.3471
 2811SOL     OW19894   4.079   4.203  16.994  0.1181  0.3227  0.0877
 2811SOL    HW119895   4.059   4.294  17.015 -1.3495 -0.1816  0.8872
 2811SOL    HW219896   4.039   4.202  16.907 -2.2345 -0.1795  1.1773
 2812SOL     OW19897   2.352   2.913  10.312  0.4980  0.0843  0.0828
 2812SOL    HW119898   2.316   3.002  10.308 -1.0823 -0.6223 -1.2432
 2812SOL    HW219899   2.285   2.870  10.365 -0.3908  2.5185  0.9616
 2813SOL     OW19900   1.917   0.926   4.759  0.1114  0.4172 -0.2906
 2813SOL    HW119901   1.993   0.962   4.805  1.2449  0.3388 -2.0852
 2813SOL    HW219902   1.851   0.968   4.813  1.6985  1.1604  1.0748
 2814SOL     OW19903   0.054   0.908   5.994  0.3250 -0.4626  0.2461
 2814SOL    HW119904   4.719   0.873   6.060 -0.3438 -0.2750 -0.2623
 2814SOL    HW219905   4.713   0.914   5.925  1.3637  0.6805 -0.6641
 2815SOL     OW19906   2.202   3.260  13.352  0.7960 -0.1112 -0.0230
 2815SOL    HW119907   2.195   3.354  13.370  0.5849 -0.0594 -0.3762
 2815SOL    HW219908   2.111   3.241  13.330  1.2404 -1.2316 -0.9066
 2816SOL     OW19909   3.933   2.788   2.863  0.4640  0.0999  0.1171
 2816SOL    HW119910   3.989   2.738   2.922 -0.9338 -1.3001  0.2639
 2816SOL    HW219911   3.873   2.721   2.831  1.1734 -0.0742 -0.8152
 2817SOL     OW19912   2.823   2.376   2.255  0.0666 -0.1579  0.4189
 2817SOL    HW119913   2.793   2.462   2.285 -0.7101  0.0582 -0.9782
 2817SOL    HW219914   2.787   2.377   2.166  0.9647  0.9389  0.0530
 2818SOL     OW19915   1.790   1.538   4.692 -0.1239  0.0098 -0.3726
 2818SOL    HW119916   1.704   1.511   4.660 -0.0787  3.5785 -3.5122
 2818SOL    HW219917   1.761   1.609   4.750  2.4335 -0.1253  1.0629
 2819SOL     OW19918   3.567   3.466   4.793 -0.2009  0.6472 -0.2691
 2819SOL    HW119919   3.500   3.522   4.755 -1.4933 -0.6767  0.0442
 2819SOL    HW219920   3.593   3.414   4.717  0.8210 -0.2379  0.6832
 2820SOL     OW19921   4.217   2.875   2.837 -0.0752 -0.5596  0.2683
 2820SOL    HW119922   4.186   2.802   2.890  0.0354 -0.4127  0.5337
 2820SOL    HW219923   4.139   2.891   2.783 -0.8720 -2.0318  0.9932
 2821SOL     OW19924   4.151   2.365   6.604  0.2147 -0.3631 -0.0113
 2821SOL    HW119925   4.231   2.410   6.631 -0.2075  1.4753 -1.8267
 2821SOL    HW219926   4.125   2.425   6.533 -0.9189 -1.5319 -0.5877
 2822SOL     OW19927   1.578   2.662   5.199 -0.7099 -0.1281  0.5964
 2822SOL    HW119928   1.495   2.615   5.193  0.0217 -1.1147 -1.6582
 2822SOL    HW219929   1.576   2.736   5.261 -1.3066 -0.0858  0.5330
 2823SOL     OW19930   0.041   1.673   5.880  0.4133 -0.0212  0.7448
 2823SOL    HW119931   0.094   1.622   5.942 -2.3727 -2.2232  1.3533
 2823SOL    HW219932   0.083   1.648   5.798 -0.8592  2.1736 -0.5564
 2824SOL     OW19933   3.287   0.755   6.524 -0.7392  0.4710 -0.0276
 2824SOL    HW119934   3.378   0.752   6.495 -0.8352  0.7424 -0.3541
 2824SOL    HW219935   3.299   0.711   6.608 -1.2246 -1.0616 -0.7659
 2825SOL     OW19936   2.677   1.257   0.506 -0.0162 -0.6160  0.2365
 2825SOL    HW119937   2.660   1.164   0.523  0.0251 -0.1360  2.7827
 2825SOL    HW219938   2.614   1.264   0.434 -1.7295 -0.6708  1.7402
 2826SOL     OW19939   3.945   3.443   8.671 -0.0703  0.6200 -0.5588
 2826SOL    HW119940   4.030   3.402   8.655 -0.1883  1.3399 -3.1276
 2826SOL    HW219941   3.872   3.381   8.674 -0.1279  0.8003  1.4123
 2827SOL     OW19942   2.703   1.631  15.723  0.9130  0.3991  0.2376
 2827SOL    HW119943   2.679   1.707  15.776  1.2417  1.0082 -0.4755
 2827SOL    HW219944   2.699   1.566  15.792  0.1193 -0.2082 -0.3838
 2828SOL     OW19945   0.110   4.389   8.028 -0.3352  0.0301 -0.2934
 2828SOL    HW119946   0.073   4.301   8.031 -0.5939  0.1534  0.0880
 2828SOL    HW219947   0.128   4.387   7.934  1.1332 -0.0057 -0.0100
 2829SOL     OW19948   2.060   3.035   3.931 -0.4985 -0.1743  0.7965
 2829SOL    HW119949   2.149   3.062   3.906 -0.7865  0.5151  0.5250
 2829SOL    HW219950   2.027   3.119   3.963 -2.8078 -0.4728 -0.8350
 2830SOL     OW19951   4.597   2.448   2.924 -0.3786  0.5725 -0.6930
 2830SOL    HW119952   4.618   2.441   3.017  1.1527 -0.8700 -1.1588
 2830SOL    HW219953   4.666   2.403   2.875  0.2463 -0.4443  1.1187
 2831SOL     OW19954   0.440   3.552  17.654 -0.2737 -0.3416  0.1080
 2831SOL    HW119955   0.481   3.466  17.668 -2.6918 -1.4482  0.3060
 2831SOL    HW219956   0.491   3.592  17.584 -1.7804  0.1631 -0.6774
 2832SOL     OW19957   0.193   2.605   9.990  0.6416 -0.2361  0.3944
 2832SOL    HW119958   0.189   2.551  10.069  0.2356  0.4092  0.8202
 2832SOL    HW219959   0.113   2.659   9.992 -0.3555 -1.7589  1.5534
 2833SOL     OW19960   1.980   0.872   7.018  0.3807 -0.5293 -0.2845
 2833SOL    HW119961   1.986   0.961   6.982 -2.0393  0.7822  2.5212
 2833SOL    HW219962   1.989   0.814   6.943  0.4869  0.4581 -1.0304
 2834SOL     OW19963   0.523   0.483  14.848  0.4429 -0.5530 -0.2300
 2834SOL    HW119964   0.461   0.475  14.920  0.7440  1.8101  0.2878
 2834SOL    HW219965   0.496   0.406  14.797  0.1097 -2.3161  2.6437
 2835SOL     OW19966   0.451   2.102   5.207 -0.2228 -0.3106  0.5793
 2835SOL    HW119967   0.488   2.015   5.188  0.1819 -0.8489  3.7674
 2835SOL    HW219968   0.430   2.139   5.121  2.8946 -1.1521 -0.5379
 2836SOL     OW19969   4.446   3.651  16.931 -0.0273 -0.1392  0.7304
 2836SOL    HW119970   4.399   3.683  17.008 -1.7519  2.4941 -1.4321
 2836SOL    HW219971   4.372   3.657  16.870 -0.0639 -2.5019  0.5176
 2837SOL     OW19972   1.658   2.237   0.018  0.2979  0.4010 -0.2136
 2837SOL    HW119973   1.593   2.176   0.053 -0.0740  0.9241 -0.0015
 2837SOL    HW219974   1.600   2.305  17.687  2.1982  2.6352  1.0391
 2838SOL     OW19975   1.707   2.390   6.389  0.1845  0.3032 -0.2301
 2838SOL    HW119976   1.707   2.384   6.485 -3.2244  0.8575 -0.2001
 2838SOL    HW219977   1.752   2.474   6.381 -3.0342  2.3935  3.4713
 2839SOL     OW19978   2.213   3.202  10.006 -0.3655 -0.2346 -0.3842
 2839SOL    HW119979   2.284   3.170  10.062  1.8783  2.8284 -1.4678
 2839SOL    HW219980   2.247   3.180   9.919  0.3290 -1.3217  0.1642
 2840SOL     OW19981   2.266   4.526   8.500 -0.1664  0.0904  0.0737
 2840SOL    HW119982   2.219   4.601   8.535 -1.8991 -1.6255  1.4453
 2840SOL    HW219983   2.354   4.530   8.537 -1.0727  1.9065  2.0379
 2841SOL     OW19984   0.127   2.602   7.147 -0.7233 -0.5981  0.5572
 2841SOL    HW119985   0.160   2.514   7.129  2.2198  0.3467  1.4091
 2841SOL    HW219986   0.032   2.598   7.134 -0.4780  1.5272 -1.8604
 2842SOL     OW19987   1.461   0.648   7.341 -0.1887  0.1558 -0.8951
 2842SOL    HW119988   1.472   0.639   7.435  0.1720  2.9364 -0.6647
 2842SOL    HW219989   1.391   0.713   7.346  0.9671  1.4331 -1.0601
 2843SOL     OW19990   0.328   4.680   5.778 -0.0257 -0.1245 -0.0295
 2843SOL    HW119991   0.306   4.714   5.864  1.8643  0.9553  0.0344
 2843SOL    HW219992   0.348   4.593   5.812  1.0206 -1.2565 -3.4372
 2844SOL     OW19993   4.508   2.909  10.963 -0.1359 -0.3616  0.2692
 2844SOL    HW119994   4.412   2.909  10.963 -0.1381 -0.5306  4.5111
 2844SOL    HW219995   4.519   2.823  10.923  2.7092 -0.3253  1.0159
 2845SOL     OW19996   0.896   2.416   3.006 -0.4933  0.4996 -0.5396
 2845SOL    HW119997   0.844   2.410   2.926 -1.3715  2.8806 -0.1549
 2845SOL    HW219998   0.981   2.378   2.984 -0.6212  0.2785 -0.6450
 2846SOL     OW19999   2.993   0.945   7.743  0.0909  0.3094  0.3646
 2846SOL    HW120000   2.921   0.906   7.793 -1.3328  0.0797 -1.8527
 2846SOL    HW220001   2.976   1.035   7.770  0.8523  0.7002 -0.4484
 2847SOL     OW20002   2.342   4.041   3.939  0.0210  0.0296  0.4073
 2847SOL    HW120003   2.317   3.979   4.007 -2.6183  0.2462 -0.3617
 2847SOL    HW220004   2.396   3.990   3.879  0.5637 -0.0837  0.9949
 2848SOL     OW20005   2.613   0.400   9.632  0.1205  0.5639  0.6801
 2848SOL    HW120006   2.551   0.447   9.688 -0.2586  0.7409  0.1151
 2848SOL    HW220007   2.607   0.307   9.651  1.2362  0.5695  1.0749
 2849SOL     OW20008   2.524   1.309   0.043 -0.4805 -0.1982 -0.1045
 2849SOL    HW120009   2.577   1.305   0.122 -1.5081 -2.1410  0.4995
 2849SOL    HW220010   2.434   1.313   0.076 -1.1145 -1.5764 -1.6429
 2850SOL     OW20011   4.083   0.679   3.076 -0.1845 -0.0463  0.2370
 2850SOL    HW120012   4.029   0.608   3.043 -2.1410  1.7555 -0.4626
 2850SOL    HW220013   4.062   0.749   3.014  0.0583  1.4505  1.8432
 2851SOL     OW20014   0.659   2.199   1.966  0.1950  0.5553  0.3122
 2851SOL    HW120015   0.677   2.121   2.019 -2.4538 -0.5625 -0.4589
 2851SOL    HW220016   0.705   2.174   1.886  1.9073  2.1080  0.7866
 2852SOL     OW20017   0.705   2.114  10.726 -0.2095 -0.6197 -0.3064
 2852SOL    HW120018   0.723   2.056  10.652 -0.6553 -0.3160 -0.6506
 2852SOL    HW220019   0.751   2.060  10.791 -1.0792 -0.3855  0.5114
 2853SOL     OW20020   4.127   0.620   0.509 -0.1595  0.0221 -0.8270
 2853SOL    HW120021   4.099   0.548   0.452 -3.0701  2.3759 -2.3674
 2853SOL    HW220022   4.196   0.652   0.450 -0.7658  0.5914 -1.2328
 2854SOL     OW20023   1.654   3.492  16.738  0.4219 -0.8254 -0.5450
 2854SOL    HW120024   1.696   3.572  16.768 -0.6768 -0.7030  0.6424
 2854SOL    HW220025   1.732   3.437  16.734  0.4599 -0.8507  0.6441
 2855SOL     OW20026   0.476   4.714   0.780  0.0725  0.3468  0.2467
 2855SOL    HW120027   0.442   0.048   0.712  1.8684 -1.0746 -1.9120
 2855SOL    HW220028   0.467   4.632   0.731 -0.9760 -1.1473  2.9528
 2856SOL     OW20029   1.298   4.381   9.457 -0.2301 -0.1807  0.2635
 2856SOL    HW120030   1.279   4.292   9.428  1.5058 -0.1781 -0.8763
 2856SOL    HW220031   1.301   4.374   9.553 -1.4785 -1.6827  0.1960
 2857SOL     OW20032   3.407   2.258   7.527 -0.4549 -0.2957  0.4201
 2857SOL    HW120033   3.333   2.251   7.466  1.1964  1.8415 -1.8508
 2857SOL    HW220034   3.406   2.354   7.521  2.1773 -0.2780  0.2589
 2858SOL     OW20035   2.567   1.297   1.519 -0.0192 -0.2339 -0.0119
 2858SOL    HW120036   2.577   1.327   1.429  1.5157  0.7497  0.4856
 2858SOL    HW220037   2.660   1.287   1.538  0.3735 -0.2864 -1.9894
 2859SOL     OW20038   1.024   4.145   2.681 -0.1429 -0.2913  0.0062
 2859SOL    HW120039   1.050   4.174   2.594 -0.6121 -0.1852 -0.0966
 2859SOL    HW220040   1.079   4.069   2.700  1.5130  0.7038 -0.8999
 2860SOL     OW20041   2.592   0.434   7.517 -0.4502 -0.0771 -0.3407
 2860SOL    HW120042   2.581   0.426   7.422 -1.5605  0.6559 -0.2842
 2860SOL    HW220043   2.676   0.479   7.526 -1.6087  2.1663 -0.7684
 2861SOL     OW20044   1.299   4.432   3.260  0.5254 -0.1141 -0.3214
 2861SOL    HW120045   1.341   4.379   3.328  0.5065 -0.3483 -0.4924
 2861SOL    HW220046   1.236   4.364   3.234 -0.3493  0.6365 -0.1448
 2862SOL     OW20047   3.683   2.007   3.965 -0.0238 -0.4452  0.6545
 2862SOL    HW120048   3.732   1.974   4.040 -1.4761  1.6082  2.5167
 2862SOL    HW220049   3.664   1.921   3.927 -2.0550 -0.8120  2.4970
 2863SOL     OW20050   3.085   2.483   1.965 -0.0648 -0.3986 -0.3778
 2863SOL    HW120051   3.178   2.471   1.983  0.2983  1.2184 -1.1352
 2863SOL    HW220052   3.056   2.531   2.041  2.8251  0.5127  0.1558
 2864SOL     OW20053   1.013   3.032  11.578  0.1147 -0.7376 -0.5538
 2864SOL    HW120054   1.004   3.114  11.530 -0.1918 -0.3099  0.2226
 2864SOL    HW220055   1.100   3.001  11.553  0.6800 -0.0454  0.5305
 2865SOL     OW20056   2.210   0.529  14.385 -0.4086 -0.1469  0.1534
 2865SOL    HW120057   2.146   0.555  14.451  1.3084 -0.0759  1.7660
 2865SOL    HW220058   2.215   0.607  14.329 -2.3262  0.6431  1.0649
 2866SOL     OW20059   2.895   1.767   2.578 -0.2871 -0.2345 -0.0116
 2866SOL    HW120060   2.910   1.820   2.499 -0.6879 -0.6573 -0.3708
 2866SOL    HW220061   2.891   1.681   2.535  2.8842 -0.6316  0.4779
 2867SOL     OW20062   2.809   3.645   5.827  0.3865 -0.3839 -0.3872
 2867SOL    HW120063   2.890   3.633   5.778  0.8360  0.5969  0.1057
 2867SOL    HW220064   2.805   3.740   5.838 -3.8697 -0.5957 -0.1100
 2868SOL     OW20065   3.761   3.891  15.728 -0.3643  0.4401 -0.4742
 2868SOL    HW120066   3.711   3.937  15.794 -0.7529  0.8656 -1.0653
 2868SOL    HW220067   3.836   3.864  15.780  0.3290  0.6623 -1.3587
 2869SOL     OW20068   1.248   4.170  16.566 -0.4631 -0.5257  0.1374
 2869SOL    HW120069   1.293   4.237  16.617  0.1985 -0.3539 -0.6622
 2869SOL    HW220070   1.283   4.092  16.609 -0.1662 -0.8394 -0.6676
 2870SOL     OW20071   3.329   3.732   5.359 -0.1391  0.0609  0.0078
 2870SOL    HW120072   3.299   3.641   5.353 -0.7194  0.2285  0.4115
 2870SOL    HW220073   3.247   3.770   5.329 -0.4144 -0.1751  0.4588
 2871SOL     OW20074   3.561   1.263   6.302 -0.2201  0.0243 -0.0529
 2871SOL    HW120075   3.556   1.178   6.346 -0.3665 -0.1497 -0.4081
 2871SOL    HW220076   3.647   1.252   6.260  1.8206  4.5471  2.9399
 2872SOL     OW20077   1.034   0.726  12.731  0.1003 -0.2980 -0.1155
 2872SOL    HW120078   1.028   0.639  12.770 -0.2424  0.4188  1.4175
 2872SOL    HW220079   1.021   0.780  12.809 -3.1578 -2.8643  1.1102
 2873SOL     OW20080   2.304   2.034  10.886  0.0315 -0.3988 -0.0746
 2873SOL    HW120081   2.389   2.078  10.892 -0.8581  1.2152  0.6344
 2873SOL    HW220082   2.312   1.966  10.819 -0.1405 -1.8213  1.3383
 2874SOL     OW20083   0.174   0.899  14.403 -0.0018  0.1088  0.4191
 2874SOL    HW120084   0.090   0.869  14.368  0.5074  1.6488 -2.0857
 2874SOL    HW220085   0.182   0.984  14.360 -2.0575  0.7219  1.2324
 2875SOL     OW20086   3.284   4.186   7.484 -0.4628 -0.5297  0.3979
 2875SOL    HW120087   3.299   4.167   7.577  1.3427  0.0043  0.1985
 2875SOL    HW220088   3.231   4.266   7.492  0.4610  0.3796 -2.7932
 2876SOL     OW20089   1.218   0.210  12.977  0.2697  0.6138 -0.3829
 2876SOL    HW120090   1.182   0.296  13.000  0.1703  0.1365  1.2704
 2876SOL    HW220091   1.244   0.228  12.887 -2.2859 -1.6549 -1.5743
 2877SOL     OW20092   0.709   2.695   0.933  0.3664 -0.3303  0.1844
 2877SOL    HW120093   0.764   2.744   0.994  0.6482 -1.5068  0.8605
 2877SOL    HW220094   0.771   2.624   0.918 -0.0389 -0.6194 -0.1185
 2878SOL     OW20095   3.683   1.762  17.549 -0.0737  0.1182  0.1868
 2878SOL    HW120096   3.776   1.745  17.540 -0.4683 -1.8854 -0.0616
 2878SOL    HW220097   3.694   1.857  17.556 -0.3875  0.4316 -3.8336
 2879SOL     OW20098   4.013   3.930   5.204 -0.2444  0.7135  0.1429
 2879SOL    HW120099   4.019   4.000   5.139  0.4700  0.2553 -0.2742
 2879SOL    HW220100   4.065   3.974   5.271 -0.0161  0.8259 -0.1092
 2880SOL     OW20101   1.298   2.914   8.931 -0.4032 -0.0645 -0.4746
 2880SOL    HW120102   1.325   2.822   8.930  2.1941  0.6373  3.8323
 2880SOL    HW220103   1.256   2.924   8.846  0.2528 -1.1023 -0.9187
 2881SOL     OW20104   3.331   2.926   2.199 -0.5180 -0.3186 -0.0366
 2881SOL    HW120105   3.329   2.851   2.258  0.0522 -0.3914 -0.1064
 2881SOL    HW220106   3.243   2.921   2.160 -0.7475  0.4291  0.3713
 2882SOL     OW20107   2.539   0.667   7.981  0.4228  0.1863  0.5809
 2882SOL    HW120108   2.598   0.628   8.045  1.6635  1.9697  0.5322
 2882SOL    HW220109   2.537   0.601   7.912  0.9920 -0.0650  0.8122
 2883SOL     OW20110   0.979   0.071   7.181 -0.1841  0.3872  0.3138
 2883SOL    HW120111   0.947   0.145   7.233  4.7186  1.7181  1.4679
 2883SOL    HW220112   1.049   0.022   7.224  1.6493  1.3517 -1.4832
 2884SOL     OW20113   1.669   1.181   4.761  0.0634  0.2508  0.2485
 2884SOL    HW120114   1.690   1.116   4.828 -0.1073 -0.5210 -0.4507
 2884SOL    HW220115   1.626   1.250   4.813  0.0278 -0.0551  0.6252
 2885SOL     OW20116   2.657   0.898  11.040 -0.3314 -0.0390  0.2595
 2885SOL    HW120117   2.612   0.966  11.091  1.1176  1.9438 -1.1064
 2885SOL    HW220118   2.661   0.826  11.103  1.8588  2.0333  2.5184
 2886SOL     OW20119   4.066   0.125   5.554  0.5389 -0.2850 -0.3318
 2886SOL    HW120120   4.103   0.043   5.522  0.1950 -0.3163 -0.6492
 2886SOL    HW220121   4.113   0.180   5.491  1.8767  2.2637  2.8620
 2887SOL     OW20122   4.327   0.735   4.597 -0.1508  0.2458 -0.0518
 2887SOL    HW120123   4.403   0.741   4.655 -0.2267 -0.6466  0.1477
 2887SOL    HW220124   4.283   0.813   4.629 -1.6041 -0.6079  0.0355
 2888SOL     OW20125   3.454   3.246   7.626  0.0671  0.2325 -0.0251
 2888SOL    HW120126   3.447   3.151   7.636  1.0512  0.3654  2.0940
 2888SOL    HW220127   3.441   3.261   7.533 -1.9562 -0.9988  0.0594
 2889SOL     OW20128   0.584   3.723   6.446  0.1257  0.5401 -0.6322
 2889SOL    HW120129   0.627   3.804   6.475  1.5530 -1.2337  2.2233
 2889SOL    HW220130   0.495   3.746   6.419  0.3146 -0.5703 -2.1978
 2890SOL     OW20131   0.019   1.863   9.878  0.1335 -0.4793 -0.2614
 2890SOL    HW120132   0.066   1.946   9.891  1.5715 -0.9372 -2.4551
 2890SOL    HW220133   0.080   1.819   9.819  2.5522  0.8412  1.2437
 2891SOL     OW20134   2.410   4.291   8.083  0.1598 -0.7985  0.0977
 2891SOL    HW120135   2.444   4.207   8.112 -2.6992 -2.2137 -0.6213
 2891SOL    HW220136   2.332   4.304   8.138  0.6343 -0.7512  0.7578
 2892SOL     OW20137   2.299   2.801   0.618 -0.6704 -0.1230  0.7748
 2892SOL    HW120138   2.308   2.856   0.540  1.4582 -1.6465 -0.0525
 2892SOL    HW220139   2.368   2.834   0.675  0.8068 -1.6360 -0.1143
 2893SOL     OW20140   3.322   2.229   2.654 -1.0471 -0.6800  0.2936
 2893SOL    HW120141   3.301   2.229   2.560 -0.8694  1.9650  0.2523
 2893SOL    HW220142   3.236   2.196   2.680 -2.2837  1.8552 -0.5781
 2894SOL     OW20143   1.095   0.039   6.798  0.1295  0.1209  0.7183
 2894SOL    HW120144   1.014   0.091   6.801  0.8240  1.1500  1.7673
 2894SOL    HW220145   1.148   0.105   6.842 -0.9901  1.4598  0.0740
 2895SOL     OW20146   2.306   4.599   2.568 -0.4818 -0.2393 -0.0929
 2895SOL    HW120147   2.270   4.582   2.655 -0.9499  2.0781  0.1590
 2895SOL    HW220148   2.265   4.526   2.522  4.0308 -2.1917 -0.9979
 2896SOL     OW20149   0.892   3.090  13.797  0.2254 -0.1040 -0.6256
 2896SOL    HW120150   0.923   3.000  13.807  2.8404  0.5023 -3.0636
 2896SOL    HW220151   0.977   3.134  13.788 -0.7037  1.5803 -1.1334
 2897SOL     OW20152   1.180   4.146   7.458  0.0970  0.2154  0.2589
 2897SOL    HW120153   1.213   4.057   7.471  2.7756  0.9296 -1.7618
 2897SOL    HW220154   1.253   4.185   7.411  0.0506  0.5487  0.4616
 2898SOL     OW20155   2.789   0.480   5.962 -0.0145  0.9239  0.6243
 2898SOL    HW120156   2.699   0.495   5.932  0.5805  0.1244 -1.5652
 2898SOL    HW220157   2.819   0.400   5.919  0.0742  0.5495  1.3762
 2899SOL     OW20158   3.597   0.981   0.690 -0.6565 -0.1069 -0.2059
 2899SOL    HW120159   3.595   0.890   0.663  3.3286 -0.8636  2.0746
 2899SOL    HW220160   3.575   1.026   0.608  0.2348  1.4895  0.4320
 2900SOL     OW20161   4.429   2.808  16.429 -0.1067  0.0824  0.3750
 2900SOL    HW120162   4.448   2.850  16.513 -1.7981  0.7030  0.4469
 2900SOL    HW220163   4.437   2.887  16.376 -0.5572  0.1359  0.3887
 2901SOL     OW20164   2.438   4.101   1.707 -0.0715  0.3137  0.5046
 2901SOL    HW120165   2.379   4.026   1.720  0.0778 -0.0328 -0.7999
 2901SOL    HW220166   2.515   4.053   1.677 -1.8977 -0.8006 -2.4572
 2902SOL     OW20167   0.906   1.967  11.197 -0.2228 -0.4298  0.4960
 2902SOL    HW120168   0.946   2.004  11.275 -0.7254  1.9991 -0.3821
 2902SOL    HW220169   0.827   1.921  11.225  0.3252 -0.2224  2.3887
 2903SOL     OW20170   1.681   3.650   4.664  0.0878  0.2951 -0.1008
 2903SOL    HW120171   1.732   3.693   4.732 -1.3320 -1.9767  2.3801
 2903SOL    HW220172   1.731   3.568   4.659 -0.8868 -0.5318  4.2676
 2904SOL     OW20173   4.387   2.642   9.992 -0.3128  0.0614  0.1902
 2904SOL    HW120174   4.293   2.627  10.007 -0.2993  0.7443  0.9763
 2904SOL    HW220175   4.385   2.658   9.898 -1.6467 -0.1815  0.1717
 2905SOL     OW20176   2.520   0.436   2.385  0.2785  0.2507 -0.5083
 2905SOL    HW120177   2.600   0.488   2.384 -0.1881  1.0141  0.9012
 2905SOL    HW220178   2.563   0.351   2.390  1.3472  0.7507 -1.2605
 2906SOL     OW20179   1.607   1.995  16.667 -0.2961 -0.8755 -0.0418
 2906SOL    HW120180   1.587   2.079  16.707 -0.4416 -2.1185  2.4825
 2906SOL    HW220181   1.607   2.022  16.575  0.6069 -0.9890 -0.0782
 2907SOL     OW20182   0.075   1.325   7.554 -0.2022 -0.0152 -0.0385
 2907SOL    HW120183   0.037   1.248   7.511 -0.4427  0.9991 -1.6379
 2907SOL    HW220184   0.026   1.389   7.503  0.4780  0.6748  0.1894
 2908SOL     OW20185   2.818   2.875   2.738 -0.1462 -0.4696  0.5049
 2908SOL    HW120186   2.745   2.854   2.679 -0.1453  1.5569 -0.1982
 2908SOL    HW220187   2.877   2.802   2.719  1.6171  0.9099  0.7083
 2909SOL     OW20188   0.191   2.098   7.050  0.0533 -0.2662  0.0819
 2909SOL    HW120189   0.217   2.050   6.971  0.7336  1.4501 -0.7289
 2909SOL    HW220190   0.277   2.121   7.087 -0.9424  2.2511  0.8007
 2910SOL     OW20191   3.594   0.516   5.771 -0.2803  0.9631 -0.3544
 2910SOL    HW120192   3.646   0.542   5.694 -1.0684  0.8120 -0.9430
 2910SOL    HW220193   3.527   0.457   5.737  1.5298 -1.9288  1.1216
 2911SOL     OW20194   4.541   1.308   3.141  0.1210 -0.0541 -0.0913
 2911SOL    HW120195   4.625   1.284   3.180 -0.5265 -1.1509  0.6145
 2911SOL    HW220196   4.533   1.243   3.071  0.9829  0.2880 -0.5007
 2912SOL     OW20197   2.800   4.004  13.569  0.0448  0.6227  0.2912
 2912SOL    HW120198   2.725   4.000  13.628  1.8070 -0.3619  2.4611
 2912SOL    HW220199   2.839   3.917  13.581 -1.1063  0.2230  1.0709
 2913SOL     OW20200   4.355   1.531  16.398  0.0957  0.4833  0.0168
 2913SOL    HW120201   4.338   1.447  16.354  0.0832 -0.0449  1.0466
 2913SOL    HW220202   4.340   1.593  16.326 -0.1268  1.5846  1.0097
 2914SOL     OW20203   2.776   1.215  15.438  0.0364  0.2146 -0.1621
 2914SOL    HW120204   2.744   1.152  15.373 -0.4241 -0.5152  0.7717
 2914SOL    HW220205   2.696   1.258  15.467 -0.9633 -0.2630 -2.2159
 2915SOL     OW20206   4.499   4.445  16.247  0.3932 -0.0063 -0.1495
 2915SOL    HW120207   4.439   4.474  16.178  0.4404  3.2593  1.1942
 2915SOL    HW220208   4.557   4.417  16.176 -1.4502  2.5294 -2.6599
 2916SOL     OW20209   4.219   4.310  10.522  0.3799 -0.5775 -0.0501
 2916SOL    HW120210   4.276   4.387  10.531 -1.5548  0.7294  1.0125
 2916SOL    HW220211   4.141   4.362  10.501  1.7903  2.0685  1.2911
 2917SOL     OW20212   3.239   1.599  11.522 -0.1070  0.0338 -0.5331
 2917SOL    HW120213   3.321   1.635  11.556 -0.1837  0.2989 -0.6248
 2917SOL    HW220214   3.186   1.667  11.564 -0.4797 -0.3334 -0.4073
 2918SOL     OW20215   4.632   0.076   3.589 -0.2553 -0.3434  0.3954
 2918SOL    HW120216   4.653   0.168   3.605 -1.4151 -0.1428  0.7298
 2918SOL    HW220217   4.635   0.072   3.493  1.1481 -1.7931  0.4937
 2919SOL     OW20218   3.014   4.240  16.089  0.0729 -0.4697 -0.3207
 2919SOL    HW120219   3.009   4.293  16.010 -1.4893  0.5627  0.4685
 2919SOL    HW220220   3.086   4.182  16.065  0.3809  0.4195 -1.5515
 2920SOL     OW20221   2.912   1.245  17.574  0.2272  0.2759 -0.5306
 2920SOL    HW120222   2.834   1.206  17.615 -0.8555  2.0326 -0.9167
 2920SOL    HW220223   2.897   1.336  17.599 -2.5902 -0.0303 -1.0771
 2921SOL     OW20224   2.073   3.482  10.738 -0.0490  0.2729 -0.5270
 2921SOL    HW120225   1.977   3.482  10.743 -0.1570 -4.1616 -2.9850
 2921SOL    HW220226   2.084   3.387  10.738 -0.4556  0.2259  0.7125
 2922SOL     OW20227   0.059   2.941   4.817  0.0606 -0.0400 -0.2294
 2922SOL    HW120228   0.037   3.028   4.783  0.1585  0.1860  0.2921
 2922SOL    HW220229   0.154   2.951   4.811  0.0650 -0.1006 -0.2630
 2923SOL     OW20230   0.132   1.420  15.971 -0.0223  0.0301  0.4767
 2923SOL    HW120231   0.050   1.446  16.014  0.2438  1.5617  0.0745
 2923SOL    HW220232   0.135   1.482  15.898  0.6956 -0.3351  0.1971
 2924SOL     OW20233   4.006   1.804  10.666 -0.2173 -0.0968  0.2882
 2924SOL    HW120234   4.073   1.812  10.733 -1.6439  2.3251  1.4258
 2924SOL    HW220235   3.976   1.725  10.711  2.1450 -0.6161  0.9562
 2925SOL     OW20236   0.814   2.309  14.674  0.0887  0.1282  0.2339
 2925SOL    HW120237   0.779   2.370  14.608  0.2670 -0.4573 -0.4072
 2925SOL    HW220238   0.906   2.334  14.665 -0.0236  0.1114 -1.0626
 2926SOL     OW20239   4.271   3.629   0.990 -0.0607 -0.7122 -0.1923
 2926SOL    HW120240   4.304   3.574   1.061 -0.4214 -2.6181 -1.4963
 2926SOL    HW220241   4.309   3.713   1.014 -0.4104 -0.6475  0.1360
 2927SOL     OW20242   2.968   1.199   1.294 -0.3136  0.3050  0.0030
 2927SOL    HW120243   3.041   1.139   1.286 -1.5419 -1.3716  1.3347
 2927SOL    HW220244   2.970   1.210   1.389 -2.1887  1.0031 -0.0291
 2928SOL     OW20245   2.658   0.608  14.448  0.0044 -0.2872  0.0181
 2928SOL    HW120246   2.594   0.607  14.376  3.1069  1.4231 -2.7889
 2928SOL    HW220247   2.600   0.623  14.523 -0.3470  0.2046 -0.3492
 2929SOL     OW20248   1.780   0.352   7.227 -0.0738  0.2957  0.4515
 2929SOL    HW120249   1.819   0.298   7.159  0.7847 -0.1418  1.2900
 2929SOL    HW220250   1.795   0.293   7.301 -2.2902  0.0401  0.7103
 2930SOL     OW20251   0.844   4.490  17.093  0.5396  0.3879  0.2099
 2930SOL    HW120252   0.856   4.498  17.187  0.4432 -0.9291  0.3432
 2930SOL    HW220253   0.933   4.467  17.068  0.3870 -2.4954  2.2493
 2931SOL     OW20254   3.470   0.280   6.654 -0.5301  0.5298  0.2307
 2931SOL    HW120255   3.449   0.338   6.581  0.1948 -0.2251 -0.5720
 2931SOL    HW220256   3.555   0.313   6.682 -0.2852 -1.7181  2.1427
 2932SOL     OW20257   3.891   2.564   5.353  0.1486  0.0269  0.2538
 2932SOL    HW120258   3.891   2.566   5.257  3.8915  2.3102  0.3046
 2932SOL    HW220259   3.814   2.510   5.366 -0.7513  0.7283 -2.1475
 2933SOL     OW20260   3.601   1.755  13.255  0.1316 -0.1176  0.3201
 2933SOL    HW120261   3.547   1.774  13.178 -0.4052 -0.2805  0.6617
 2933SOL    HW220262   3.534   1.784  13.316  0.3717  1.0271  0.0387
 2934SOL     OW20263   2.478   0.281   8.160  0.2845 -0.3695  0.4115
 2934SOL    HW120264   2.411   0.213   8.170 -0.8436  0.6854 -0.1474
 2934SOL    HW220265   2.435   0.364   8.179 -4.6225 -2.5206 -1.5249
 2935SOL     OW20266   2.115   4.147   7.558  0.3848  0.4100  0.6516
 2935SOL    HW120267   2.050   4.078   7.544 -0.2423  0.8881  1.2245
 2935SOL    HW220268   2.071   4.201   7.623 -0.9026  3.4495 -2.7905
 2936SOL     OW20269   4.131   2.077   4.643  1.0265 -0.3300  0.2732
 2936SOL    HW120270   4.073   2.006   4.614  1.6572 -0.9304  0.4798
 2936SOL    HW220271   4.217   2.037   4.631 -0.5987 -2.6414 -3.6893
 2937SOL     OW20272   1.402   3.528   6.382  0.4503  0.2814  0.2360
 2937SOL    HW120273   1.481   3.474   6.384 -0.8443 -1.6774 -1.8401
 2937SOL    HW220274   1.433   3.590   6.315 -0.7654  1.0212  0.3513
 2938SOL     OW20275   4.650   2.237   4.083 -0.0988  0.1067 -0.2740
 2938SOL    HW120276   4.664   2.274   4.170 -0.7549  0.3609 -0.2777
 2938SOL    HW220277   4.613   2.151   4.104 -1.2047  0.4016 -0.9925
 2939SOL     OW20278   1.241   3.922   8.363 -0.0543  0.3326 -1.0129
 2939SOL    HW120279   1.330   3.933   8.397 -0.2797  0.2259 -0.4060
 2939SOL    HW220280   1.202   3.867   8.430 -0.5800  1.2755 -0.5455
 2940SOL     OW20281   4.546   0.557   4.426  0.1082  0.5926 -0.2077
 2940SOL    HW120282   4.561   0.621   4.357  1.0611  0.6086  0.0117
 2940SOL    HW220283   4.630   0.513   4.413 -0.9077 -0.6520 -2.4852
 2941SOL     OW20284   3.628   3.169   3.873  0.4317  0.0909 -0.1520
 2941SOL    HW120285   3.649   3.138   3.785  1.5900 -1.9053  0.8434
 2941SOL    HW220286   3.666   3.104   3.932  0.8891  0.3629 -0.1430
 2942SOL     OW20287   4.215   2.287   4.243 -0.1236  0.3090  0.3205
 2942SOL    HW120288   4.176   2.201   4.226 -0.7996  0.4809  1.0186
 2942SOL    HW220289   4.212   2.296   4.338 -1.6553 -0.3036  0.3298
 2943SOL     OW20290   0.611   2.769   5.670 -0.1523  0.0594 -0.3672
 2943SOL    HW120291   0.553   2.820   5.727  0.1506 -0.6184  0.5504
 2943SOL    HW220292   0.691   2.756   5.721  0.5789 -1.2928 -1.8635
 2944SOL     OW20293   0.909   1.893  12.076  0.5187 -0.7002 -0.3484
 2944SOL    HW120294   0.918   1.928  12.165 -0.5928  1.3516 -1.0285
 2944SOL    HW220295   0.984   1.834  12.071  1.0416 -0.2893  2.8041
 2945SOL     OW20296   3.120   4.309   1.454  0.2815 -0.1803 -0.2167
 2945SOL    HW120297   3.049   4.354   1.407  0.2687  1.0923  1.0267
 2945SOL    HW220298   3.177   4.288   1.379 -0.4498 -1.3362 -0.4327
 2946SOL     OW20299   3.069   2.500  11.608  0.6736  0.2298 -0.3162
 2946SOL    HW120300   3.097   2.576  11.659  0.2719  0.3152 -0.2230
 2946SOL    HW220301   2.996   2.531  11.554 -0.3390 -0.2978  0.7364
 2947SOL     OW20302   4.141   2.235   2.945 -0.6282  0.5852  0.2531
 2947SOL    HW120303   4.227   2.195   2.938 -1.9994 -2.2319 -0.6600
 2947SOL    HW220304   4.100   2.202   3.025 -1.9365  0.1617 -0.5865
 2948SOL     OW20305   1.949   0.675   4.656  0.2900 -0.7982 -0.1211
 2948SOL    HW120306   2.002   0.753   4.673 -1.0720  0.5993 -2.3000
 2948SOL    HW220307   1.873   0.733   4.658  1.7273  1.0523  1.5285
 2949SOL     OW20308   0.495   4.394   4.485 -0.0266 -0.5896 -0.2459
 2949SOL    HW120309   0.403   4.418   4.496  0.0788 -0.3652  0.1726
 2949SOL    HW220310   0.540   4.462   4.535  0.2789 -1.2483  0.3674
 2950SOL     OW20311   2.764   1.466   2.021 -0.1539 -0.2368 -0.2161
 2950SOL    HW120312   2.823   1.466   2.096 -1.5819  0.6999  0.9117
 2950SOL    HW220313   2.706   1.398   2.056 -1.0600  0.4880 -0.3235
 2951SOL     OW20314   1.160   1.511  16.163 -0.3911  0.2056  0.5372
 2951SOL    HW120315   1.165   1.432  16.217  0.3372  0.7886  1.3492
 2951SOL    HW220316   1.248   1.503  16.126 -0.7634 -0.5307 -0.1717
 2952SOL     OW20317   2.063   3.432   6.173 -0.6512  0.3220  0.4987
 2952SOL    HW120318   2.151   3.449   6.138 -0.8195  0.2168  0.0173
 2952SOL    HW220319   2.063   3.337   6.186 -0.5773  0.3873  0.9821
 2953SOL     OW20320   1.332   0.219   8.155 -0.5051  0.0941  0.0434
 2953SOL    HW120321   1.384   0.276   8.098  1.1268 -0.0038  1.4279
 2953SOL    HW220322   1.246   0.229   8.115 -0.5187 -0.6444 -0.1106
 2954SOL     OW20323   2.038   1.615   4.593  0.1784  0.6424 -0.2105
 2954SOL    HW120324   2.011   1.703   4.619 -0.6500 -0.4177  2.4776
 2954SOL    HW220325   1.966   1.566   4.633  0.2454 -0.3253 -1.2921
 2955SOL     OW20326   0.969   3.328   9.465 -0.0799  0.4655  0.5709
 2955SOL    HW120327   0.944   3.251   9.516 -1.9209  0.8766  0.3180
 2955SOL    HW220328   1.024   3.379   9.524 -0.4777 -1.0513  2.2572
 2956SOL     OW20329   0.065   0.272   3.978 -0.1621  0.6070  0.3235
 2956SOL    HW120330   0.012   0.312   4.047 -2.0851 -1.0508 -0.1691
 2956SOL    HW220331   0.066   0.181   4.008 -0.7076  0.3736 -0.3691
 2957SOL     OW20332   3.301   2.913  11.276  0.1824  0.3514  0.2159
 2957SOL    HW120333   3.207   2.896  11.278  0.2393 -0.1489 -1.2132
 2957SOL    HW220334   3.304   2.995  11.226 -1.9104  0.6501  0.5799
 2958SOL     OW20335   3.536   2.494   7.923 -0.1857  0.2414  0.2677
 2958SOL    HW120336   3.625   2.506   7.955 -2.2156  0.6514  5.8416
 2958SOL    HW220337   3.485   2.514   8.001  1.4913  0.8397  1.2097
 2959SOL     OW20338   4.034   0.431   8.019 -0.4349 -0.1794 -0.0159
 2959SOL    HW120339   4.027   0.343   7.982  0.3546 -0.6280  0.9016
 2959SOL    HW220340   4.029   0.487   7.941  0.9973 -1.0141 -0.7150
 2960SOL     OW20341   2.393   3.160   8.036  0.0125  0.5980 -0.1956
 2960SOL    HW120342   2.335   3.221   7.991 -1.3591 -2.0084 -2.0243
 2960SOL    HW220343   2.414   3.097   7.967 -0.4955 -1.6487  1.6740
 2961SOL     OW20344   0.593   2.963  10.979 -0.0733 -0.5348 -0.1555
 2961SOL    HW120345   0.650   3.004  11.045  2.5268  0.5043 -3.0488
 2961SOL    HW220346   0.552   2.890  11.027  0.0070 -0.4727  0.0090
 2962SOL     OW20347   0.884   4.237   8.426  0.7949  0.1592  0.7768
 2962SOL    HW120348   0.960   4.191   8.462 -0.2229 -0.6657  1.8684
 2962SOL    HW220349   0.902   4.244   8.332 -1.2803 -2.1339  0.2150
 2963SOL     OW20350   4.100   2.051   4.181 -0.3509  0.0789  0.0657
 2963SOL    HW120351   4.110   2.004   4.098 -2.3793 -0.4015  0.0970
 2963SOL    HW220352   4.008   2.030   4.195  0.1994 -1.6679  1.2253
 2964SOL     OW20353   0.833   1.649   9.151  0.2828  0.3403 -0.0185
 2964SOL    HW120354   0.743   1.648   9.183  0.1857  0.6524 -0.2814
 2964SOL    HW220355   0.882   1.634   9.233  0.5871 -0.1120 -0.2854
 2965SOL     OW20356   2.876   1.415  15.217 -0.3803 -0.5509  0.4793
 2965SOL    HW120357   2.826   1.338  15.190 -1.9770  0.5049  0.4524
 2965SOL    HW220358   2.835   1.481  15.162 -2.2681 -1.2411  1.0554
 2966SOL     OW20359   2.051   1.744   7.847  0.3747  0.2046  0.0222
 2966SOL    HW120360   2.101   1.685   7.791  1.2854 -0.2726  1.3407
 2966SOL    HW220361   2.000   1.684   7.900  0.4296 -0.5206 -0.7487
 2967SOL     OW20362   2.684   1.960  14.447 -0.1449  0.0713  0.0916
 2967SOL    HW120363   2.683   1.953  14.542 -0.3476 -2.3556 -0.0708
 2967SOL    HW220364   2.752   1.895  14.429  1.0114  1.4334 -0.4657
 2968SOL     OW20365   0.657   3.564   2.663 -0.3789  1.1054  0.0147
 2968SOL    HW120366   0.565   3.576   2.640 -0.9947 -0.0721  1.8227
 2968SOL    HW220367   0.681   3.647   2.705  0.9408  1.8429 -2.2391
 2969SOL     OW20368   3.806   2.566  11.141 -0.3074 -0.0967  0.5038
 2969SOL    HW120369   3.854   2.486  11.122 -2.1647 -1.1371  0.1477
 2969SOL    HW220370   3.862   2.622  11.194  0.3665  0.6604 -1.0046
 2970SOL     OW20371   4.003   3.531   8.381  0.2849  0.5073  0.1464
 2970SOL    HW120372   3.909   3.522   8.398  0.0217  1.6704 -0.6693
 2970SOL    HW220373   4.008   3.625   8.365 -1.5903  0.1756 -2.3379
 2971SOL     OW20374   2.415   4.241   3.030  0.0791  0.4574  0.0902
 2971SOL    HW120375   2.367   4.165   2.997  0.1606  0.1428  0.6923
 2971SOL    HW220376   2.415   4.229   3.125 -2.4638  0.9231  0.1599
 2972SOL     OW20377   2.201   3.956   5.432  0.3727  0.0097 -0.2766
 2972SOL    HW120378   2.240   4.010   5.501  1.2693 -1.0477  0.0509
 2972SOL    HW220379   2.255   3.877   5.438  1.7268  0.8581 -1.1549
 2973SOL     OW20380   3.255   4.482   4.568  0.2651  0.3150 -0.6940
 2973SOL    HW120381   3.336   4.479   4.516  1.0521  1.5598  0.4878
 2973SOL    HW220382   3.185   4.467   4.504  1.7174 -3.7769 -1.3511
 2974SOL     OW20383   0.326   4.366   8.781  0.6261 -0.5607 -0.1860
 2974SOL    HW120384   0.340   4.428   8.710 -0.8458 -1.5770 -1.3570
 2974SOL    HW220385   0.396   4.301   8.771  2.2761  0.8038  2.4286
 2975SOL     OW20386   0.175   4.508  15.494  0.4078 -0.0759 -0.1856
 2975SOL    HW120387   0.190   4.505  15.400  1.9843 -0.3459  0.0724
 2975SOL    HW220388   0.256   4.553  15.518  0.0320 -0.6846  2.3137
 2976SOL     OW20389   0.429   1.454   7.447  0.0941  0.5766  0.3514
 2976SOL    HW120390   0.506   1.399   7.432  0.5374  0.9913  1.1365
 2976SOL    HW220391   0.471   1.521   7.501 -1.2403  0.3637  1.6554
 2977SOL     OW20392   2.894   4.107   8.326  0.0386 -0.0164 -0.1042
 2977SOL    HW120393   2.829   4.171   8.298 -1.1326 -1.3788 -0.4805
 2977SOL    HW220394   2.961   4.106   8.258  2.1546  1.3953  1.9554
 2978SOL     OW20395   3.931   3.929   5.555  0.0710 -0.3887 -0.7658
 2978SOL    HW120396   3.956   3.990   5.625 -2.6121 -0.2034  0.0357
 2978SOL    HW220397   3.900   3.984   5.483 -0.6893 -1.9340 -1.6139
 2979SOL     OW20398   0.100   3.978  17.475  0.3157  0.0943 -0.3693
 2979SOL    HW120399   0.155   4.056  17.468 -2.7475  2.3632  0.7598
 2979SOL    HW220400   0.129   3.930  17.552  2.2009  0.5934 -0.7649
 2980SOL     OW20401   2.509   1.183   8.852  0.3349  0.9691 -0.0865
 2980SOL    HW120402   2.518   1.146   8.764  0.0848 -0.5821  0.5262
 2980SOL    HW220403   2.420   1.150   8.864  0.6916  0.1306  0.2945
 2981SOL     OW20404   3.107   3.551   7.775 -0.4243 -0.2548  0.2131
 2981SOL    HW120405   3.067   3.532   7.690 -3.4775  0.5093  1.4950
 2981SOL    HW220406   3.137   3.461   7.788  2.3089  0.2522 -2.6059
 2982SOL     OW20407   0.357   2.163   1.201  0.3280 -0.1556 -0.7728
 2982SOL    HW120408   0.424   2.139   1.136  0.9272  1.0491 -0.5862
 2982SOL    HW220409   0.321   2.075   1.214 -0.4891  0.5346  1.6068
 2983SOL     OW20410   1.275   0.871   2.004 -0.0056  0.0954 -0.6323
 2983SOL    HW120411   1.199   0.924   2.025 -1.2227 -1.2456 -1.6675
 2983SOL    HW220412   1.346   0.931   2.026 -0.4750  0.0179  1.0555
 2984SOL     OW20413   4.413   0.985   3.738  0.2685 -0.1694 -0.6973
 2984SOL    HW120414   4.325   0.990   3.701  0.0566 -1.1666 -0.3229
 2984SOL    HW220415   4.442   0.911   3.685 -0.2347  0.5015 -1.9287
 2985SOL     OW20416   2.289   2.130   5.839  0.2557  0.4503 -0.3134
 2985SOL    HW120417   2.334   2.076   5.775 -1.1949 -0.7834 -0.2833
 2985SOL    HW220418   2.259   2.192   5.773 -2.4436 -0.2347  0.2450
 2986SOL     OW20419   2.457   3.779  11.820 -0.2364  0.2031 -0.1179
 2986SOL    HW120420   2.460   3.688  11.789  0.3305  1.0083 -2.4407
 2986SOL    HW220421   2.382   3.817  11.775  0.3767  0.3711 -0.9940
 2987SOL     OW20422   2.732   1.334   1.314 -0.3697  0.1744 -0.2241
 2987SOL    HW120423   2.721   1.429   1.303  2.1310  0.6272  1.0430
 2987SOL    HW220424   2.814   1.318   1.268 -0.8353 -0.5271 -0.8046
 2988SOL     OW20425   3.783   4.249   3.675  0.0193  0.2681 -0.0868
 2988SOL    HW120426   3.807   4.255   3.583  1.6301  2.5168  0.4793
 2988SOL    HW220427   3.727   4.326   3.669 -0.6366  0.0884  3.7611
 2989SOL     OW20428   3.100   4.004  13.114 -0.5703  0.6601 -0.1136
 2989SOL    HW120429   3.030   3.948  13.149 -0.1177  0.9353  1.2211
 2989SOL    HW220430   3.074   4.083  13.162  0.1493 -0.1073  1.5519
 2990SOL     OW20431   3.121   2.676   5.212  0.0953  0.2508  0.1030
 2990SOL    HW120432   3.174   2.690   5.291 -0.6725 -0.7491  0.7988
 2990SOL    HW220433   3.038   2.644   5.248  0.0588  3.1373  2.5958
 2991SOL     OW20434   4.308   4.460   4.948  0.7231 -0.1584  0.2431
 2991SOL    HW120435   4.215   4.480   4.937 -0.2647 -3.9334  1.5527
 2991SOL    HW220436   4.316   4.368   4.922 -3.8126 -0.7679  1.0042
 2992SOL     OW20437   1.000   0.261   0.691  0.3402  0.2437 -0.1942
 2992SOL    HW120438   0.962   0.349   0.691 -1.9152 -0.7408 -0.3779
 2992SOL    HW220439   1.066   0.262   0.761  2.2309  0.0029 -1.9807
 2993SOL     OW20440   0.981   0.704   8.554 -0.0460 -0.3811  0.6067
 2993SOL    HW120441   1.026   0.770   8.606 -0.3905  0.6516 -0.3956
 2993SOL    HW220442   0.912   0.747   8.505 -0.6189  0.0851  1.8363
 2994SOL     OW20443   2.338   4.296   6.319 -0.4261  0.1458 -0.8907
 2994SOL    HW120444   2.357   4.228   6.255  0.3677 -0.7984  0.3457
 2994SOL    HW220445   2.270   4.340   6.269  0.9059  2.9833 -0.2148
 2995SOL     OW20446   2.615   4.225   8.722  0.5972  0.0316 -0.1637
 2995SOL    HW120447   2.672   4.150   8.740  3.0107  1.3558 -2.1896
 2995SOL    HW220448   2.543   4.177   8.683 -1.0691  0.8951  1.8477
 2996SOL     OW20449   4.269   0.241   5.418  0.3821 -0.0694  0.4031
 2996SOL    HW120450   4.361   0.262   5.432  0.2609  1.2538 -0.8601
 2996SOL    HW220451   4.228   0.313   5.371 -1.3654  0.6660  3.0168
 2997SOL     OW20452   1.825   0.417   5.168 -0.8524  0.7870 -0.3888
 2997SOL    HW120453   1.740   0.456   5.191 -1.0960  0.8447 -1.3960
 2997SOL    HW220454   1.824   0.451   5.079 -0.1186 -1.3458 -1.2033
 2998SOL     OW20455   3.390   2.872   9.185 -0.4505 -0.0482  0.6239
 2998SOL    HW120456   3.303   2.837   9.167 -0.4147 -1.1445  2.5741
 2998SOL    HW220457   3.379   2.960   9.151 -0.0098 -0.7232 -1.2839
 2999SOL     OW20458   2.438   2.099  14.419  0.4127  0.1316  0.3540
 2999SOL    HW120459   2.513   2.054  14.381  0.2507 -1.3871  1.8577
 2999SOL    HW220460   2.376   2.097  14.346  2.9302 -5.1909 -1.6381
 3000SOL     OW20461   2.251   1.031  16.127  0.0680 -0.2944  0.4175
 3000SOL    HW120462   2.298   1.036  16.044 -0.9088 -0.1302 -0.1245
 3000SOL    HW220463   2.326   1.051  16.184 -0.4839  0.5481  0.8477
 3001SOL     OW20464   3.347   2.648   6.746  0.2085  0.1384  0.2483
 3001SOL    HW120465   3.385   2.663   6.659 -0.0348 -0.0808  0.1022
 3001SOL    HW220466   3.421   2.613   6.796 -0.0778 -1.1336 -0.2193
 3002SOL     OW20467   4.533   2.744   4.964 -0.1709 -0.0183  0.1720
 3002SOL    HW120468   4.467   2.696   4.913  1.4600 -0.8328 -1.2059
 3002SOL    HW220469   4.511   2.834   4.939 -0.8589 -0.4406 -0.7302
 3003SOL     OW20470   1.059   4.485   4.171 -0.5693 -0.5656 -0.0882
 3003SOL    HW120471   1.075   4.578   4.156 -0.5052 -0.2880  1.6861
 3003SOL    HW220472   0.978   4.489   4.222 -0.3366  0.7935  0.1669
 3004SOL     OW20473   4.619   4.673  13.321 -0.2827 -0.0658 -0.4633
 3004SOL    HW120474   4.684   4.718  13.376 -4.3657  2.4224  2.3693
 3004SOL    HW220475   4.552   4.681  13.389  1.1091 -0.7660  0.9951
 3005SOL     OW20476   2.808   3.936  12.540  0.0975 -0.2065 -0.1937
 3005SOL    HW120477   2.856   3.983  12.473  0.5967  1.1975  1.1355
 3005SOL    HW220478   2.875   3.914  12.605 -0.1459 -1.2915 -0.3142
 3006SOL     OW20479   1.513   0.664  13.429  0.1440 -0.5949 -0.1444
 3006SOL    HW120480   1.540   0.576  13.404  2.3400  0.3366 -1.0034
 3006SOL    HW220481   1.597   0.689  13.468 -1.4037  1.1696  2.0606
 3007SOL     OW20482   3.228   2.590   7.019  0.5296 -0.3751 -0.4190
 3007SOL    HW120483   3.307   2.639   6.994  1.0371 -0.3845  1.1583
 3007SOL    HW220484   3.233   2.522   6.951 -0.0102 -1.0901  0.2579
 3008SOL     OW20485   2.850   0.159   9.667  0.1547  0.0187  0.1545
 3008SOL    HW120486   2.882   0.220   9.601 -0.0632  1.6778  1.5812
 3008SOL    HW220487   2.917   0.169   9.735 -0.4792  0.5796  0.7033
 3009SOL     OW20488   0.905   1.629   8.707 -0.4836 -0.5263 -0.7686
 3009SOL    HW120489   0.840   1.584   8.761  0.5773 -1.1866 -0.0298
 3009SOL    HW220490   0.919   1.561   8.641 -0.0792 -0.6244 -0.5858
 3010SOL     OW20491   3.754   1.377   8.694  0.2929  0.4082 -0.4436
 3010SOL    HW120492   3.731   1.312   8.760 -1.9578  1.3513 -0.2953
 3010SOL    HW220493   3.738   1.454   8.749  1.4241  1.5688 -1.6995
 3011SOL     OW20494   1.038   2.036   7.821  0.2362  0.0774  0.5377
 3011SOL    HW120495   1.063   2.116   7.868 -1.3442  1.4796 -1.0189
 3011SOL    HW220496   1.111   2.044   7.759  2.3608 -2.6514  2.6855
 3012SOL     OW20497   3.696   1.991  15.071 -0.3494  0.0778 -0.5558
 3012SOL    HW120498   3.721   2.037  15.151 -0.9936  0.6195 -0.6625
 3012SOL    HW220499   3.601   2.005  15.075 -0.7449 -2.8757  0.4780
 3013SOL     OW20500   2.997   3.366  10.472  0.7770 -0.1535 -0.2066
 3013SOL    HW120501   2.967   3.426  10.540  0.0434 -1.3245  0.5058
 3013SOL    HW220502   2.943   3.384  10.395  1.3440 -0.9571 -0.7868
 3014SOL     OW20503   4.445   4.598   5.981  0.1961  0.5866  0.1611
 3014SOL    HW120504   4.403   4.683   5.967 -1.3715  0.0058  1.2861
 3014SOL    HW220505   4.533   4.622   6.008  0.0635  1.9509 -0.6085
 3015SOL     OW20506   3.970   0.120   2.497  0.3941  0.1159 -0.1986
 3015SOL    HW120507   3.912   0.195   2.484 -1.9689 -1.5069  0.9982
 3015SOL    HW220508   4.051   0.146   2.453 -0.7288  0.8047 -1.8489
 3016SOL     OW20509   0.154   1.147   3.603  0.0101  0.2831 -0.8428
 3016SOL    HW120510   0.125   1.074   3.549  0.9699  0.2316 -1.2958
 3016SOL    HW220511   0.093   1.141   3.677  0.8037  2.0243 -0.0361
 3017SOL     OW20512   2.230   2.190  15.702  0.2103 -0.1586 -0.6943
 3017SOL    HW120513   2.211   2.282  15.716 -0.1072 -0.3080 -0.1491
 3017SOL    HW220514   2.309   2.185  15.756  0.8249  0.6664 -1.5232
 3018SOL     OW20515   2.653   3.963  11.521 -0.3832  0.0778  0.3994
 3018SOL    HW120516   2.579   3.946  11.463  0.9618  1.2253 -1.6820
 3018SOL    HW220517   2.692   3.877  11.535 -1.0542 -0.3786 -0.5813
 3019SOL     OW20518   2.652   4.497  13.509 -0.1960  0.3991  0.1574
 3019SOL    HW120519   2.679   4.581  13.545 -2.1369  1.9567 -2.0314
 3019SOL    HW220520   2.646   4.439  13.585  0.4607 -0.4918 -0.4716
 3020SOL     OW20521   0.919   4.251   8.857 -0.1653  0.1049 -0.4511
 3020SOL    HW120522   0.838   4.219   8.896 -0.4687  0.8810 -0.4379
 3020SOL    HW220523   0.876   4.315   8.799  1.3699  1.6442  0.1094
 3021SOL     OW20524   2.619   2.906   7.148 -0.8018 -0.4317 -0.6017
 3021SOL    HW120525   2.702   2.889   7.103 -1.1686 -0.6913 -1.1759
 3021SOL    HW220526   2.615   2.830   7.206  1.8312  0.4394  0.7304
 3022SOL     OW20527   0.288   0.676  10.126  0.0901 -0.1260  0.3450
 3022SOL    HW120528   0.245   0.694  10.210 -1.8457  0.7261 -0.8275
 3022SOL    HW220529   0.297   0.581  10.125 -0.6173 -0.1452 -2.1107
 3023SOL     OW20530   1.513   0.091   5.754  0.5726 -0.1200 -0.1411
 3023SOL    HW120531   1.533   0.035   5.679  1.6441 -0.0922  0.1144
 3023SOL    HW220532   1.521   0.025   5.823  0.2108  1.1424  1.1073
 3024SOL     OW20533   1.109   0.561   6.585  0.0550  0.2156 -0.1580
 3024SOL    HW120534   1.148   0.632   6.534  0.6806  1.2009  1.6689
 3024SOL    HW220535   1.023   0.597   6.609 -0.1179 -1.0571  1.1003
 3025SOL     OW20536   0.336   4.229   4.842 -0.0747  0.3361  0.6036
 3025SOL    HW120537   0.311   4.321   4.840 -0.8301  0.0950 -0.9654
 3025SOL    HW220538   0.252   4.199   4.878 -0.2300 -1.0066 -0.8702
 3026SOL     OW20539   1.611   2.011   6.265 -0.1195 -0.2022  0.0206
 3026SOL    HW120540   1.693   2.060   6.258 -0.0945 -0.2855 -0.3113
 3026SOL    HW220541   1.630   1.970   6.180 -1.4180 -1.9466  0.5579
 3027SOL     OW20542   1.643   0.398  17.107  0.0410 -0.3440 -0.1596
 3027SOL    HW120543   1.615   0.348  17.184 -0.4613 -0.2999 -0.3119
 3027SOL    HW220544   1.720   0.442  17.142  1.1947 -2.8055  0.3793
 3028SOL     OW20545   0.623   1.199  12.051  0.0894 -0.8175  0.0484
 3028SOL    HW120546   0.527   1.201  12.058  0.0853 -2.6054  0.4798
 3028SOL    HW220547   0.639   1.132  12.117 -1.3126  0.1531  1.3647
 3029SOL     OW20548   4.614   1.997   0.749  0.2204 -0.6396 -0.3478
 3029SOL    HW120549   4.663   2.072   0.716 -0.2015 -0.5833 -0.8436
 3029SOL    HW220550   4.642   2.002   0.840 -1.2334  0.9058  0.0035
 3030SOL     OW20551   1.644   1.418   0.968 -0.1205 -0.1646  0.0804
 3030SOL    HW120552   1.706   1.447   0.902  0.5900  0.1418  0.8829
 3030SOL    HW220553   1.680   1.467   1.042 -0.0163  1.9666 -1.3920
 3031SOL     OW20554   1.314   2.727   7.566  0.3612 -0.1180  0.4115
 3031SOL    HW120555   1.337   2.635   7.556  0.7276  0.0486 -0.3037
 3031SOL    HW220556   1.272   2.739   7.481  0.7908  0.0901  0.2271
 3032SOL     OW20557   1.354   0.413   7.199 -0.6498  0.1528 -0.1958
 3032SOL    HW120558   1.402   0.489   7.232  2.1350 -2.5792  2.0500
 3032SOL    HW220559   1.377   0.413   7.106 -1.5621 -0.6007 -0.4310
 3033SOL     OW20560   0.590   0.890   6.941  0.3013  0.3260 -0.1493
 3033SOL    HW120561   0.663   0.832   6.919 -1.2517 -2.5809  2.3024
 3033SOL    HW220562   0.532   0.862   6.870  0.5042  0.0536 -0.2055
 3034SOL     OW20563   4.022   0.360   4.843 -0.3971 -0.6320 -0.7214
 3034SOL    HW120564   4.099   0.370   4.787 -0.1332 -3.8828 -0.9663
 3034SOL    HW220565   4.005   0.454   4.848  2.0111 -0.2096 -0.4165
 3035SOL     OW20566   3.927   3.511  16.234  0.3840 -0.5082 -0.1538
 3035SOL    HW120567   3.934   3.498  16.328  3.9969  1.2660 -0.1813
 3035SOL    HW220568   4.008   3.473  16.200 -0.0768 -0.8170 -0.8944
 3036SOL     OW20569   0.148   0.509  11.498 -0.2439 -0.1685  0.2431
 3036SOL    HW120570   0.222   0.563  11.470  0.1310 -0.6114  0.3659
 3036SOL    HW220571   0.087   0.573  11.534 -0.1743  0.3860 -0.6205
 3037SOL     OW20572   2.953   4.507  13.707 -0.4239  0.7449  0.1280
 3037SOL    HW120573   3.010   4.435  13.735 -0.1868  0.5066 -0.9776
 3037SOL    HW220574   2.914   4.538  13.788  1.6719  1.5676  0.8282
 3038SOL     OW20575   2.450   3.519  11.745  0.7712  0.3684 -0.2390
 3038SOL    HW120576   2.389   3.453  11.712 -0.2564  0.7872  0.8143
 3038SOL    HW220577   2.490   3.466  11.815 -0.9403 -0.8327 -0.1698
 3039SOL     OW20578   0.976   4.715  16.011  0.2014 -0.0854 -0.1629
 3039SOL    HW120579   0.956   0.048  16.085  0.4306  1.8444 -1.6245
 3039SOL    HW220580   1.062   4.689  16.042 -0.2187 -0.8681  0.3464
 3040SOL     OW20581   1.661   1.748   4.812 -0.1243 -0.6515  0.1752
 3040SOL    HW120582   1.635   1.795   4.891  1.2556  1.3075 -0.5191
 3040SOL    HW220583   1.584   1.754   4.754 -0.6851  1.0440  1.1048
 3041SOL     OW20584   0.009   3.051   8.697 -0.8749  0.2044 -0.2116
 3041SOL    HW120585   4.718   2.958   8.711  1.5865  0.0200  1.3727
 3041SOL    HW220586   4.654   3.088   8.661 -2.0551 -2.7167 -0.5330
 3042SOL     OW20587   0.758   3.381   5.601 -0.2675 -0.5490  0.1293
 3042SOL    HW120588   0.756   3.460   5.545 -0.0838  1.2877  2.7154
 3042SOL    HW220589   0.833   3.399   5.658  0.5823 -2.7161 -0.3257
 3043SOL     OW20590   4.419   1.364   9.148 -0.6913 -0.2877 -0.1463
 3043SOL    HW120591   4.466   1.286   9.177 -0.0338 -0.1976 -0.9963
 3043SOL    HW220592   4.340   1.328   9.107 -1.8104  1.3866  0.5568
 3044SOL     OW20593   2.314   1.913   3.289 -0.4665  0.6203 -0.4953
 3044SOL    HW120594   2.307   1.825   3.254 -1.6178  0.3757  0.3373
 3044SOL    HW220595   2.350   1.879   3.370  0.1160 -3.2482 -2.4161
 3045SOL     OW20596   0.814   2.260   0.734 -0.4834 -0.2311  0.1315
 3045SOL    HW120597   0.744   2.291   0.676 -2.1812 -0.2658  2.1785
 3045SOL    HW220598   0.762   2.230   0.809  0.6103 -0.8734  0.6201
 3046SOL     OW20599   4.335   1.333   7.605 -0.7344  0.1742 -0.2971
 3046SOL    HW120600   4.341   1.243   7.635  2.2358  0.3235 -0.4926
 3046SOL    HW220601   4.386   1.375   7.674  0.1424  1.6060 -1.8105
 3047SOL     OW20602   4.677   2.261   6.077  0.2845  0.0622 -1.0386
 3047SOL    HW120603   4.671   2.346   6.033  1.2298  0.4752 -0.3633
 3047SOL    HW220604   0.010   2.281   6.150 -1.8597 -0.9635  0.9300
 3048SOL     OW20605   0.290   0.737   7.082 -0.1013 -0.5479 -0.4604
 3048SOL    HW120606   0.376   0.735   7.040  0.4498  0.5227  0.6234
 3048SOL    HW220607   0.250   0.819   7.053 -1.8138 -1.3982 -0.5199
 3049SOL     OW20608   2.476   4.120  10.209 -0.3455  0.1809 -0.4702
 3049SOL    HW120609   2.380   4.120  10.205 -0.4039 -0.5348  1.3115
 3049SOL    HW220610   2.487   4.051  10.274  0.2533 -0.0497 -0.8224
 3050SOL     OW20611   1.175   2.456   6.442  0.0145  0.2932  0.9008
 3050SOL    HW120612   1.269   2.464   6.426  0.0422  0.1538  0.9871
 3050SOL    HW220613   1.147   2.383   6.387  0.8083  0.4905  0.2291
 3051SOL     OW20614   2.783   3.725  14.728 -0.3057 -0.6750  0.3005
 3051SOL    HW120615   2.705   3.694  14.775 -0.1805  0.0419  0.9814
 3051SOL    HW220616   2.777   3.661  14.657 -0.0301  1.3839 -1.5779
 3052SOL     OW20617   3.947   1.259   8.894  0.3080  0.0693  0.3006
 3052SOL    HW120618   3.859   1.222   8.890  0.1146  0.6791 -1.2448
 3052SOL    HW220619   4.001   1.180   8.906  0.1738 -0.1044 -0.2207
 3053SOL     OW20620   2.063   4.662   4.850 -0.0787  0.8680 -0.1286
 3053SOL    HW120621   2.031   4.601   4.916  0.4616  0.2415 -0.4583
 3053SOL    HW220622   2.134   4.691   4.907  0.4404 -1.0222  0.1526
 3054SOL     OW20623   4.070   1.682   7.660 -0.4743 -0.0979  0.1079
 3054SOL    HW120624   4.047   1.591   7.639 -0.1772 -0.2561  0.4813
 3054SOL    HW220625   4.032   1.721   7.581  0.3628 -0.9399 -0.7081
 3055SOL     OW20626   3.257   3.309   7.807  0.0630  0.7588 -0.3091
 3055SOL    HW120627   3.311   3.298   7.729 -2.4523  0.1772 -1.9459
 3055SOL    HW220628   3.310   3.274   7.879  0.4999  1.8149 -0.1092
 3056SOL     OW20629   0.694   0.958   1.297  0.1025  0.5894 -0.1778
 3056SOL    HW120630   0.644   1.036   1.270  2.2485  0.4706 -4.4219
 3056SOL    HW220631   0.776   1.007   1.305  0.5927 -0.4510  0.9619
 3057SOL     OW20632   0.480   4.060  14.136  0.1286 -0.7139  0.2546
 3057SOL    HW120633   0.427   3.990  14.098  0.7345 -1.6476  1.1263
 3057SOL    HW220634   0.461   4.061  14.229 -0.0890  0.9490  0.1957
 3058SOL     OW20635   4.390   2.871   6.070  0.0740 -0.4536  0.6960
 3058SOL    HW120636   4.298   2.882   6.093 -0.6442  0.8302 -2.7257
 3058SOL    HW220637   4.397   2.931   5.996 -0.8098  1.4815  2.1958
 3059SOL     OW20638   4.212   4.651  10.305 -0.0394  0.4293 -0.0236
 3059SOL    HW120639   4.174   4.678  10.389 -0.0010 -1.3355  0.5770
 3059SOL    HW220640   4.281   4.717  10.307  0.1006  0.3076 -1.0811
 3060SOL     OW20641   4.512   3.097  10.598  0.2971 -0.0047 -0.6501
 3060SOL    HW120642   4.465   3.105  10.681 -0.0609 -0.9892 -0.7569
 3060SOL    HW220643   4.557   3.015  10.616  1.3145  0.7717  0.3527
 3061SOL     OW20644   4.002   0.455  14.940  0.1758  0.2437  0.0938
 3061SOL    HW120645   3.941   0.435  15.011  1.7587 -0.4701  1.2558
 3061SOL    HW220646   3.989   0.548  14.921  2.0658  0.8653  1.8454
 3062SOL     OW20647   1.260   1.924   5.534  0.1921 -0.3256 -0.4322
 3062SOL    HW120648   1.334   1.980   5.509  1.8095 -2.8486 -1.2499
 3062SOL    HW220649   1.190   1.989   5.534  0.0718 -0.4628  2.3445
 3063SOL     OW20650   3.691   1.472   4.772 -0.2803  0.4918 -0.3865
 3063SOL    HW120651   3.712   1.380   4.761 -0.9124  0.3183 -0.1877
 3063SOL    HW220652   3.596   1.481   4.758 -0.4832 -3.6091 -1.5044
 3064SOL     OW20653   1.615   2.954   3.358 -0.5936  0.4178 -0.2797
 3064SOL    HW120654   1.619   2.884   3.424 -0.0670  0.8910  0.1860
 3064SOL    HW220655   1.591   2.904   3.280 -0.1323  1.0576 -0.8274
 3065SOL     OW20656   0.868   1.114   5.141 -0.8404  0.2123 -0.1317
 3065SOL    HW120657   0.929   1.052   5.099  0.6648  0.1865  2.1206
 3065SOL    HW220658   0.790   1.111   5.085 -0.8417 -0.6657 -0.0807
 3066SOL     OW20659   4.421   2.596   9.041  0.0652  0.2431 -0.6313
 3066SOL    HW120660   4.513   2.576   9.054 -0.0989  0.8516  1.3783
 3066SOL    HW220661   4.409   2.666   9.105 -1.1422  1.1075 -1.8000
 3067SOL     OW20662   4.117   0.305   5.731 -0.9783 -0.0316  0.5902
 3067SOL    HW120663   4.202   0.299   5.687 -1.3245 -1.9718  0.1944
 3067SOL    HW220664   4.067   0.238   5.684 -0.6671 -1.2285  1.9739
 3068SOL     OW20665   3.880   2.195  17.079 -0.0055  0.0295 -0.0487
 3068SOL    HW120666   3.910   2.277  17.118 -0.2652  0.7583 -1.3507
 3068SOL    HW220667   3.963   2.156  17.054 -1.0586 -2.3612  0.2275
 3069SOL     OW20668   3.999   4.642   6.451  0.0703 -0.0114  0.1673
 3069SOL    HW120669   3.997   4.650   6.356 -0.6002 -1.5376  0.0581
 3069SOL    HW220670   4.059   4.710   6.480  1.5891 -0.8075 -1.0665
 3070SOL     OW20671   0.342   0.425   9.669  0.7707  0.1991  0.4572
 3070SOL    HW120672   0.381   0.490   9.728 -0.2844  0.7483  0.5517
 3070SOL    HW220673   0.251   0.447   9.689  0.0543 -0.6946 -1.8467
 3071SOL     OW20674   4.405   0.075  11.430  0.6347 -0.1057 -0.1347
 3071SOL    HW120675   4.463   0.088  11.505  0.3329 -0.3205  0.1314
 3071SOL    HW220676   4.341   0.146  11.434 -0.3417 -1.1129  1.8657
 3072SOL     OW20677   0.744   0.257   5.079  0.2124  0.2888 -0.2966
 3072SOL    HW120678   0.818   0.247   5.018  0.5878 -0.1231  0.2297
 3072SOL    HW220679   0.787   0.323   5.133  0.4643  0.5127 -0.7720
 3073SOL     OW20680   2.297   0.029   3.317  0.2527 -0.1261  0.5651
 3073SOL    HW120681   2.356   4.684   3.288  1.8299  1.5297 -0.2600
 3073SOL    HW220682   2.354   0.087   3.368  0.6362  1.2598 -1.4097
 3074SOL     OW20683   4.651   0.442   0.777  0.8668 -0.0425 -0.1208
 3074SOL    HW120684   4.660   0.432   0.871  2.2202 -0.2606 -0.2781
 3074SOL    HW220685   4.708   0.372   0.745 -0.0883 -0.5373 -0.7561
 3075SOL     OW20686   2.477   0.036   1.388 -0.4594  0.3903  0.4446
 3075SOL    HW120687   2.473   0.036   1.484  0.0031 -2.2655  0.4775
 3075SOL    HW220688   2.383   0.042   1.369 -0.5406  1.9821  1.3711
 3076SOL     OW20689   2.376   3.062   2.391  0.1969  0.2183 -0.0557
 3076SOL    HW120690   2.281   3.067   2.383  0.1301 -1.4249 -0.2468
 3076SOL    HW220691   2.381   3.061   2.487 -2.7551 -0.9518  0.0804
 3077SOL     OW20692   4.093   2.105  11.141  0.2622 -0.3316  0.1036
 3077SOL    HW120693   4.045   2.083  11.062  2.1142  0.7409 -1.3349
 3077SOL    HW220694   4.053   2.190  11.161  1.7923  0.1335  1.2548
 3078SOL     OW20695   1.363   4.288  13.175  0.8788 -0.0365  0.3706
 3078SOL    HW120696   1.377   4.383  13.174  0.2487  0.0310 -2.9732
 3078SOL    HW220697   1.299   4.275  13.105  2.0687  0.5887 -0.8387
 3079SOL     OW20698   3.523   2.703   7.675 -1.1872  0.5924 -0.5714
 3079SOL    HW120699   3.558   2.618   7.646 -0.0956  0.7560  0.2691
 3079SOL    HW220700   3.488   2.677   7.760  1.7272 -0.1230  0.3977
 3080SOL     OW20701   3.157   1.110  17.672  0.0602  0.4842 -0.0427
 3080SOL    HW120702   3.068   1.121  17.640  0.9871  1.9301 -2.1845
 3080SOL    HW220703   3.140   1.021   0.000 -2.2540  0.6775 -0.7817
 3081SOL     OW20704   2.758   1.369   2.748  0.8038 -0.8576  0.0665
 3081SOL    HW120705   2.716   1.441   2.701  0.3864 -1.1400  0.0116
 3081SOL    HW220706   2.801   1.335   2.670 -0.9238 -1.8495 -0.4489
 3082SOL     OW20707   0.792   2.919   4.140 -0.1700  0.3420  0.4768
 3082SOL    HW120708   0.847   2.940   4.065 -1.0267 -2.6864 -1.0291
 3082SOL    HW220709   0.716   2.963   4.102  1.8374  3.4163  0.0489
 3083SOL     OW20710   1.426   4.215   7.350  0.0886  0.0009 -0.5613
 3083SOL    HW120711   1.468   4.214   7.264  1.4625  0.2340  0.1136
 3083SOL    HW220712   1.409   4.309   7.356 -1.8826 -0.3852  0.1037
 3084SOL     OW20713   3.872   2.027   0.778  0.5211 -0.6485  0.3510
 3084SOL    HW120714   3.878   2.122   0.764 -1.9890 -0.9796 -2.7789
 3084SOL    HW220715   3.914   2.032   0.864 -0.5444 -1.7742  0.9225
 3085SOL     OW20716   0.499   3.714   6.754  0.4296 -0.2789  0.2367
 3085SOL    HW120717   0.486   3.807   6.733  1.4016 -0.1088  0.3903
 3085SOL    HW220718   0.594   3.711   6.767  0.5003 -2.4050 -0.8108
 3086SOL     OW20719   0.681   2.421   4.779  0.0323  0.2357 -0.4249
 3086SOL    HW120720   0.743   2.440   4.849 -1.7834 -1.5853  1.6443
 3086SOL    HW220721   0.748   2.395   4.715  0.4246 -1.4299  0.6677
 3087SOL     OW20722   3.133   2.567   7.271  0.9296  0.2405 -0.0836
 3087SOL    HW120723   3.184   2.575   7.190  0.4275 -0.8225 -0.5041
 3087SOL    HW220724   3.050   2.541   7.230 -0.7077  3.6389  1.0130
 3088SOL     OW20725   1.712   1.859   8.718  0.5280 -0.3429 -0.2888
 3088SOL    HW120726   1.752   1.844   8.632  1.0416  0.5305 -0.1940
 3088SOL    HW220727   1.664   1.941   8.712  1.2467  0.1391  0.5887
 3089SOL     OW20728   1.239   3.338   5.381  0.5237 -0.3177  0.3162
 3089SOL    HW120729   1.317   3.342   5.436 -1.0492 -0.1342  2.5432
 3089SOL    HW220730   1.185   3.398   5.432  0.1345 -0.5720  0.2068
 3090SOL     OW20731   3.859   2.053  13.551 -0.2340  0.2874 -0.5537
 3090SOL    HW120732   3.842   2.049  13.645  1.9731 -1.4335 -0.2199
 3090SOL    HW220733   3.905   1.969  13.543  0.1525  0.3733  0.8900
 3091SOL     OW20734   1.840   3.042   6.327  0.2799 -0.1755 -0.2201
 3091SOL    HW120735   1.843   2.969   6.265  2.0957 -0.6608  0.4441
 3091SOL    HW220736   1.822   3.111   6.263 -1.6157 -0.4536  0.0070
 3092SOL     OW20737   3.562   1.034   3.299  0.0659  0.2596 -0.4217
 3092SOL    HW120738   3.473   1.057   3.326  0.4397 -1.8005  2.6174
 3092SOL    HW220739   3.563   1.083   3.217 -0.3749 -0.2373 -0.7324
 3093SOL     OW20740   3.810   2.932   4.027 -0.6847  0.2080 -0.4124
 3093SOL    HW120741   3.893   2.956   3.986 -0.9502  1.5679 -0.1525
 3093SOL    HW220742   3.833   2.843   4.055 -0.5927  0.0974 -0.8419
 3094SOL     OW20743   1.874   1.410   3.721 -0.0279 -0.1798 -0.0201
 3094SOL    HW120744   1.942   1.344   3.737  0.5630  0.8247  1.6751
 3094SOL    HW220745   1.805   1.370   3.774 -0.7154  0.9630 -0.0570
 3095SOL     OW20746   2.667   0.181   2.396  0.3355  0.4563  0.0265
 3095SOL    HW120747   2.743   0.136   2.357  0.6017 -1.1164  2.3177
 3095SOL    HW220748   2.692   0.195   2.488 -1.4945 -0.4006  0.6653
 3096SOL     OW20749   2.632   3.319   4.819 -0.2987 -0.4691 -0.6689
 3096SOL    HW120750   2.682   3.259   4.875  1.3897  0.2639 -1.3651
 3096SOL    HW220751   2.690   3.394   4.805 -2.8335  1.5928 -0.0791
 3097SOL     OW20752   3.742   3.216  13.953 -0.6560 -0.1150  0.1011
 3097SOL    HW120753   3.786   3.301  13.962 -1.6873  0.5352 -1.0140
 3097SOL    HW220754   3.792   3.181  13.880 -0.3384  0.4211  0.0580
 3098SOL     OW20755   1.797   1.394   2.992  0.4702  0.1790 -0.1221
 3098SOL    HW120756   1.771   1.395   2.900 -1.0941 -0.0499  0.3218
 3098SOL    HW220757   1.878   1.343   2.990  1.9170  2.5848 -2.5388
 3099SOL     OW20758   1.691   1.845   6.966 -0.1613  0.0358  0.6110
 3099SOL    HW120759   1.676   1.912   7.034  0.4837  0.3904  0.4040
 3099SOL    HW220760   1.757   1.899   6.922 -1.3357  2.1091  1.3651
 3100SOL     OW20761   0.859   0.807  10.941  0.1025 -0.2846  0.3218
 3100SOL    HW120762   0.798   0.880  10.951  0.6458 -0.2755  3.6664
 3100SOL    HW220763   0.940   0.857  10.942 -0.6376  0.8872  2.0101
 3101SOL     OW20764   1.655   3.494   3.213  0.3149  0.1486  0.5957
 3101SOL    HW120765   1.581   3.435   3.205  1.5802 -1.5042  1.0245
 3101SOL    HW220766   1.732   3.437   3.208  1.7634  2.0227  1.8091
 3102SOL     OW20767   1.403   0.537   4.626 -0.2104 -0.0540 -0.6088
 3102SOL    HW120768   1.434   0.454   4.663 -0.4835  0.9577  1.9114
 3102SOL    HW220769   1.367   0.511   4.541 -1.1982 -2.5685  0.5563
 3103SOL     OW20770   0.239   3.117  16.801 -0.1508 -0.2150  0.1101
 3103SOL    HW120771   0.268   3.167  16.878 -2.3832  0.9082  0.2094
 3103SOL    HW220772   0.237   3.032  16.844 -2.2187 -0.8321 -1.2093
 3104SOL     OW20773   1.797   2.523   5.136  0.2218  0.5074  0.1286
 3104SOL    HW120774   1.830   2.502   5.223 -1.1293  3.9764  1.4935
 3104SOL    HW220775   1.722   2.575   5.164 -0.3271  0.2817 -0.9108
 3105SOL     OW20776   1.806   2.720   8.679  0.0995  0.1761 -0.4310
 3105SOL    HW120777   1.712   2.709   8.696  0.0141 -0.0458 -1.0343
 3105SOL    HW220778   1.839   2.634   8.706 -1.3574 -0.1773  0.2254
 3106SOL     OW20779   2.313   3.336  17.383 -0.2486  0.6099 -0.6196
 3106SOL    HW120780   2.264   3.260  17.349  1.0576 -0.6822  0.4258
 3106SOL    HW220781   2.252   3.408  17.397  0.1372  0.8662 -0.2675
 3107SOL     OW20782   1.690   1.773   2.501 -0.0200  0.2189 -0.0143
 3107SOL    HW120783   1.682   1.866   2.483 -1.8690  0.2495  0.9084
 3107SOL    HW220784   1.713   1.767   2.593  2.0638  1.4781 -0.4609
 3108SOL     OW20785   3.038   1.909   4.230  0.4531 -0.3816  0.0810
 3108SOL    HW120786   2.983   1.919   4.153 -2.1508 -0.2645  1.9538
 3108SOL    HW220787   3.119   1.952   4.203 -0.5322  1.6745  0.4257
 3109SOL     OW20788   2.256   1.040   8.850  0.5090  0.3390  0.1453
 3109SOL    HW120789   2.193   0.972   8.830  0.5174  1.4444 -3.6107
 3109SOL    HW220790   2.312   0.991   8.912  0.6602  0.3655  0.0304
 3110SOL     OW20791   4.028   3.269   9.706  0.4685 -0.2085 -0.5968
 3110SOL    HW120792   3.943   3.285   9.747  0.5473  0.3731 -0.6639
 3110SOL    HW220793   4.080   3.342   9.740  1.5840 -0.4780 -1.7289
 3111SOL     OW20794   3.308   1.849  11.168 -0.3400  0.1841  0.2255
 3111SOL    HW120795   3.314   1.760  11.203 -1.5738 -0.5166 -1.3809
 3111SOL    HW220796   3.225   1.839  11.123  1.4354  1.4891 -3.3327
 3112SOL     OW20797   4.714   3.963   3.758 -0.1333  0.2166 -0.4114
 3112SOL    HW120798   4.682   3.912   3.685 -0.5403  0.4903 -0.4218
 3112SOL    HW220799   4.636   3.961   3.814  1.1225 -0.3445  1.3485
 3113SOL     OW20800   0.819   0.059   5.418  0.1175 -0.4566  1.0459
 3113SOL    HW120801   0.890   0.118   5.394 -1.9728  2.5354  2.2768
 3113SOL    HW220802   0.831   4.701   5.372  0.4447 -0.6919  1.5502
 3114SOL     OW20803   4.464   2.206   1.503  0.2794  0.2908 -0.1643
 3114SOL    HW120804   4.373   2.204   1.474 -0.1732 -0.9313  1.3190
 3114SOL    HW220805   4.455   2.151   1.581 -0.1558  1.1166  0.3682
 3115SOL     OW20806   0.872   2.207  13.241 -0.0140 -0.1920 -0.6347
 3115SOL    HW120807   0.833   2.169  13.162 -1.6159  0.3457 -0.1062
 3115SOL    HW220808   0.865   2.302  13.230  1.6484  0.0347  0.3406
 3116SOL     OW20809   0.401   0.338   2.835  0.3678 -0.4928 -0.2699
 3116SOL    HW120810   0.356   0.262   2.798  0.6750 -0.4680 -0.6978
 3116SOL    HW220811   0.463   0.359   2.765 -0.5455 -0.8754 -1.1957
 3117SOL     OW20812   4.450   0.378   3.272  0.1116  0.2929  0.0909
 3117SOL    HW120813   4.445   0.450   3.209 -2.1867 -0.4699 -0.5784
 3117SOL    HW220814   4.476   0.303   3.220  0.8356 -0.0001  0.8720
 3118SOL     OW20815   0.882   1.209  15.523  0.0003  0.3043 -0.7782
 3118SOL    HW120816   0.882   1.255  15.439  1.4743 -3.0463 -2.6004
 3118SOL    HW220817   0.848   1.268  15.591 -0.7119  1.2486 -1.9539
 3119SOL     OW20818   4.260   4.400   6.035 -0.5725 -0.2873  0.1905
 3119SOL    HW120819   4.338   4.450   6.014 -0.6662 -0.6689 -1.1182
 3119SOL    HW220820   4.260   4.412   6.130  1.1316 -0.4323  0.2048
 3120SOL     OW20821   0.132   0.607   5.939 -0.5707  0.4723 -0.0085
 3120SOL    HW120822   0.162   0.682   5.888  2.3778 -1.2091 -0.7954
 3120SOL    HW220823   0.132   0.635   6.031 -2.1323 -0.0459  0.1530
 3121SOL     OW20824   2.339   1.212   2.374 -0.5572  0.9525  0.6281
 3121SOL    HW120825   2.335   1.190   2.467  0.2955  1.6211  0.8244
 3121SOL    HW220826   2.262   1.162   2.347  0.6112 -0.2302 -0.4733
 3122SOL     OW20827   3.641   1.272   8.272 -0.0092 -0.3502  0.3960
 3122SOL    HW120828   3.591   1.308   8.346  1.2141  2.5412 -0.2079
 3122SOL    HW220829   3.608   1.320   8.197  0.6919  1.4613  1.2299
 3123SOL     OW20830   3.980   2.374  17.464 -0.2107 -0.3780 -0.1102
 3123SOL    HW120831   4.065   2.377  17.422 -1.2486 -2.7445 -2.3768
 3123SOL    HW220832   3.916   2.391  17.395  0.8573  2.2144 -0.4246
 3124SOL     OW20833   2.928   1.259   0.408 -0.6058  0.0724  0.2051
 3124SOL    HW120834   2.853   1.253   0.466  0.0908 -1.5393  0.9410
 3124SOL    HW220835   2.909   1.342   0.365 -3.4274 -0.8622 -0.3239
 3125SOL     OW20836   2.577   0.487   5.325 -0.1245  0.3643  0.5900
 3125SOL    HW120837   2.573   0.465   5.232  0.8683 -0.4790  0.7360
 3125SOL    HW220838   2.561   0.581   5.320  2.7848  0.9774  2.7258
 3126SOL     OW20839   4.143   2.072   5.632  0.0090 -0.1173  0.0153
 3126SOL    HW120840   4.098   2.020   5.699  0.9957  0.0096  0.7869
 3126SOL    HW220841   4.232   2.066   5.667 -0.3154  3.2382  1.4915
 3127SOL     OW20842   0.692   1.479   8.792 -0.8194  0.8273 -0.0927
 3127SOL    HW120843   0.707   1.444   8.880 -2.2312  1.8564  0.5607
 3127SOL    HW220844   0.597   1.469   8.787 -0.8658  1.4806 -0.5421
 3128SOL     OW20845   2.441   4.318  15.442 -0.3010 -0.0778  0.9319
 3128SOL    HW120846   2.381   4.291  15.512  1.0771 -2.4215  1.2105
 3128SOL    HW220847   2.518   4.263  15.452  0.5652  0.6253 -1.8153
 3129SOL     OW20848   3.813   2.808   5.538  0.3481  0.1078  0.0563
 3129SOL    HW120849   3.858   2.738   5.491 -0.9272 -0.4220 -0.3637
 3129SOL    HW220850   3.884   2.872   5.547  0.1531  0.4276 -0.6785
 3130SOL     OW20851   0.943   3.509   3.601 -0.0321  0.3538  0.3018
 3130SOL    HW120852   0.917   3.428   3.556  1.4192  0.2980 -0.4595
 3130SOL    HW220853   1.033   3.519   3.570  0.0442  1.6178  0.9635
 3131SOL     OW20854   3.807   4.339   6.745 -0.1247 -0.1699  0.1383
 3131SOL    HW120855   3.894   4.380   6.757  0.6785 -1.5378 -1.1386
 3131SOL    HW220856   3.818   4.249   6.774 -2.3452 -0.8008 -1.0301
 3132SOL     OW20857   1.443   4.125   3.732 -0.4269 -0.0399 -0.5917
 3132SOL    HW120858   1.359   4.087   3.757  0.3971 -1.4763 -0.0225
 3132SOL    HW220859   1.489   4.138   3.814 -0.8916 -1.8162 -0.0559
 3133SOL     OW20860   1.529   2.921   6.801  0.1283 -0.0750  0.2151
 3133SOL    HW120861   1.570   2.850   6.851  0.3976  0.1497  0.3094
 3133SOL    HW220862   1.483   2.969   6.869  0.3980  1.3121 -0.5774
 3134SOL     OW20863   2.328   2.816   6.543 -0.1166  0.8890 -0.1464
 3134SOL    HW120864   2.387   2.822   6.618  1.0261  1.8501 -1.1217
 3134SOL    HW220865   2.390   2.820   6.470  0.6255 -2.4603  0.2918
 3135SOL     OW20866   2.434   3.811   8.327 -0.1343 -0.2017  0.9524
 3135SOL    HW120867   2.520   3.780   8.355 -0.4020 -0.9574  0.9385
 3135SOL    HW220868   2.377   3.791   8.401  0.1430 -0.2749  1.1451
 3136SOL     OW20869   0.538   3.629   9.362 -0.1407 -0.1566 -0.5961
 3136SOL    HW120870   0.502   3.695   9.422 -1.3515 -0.5939 -0.8390
 3136SOL    HW220871   0.516   3.552   9.416 -0.9986  1.1054  0.8796
 3137SOL     OW20872   1.255   1.132   8.867  0.3499 -0.2734 -0.0079
 3137SOL    HW120873   1.253   1.101   8.958  1.5181 -0.3084 -0.0024
 3137SOL    HW220874   1.233   1.222   8.892  1.4869 -0.0914  0.3123
 3138SOL     OW20875   3.287   4.630   4.964  0.6819  0.3307 -0.1781
 3138SOL    HW120876   3.342   4.708   4.974  1.1740  0.3314 -3.0094
 3138SOL    HW220877   3.347   4.560   4.938 -1.6927 -0.7871 -2.5778
 3139SOL     OW20878   4.681   1.079   3.198 -0.4045  0.6558  0.0615
 3139SOL    HW120879   0.002   1.022   3.259  1.8596  2.8793  0.4074
 3139SOL    HW220880   4.722   1.056   3.115 -0.4547 -0.6264  0.3975
 3140SOL     OW20881   4.183   3.391   7.406 -0.6383 -0.6268 -0.2548
 3140SOL    HW120882   4.091   3.412   7.394 -0.5664 -1.1977 -1.8216
 3140SOL    HW220883   4.201   3.442   7.485 -0.1029 -1.6611  0.2981
 3141SOL     OW20884   0.055   1.679  10.111  0.0230 -0.3446 -0.5854
 3141SOL    HW120885   4.704   1.717  10.066 -0.8848 -0.8623  0.5298
 3141SOL    HW220886   0.119   1.673  10.040 -0.0716  2.6777 -0.9231
 3142SOL     OW20887   2.276   0.618  10.941  0.4526  0.6456 -0.6536
 3142SOL    HW120888   2.334   0.637  10.867  0.7780 -1.4685 -0.9471
 3142SOL    HW220889   2.338   0.646  11.008  0.0339 -0.1818  0.0841
 3143SOL     OW20890   4.446   3.724   8.263 -0.4573  0.2905 -0.2452
 3143SOL    HW120891   4.496   3.655   8.221 -0.0877  0.6906 -0.4605
 3143SOL    HW220892   4.485   3.803   8.225  0.7876 -0.8263 -1.2612
 3144SOL     OW20893   4.245   2.720   1.370 -0.3942 -0.3874  0.5023
 3144SOL    HW120894   4.312   2.777   1.409 -3.4757  1.8807  2.3873
 3144SOL    HW220895   4.300   2.669   1.310  0.8282  0.5987  0.7775
 3145SOL     OW20896   3.161   2.390   3.437 -0.0831 -0.1766 -0.2095
 3145SOL    HW120897   3.192   2.402   3.347  0.4121 -1.2748 -0.1797
 3145SOL    HW220898   3.227   2.328   3.467  0.2845  0.0303 -0.5985
 3146SOL     OW20899   4.205   1.636  11.463  0.1634 -0.2108  0.0226
 3146SOL    HW120900   4.201   1.723  11.424  0.7734  0.6896  1.9910
 3146SOL    HW220901   4.164   1.587  11.391 -1.7251  0.2617  0.7749
 3147SOL     OW20902   2.305   0.172   0.568  0.2740  0.8138 -0.2954
 3147SOL    HW120903   2.359   0.095   0.553 -0.4942 -0.0103  1.1393
 3147SOL    HW220904   2.365   0.236   0.606 -0.7655  0.6864  1.5895
 3148SOL     OW20905   1.112   4.043  12.089  0.2459 -0.5805  0.2552
 3148SOL    HW120906   1.174   4.047  12.016  0.0391 -2.0046  0.0085
 3148SOL    HW220907   1.112   4.133  12.120  1.2445 -0.9284  1.2674
 3149SOL     OW20908   0.473   4.452   3.620  0.0102 -0.7110 -0.0204
 3149SOL    HW120909   0.559   4.486   3.642 -1.7450  0.8652  4.4127
 3149SOL    HW220910   0.425   4.530   3.594 -0.6828 -1.4700 -1.0165
 3150SOL     OW20911   1.098   0.444   8.893 -0.4445  0.0093  0.1160
 3150SOL    HW120912   1.130   0.445   8.803  0.9913  2.2444  0.6390
 3150SOL    HW220913   1.161   0.388   8.939  1.1474  2.8394  1.3704
 3151SOL     OW20914   3.822   1.665   2.460 -0.1853  0.7416 -0.5325
 3151SOL    HW120915   3.813   1.758   2.438 -1.1551  1.1131  1.4264
 3151SOL    HW220916   3.749   1.667   2.521 -1.3370 -2.7964 -1.8406
 3152SOL     OW20917   3.691   2.364  13.587 -1.0285 -0.1060 -0.2042
 3152SOL    HW120918   3.759   2.346  13.522  1.6636  0.6077  2.4186
 3152SOL    HW220919   3.637   2.433  13.549  0.0172  0.2710 -1.0252
 3153SOL     OW20920   0.978   2.297   4.396 -0.2143  0.7364  0.3009
 3153SOL    HW120921   0.962   2.361   4.326 -1.0339  1.8436  1.4878
 3153SOL    HW220922   1.062   2.264   4.366 -0.3825 -0.7011  1.4304
 3154SOL     OW20923   2.410   4.094   7.619  0.4372  0.0676 -0.3367
 3154SOL    HW120924   2.388   4.129   7.705 -2.6276  1.8514 -1.8376
 3154SOL    HW220925   2.348   4.021   7.624  1.3472 -0.6629  0.3198
 3155SOL     OW20926   3.929   1.528   7.854 -0.3153 -0.3528  0.0904
 3155SOL    HW120927   4.012   1.547   7.811 -0.1107  1.1014  1.1205
 3155SOL    HW220928   3.953   1.531   7.946  0.4064 -1.1130 -0.0769
 3156SOL     OW20929   3.475   1.148   5.424 -0.0523 -0.1157 -0.1467
 3156SOL    HW120930   3.512   1.167   5.338 -0.7432  1.7721 -0.0174
 3156SOL    HW220931   3.394   1.100   5.404  0.8416 -2.2654  1.3758
 3157SOL     OW20932   1.543   3.715   5.239 -0.4880  0.5161  0.1549
 3157SOL    HW120933   1.608   3.645   5.233  1.0371  1.8525  1.0982
 3157SOL    HW220934   1.536   3.723   5.334 -1.2270 -1.5311  0.2792
 3158SOL     OW20935   0.928   3.106  11.891  0.1411  0.4676 -0.0281
 3158SOL    HW120936   0.952   3.167  11.821  0.0716 -1.4723 -1.7528
 3158SOL    HW220937   0.838   3.134  11.904 -0.0170  0.3942 -0.9832
 3159SOL     OW20938   1.750   3.486   3.818  0.4688 -0.4403  0.2966
 3159SOL    HW120939   1.678   3.434   3.784  0.7327 -1.1720  0.8448
 3159SOL    HW220940   1.746   3.464   3.911  1.1323 -0.3808  0.3461
 3160SOL     OW20941   0.594   1.324   8.046 -0.1457  0.3352 -0.1934
 3160SOL    HW120942   0.572   1.295   8.134  0.4627  0.8812  0.1353
 3160SOL    HW220943   0.538   1.276   7.985 -0.6351  1.0038 -0.2788
 3161SOL     OW20944   2.858   2.650   4.944 -0.4084  0.4573 -0.3588
 3161SOL    HW120945   2.906   2.570   4.926  1.5206  1.1719  1.5320
 3161SOL    HW220946   2.918   2.716   4.910  1.5335 -1.5698 -0.8407
 3162SOL     OW20947   0.601   1.291   2.864 -0.1566  0.2171 -0.0093
 3162SOL    HW120948   0.638   1.216   2.910  1.9650 -0.9893 -3.6339
 3162SOL    HW220949   0.674   1.351   2.875  0.6604 -0.9122  0.7909
 3163SOL     OW20950   0.115   4.257   2.249 -0.1360 -0.5292 -0.1564
 3163SOL    HW120951   0.170   4.225   2.177 -2.0144 -0.7053 -1.5180
 3163SOL    HW220952   0.042   4.304   2.209  0.1826 -0.8922 -1.1914
 3164SOL     OW20953   2.329   2.641   6.155 -0.0231 -0.2816  0.1265
 3164SOL    HW120954   2.412   2.662   6.198 -0.5084  0.5079  0.6682
 3164SOL    HW220955   2.353   2.598   6.073 -1.4856 -0.7901 -0.0225
 3165SOL     OW20956   4.132   3.623  15.495 -0.1965 -0.0185  0.0289
 3165SOL    HW120957   4.086   3.645  15.414 -0.2079  0.3537  0.1365
 3165SOL    HW220958   4.075   3.658  15.564  0.0163 -2.0515  1.2466
 3166SOL     OW20959   2.054   2.859   4.175  0.4469  0.1289 -0.2067
 3166SOL    HW120960   2.085   2.860   4.085 -0.8985  0.5407 -0.6678
 3166SOL    HW220961   2.106   2.926   4.220 -2.5542  1.7027  0.9442
 3167SOL     OW20962   0.898   4.052   7.084 -0.5282  0.6656 -0.4250
 3167SOL    HW120963   0.852   4.122   7.129 -2.7500 -2.3076  1.9160
 3167SOL    HW220964   0.987   4.083   7.103 -0.3837 -0.4993  0.8003
 3168SOL     OW20965   1.634   4.701   8.286 -0.4106 -0.2395  0.2914
 3168SOL    HW120966   1.561   4.658   8.332  1.6451 -1.9519  1.9481
 3168SOL    HW220967   1.601   4.706   8.197 -1.0404  0.6802  0.5783
 3169SOL     OW20968   1.958   3.604  12.444  0.5761 -0.4934 -0.1123
 3169SOL    HW120969   1.937   3.518  12.481 -0.9348 -0.0879 -0.0447
 3169SOL    HW220970   1.948   3.663  12.519  1.2266 -1.2264  0.5541
 3170SOL     OW20971   1.048   4.352  10.609  0.4354  0.0970 -0.7902
 3170SOL    HW120972   1.079   4.373  10.521  0.5432  1.2917 -0.4632
 3170SOL    HW220973   1.123   4.304  10.646  0.4691  1.6489  1.1624
 3171SOL     OW20974   0.781   3.105   1.814 -0.3251  0.1015 -0.3257
 3171SOL    HW120975   0.834   3.139   1.742  1.4041  0.9121  1.3288
 3171SOL    HW220976   0.703   3.161   1.808  0.0914  0.9418  2.0637
 3172SOL     OW20977   3.287   0.235   9.182 -0.2303 -0.0776  0.3956
 3172SOL    HW120978   3.192   0.234   9.168 -0.2212 -2.1991  0.4877
 3172SOL    HW220979   3.302   0.328   9.198  0.5496  0.1631 -1.6232
 3173SOL     OW20980   3.094   2.423  12.137  0.0037 -0.0162 -0.6911
 3173SOL    HW120981   3.025   2.363  12.165  0.1160 -0.0668 -0.5218
 3173SOL    HW220982   3.146   2.369  12.076  0.2934  1.2381 -1.5491
 3174SOL     OW20983   4.379   2.991  15.519  0.2203  0.3197 -0.4107
 3174SOL    HW120984   4.372   3.086  15.518 -0.2725  0.2998  0.8255
 3174SOL    HW220985   4.447   2.973  15.454  2.1693  1.3306  1.3552
 3175SOL     OW20986   3.623   1.457   7.214 -0.4443 -0.0005 -0.7175
 3175SOL    HW120987   3.701   1.450   7.160 -0.3397 -0.0200 -0.5646
 3175SOL    HW220988   3.613   1.552   7.218 -2.2491 -0.1849 -0.9237
 3176SOL     OW20989   2.975   0.352  15.026 -0.1514 -0.4699 -0.6749
 3176SOL    HW120990   3.066   0.344  15.055 -0.6726 -2.3807  0.4249
 3176SOL    HW220991   2.944   0.429  15.075  1.6340  0.3140 -0.7800
 3177SOL     OW20992   0.136   4.429  16.310 -0.3711 -0.0408 -0.3284
 3177SOL    HW120993   0.063   4.490  16.301 -1.1516 -1.0932 -1.1655
 3177SOL    HW220994   0.218   4.478  16.308 -1.3702  1.7139  1.7664
 3178SOL     OW20995   0.478   0.328   5.029 -0.1350  0.0117 -0.4830
 3178SOL    HW120996   0.568   0.299   5.041  0.3176  1.1213 -1.2090
 3178SOL    HW220997   0.469   0.396   5.097  0.5625 -0.8957  0.5161
 3179SOL     OW20998   0.777   3.696   6.799 -0.4108 -0.1082 -0.2011
 3179SOL    HW120999   0.831   3.653   6.865 -1.5190 -0.3599  0.5481
 3179SOL    HW221000   0.779   3.783   6.839  0.2843 -0.2352  0.0417
 3180SOL     OW21001   3.588   2.223   4.134  0.3342  0.2888 -0.7408
 3180SOL    HW121002   3.644   2.156   4.094  2.4609  0.4215  2.0034
 3180SOL    HW221003   3.580   2.286   4.062  0.4647 -1.3612 -2.1998
 3181SOL     OW21004   2.480   2.863   6.754  0.3062 -0.6213 -0.2448
 3181SOL    HW121005   2.547   2.821   6.808 -1.2902 -2.1862  0.5075
 3181SOL    HW221006   2.503   2.956   6.755  0.4191 -0.6430 -0.6283
 3182SOL     OW21007   1.714   0.482   3.709 -0.0908  0.5470  0.0490
 3182SOL    HW121008   1.714   0.496   3.614  1.2002 -0.1109 -0.0463
 3182SOL    HW221009   1.622   0.503   3.722 -0.4342 -0.4236 -0.7797
 3183SOL     OW21010   0.040   3.454   3.759 -0.4364  0.6950  0.0673
 3183SOL    HW121011   0.075   3.428   3.673 -0.6432  0.4620  0.0533
 3183SOL    HW221012   0.060   3.547   3.751 -0.3716  0.6413 -0.4582
 3184SOL     OW21013   2.180   1.854  16.877 -0.1111  0.6957  0.1279
 3184SOL    HW121014   2.202   1.767  16.908 -0.1822  0.6864  0.1531
 3184SOL    HW221015   2.238   1.904  16.935  0.9339  0.2808 -0.5577
 3185SOL     OW21016   0.504   4.457   3.035  0.3951 -0.1702 -0.2643
 3185SOL    HW121017   0.437   4.495   2.978 -3.4025 -3.8566  1.7213
 3185SOL    HW221018   0.585   4.499   3.008  0.9930 -0.7057  0.6979
 3186SOL     OW21019   4.144   3.517   7.669  0.2644 -0.4733 -0.2337
 3186SOL    HW121020   4.202   3.490   7.740  0.6569 -0.6751 -0.6281
 3186SOL    HW221021   4.070   3.554   7.716  0.9339  1.7637 -0.9344
 3187SOL     OW21022   1.282   3.966   0.931  0.3461  0.8440 -0.3626
 3187SOL    HW121023   1.186   3.970   0.938  0.5520  0.0889  2.8022
 3187SOL    HW221024   1.285   3.882   0.885  0.7761 -0.4066  1.9287
 3188SOL     OW21025   0.754   3.490   6.243  0.5185 -0.1637  0.1211
 3188SOL    HW121026   0.813   3.544   6.190  0.4381  0.3537  0.5581
 3188SOL    HW221027   0.771   3.402   6.209  0.9999  0.8247 -2.2512
 3189SOL     OW21028   0.965   0.055  13.514  0.3699  0.9643 -0.4020
 3189SOL    HW121029   0.940   0.132  13.462 -1.7257 -0.1464 -1.0593
 3189SOL    HW221030   1.035   0.099  13.560  1.3159 -0.2985 -0.6196
 3190SOL     OW21031   3.127   3.850   5.636 -0.0397  0.1248 -0.4625
 3190SOL    HW121032   3.212   3.820   5.604 -0.3637 -0.6981 -0.5746
 3190SOL    HW221033   3.151   3.899   5.715  1.6755 -0.0016 -0.9111
 3191SOL     OW21034   1.394   0.173   3.160  0.1192  0.5076 -0.2608
 3191SOL    HW121035   1.435   0.122   3.230  1.3438 -0.8275 -1.9361
 3191SOL    HW221036   1.421   0.111   3.092  0.6093  0.9086 -0.4312
 3192SOL     OW21037   3.979   1.535  12.746 -0.1425 -0.9542 -0.0896
 3192SOL    HW121038   4.056   1.590  12.763 -1.1842  0.2786  0.7428
 3192SOL    HW221039   3.987   1.514  12.653  1.0488  0.0732 -0.2202
 3193SOL     OW21040   3.318   0.841   0.491  0.3062 -0.2247  0.2443
 3193SOL    HW121041   3.356   0.869   0.408  0.0171  0.6458  0.4005
 3193SOL    HW221042   3.298   0.926   0.532  0.9321  0.4451 -0.8582
 3194SOL     OW21043   0.538   4.080   6.893 -0.1187 -0.0454 -0.1353
 3194SOL    HW121044   0.528   4.049   6.982 -1.0760  1.1171  0.1705
 3194SOL    HW221045   0.626   4.045   6.877 -0.7021 -1.1811 -0.8830
 3195SOL     OW21046   2.636   4.522   6.997  0.3959  0.0624 -0.0408
 3195SOL    HW121047   2.647   4.456   7.065  0.0746 -0.4168 -0.4507
 3195SOL    HW221048   2.542   4.539   6.994  0.6262  1.3591  0.2198
 3196SOL     OW21049   4.537   1.848  10.400 -0.0602 -0.0632 -0.1256
 3196SOL    HW121050   4.555   1.929  10.448  0.6447 -0.3172  0.0275
 3196SOL    HW221051   4.553   1.874  10.309  2.3367 -0.0978  0.2998
 3197SOL     OW21052   2.622   0.238  15.057  0.3958 -0.2177  0.0012
 3197SOL    HW121053   2.615   0.334  15.055 -0.6837 -0.3190 -1.0400
 3197SOL    HW221054   2.548   0.220  15.116  1.0954 -0.1008  0.9148
 3198SOL     OW21055   1.032   4.707   6.047  0.3006 -0.2233  0.3993
 3198SOL    HW121056   1.008   4.709   5.954 -1.8520 -1.9650  0.9157
 3198SOL    HW221057   1.110   4.652   6.047  2.2213  2.5058 -0.4087
 3199SOL     OW21058   0.003   0.002   7.106  0.9799  0.5677 -0.2301
 3199SOL    HW121059   0.024   0.094   7.097 -0.1015  0.9402  0.9611
 3199SOL    HW221060   0.030   4.705   7.196  1.6272  1.4121 -0.2221
 3200SOL     OW21061   2.848   4.442  15.335 -0.5048 -0.5463  0.2618
 3200SOL    HW121062   2.904   4.484  15.269  0.2366 -0.2527  1.0786
 3200SOL    HW221063   2.769   4.420  15.287 -0.7219 -0.7446  0.7134
 3201SOL     OW21064   0.284   3.685   5.920  0.2895  0.0960 -0.0314
 3201SOL    HW121065   0.235   3.712   5.997  0.4106  0.6267 -0.1378
 3201SOL    HW221066   0.241   3.732   5.848  1.4831 -1.5088 -1.8030
 3202SOL     OW21067   2.047   2.361   4.023 -0.5647  0.2024 -0.1161
 3202SOL    HW121068   2.034   2.360   4.118  0.1767  2.4057  0.0208
 3202SOL    HW221069   2.010   2.278   3.994 -4.2713  1.8263 -0.0034
 3203SOL     OW21070   2.102   3.018   2.249  0.3289  0.0773  0.3698
 3203SOL    HW121071   2.023   3.071   2.237  0.2714  0.0782  0.7661
 3203SOL    HW221072   2.130   3.007   2.158 -0.3309  0.1718  0.1486
 3204SOL     OW21073   3.944   1.640  12.119  0.1343  0.2904 -0.7314
 3204SOL    HW121074   3.945   1.549  12.090  0.7026  1.0759 -3.1566
 3204SOL    HW221075   3.986   1.678  12.042 -0.3576  1.0635 -0.6217
 3205SOL     OW21076   1.027   4.138   5.994  0.0712  0.0034  1.1093
 3205SOL    HW121077   1.015   4.230   5.970  0.6622 -0.5823 -1.4759
 3205SOL    HW221078   0.954   4.127   6.055 -0.1751 -0.3580  0.7453
 3206SOL     OW21079   2.291   1.384   2.738  0.6173 -0.4011 -0.1637
 3206SOL    HW121080   2.291   1.368   2.833 -1.7540  1.4427  0.1615
 3206SOL    HW221081   2.315   1.295   2.715  0.8053 -0.8741  1.8280
 3207SOL     OW21082   0.129   4.344  10.597  0.2208 -0.1476 -0.3349
 3207SOL    HW121083   0.108   4.270  10.655 -1.1188  0.9234  0.5366
 3207SOL    HW221084   0.184   4.302  10.531  2.0638  0.0223  1.0690
 3208SOL     OW21085   0.610   1.283   3.212  0.1911 -0.3286 -0.7506
 3208SOL    HW121086   0.686   1.341   3.223 -0.1127  0.2004 -1.3614
 3208SOL    HW221087   0.652   1.241   3.137  0.2319 -2.9751  0.7688
 3209SOL     OW21088   4.162   0.286   4.614 -0.5429 -0.3559 -0.1857
 3209SOL    HW121089   4.116   0.244   4.541 -1.5402  2.8680 -1.3883
 3209SOL    HW221090   4.216   0.353   4.572 -0.6970 -1.5967 -2.3450
 3210SOL     OW21091   3.658   3.399   8.742 -0.6118 -0.0600  0.1919
 3210SOL    HW121092   3.710   3.370   8.817  2.2039 -1.0185 -2.1187
 3210SOL    HW221093   3.620   3.480   8.774 -2.3538 -0.3624 -1.0839
 3211SOL     OW21094   2.641   0.102   6.581  0.1325 -0.0884  0.2218
 3211SOL    HW121095   2.610   0.072   6.496 -3.7742  1.3464  1.1573
 3211SOL    HW221096   2.671   0.019   6.620  1.3434  0.2945  0.0913
 3212SOL     OW21097   0.159   0.540   8.004  0.5038 -0.4354  0.3233
 3212SOL    HW121098   0.118   0.492   7.932  0.9443  1.0518 -0.9142
 3212SOL    HW221099   0.112   0.624   8.007  3.2810  1.2851 -3.5490
 3213SOL     OW21100   3.129   0.235   1.345  0.2481  0.2872  0.1789
 3213SOL    HW121101   3.216   0.275   1.350  1.1069 -1.2741 -2.3057
 3213SOL    HW221102   3.091   0.275   1.424 -0.0383  1.0264 -0.3403
 3214SOL     OW21103   2.916   0.468   6.519  0.9594  0.2166 -0.0992
 3214SOL    HW121104   3.003   0.466   6.479  1.2786 -0.2418  0.6126
 3214SOL    HW221105   2.857   0.459   6.445  0.3391  0.2932  0.3934
 3215SOL     OW21106   4.159   2.612   5.926 -0.0617  0.0583  0.8871
 3215SOL    HW121107   4.188   2.543   5.987  3.3843 -0.4116 -1.2783
 3215SOL    HW221108   4.217   2.597   5.851 -0.5836 -1.4214  0.7858
 3216SOL     OW21109   2.120   3.271   6.753  0.4395 -0.4325 -0.2931
 3216SOL    HW121110   2.171   3.192   6.773  1.3724 -0.1504 -1.6137
 3216SOL    HW221111   2.108   3.254   6.660  0.1653  0.5389 -0.4265
 3217SOL     OW21112   2.539   3.926   6.449  0.4165 -0.0120 -0.2297
 3217SOL    HW121113   2.570   3.891   6.533 -1.7539 -1.2422  0.0878
 3217SOL    HW221114   2.474   3.864   6.416 -0.3186  0.3860  0.4600
 3218SOL     OW21115   3.657   0.940   5.448  0.2394 -0.0882  0.1452
 3218SOL    HW121116   3.643   0.918   5.356  0.1413 -1.5708  0.5140
 3218SOL    HW221117   3.593   1.007   5.471 -0.2735 -0.4919 -0.1297
 3219SOL     OW21118   2.163   0.941  15.802  0.2274 -0.1811 -0.1411
 3219SOL    HW121119   2.223   1.000  15.846  0.3483 -0.9911  0.7785
 3219SOL    HW221120   2.081   0.976  15.837 -1.0650 -0.1142 -3.2280
 3220SOL     OW21121   1.918   0.269   0.129  0.0691  0.0392 -0.7590
 3220SOL    HW121122   2.013   0.261   0.135  0.0450 -0.5129 -1.1211
 3220SOL    HW221123   1.880   0.244   0.213  3.2359  0.1256  0.6766
 3221SOL     OW21124   1.452   4.525   4.750 -0.0734  0.0604 -1.0201
 3221SOL    HW121125   1.471   4.488   4.836 -0.8525  2.2579  0.0910
 3221SOL    HW221126   1.473   4.615   4.774 -0.6386 -0.0092 -0.2680
 3222SOL     OW21127   1.879   1.634   0.003  0.1835 -0.0624 -0.2904
 3222SOL    HW121128   1.794   1.589   0.003 -0.2001  0.6541  0.7840
 3222SOL    HW221129   1.870   1.673   0.090 -0.6834  1.3605 -1.0123
 3223SOL     OW21130   3.055   1.707   9.336  0.3802 -0.5590  0.2649
 3223SOL    HW121131   3.131   1.661   9.303  0.5030  1.0546 -1.7328
 3223SOL    HW221132   3.009   1.637   9.382  3.3033 -1.2524  2.1301
 3224SOL     OW21133   1.234   4.673   7.869  0.3682  0.3705  0.5802
 3224SOL    HW121134   1.235   0.043   7.855  1.0655  0.4269  1.0487
 3224SOL    HW221135   1.233   4.668   7.964 -0.0472 -0.0808  0.5527
 3225SOL     OW21136   2.460   4.706  12.145  0.7430 -0.9628  0.4977
 3225SOL    HW121137   2.471   4.720  12.051  2.8423  0.3224  0.9335
 3225SOL    HW221138   2.460   0.072  12.176 -1.2062 -0.4046 -1.1387
 3226SOL     OW21139   3.348   3.919   8.023  0.0766 -0.2373  0.9894
 3226SOL    HW121140   3.286   3.847   8.018 -1.2183  1.1258 -2.3880
 3226SOL    HW221141   3.406   3.879   7.959  0.9068  3.9025 -0.8534
 3227SOL     OW21142   3.864   1.367   6.965 -0.3323  0.0812  0.3390
 3227SOL    HW121143   3.837   1.280   6.936  0.5376 -0.0591 -0.0507
 3227SOL    HW221144   3.797   1.411   6.914  0.5590  1.2477  0.1727
 3228SOL     OW21145   4.683   3.416  10.735 -0.1328 -0.0901  0.5687
 3228SOL    HW121146   0.018   3.430  10.808  0.1833 -0.1262  0.3155
 3228SOL    HW221147   4.665   3.324  10.756 -1.6692 -0.0872 -0.6946
 3229SOL     OW21148   2.264   1.668   6.449  0.0183  0.2553 -0.0960
 3229SOL    HW121149   2.170   1.665   6.437 -0.4098 -0.0747  3.1803
 3229SOL    HW221150   2.277   1.615   6.528 -2.6591  0.3778  0.4201
 3230SOL     OW21151   2.949   3.572   8.030 -0.6990  0.4620  0.1755
 3230SOL    HW121152   2.869   3.607   7.990 -0.3081  1.0302 -0.1019
 3230SOL    HW221153   2.988   3.527   7.955 -0.3762  0.6451  0.2333
 3231SOL     OW21154   4.394   3.174   3.178 -0.0975 -0.0046 -0.5992
 3231SOL    HW121155   4.421   3.263   3.202  0.4847  0.3190 -2.5092
 3231SOL    HW221156   4.478   3.135   3.156  0.3659  1.3796 -1.2645
 3232SOL     OW21157   4.394   0.791   5.558 -0.0412 -0.6732  0.3050
 3232SOL    HW121158   4.340   0.719   5.592 -1.6066  0.7129  0.7634
 3232SOL    HW221159   4.417   0.819   5.647 -1.0603 -0.9574  0.6587
 3233SOL     OW21160   1.953   0.705   4.194 -0.2978 -0.2537 -0.3452
 3233SOL    HW121161   1.938   0.799   4.183 -1.0001 -0.5129 -1.5522
 3233SOL    HW221162   1.892   0.662   4.134 -0.5000  0.3275 -0.5555
 3234SOL     OW21163   3.320   1.933   8.269 -0.4383 -0.8516  0.3524
 3234SOL    HW121164   3.332   1.853   8.218 -2.3624  0.6645 -2.4509
 3234SOL    HW221165   3.239   1.961   8.227 -0.4257 -2.1107 -0.5150
 3235SOL     OW21166   2.013   0.824  14.955  0.1017 -0.1901  0.1808
 3235SOL    HW121167   2.073   0.873  15.011  0.7535  0.3745 -1.0082
 3235SOL    HW221168   1.940   0.811  15.016 -0.5530 -1.7873 -0.9463
 3236SOL     OW21169   2.934   3.999   6.825 -0.2238 -0.4294  0.3084
 3236SOL    HW121170   2.926   3.988   6.731  0.0320 -1.8209  0.4436
 3236SOL    HW221171   2.974   4.085   6.838  1.0370 -1.1206  1.0599
 3237SOL     OW21172   0.043   4.577  16.628 -0.0626  0.7411 -0.0115
 3237SOL    HW121173   0.094   4.649  16.589  3.4491  0.3370  3.8432
 3237SOL    HW221174   0.047   4.599  16.721 -0.4196 -0.3294  0.2486
 3238SOL     OW21175   3.710   4.500   5.194  0.4428  0.1564  0.5259
 3238SOL    HW121176   3.763   4.426   5.163 -1.9312 -0.2367 -2.5404
 3238SOL    HW221177   3.767   4.571   5.163  1.4243  1.1082  4.5896
 3239SOL     OW21178   4.441   1.233   7.364  0.8586 -0.6874  0.5710
 3239SOL    HW121179   4.422   1.308   7.307 -2.8970  0.0771  2.8340
 3239SOL    HW221180   4.403   1.273   7.442 -1.4555 -1.5616 -0.1142
 3240SOL     OW21181   1.303   3.752   0.773  0.0253  0.2317 -0.2064
 3240SOL    HW121182   1.390   3.790   0.771 -0.5224  1.5643  1.4175
 3240SOL    HW221183   1.295   3.686   0.704 -0.7996  1.6220 -1.4576
 3241SOL     OW21184   2.454   0.207   0.291  0.3792 -0.0881  0.6328
 3241SOL    HW121185   2.519   0.232   0.357 -0.7708  0.5137  1.5514
 3241SOL    HW221186   2.454   0.111   0.292  1.9865 -0.1071 -1.7518
 3242SOL     OW21187   0.866   0.959   7.697  0.3015 -0.1956  0.3130
 3242SOL    HW121188   0.864   1.041   7.648 -0.8382  0.1084  0.8602
 3242SOL    HW221189   0.832   0.990   7.781 -0.0115  1.5027 -0.4538
 3243SOL     OW21190   0.664   1.279  14.822  0.0928  0.0035  1.0978
 3243SOL    HW121191   0.725   1.351  14.810  1.0011 -0.7274  1.2854
 3243SOL    HW221192   0.716   1.218  14.875 -0.5351 -1.0070  0.5612
 3244SOL     OW21193   1.746   3.752   7.855  0.4274  0.3136 -0.4923
 3244SOL    HW121194   1.707   3.782   7.937 -1.1447  0.9609 -1.4794
 3244SOL    HW221195   1.840   3.739   7.867  0.2668  0.5758  1.0147
 3245SOL     OW21196   1.200   2.878   8.001  0.0577  0.7969 -0.4966
 3245SOL    HW121197   1.139   2.933   8.050  1.2061  3.7870 -2.4320
 3245SOL    HW221198   1.263   2.853   8.068 -2.4192  1.2509  1.9807
 3246SOL     OW21199   2.871   3.969   3.434  0.0849 -0.4182  0.1986
 3246SOL    HW121200   2.799   3.951   3.494 -2.7603  0.5510 -2.9450
 3246SOL    HW221201   2.830   4.019   3.363  0.1122 -0.0734  0.4288
 3247SOL     OW21202   3.342   3.761   0.629  0.2605  0.3844 -0.5208
 3247SOL    HW121203   3.436   3.779   0.632  0.0081  1.3773  1.1144
 3247SOL    HW221204   3.305   3.850   0.626  0.2939  0.4727  1.5302
 3248SOL     OW21205   2.567   1.933   3.793 -0.5457 -0.7852 -0.4977
 3248SOL    HW121206   2.536   1.856   3.841  0.1498 -1.9701 -1.9147
 3248SOL    HW221207   2.492   1.945   3.735 -0.4017 -0.1404 -0.5521
 3249SOL     OW21208   1.742   3.218  13.343  0.6523  0.3784  0.0602
 3249SOL    HW121209   1.802   3.249  13.411 -0.6199 -1.1310  1.8796
 3249SOL    HW221210   1.789   3.264  13.274  1.2601  0.9900  0.8860
 3250SOL     OW21211   3.123   4.231   5.579  0.3954 -0.0857  0.3500
 3250SOL    HW121212   3.130   4.318   5.540 -0.8442 -0.4998 -0.7794
 3250SOL    HW221213   3.197   4.216   5.638  0.3259 -0.0466  0.4468
 3251SOL     OW21214   4.340   0.821   4.108 -0.3103 -0.2095  0.2099
 3251SOL    HW121215   4.299   0.807   4.193 -0.6216  0.2673  0.1362
 3251SOL    HW221216   4.274   0.876   4.068  0.2092  1.4028  1.5624
 3252SOL     OW21217   1.857   2.224   5.964 -0.2167 -0.0997  0.1567
 3252SOL    HW121218   1.930   2.286   5.973  2.8142 -3.4484 -1.0520
 3252SOL    HW221219   1.830   2.216   6.055 -1.1277 -1.5235 -0.2307
 3253SOL     OW21220   1.903   1.346  12.800  0.1950 -0.4592 -0.1500
 3253SOL    HW121221   1.870   1.308  12.719  0.8832 -0.1909 -0.5526
 3253SOL    HW221222   1.909   1.433  12.761 -1.5537 -0.7168 -1.0097
 3254SOL     OW21223   2.080   1.462   5.607 -0.2447 -0.3549 -0.2078
 3254SOL    HW121224   2.107   1.389   5.663  2.2067  1.2018  0.6446
 3254SOL    HW221225   2.142   1.465   5.535  1.5945  1.7421  1.4425
 3255SOL     OW21226   0.520   4.091   2.280  1.3451 -0.2370 -0.4408
 3255SOL    HW121227   0.460   4.103   2.353  3.2050 -0.2355  1.1089
 3255SOL    HW221228   0.597   4.135   2.317 -0.0546  2.5006 -0.8008
 3256SOL     OW21229   3.069   1.996  14.390 -0.2579 -0.0984  0.6903
 3256SOL    HW121230   3.016   1.919  14.412 -0.5971 -0.1836 -0.4157
 3256SOL    HW221231   3.151   1.946  14.394  0.1114  0.4335 -0.3245
 3257SOL     OW21232   2.535   1.840   2.775 -0.7175  0.3709  0.2223
 3257SOL    HW121233   2.579   1.923   2.757 -0.9471  0.6899  1.0947
 3257SOL    HW221234   2.503   1.862   2.863 -2.4243 -0.2511 -0.2521
 3258SOL     OW21235   2.887   3.743   3.081 -0.0960 -0.7035  0.1134
 3258SOL    HW121236   2.839   3.787   3.010 -0.8129 -1.0621  0.3760
 3258SOL    HW221237   2.953   3.699   3.028  1.0126 -1.0818  1.8044
 3259SOL     OW21238   1.413   1.648   3.824  0.2934  0.4371 -0.0268
 3259SOL    HW121239   1.458   1.581   3.772 -1.3684 -0.7824  0.0909
 3259SOL    HW221240   1.328   1.603   3.824  0.7052 -0.3338  3.4021
 3260SOL     OW21241   1.490   3.036   5.560 -0.2168  0.1591 -1.1035
 3260SOL    HW121242   1.448   2.962   5.603  0.8569  0.7318  0.9443
 3260SOL    HW221243   1.441   3.108   5.600  0.0317 -0.7247  0.7977
 3261SOL     OW21244   3.010   3.969  17.039  0.1915  0.0742  0.1907
 3261SOL    HW121245   3.045   3.883  17.016 -1.8499 -0.7389  0.1078
 3261SOL    HW221246   3.056   4.017  16.969 -0.7834 -0.1630 -0.6200
 3262SOL     OW21247   3.101   0.696   9.185  0.2875 -0.3981  0.4105
 3262SOL    HW121248   3.084   0.763   9.119  1.3057 -2.5371 -2.0561
 3262SOL    HW221249   3.016   0.677   9.223  0.0587  2.0384  1.0808
 3263SOL     OW21250   1.160   2.564   5.636  0.3479  0.0960 -0.3390
 3263SOL    HW121251   1.144   2.538   5.727 -0.8266 -0.9758 -0.8592
 3263SOL    HW221252   1.069   2.559   5.608  0.9900  0.4784 -2.4750
 3264SOL     OW21253   1.032   0.055   6.467  0.5986  0.3856 -0.1489
 3264SOL    HW121254   1.080   0.126   6.424  1.4863  0.4677  0.9756
 3264SOL    HW221255   1.067   0.074   6.554 -0.5634 -1.2956  0.6877
 3265SOL     OW21256   0.914   0.170  16.203  0.0262 -0.3095  0.4410
 3265SOL    HW121257   0.848   0.130  16.260 -2.2536 -1.9127 -3.3104
 3265SOL    HW221258   0.891   0.262  16.213 -1.6065 -0.5418 -1.2147
 3266SOL     OW21259   3.991   2.157   6.583 -0.1685 -0.0772  0.2474
 3266SOL    HW121260   3.921   2.221   6.594  1.4879  2.0393 -1.5305
 3266SOL    HW221261   4.068   2.209   6.605 -0.3280  0.1859  0.1899
 3267SOL     OW21262   3.012   1.491   5.611 -0.2279  0.2796 -0.2640
 3267SOL    HW121263   3.060   1.461   5.533 -1.9337  4.0613 -2.7443
 3267SOL    HW221264   3.053   1.575   5.631  0.0986 -0.4420  2.1118
 3268SOL     OW21265   0.385   3.577   9.098  0.4316 -0.1163  0.6494
 3268SOL    HW121266   0.422   3.616   9.177 -0.9555  0.6295  0.9252
 3268SOL    HW221267   0.441   3.611   9.028  1.3981 -0.0240  1.4614
 3269SOL     OW21268   3.504   1.876   6.058 -0.3288 -0.1949 -0.4972
 3269SOL    HW121269   3.506   1.918   5.972 -0.8624  0.0647 -0.3862
 3269SOL    HW221270   3.418   1.833   6.058 -0.2327 -0.3819  2.0919
 3270SOL     OW21271   0.561   1.604   6.927  0.0054 -0.4151 -0.1545
 3270SOL    HW121272   0.586   1.534   6.988  0.6949  1.2614  1.4953
 3270SOL    HW221273   0.555   1.548   6.849 -0.8041 -0.6508  0.0818
 3271SOL     OW21274   3.424   3.356   1.484 -0.0460 -0.0939  0.1614
 3271SOL    HW121275   3.421   3.451   1.472  1.2081  0.0748  1.1049
 3271SOL    HW221276   3.360   3.326   1.420  0.1249  0.5094 -0.2959
 3272SOL     OW21277   2.446   1.913   7.825  0.3417 -0.1690 -0.1208
 3272SOL    HW121278   2.354   1.916   7.851  0.4807 -1.6903  0.5636
 3272SOL    HW221279   2.478   1.825   7.846  0.0956 -0.0786  0.6252
 3273SOL     OW21280   3.215   1.299   3.617 -0.4876  1.2550 -0.3120
 3273SOL    HW121281   3.174   1.213   3.620 -0.6079  1.3640  1.1442
 3273SOL    HW221282   3.134   1.351   3.622 -1.5851 -0.4309 -0.6036
 3274SOL     OW21283   1.803   4.417   3.775  0.1409 -0.1404 -0.3859
 3274SOL    HW121284   1.856   4.497   3.766 -0.7728  0.4641 -0.3771
 3274SOL    HW221285   1.797   4.394   3.682  3.2582  0.9669 -0.8774
 3275SOL     OW21286   2.703   3.058   4.004  0.3939 -0.0717  0.4726
 3275SOL    HW121287   2.785   3.046   3.955  0.6268  1.6283  0.4354
 3275SOL    HW221288   2.663   2.977   3.972  0.6313 -0.2667  0.6733
 3276SOL     OW21289   2.527   2.475  14.321  0.2227  0.0930 -0.0825
 3276SOL    HW121290   2.494   2.413  14.256 -1.4615  1.6955 -0.7810
 3276SOL    HW221291   2.553   2.411  14.386  1.4545 -2.1892 -2.8184
 3277SOL     OW21292   3.174   3.559   0.540 -0.4634  0.6255 -0.5800
 3277SOL    HW121293   3.239   3.625   0.563 -1.7636  1.6667  0.1310
 3277SOL    HW221294   3.116   3.606   0.480  1.7572  1.4763 -2.0437
 3278SOL     OW21295   1.035   2.559   6.639  0.7996  0.3057 -0.9988
 3278SOL    HW121296   0.968   2.596   6.582  1.2649 -0.7482 -2.2433
 3278SOL    HW221297   1.076   2.510   6.567  3.3125  0.8411  0.0591
 3279SOL     OW21298   2.712   2.357   2.852 -0.2621 -0.1761 -0.0142
 3279SOL    HW121299   2.691   2.441   2.892 -2.6303 -1.1177  0.7277
 3279SOL    HW221300   2.682   2.359   2.761  1.3633 -1.2419 -0.5801
 3280SOL     OW21301   2.496   0.020  16.119  0.0323 -0.1411 -0.5930
 3280SOL    HW121302   2.493   0.070  16.200  0.1355 -0.4215 -0.4163
 3280SOL    HW221303   2.417   4.695  16.136  1.1856 -2.4130 -1.8731
 3281SOL     OW21304   1.356   3.859  14.555 -0.4944 -0.4480  0.3951
 3281SOL    HW121305   1.352   3.764  14.565 -2.7063 -0.2842  0.9790
 3281SOL    HW221306   1.301   3.875  14.479  0.2029  1.2376  0.2532
 3282SOL     OW21307   3.650   3.564  14.547 -0.0325  0.0565  0.1315
 3282SOL    HW121308   3.742   3.555  14.521 -0.0432 -0.9427  0.4623
 3282SOL    HW221309   3.615   3.541  14.461 -2.1603  0.0416  1.0069
 3283SOL     OW21310   0.831   3.546   4.676  0.2426  0.0588 -0.1726
 3283SOL    HW121311   0.852   3.571   4.766  0.1175 -2.0824  0.4572
 3283SOL    HW221312   0.818   3.453   4.693 -0.5766  0.1570 -0.2708
 3284SOL     OW21313   3.524   4.377   4.470  0.4259  0.5479  0.7905
 3284SOL    HW121314   3.601   4.379   4.527  1.1824  0.7515 -0.2241
 3284SOL    HW221315   3.532   4.470   4.448  4.4306  0.2710  1.0696
 3285SOL     OW21316   4.609   0.346   4.163 -0.4590  0.2764  0.3674
 3285SOL    HW121317   4.531   0.316   4.210  0.3598  0.6182  1.9646
 3285SOL    HW221318   4.568   0.422   4.122 -2.0720 -0.1789  1.1491
 3286SOL     OW21319   3.267   2.053   4.191  0.0398 -0.1050  0.3315
 3286SOL    HW121320   3.321   2.017   4.261  0.5248 -1.8443 -0.9411
 3286SOL    HW221321   3.326   2.064   4.117 -1.9331 -0.6364 -1.3379
 3287SOL     OW21322   1.168   2.918  12.924 -0.5406  0.0759  0.7712
 3287SOL    HW121323   1.264   2.923  12.934 -0.3943  0.1491 -0.6033
 3287SOL    HW221324   1.154   3.013  12.918 -1.7401 -0.3040 -2.3803
 3288SOL     OW21325   0.781   1.486   5.881 -0.2977  0.2388 -0.1569
 3288SOL    HW121326   0.848   1.433   5.923  1.3869  2.9176  0.5326
 3288SOL    HW221327   0.719   1.494   5.954  3.0265  1.6295  2.5381
 3289SOL     OW21328   0.768   0.071   8.364  0.2828  0.1308 -0.3078
 3289SOL    HW121329   0.778   4.711   8.407 -1.3255  0.0034 -0.1813
 3289SOL    HW221330   0.722   0.117   8.434  2.5591  0.3268  1.0304
 3290SOL     OW21331   4.426   3.389   6.628  0.1029 -0.2799  0.2861
 3290SOL    HW121332   4.470   3.466   6.663 -1.0496 -0.6054  2.4620
 3290SOL    HW221333   4.502   3.331   6.632 -1.3290 -2.2549 -0.9913
 3291SOL     OW21334   2.184   1.790   8.767  0.0766  0.3213 -0.2168
 3291SOL    HW121335   2.258   1.807   8.825 -0.2433  1.7882 -0.2278
 3291SOL    HW221336   2.137   1.874   8.760 -0.6908 -0.0398  0.6186
 3292SOL     OW21337   4.697   3.112  16.218  0.1048 -0.7589 -0.3416
 3292SOL    HW121338   0.032   3.185  16.205 -0.6226  0.2510  2.0021
 3292SOL    HW221339   0.006   3.051  16.152 -0.7404 -1.3978 -0.1865
 3293SOL     OW21340   4.109   1.314  10.457  0.1074  0.3925 -0.1484
 3293SOL    HW121341   4.079   1.224  10.447  1.6614 -0.1853  0.3511
 3293SOL    HW221342   4.056   1.340  10.532  1.1979 -0.8250  1.0337
 3294SOL     OW21343   4.237   3.242   8.050 -0.3330  0.4792  0.1124
 3294SOL    HW121344   4.261   3.294   8.127 -1.1355  1.4563 -0.2992
 3294SOL    HW221345   4.162   3.194   8.085 -1.0044 -0.4915 -2.6679
 3295SOL     OW21346   1.161   1.520   4.889 -0.1445  0.1795  0.1716
 3295SOL    HW121347   1.103   1.458   4.932  0.4665 -0.8619 -0.5060
 3295SOL    HW221348   1.243   1.470   4.881 -1.5027 -2.0304  0.1164
 3296SOL     OW21349   2.699   0.060   5.238  0.7193  0.4223 -0.0231
 3296SOL    HW121350   2.720   0.115   5.162 -0.7428  0.6163 -0.2952
 3296SOL    HW221351   2.690   0.134   5.299 -2.1736 -0.7101  0.9299
 3297SOL     OW21352   2.066   4.088  14.443  0.6027  0.0243 -0.2507
 3297SOL    HW121353   2.004   4.072  14.514 -0.0436  0.8400 -0.6215
 3297SOL    HW221354   2.073   4.183  14.434 -2.2025  0.4132  1.5820
 3298SOL     OW21355   0.884   0.200  11.090 -0.0459  0.4124  0.2165
 3298SOL    HW121356   0.893   0.271  11.027 -0.9717  3.1438  3.1620
 3298SOL    HW221357   0.969   0.197  11.134 -0.6019  0.9097  1.3072
 3299SOL     OW21358   2.932   3.383  16.338  0.6929 -0.3003 -0.0451
 3299SOL    HW121359   2.871   3.349  16.273  0.1947  0.7169 -0.1091
 3299SOL    HW221360   2.982   3.304  16.359  2.1390  0.2165 -1.5413
 3300SOL     OW21361   1.504   4.621   5.936 -0.0544 -0.6230 -0.0780
 3300SOL    HW121362   1.545   4.542   5.972 -0.0725  0.8292  3.1764
 3300SOL    HW221363   1.417   4.601   5.971  0.3851 -1.7798  0.3702
 3301SOL     OW21364   3.876   4.222   5.061  0.0162 -0.2045  0.3016
 3301SOL    HW121365   3.798   4.203   5.114 -0.1298 -2.2938 -0.7086
 3301SOL    HW221366   3.841   4.199   4.976  1.6289 -0.7493 -0.2138
 3302SOL     OW21367   4.545   4.481   1.465 -0.3458  0.0089 -0.1997
 3302SOL    HW121368   4.477   4.548   1.466  1.0108  1.3567  0.5732
 3302SOL    HW221369   4.510   4.430   1.391  1.5278  0.1644 -1.1899
 3303SOL     OW21370   2.460   3.265   8.291  0.6330  0.4934 -0.7160
 3303SOL    HW121371   2.437   3.229   8.205 -1.1105  0.5971 -0.2978
 3303SOL    HW221372   2.510   3.343   8.266 -0.3791  1.2065 -0.5115
 3304SOL     OW21373   3.118   1.568   7.030 -0.2094  0.1628 -0.4034
 3304SOL    HW121374   3.193   1.591   6.975  0.3386  1.8322  1.0600
 3304SOL    HW221375   3.086   1.658   7.027 -2.2799 -0.4982  2.2452
 3305SOL     OW21376   0.722   2.021  10.440 -0.0919  0.3019 -0.4789
 3305SOL    HW121377   0.748   2.104  10.399  2.2158 -0.8236 -1.2900
 3305SOL    HW221378   0.807   1.993  10.474  0.4016  1.7319 -0.5279
 3306SOL     OW21379   2.404   1.762   7.246 -0.2287 -0.2826 -0.1342
 3306SOL    HW121380   2.463   1.838   7.249 -1.0718  0.3017  1.7577
 3306SOL    HW221381   2.448   1.701   7.187  1.4873  0.3183  0.5274
 3307SOL     OW21382   1.613   3.211  13.958  0.1461 -0.7832  0.5020
 3307SOL    HW121383   1.533   3.168  13.928  0.0510 -1.3812  1.6179
 3307SOL    HW221384   1.581   3.240  14.043  0.5110  0.0019  0.3700
 3308SOL     OW21385   0.097   3.307   8.784  0.3276  0.1692 -0.6543
 3308SOL    HW121386   0.148   3.317   8.865  0.6412 -0.3579 -0.7849
 3308SOL    HW221387   0.070   3.216   8.791 -2.0798  1.0257  1.0826
 3309SOL     OW21388   1.608   3.071  16.059 -0.5042 -1.1363  0.0068
 3309SOL    HW121389   1.650   3.070  16.145  1.7409 -2.5492 -1.0872
 3309SOL    HW221390   1.573   2.983  16.048  1.9936 -1.8580 -2.4128
 3310SOL     OW21391   4.032   3.768   0.531  0.5190 -0.4165 -0.7466
 3310SOL    HW121392   3.978   3.751   0.454  1.4085  1.5756 -1.8194
 3310SOL    HW221393   4.085   3.844   0.505 -0.2481  0.5228  0.4647
 3311SOL     OW21394   1.486   0.582  16.726 -0.1642 -0.5048  0.0492
 3311SOL    HW121395   1.543   0.552  16.655  1.9558 -0.5382  1.7623
 3311SOL    HW221396   1.403   0.537  16.707 -0.5678  0.2754 -0.0207
 3312SOL     OW21397   3.152   1.875   2.655 -0.2307 -0.5992  0.3100
 3312SOL    HW121398   3.060   1.857   2.640 -1.0375  1.3176  2.7850
 3312SOL    HW221399   3.147   1.962   2.695  3.4891 -0.7600  1.1512
 3313SOL     OW21400   1.201   2.737   0.632 -0.2736  0.2360 -0.1913
 3313SOL    HW121401   1.293   2.764   0.630 -0.1907  0.0493  1.8268
 3313SOL    HW221402   1.174   2.722   0.541 -1.5895  1.2587  0.0468
 3314SOL     OW21403   4.637   1.499   7.432  0.3010  1.2655 -0.4369
 3314SOL    HW121404   4.608   1.581   7.471  0.7367  0.8210  0.8169
 3314SOL    HW221405   4.600   1.511   7.344 -2.4259 -0.7259  0.3984
 3315SOL     OW21406   1.565   1.940   5.332 -0.9776 -0.1482 -0.2902
 3315SOL    HW121407   1.505   2.011   5.355  1.5226  1.6912  0.5719
 3315SOL    HW221408   1.646   1.990   5.343 -1.1104 -0.3112  1.4126
 3316SOL     OW21409   0.854   4.579   5.244  0.0834  0.5791  0.0083
 3316SOL    HW121410   0.791   4.523   5.198  0.0949  1.5712 -1.2131
 3316SOL    HW221411   0.900   4.528   5.310 -2.8309 -1.1809  0.6808
 3317SOL     OW21412   0.854   2.596  13.677 -0.4873  0.1836  0.1350
 3317SOL    HW121413   0.836   2.502  13.674  1.1400 -0.2508  3.9032
 3317SOL    HW221414   0.950   2.595  13.675 -0.4663  0.5030  0.8880
 3318SOL     OW21415   2.227   2.333   4.473  0.2275 -0.5241 -0.1512
 3318SOL    HW121416   2.224   2.256   4.416  1.5550 -1.0968  0.5525
 3318SOL    HW221417   2.304   2.374   4.433  0.1843 -0.3816 -0.0881
 3319SOL     OW21418   4.337   2.575  16.530  0.2462 -0.6282 -1.1354
 3319SOL    HW121419   4.369   2.653  16.486 -1.4684  1.2186  0.8482
 3319SOL    HW221420   4.243   2.581  16.514 -0.0851  1.2551  1.4552
 3320SOL     OW21421   1.161   2.252   7.356 -0.1491  0.2058 -0.2221
 3320SOL    HW121422   1.138   2.259   7.264 -0.5234  0.8802 -0.0772
 3320SOL    HW221423   1.250   2.284   7.347 -0.0788 -0.3141 -1.2970
 3321SOL     OW21424   4.174   0.987   2.959 -0.5257  0.2405  0.3544
 3321SOL    HW121425   4.131   0.927   2.899  0.7138 -0.6523  0.3533
 3321SOL    HW221426   4.207   1.055   2.900  2.5538 -1.5365  0.0177
 3322SOL     OW21427   3.130   1.526   6.217 -0.4498 -0.1604  0.3196
 3322SOL    HW121428   3.042   1.564   6.224 -0.1459  0.5524  0.2985
 3322SOL    HW221429   3.139   1.505   6.124 -2.0212 -0.0266  0.1437
 3323SOL     OW21430   3.076   3.301  12.174 -0.2827 -0.5876  0.6819
 3323SOL    HW121431   3.110   3.342  12.094  0.1736  0.9155  1.6504
 3323SOL    HW221432   3.036   3.224  12.132 -0.1118  0.1977 -0.9453
 3324SOL     OW21433   1.350   1.803   5.980 -0.3699  0.1284 -0.0092
 3324SOL    HW121434   1.393   1.878   5.938 -1.2578  1.1439  0.8780
 3324SOL    HW221435   1.312   1.768   5.899 -2.4465 -1.4144  1.6253
 3325SOL     OW21436   1.950   4.670   2.406  0.3498  0.4764 -0.1304
 3325SOL    HW121437   1.920   4.678   2.496  0.9947 -0.2086  0.1458
 3325SOL    HW221438   1.984   4.581   2.414  1.8669  0.9919 -0.8625
 3326SOL     OW21439   2.566   4.355   7.868 -0.0431  0.1389 -0.4950
 3326SOL    HW121440   2.523   4.368   7.953 -1.5043 -1.9548 -0.9165
 3326SOL    HW221441   2.535   4.265   7.859 -3.0337  0.9474  1.6059
 3327SOL     OW21442   1.145   3.920   9.115  0.0833 -0.1056 -0.6774
 3327SOL    HW121443   1.135   3.897   9.207  0.1907 -0.6162 -0.7953
 3327SOL    HW221444   1.107   4.008   9.119 -0.0823 -0.2881  1.6810
 3328SOL     OW21445   1.174   3.138   7.092  0.2301  0.4690  0.2691
 3328SOL    HW121446   1.108   3.070   7.091  1.4839 -0.7856  3.0266
 3328SOL    HW221447   1.123   3.204   7.140 -1.0760  0.4180 -1.0641
 3329SOL     OW21448   4.529   4.624   7.404 -0.0426 -0.2036  0.1379
 3329SOL    HW121449   4.509   4.702   7.351  0.5869  1.1922  1.9234
 3329SOL    HW221450   4.469   4.644   7.476 -1.2454 -2.3369 -0.2757
 3330SOL     OW21451   4.296   0.706   0.309 -0.4527 -0.2510  0.0085
 3330SOL    HW121452   4.352   0.783   0.322 -2.7023  1.4793 -0.5706
 3330SOL    HW221453   4.276   0.712   0.216 -0.1170 -0.9578 -0.1121
 3331SOL     OW21454   0.066   0.542  16.389  0.3456  0.0807 -0.0792
 3331SOL    HW121455   0.013   0.573  16.315  1.3259  1.7273 -0.1022
 3331SOL    HW221456   0.152   0.557  16.350  0.9865  1.0396  1.7159
 3332SOL     OW21457   0.744   4.074   7.460 -0.5204  0.3534 -0.3336
 3332SOL    HW121458   0.699   4.142   7.411 -1.4001 -0.5738 -0.8249
 3332SOL    HW221459   0.828   4.115   7.480  0.6023 -0.8819 -2.4119
 3333SOL     OW21460   1.250   1.974   4.149 -0.3230  0.2471 -0.2305
 3333SOL    HW121461   1.295   1.891   4.170  0.0336  1.0740  2.2770
 3333SOL    HW221462   1.295   2.012   4.074  0.5457 -1.2134 -0.4554
 3334SOL     OW21463   3.187   0.773   2.888 -0.3107  0.1336 -0.0612
 3334SOL    HW121464   3.129   0.836   2.932  0.0873 -0.8181  1.8292
 3334SOL    HW221465   3.248   0.755   2.960  0.3870 -1.8182 -1.1478
 3335SOL     OW21466   4.198   4.394  13.573  0.2865  0.1694 -0.0688
 3335SOL    HW121467   4.203   4.409  13.668 -3.4493 -0.1372  0.1440
 3335SOL    HW221468   4.258   4.457  13.534 -0.7386  0.8234 -0.5475
 3336SOL     OW21469   3.970   3.956  16.061 -0.1738  0.3519 -0.3131
 3336SOL    HW121470   4.044   3.907  16.024 -0.0553  2.5506 -3.0224
 3336SOL    HW221471   3.950   4.013  15.987  2.5495  0.4101 -1.0240
 3337SOL     OW21472   2.676   3.536   3.898  0.0467 -0.1543  0.4942
 3337SOL    HW121473   2.734   3.613   3.902 -0.7227  0.4062  0.8583
 3337SOL    HW221474   2.730   3.460   3.920 -1.4154 -0.6182  2.5128
 3338SOL     OW21475   2.559   0.986   6.613  0.1082  0.7485  0.0635
 3338SOL    HW121476   2.610   0.915   6.575 -1.4254 -0.1136 -0.4107
 3338SOL    HW221477   2.624   1.032   6.666  0.8694 -1.2900  0.8806
 3339SOL     OW21478   2.661   4.495   4.430  0.0747  0.8102 -0.4183
 3339SOL    HW121479   2.609   4.455   4.361 -2.6089 -0.4655  2.3599
 3339SOL    HW221480   2.720   4.420   4.419 -0.6142  0.1083  0.7281
 3340SOL     OW21481   3.352   3.704  17.213 -0.2122  0.0199  0.1342
 3340SOL    HW121482   3.392   3.663  17.290  2.6701  2.2087 -0.1667
 3340SOL    HW221483   3.428   3.709  17.155 -0.0585  1.7805  0.4766
 3341SOL     OW21484   2.607   3.387  15.641 -0.2248 -0.6120 -0.2106
 3341SOL    HW121485   2.589   3.361  15.732 -2.0428 -0.1227 -0.4319
 3341SOL    HW221486   2.519   3.383  15.605  0.6023 -1.1873 -2.1614
 3342SOL     OW21487   2.453   1.377   4.701  0.2470 -0.2493  0.1472
 3342SOL    HW121488   2.450   1.472   4.704 -0.4156 -0.1989 -1.6742
 3342SOL    HW221489   2.374   1.363   4.648  0.9976 -0.8228 -0.8417
 3343SOL     OW21490   0.498   4.412   7.840  0.2649 -0.3541 -0.7747
 3343SOL    HW121491   0.460   4.379   7.921 -2.7234  3.1059 -0.7930
 3343SOL    HW221492   0.484   4.336   7.784 -0.2968 -0.3825 -0.5953
 3344SOL     OW21493   0.528   4.179  13.201  0.4986  0.4964 -0.2943
 3344SOL    HW121494   0.576   4.129  13.267 -1.7706  0.2067  1.1612
 3344SOL    HW221495   0.597   4.239  13.171  0.6387  0.5923  0.2142
 3345SOL     OW21496   1.603   2.581   4.531 -0.6353  0.2634  0.0772
 3345SOL    HW121497   1.648   2.571   4.615  0.3275 -1.4457 -0.6567
 3345SOL    HW221498   1.510   2.572   4.551 -0.4700  1.9305  1.6038
 3346SOL     OW21499   2.389   4.332   3.518 -0.5599 -0.0700  0.5648
 3346SOL    HW121500   2.302   4.355   3.552 -0.4590 -0.1579  0.8877
 3346SOL    HW221501   2.425   4.290   3.596 -1.3997 -1.3819  0.2570
 3347SOL     OW21502   2.984   1.208   3.361  0.1053  0.6685  0.5899
 3347SOL    HW121503   2.945   1.121   3.362  2.9822 -0.6235 -0.2853
 3347SOL    HW221504   3.077   1.188   3.355  0.2140  0.9917  1.2527
 3348SOL     OW21505   2.380   1.674  11.111 -0.5590 -0.3011 -0.0315
 3348SOL    HW121506   2.345   1.704  11.195  1.2082  1.2630  0.1345
 3348SOL    HW221507   2.297   1.648  11.070 -0.7988  1.5210 -0.7133
 3349SOL     OW21508   1.949   2.303   6.624  0.0510 -0.3399 -0.8295
 3349SOL    HW121509   1.873   2.309   6.682  0.2021 -2.7926 -0.3473
 3349SOL    HW221510   2.005   2.370   6.663 -1.2445  0.6972 -0.7349
 3350SOL     OW21511   3.376   4.698  10.979 -0.5918  0.0780  0.4332
 3350SOL    HW121512   3.389   0.011  11.066 -1.6039  1.4895 -0.0356
 3350SOL    HW221513   3.285   0.003  10.971 -0.5239  0.5800  1.5480
 3351SOL     OW21514   1.626   0.115   7.818 -0.2082 -0.6673 -0.4946
 3351SOL    HW121515   1.626   0.041   7.878  0.8094 -0.8222 -0.6777
 3351SOL    HW221516   1.558   0.090   7.755 -2.2061 -0.3414  1.5498
 3352SOL     OW21517   1.835   0.790   2.188 -0.3708  0.7959 -0.3691
 3352SOL    HW121518   1.836   0.882   2.159  2.9269  0.8546 -0.1248
 3352SOL    HW221519   1.799   0.789   2.276 -0.8914 -2.0380 -0.6375
 3353SOL     OW21520   1.901   3.981   2.545 -0.3717  0.2980 -0.6771
 3353SOL    HW121521   1.960   4.020   2.610 -2.6506  1.7271  0.5084
 3353SOL    HW221522   1.884   3.896   2.586  1.5685  0.0212 -0.4514
 3354SOL     OW21523   0.093   4.651   8.009 -0.6038 -0.2206  0.0585
 3354SOL    HW121524   0.102   4.558   8.031 -0.9963 -0.1270  0.6192
 3354SOL    HW221525   0.005   4.654   8.048 -0.6269 -1.2739  0.0731
 3355SOL     OW21526   3.478   0.192   8.655 -0.4447 -0.5102  0.1636
 3355SOL    HW121527   3.476   0.101   8.684 -2.8613 -0.6269 -0.3562
 3355SOL    HW221528   3.528   0.178   8.575 -1.7487 -0.6016 -0.6371
 3356SOL     OW21529   2.278   2.955  10.891 -0.0303 -0.4825  0.1881
 3356SOL    HW121530   2.367   2.971  10.861 -1.3200  1.2800 -2.6025
 3356SOL    HW221531   2.271   3.031  10.949 -0.2085  1.3056 -2.1920
 3357SOL     OW21532   0.577   0.137  10.014 -0.0035 -0.3292 -0.9068
 3357SOL    HW121533   0.648   0.160   9.954  3.0980 -1.0870  2.4340
 3357SOL    HW221534   0.508   0.114   9.952 -0.1647 -1.5656 -0.2710
 3358SOL     OW21535   4.400   4.488   7.012  0.3810  0.1241  0.2864
 3358SOL    HW121536   4.325   4.430   7.026 -1.1345  1.6974 -1.3937
 3358SOL    HW221537   4.453   4.468   7.089  2.9094  0.8456 -1.2728
 3359SOL     OW21538   2.917   3.467   3.051  0.5504 -0.3942  0.5980
 3359SOL    HW121539   2.926   3.373   3.037 -1.0953 -0.5686  0.7502
 3359SOL    HW221540   2.935   3.494   2.961 -0.3319  0.4440  0.6729
 3360SOL     OW21541   4.129   0.232   2.943 -0.0883  0.1638  0.0578
 3360SOL    HW121542   4.157   0.284   2.868  0.9972  2.6282  2.1965
 3360SOL    HW221543   4.037   0.224   2.919  0.0061  0.2758 -0.3404
 3361SOL     OW21544   4.716   2.401   7.754 -0.4553  0.8849 -0.1216
 3361SOL    HW121545   4.647   2.343   7.784  0.0327  0.5583  0.3580
 3361SOL    HW221546   0.023   2.359   7.674 -0.8553  0.3250  0.0176
 3362SOL     OW21547   1.494   1.707   6.816 -0.6592  0.6639  0.4492
 3362SOL    HW121548   1.474   1.785   6.764  0.4849  1.2322  0.8516
 3362SOL    HW221549   1.554   1.729   6.887  0.5680 -0.3514 -0.2730
 3363SOL     OW21550   4.074   0.095   8.159 -0.4166 -0.5875 -0.3644
 3363SOL    HW121551   4.046   0.005   8.176 -1.2514 -0.4350 -0.9612
 3363SOL    HW221552   4.152   0.108   8.213 -0.1834 -1.9188 -0.3845
 3364SOL     OW21553   3.544   4.422   8.947  0.4597  0.0130  0.2945
 3364SOL    HW121554   3.540   4.412   9.042 -0.7963  2.7278  0.5183
 3364SOL    HW221555   3.625   4.377   8.924  0.9753  0.8233  0.5513
 3365SOL     OW21556   1.089   1.017   5.018  0.0450  0.0857  0.7552
 3365SOL    HW121557   1.066   1.033   4.926 -1.5418 -0.0820  1.1286
 3365SOL    HW221558   1.090   0.921   5.020  1.3153  0.0456 -1.0662
 3366SOL     OW21559   4.052   1.606  16.151 -0.0229  0.3865  0.2336
 3366SOL    HW121560   4.069   1.672  16.084  0.5763  2.3049  2.2594
 3366SOL    HW221561   4.122   1.611  16.216  0.4456 -0.0487 -0.2379
 3367SOL     OW21562   0.827   3.639  17.261 -0.2724 -0.0662 -0.3345
 3367SOL    HW121563   0.745   3.686  17.276 -0.0578 -0.0595  0.8008
 3367SOL    HW221564   0.888   3.712  17.259  1.1988 -1.2355  1.8173
 3368SOL     OW21565   2.010   3.193   9.180  0.0588  0.7265  0.0904
 3368SOL    HW121566   1.986   3.103   9.157 -0.1080  1.1188 -1.2622
 3368SOL    HW221567   2.094   3.200   9.136 -1.1501  0.4409 -2.2328
 3369SOL     OW21568   3.268   1.073   2.317  0.3623  0.2342  0.1948
 3369SOL    HW121569   3.271   0.983   2.285 -2.9568  0.6032 -1.2259
 3369SOL    HW221570   3.202   1.049   2.383  0.5056 -0.4423  0.0860
 3370SOL     OW21571   1.883   0.476   4.466 -0.7471 -0.0745 -0.0851
 3370SOL    HW121572   1.807   0.502   4.413 -0.0550 -0.4854 -1.2699
 3370SOL    HW221573   1.911   0.553   4.515 -0.7569  0.0208 -0.2302
 3371SOL     OW21574   1.226   0.123   2.208  0.2987  0.2472 -0.4415
 3371SOL    HW121575   1.142   0.170   2.209 -0.1571 -0.5612 -0.1460
 3371SOL    HW221576   1.277   0.194   2.245  0.6629  0.1387 -0.7378
 3372SOL     OW21577   2.159   0.817  11.272 -0.1793  0.1418 -0.9623
 3372SOL    HW121578   2.138   0.723  11.273 -1.0374  0.2545 -5.6435
 3372SOL    HW221579   2.235   0.818  11.214  0.8749 -1.3552  0.4162
 3373SOL     OW21580   4.179   3.694  11.206 -0.5108  0.5694 -0.1957
 3373SOL    HW121581   4.116   3.767  11.212 -0.5641  0.6641 -1.9126
 3373SOL    HW221582   4.113   3.625  11.207 -1.2013  1.2131 -0.6380
 3374SOL     OW21583   0.618   2.084   8.109 -0.2860 -0.1200  0.3024
 3374SOL    HW121584   0.696   2.063   8.161  0.0609 -2.8565 -1.3046
 3374SOL    HW221585   0.605   2.176   8.129  0.3525  0.1344 -0.4293
 3375SOL     OW21586   2.400   0.950   7.602  0.2662  0.2617  0.1376
 3375SOL    HW121587   2.381   1.009   7.530 -0.0632  1.1875  0.9772
 3375SOL    HW221588   2.360   0.869   7.571  1.6174 -0.9728  1.5824
 3376SOL     OW21589   4.224   1.306   7.123  0.0920 -0.3985 -0.3123
 3376SOL    HW121590   4.153   1.321   7.186 -0.1155  1.0843 -0.8869
 3376SOL    HW221591   4.199   1.365   7.052  1.2698 -0.5387 -0.8452
 3377SOL     OW21592   3.795   1.488  17.572  0.5584  0.1486 -0.2870
 3377SOL    HW121593   3.833   1.423  17.513  0.2224 -1.3215  1.0935
 3377SOL    HW221594   3.704   1.463  17.586  0.3645  0.5166 -0.9329
 3378SOL     OW21595   0.807   4.191   7.799 -0.3169 -0.0731  0.6731
 3378SOL    HW121596   0.868   4.225   7.734  0.2888 -0.0327  1.2620
 3378SOL    HW221597   0.806   4.097   7.782 -1.5877  0.5733 -2.6776
 3379SOL     OW21598   1.223   2.707   7.282 -0.6760  0.1311 -0.0464
 3379SOL    HW121599   1.307   2.664   7.300 -0.4941  0.0498 -1.0711
 3379SOL    HW221600   1.242   2.801   7.283 -1.4951  0.2922  0.5222
 3380SOL     OW21601   0.489   3.488   4.685  0.2273 -0.0225 -0.6292
 3380SOL    HW121602   0.460   3.448   4.603 -1.5077 -1.2255  0.5826
 3380SOL    HW221603   0.572   3.443   4.700 -0.3553 -0.3590  1.6412
 3381SOL     OW21604   0.118   1.228   4.088  0.1568  0.2959 -0.2778
 3381SOL    HW121605   0.025   1.219   4.069 -0.1105 -0.2381  1.2563
 3381SOL    HW221606   0.126   1.323   4.088 -1.6324  0.4263  1.2204
 3382SOL     OW21607   4.542   0.246   9.890  0.1769  0.1707 -0.3033
 3382SOL    HW121608   4.530   0.281   9.801  0.0927  1.1000  0.0747
 3382SOL    HW221609   4.497   0.162   9.882 -0.0523  0.3146 -0.5178
 3383SOL     OW21610   2.616   4.543   8.167  0.4296 -0.6363  0.9778
 3383SOL    HW121611   2.668   4.623   8.158  0.9641 -0.8785  1.8356
 3383SOL    HW221612   2.533   4.584   8.142  1.3503  0.6183 -0.0198
 3384SOL     OW21613   2.526   3.341   6.302 -0.0065  0.4832 -0.2249
 3384SOL    HW121614   2.600   3.347   6.363 -0.9291 -2.0235  1.1126
 3384SOL    HW221615   2.550   3.265   6.249 -1.4302 -0.3614  0.3475
 3385SOL     OW21616   1.074   4.051  10.858  0.3277 -0.5815  0.2956
 3385SOL    HW121617   1.169   4.047  10.844  0.3922 -1.3099  0.9662
 3385SOL    HW221618   1.060   3.961  10.829  0.8243 -1.0834  1.6277
 3386SOL     OW21619   3.238   3.704   2.107 -0.4752  0.0273  0.0397
 3386SOL    HW121620   3.245   3.609   2.103 -0.1930  0.0531 -0.1378
 3386SOL    HW221621   3.163   3.707   2.167  1.0936  0.6465  1.9683
 3387SOL     OW21622   4.632   0.990   5.570 -0.3905 -0.5285 -0.2776
 3387SOL    HW121623   4.632   1.032   5.484 -1.0727 -1.9251 -0.9660
 3387SOL    HW221624   4.692   1.046   5.619 -0.8642 -0.2301 -0.0441
 3388SOL     OW21625   4.446   3.995  13.667  0.1364 -0.2444  0.1548
 3388SOL    HW121626   4.534   3.981  13.633  1.4262  0.2678  3.2498
 3388SOL    HW221627   4.410   4.028  13.585 -1.0975  1.5724  1.4265
 3389SOL     OW21628   1.357   3.463   2.779 -0.0463 -0.0140  0.6336
 3389SOL    HW121629   1.282   3.419   2.820  1.9573 -1.3335  2.8837
 3389SOL    HW221630   1.430   3.430   2.831  1.1789  1.3654 -0.1901
 3390SOL     OW21631   1.854   2.490   2.613 -0.7078 -0.1312 -0.0650
 3390SOL    HW121632   1.858   2.461   2.522 -1.6792  0.0526 -0.1667
 3390SOL    HW221633   1.877   2.411   2.661 -0.4964 -0.6683 -1.0417
 3391SOL     OW21634   1.650   2.386   4.273  0.0061  0.0644  0.2412
 3391SOL    HW121635   1.658   2.404   4.179 -1.2234 -2.1251 -0.2998
 3391SOL    HW221636   1.627   2.472   4.306  0.0284  0.8973 -1.9288
 3392SOL     OW21637   3.841   4.543   2.319  0.0466  0.1924 -0.1767
 3392SOL    HW121638   3.899   4.603   2.273  1.0951 -0.6214  0.0696
 3392SOL    HW221639   3.867   4.552   2.411 -0.3446 -1.6447  0.1150
 3393SOL     OW21640   3.141   2.627   5.983  0.2785 -0.2347  0.0594
 3393SOL    HW121641   3.085   2.551   5.976  0.3973 -0.2842 -0.3842
 3393SOL    HW221642   3.081   2.660   6.049  0.4961  0.5608 -0.1344
 3394SOL     OW21643   0.749   4.323   6.034 -0.2375  0.1409 -0.4693
 3394SOL    HW121644   0.687   4.264   5.990  1.2585 -1.4707 -0.4167
 3394SOL    HW221645   0.750   4.406   5.987  1.3791  0.3878 -0.0027
 3395SOL     OW21646   0.974   2.064   6.936  0.4424 -0.6279 -0.5696
 3395SOL    HW121647   0.995   2.040   6.846 -0.4085 -2.9250 -0.1564
 3395SOL    HW221648   0.878   2.069   6.934  0.5367  1.2258 -0.6229
 3396SOL     OW21649   2.387   3.310   4.905  0.4056 -0.4846  0.2714
 3396SOL    HW121650   2.371   3.404   4.898  0.8735 -0.2775  1.9666
 3396SOL    HW221651   2.474   3.309   4.866  1.0142 -1.3785  1.6464
 3397SOL     OW21652   2.454   4.609   1.173  0.1085 -0.6753  0.1394
 3397SOL    HW121653   2.457   4.675   1.242 -0.7207  0.3323 -0.7793
 3397SOL    HW221654   2.400   4.544   1.218  0.1346  0.5274  1.8947
 3398SOL     OW21655   1.811   1.858  12.529  0.4133 -0.1837  0.2692
 3398SOL    HW121656   1.811   1.901  12.443 -0.6302  2.8751  1.7933
 3398SOL    HW221657   1.881   1.794  12.521 -1.2664 -2.1825  1.5860
 3399SOL     OW21658   0.563   3.271   6.407 -0.1647 -0.4614 -0.4007
 3399SOL    HW121659   0.509   3.214   6.461 -0.6873 -0.5262 -0.9834
 3399SOL    HW221660   0.576   3.217   6.329 -0.1204 -0.6832 -0.2378
 3400SOL     OW21661   4.643   3.602  16.763  0.1531  0.5255  0.0687
 3400SOL    HW121662   4.592   3.654  16.825 -1.4599 -0.9595 -0.0277
 3400SOL    HW221663   4.616   3.512  16.781  1.1500 -0.2085 -2.1243
 3401SOL     OW21664   1.661   0.736   1.742  0.3983  0.4313 -0.0037
 3401SOL    HW121665   1.584   0.773   1.787 -1.5580 -1.4089 -1.8358
 3401SOL    HW221666   1.712   0.706   1.817 -0.8864 -1.2022  0.2104
 3402SOL     OW21667   0.917   4.562   7.024  0.2163 -0.4153  0.7419
 3402SOL    HW121668   0.948   4.637   7.075 -0.8830  0.3122  0.3543
 3402SOL    HW221669   0.827   4.583   6.999 -0.1701 -1.0199  1.6493
 3403SOL     OW21670   1.057   1.535   9.720 -0.0780  0.1117  0.1892
 3403SOL    HW121671   1.067   1.604   9.655 -2.3312  0.1554 -0.0883
 3403SOL    HW221672   1.001   1.461   9.699 -1.5772  1.0243  0.9426
 3404SOL     OW21673   0.557   3.679   3.133 -0.3412 -0.0565 -0.0502
 3404SOL    HW121674   0.627   3.660   3.195  0.0799  0.8127 -0.2557
 3404SOL    HW221675   0.608   3.734   3.074  0.5495  1.6924  2.3329
 3405SOL     OW21676   2.829   4.000   4.705 -0.0176  0.5269 -0.5216
 3405SOL    HW121677   2.907   4.012   4.759 -0.4859 -0.0008  0.2647
 3405SOL    HW221678   2.779   3.931   4.749  1.5445 -0.4020 -0.2131
 3406SOL     OW21679   1.280   1.769  10.060 -0.3934 -0.2767 -0.1172
 3406SOL    HW121680   1.271   1.732   9.972  2.4482 -1.1151 -0.0527
 3406SOL    HW221681   1.313   1.691  10.106  0.8230 -0.9681 -2.1639
 3407SOL     OW21682   0.853   4.342   2.724  0.1153 -0.2262  0.1631
 3407SOL    HW121683   0.920   4.274   2.727  1.5637  1.1912  0.2490
 3407SOL    HW221684   0.901   4.424   2.741  0.5543 -0.5492  0.4798
 3408SOL     OW21685   0.910   1.419   8.196  0.0354 -0.4205  0.2159
 3408SOL    HW121686   0.827   1.410   8.244  0.0127  0.8013  0.4088
 3408SOL    HW221687   0.966   1.455   8.265  0.1563  2.3426 -1.3264
 3409SOL     OW21688   0.399   0.642  11.550  0.7267 -0.2186  0.2827
 3409SOL    HW121689   0.452   0.638  11.630  0.1753 -0.0290  0.6522
 3409SOL    HW221690   0.370   0.733  11.548 -0.4126 -0.5791  0.5075
 3410SOL     OW21691   0.114   3.610   9.024 -0.5688 -0.9302  0.3986
 3410SOL    HW121692   0.160   3.526   9.035  1.5339 -0.0170 -1.2631
 3410SOL    HW221693   0.186   3.651   8.976 -2.7408  0.5508 -1.6126
 3411SOL     OW21694   2.738   0.656  11.185  0.0674 -0.2914  0.0784
 3411SOL    HW121695   2.802   0.597  11.147 -0.4457 -1.9714  1.7690
 3411SOL    HW221696   2.655   0.608  11.186  0.3906 -0.7757  3.3707
 3412SOL     OW21697   2.947   3.773   2.467  0.3723 -0.0161 -0.0013
 3412SOL    HW121698   2.945   3.868   2.476  0.8367 -0.1295  1.2876
 3412SOL    HW221699   2.853   3.759   2.452 -0.2137  4.1100 -0.1433
 3413SOL     OW21700   1.046   4.064   1.945  0.2605  0.2389 -0.2859
 3413SOL    HW121701   1.133   4.027   1.962  1.2682  2.1038 -1.4184
 3413SOL    HW221702   1.028   4.107   2.028  0.2011 -0.0236 -0.1634
 3414SOL     OW21703   4.017   4.083  11.194  0.3524  0.2066 -0.3116
 3414SOL    HW121704   3.982   4.042  11.273 -0.0936 -1.0854 -1.1793
 3414SOL    HW221705   4.043   4.168  11.229 -1.5111  0.7774 -0.3314
 3415SOL     OW21706   3.525   0.021  12.742  0.5500  0.2609 -0.2643
 3415SOL    HW121707   3.511   4.711  12.830  0.2205  1.0755  0.0104
 3415SOL    HW221708   3.620   0.030  12.742  0.5981 -0.1809  0.6024
 3416SOL     OW21709   0.373   2.739   2.098  0.0444 -0.0415 -0.2358
 3416SOL    HW121710   0.278   2.743   2.112 -0.0419 -3.7720  0.0404
 3416SOL    HW221711   0.386   2.646   2.079 -0.2553 -0.7623  3.1558
 3417SOL     OW21712   0.088   0.300   5.562  0.0821 -0.3047  0.2249
 3417SOL    HW121713   0.173   0.345   5.558 -0.3530  0.4525 -0.3648
 3417SOL    HW221714   0.108   0.229   5.502 -1.5344 -1.0061  0.5325
 3418SOL     OW21715   3.897   3.167   2.272 -0.4639  0.4437 -0.1011
 3418SOL    HW121716   3.920   3.114   2.195 -1.9842  0.6239 -0.6805
 3418SOL    HW221717   3.848   3.239   2.232 -0.4259  0.7072  0.3346
 3419SOL     OW21718   0.960   1.798   7.609 -0.2200  0.1615  0.5994
 3419SOL    HW121719   0.918   1.713   7.593 -0.4892  0.4315 -0.1647
 3419SOL    HW221720   0.883   1.851   7.585 -1.2225 -1.0673  1.0723
 3420SOL     OW21721   3.240   2.883   5.052 -0.2081  0.4286  0.1649
 3420SOL    HW121722   3.183   2.834   5.111 -1.1655  0.0021 -1.1176
 3420SOL    HW221723   3.222   2.975   5.070 -2.2719 -0.2441  1.5749
 3421SOL     OW21724   4.385   1.536   0.234 -0.1216 -0.0217  0.1833
 3421SOL    HW121725   4.323   1.500   0.171  0.1238  1.2657 -0.8008
 3421SOL    HW221726   4.348   1.623   0.248 -0.5056 -0.2352  0.4883
 3422SOL     OW21727   0.483   4.722   4.234 -0.1469  0.1683 -0.0364
 3422SOL    HW121728   0.571   4.701   4.203 -0.8482 -0.8895 -1.3035
 3422SOL    HW221729   0.499   0.014   4.327  3.4965 -1.0532 -0.4532
 3423SOL     OW21730   1.463   4.377   3.016  0.1118 -0.0107  0.4750
 3423SOL    HW121731   1.491   4.358   3.106 -0.9783  0.1881  0.8561
 3423SOL    HW221732   1.370   4.393   3.028  0.5521  0.2976  3.5627
 3424SOL     OW21733   1.879   0.974   5.183  0.8422 -0.2432 -0.7981
 3424SOL    HW121734   1.920   1.048   5.228 -0.9924  1.3262 -1.6776
 3424SOL    HW221735   1.953   0.918   5.159  2.6087  1.0447  1.6667
 3425SOL     OW21736   0.104   1.339   0.867 -0.3316 -0.1907 -0.3176
 3425SOL    HW121737   0.069   1.323   0.955 -2.6269 -0.5157 -1.3054
 3425SOL    HW221738   0.192   1.372   0.887 -0.1066 -1.0790  0.1449
 3426SOL     OW21739   1.651   2.854   3.824  0.4620  0.3075 -0.2808
 3426SOL    HW121740   1.600   2.843   3.905  2.4631 -2.4269  0.6076
 3426SOL    HW221741   1.734   2.878   3.864  0.0316 -2.8946  2.5148
 3427SOL     OW21742   4.355   2.853   5.168 -0.7714 -0.0559  0.4202
 3427SOL    HW121743   4.392   2.782   5.116  2.5659  1.6174  0.5021
 3427SOL    HW221744   4.359   2.921   5.102 -0.9053 -0.0364  0.4325
 3428SOL     OW21745   1.973   1.550  16.438  0.2718  0.1774 -0.2156
 3428SOL    HW121746   1.895   1.499  16.418  0.5918 -0.8350  1.0756
 3428SOL    HW221747   1.939   1.628  16.483 -1.1325 -0.8229  0.4664
 3429SOL     OW21748   2.209   4.400   5.052 -0.6562 -0.0137 -1.6222
 3429SOL    HW121749   2.229   4.351   5.131  1.3233  0.7341 -1.6340
 3429SOL    HW221750   2.122   4.436   5.070 -0.2596  0.5718 -0.8861
 3430SOL     OW21751   0.624   0.983  11.077 -0.5619 -0.0417  0.4767
 3430SOL    HW121752   0.597   0.899  11.114  0.8481 -0.0909  1.4051
 3430SOL    HW221753   0.669   1.014  11.156  0.5656 -0.6814  0.0903
 3431SOL     OW21754   2.439   2.537   4.401 -0.2427  0.3343 -0.6958
 3431SOL    HW121755   2.444   2.631   4.422 -0.6340  0.6472 -2.0014
 3431SOL    HW221756   2.515   2.509   4.452 -0.2250 -1.0246 -1.4653
 3432SOL     OW21757   2.244   1.979   2.570  0.2778 -0.3864  0.7346
 3432SOL    HW121758   2.276   2.018   2.489 -2.0389  1.1848  0.5811
 3432SOL    HW221759   2.323   1.942   2.609  1.3758  1.0513 -0.1459
 3433SOL     OW21760   2.596   2.218   6.627 -0.1606 -0.3297 -0.1767
 3433SOL    HW121761   2.670   2.222   6.688 -1.3975 -1.2977  1.3798
 3433SOL    HW221762   2.606   2.138   6.576 -1.7408  0.1768 -1.2955
 3434SOL     OW21763   2.484   2.236   8.377  0.5344 -0.3692 -0.4357
 3434SOL    HW121764   2.419   2.259   8.311 -1.2422 -1.6768  0.8619
 3434SOL    HW221765   2.537   2.316   8.384  0.5389 -0.3920 -0.2240
 3435SOL     OW21766   3.913   3.535  14.473  0.0639 -0.3508  0.3419
 3435SOL    HW121767   3.964   3.514  14.395  1.8206 -1.2245  1.7013
 3435SOL    HW221768   3.984   3.573  14.525 -0.4809  0.8975  0.1777
 3436SOL     OW21769   1.934   2.309   4.275  0.2836  0.3292  0.6247
 3436SOL    HW121770   1.933   2.385   4.333  1.1173  0.4994  0.4161
 3436SOL    HW221771   1.840   2.299   4.258  0.3307  1.8712 -0.6184
 3437SOL     OW21772   0.070   0.357   2.723 -0.0477 -0.0479  0.2068
 3437SOL    HW121773   0.121   0.278   2.743  0.4400  0.3863  0.6549
 3437SOL    HW221774   0.132   0.427   2.706  0.7840 -0.1804  2.6144
 3438SOL     OW21775   0.328   3.597  14.872 -0.5510 -0.8570 -0.5414
 3438SOL    HW121776   0.408   3.549  14.891  0.0090 -0.9386 -3.1116
 3438SOL    HW221777   0.305   3.538  14.799  1.7020 -1.8121 -0.4886
 3439SOL     OW21778   1.314   3.714   8.988 -0.5228  0.0184  0.1879
 3439SOL    HW121779   1.268   3.788   9.027  0.3960  0.9242 -0.4557
 3439SOL    HW221780   1.398   3.759   8.984 -0.0110 -0.8873  0.5287
 3440SOL     OW21781   4.430   2.418   0.904 -0.2780 -0.2927 -0.0793
 3440SOL    HW121782   4.363   2.351   0.893 -1.2441  0.5705  0.5467
 3440SOL    HW221783   4.402   2.484   0.841 -3.0980 -0.2513  1.2009
 3441SOL     OW21784   3.862   4.074   6.015  0.0951 -0.0703  0.5640
 3441SOL    HW121785   3.865   4.104   6.106  0.7265  0.1803  0.4666
 3441SOL    HW221786   3.953   4.090   5.987 -0.1757 -1.7387 -1.3129
 3442SOL     OW21787   1.264   1.726   4.353 -0.2525  0.0665  0.0270
 3442SOL    HW121788   1.310   1.647   4.326 -0.6134 -0.1340  0.0086
 3442SOL    HW221789   1.221   1.696   4.433 -0.8041  1.7692  0.3677
 3443SOL     OW21790   2.030   3.913   8.026  0.5186 -0.4542  0.2722
 3443SOL    HW121791   2.102   3.856   8.051  0.0680 -0.7649  0.8497
 3443SOL    HW221792   1.994   3.923   8.114  0.2305  0.9964 -0.0145
 3444SOL     OW21793   3.348   0.154  16.755  0.1069 -0.0461 -0.7241
 3444SOL    HW121794   3.274   0.196  16.711 -0.2788 -0.2836 -0.2996
 3444SOL    HW221795   3.418   0.143  16.691  1.1896  1.5122  0.1692
 3445SOL     OW21796   4.520   2.136   8.809 -0.1340 -0.1299 -0.0346
 3445SOL    HW121797   4.557   2.173   8.729  1.8962 -1.1899  0.4219
 3445SOL    HW221798   4.601   2.104   8.848  0.0485  0.3430 -0.0287
 3446SOL     OW21799   4.154   1.246  13.221  0.4882 -0.3788  0.1216
 3446SOL    HW121800   4.146   1.333  13.181 -1.5622 -0.2545  0.8323
 3446SOL    HW221801   4.243   1.253  13.256  1.0693 -0.5665 -1.2824
 3447SOL     OW21802   0.266   3.055   0.058 -0.3883  0.4586 -0.5613
 3447SOL    HW121803   0.224   3.136   0.088  3.1887  2.3537 -0.7102
 3447SOL    HW221804   0.273   3.011   0.143  1.6222  0.8726 -0.5117
 3448SOL     OW21805   0.909   3.954   4.951  0.1752  0.0346 -0.4840
 3448SOL    HW121806   0.970   3.915   4.889  0.2880  0.1977 -0.4755
 3448SOL    HW221807   0.852   3.994   4.885 -1.5955 -2.9781 -0.7665
 3449SOL     OW21808   3.939   1.629   1.725 -0.5626 -0.1183 -0.2906
 3449SOL    HW121809   4.033   1.634   1.707 -0.5213 -0.5268 -0.1877
 3449SOL    HW221810   3.895   1.671   1.651  0.0153  0.0889 -0.5161
 3450SOL     OW21811   1.226   2.827   4.148  0.3096  0.7403 -0.1323
 3450SOL    HW121812   1.315   2.855   4.125  0.5324 -0.3112 -0.5559
 3450SOL    HW221813   1.218   2.849   4.241 -0.5963  1.0644 -0.2922
 3451SOL     OW21814   0.956   2.007   4.120  0.8605 -0.4954  0.0920
 3451SOL    HW121815   0.977   1.980   4.209  1.8570  1.5983  0.4808
 3451SOL    HW221816   1.045   2.037   4.102  0.4136 -1.1189 -3.1979
 3452SOL     OW21817   1.458   1.845   6.390 -0.2174 -0.3680  0.2152
 3452SOL    HW121818   1.382   1.860   6.333 -0.8839  1.5224  1.6103
 3452SOL    HW221819   1.521   1.910   6.360  0.7540 -1.2065  0.4321
 3453SOL     OW21820   3.084   1.794  17.459  0.3952  0.1835  0.0516
 3453SOL    HW121821   3.078   1.699  17.452  0.3653  0.2584 -0.8842
 3453SOL    HW221822   3.029   1.814  17.535  1.5246  1.0438  0.6485
 3454SOL     OW21823   3.133   1.639  12.008 -0.0800  0.3763  0.3323
 3454SOL    HW121824   3.131   1.732  12.028 -0.2643  0.3835  0.2779
 3454SOL    HW221825   3.075   1.629  11.933 -2.1095  1.5180  1.7504
 3455SOL     OW21826   3.911   0.735  16.477  0.1389  0.6362 -0.2448
 3455SOL    HW121827   3.898   0.738  16.571 -0.6784 -1.5419 -0.2943
 3455SOL    HW221828   3.954   0.816  16.449 -1.7421  1.2958 -1.1836
 3456SOL     OW21829   1.941   3.058   8.271  0.3483 -0.5673  0.1505
 3456SOL    HW121830   1.875   3.003   8.229 -1.5143  2.5132 -1.0158
 3456SOL    HW221831   1.998   3.075   8.196  0.6263 -0.1535  0.4534
 3457SOL     OW21832   3.774   2.298   5.325  0.4716 -0.5506  0.1744
 3457SOL    HW121833   3.862   2.260   5.320 -0.0844 -1.5701 -1.8490
 3457SOL    HW221834   3.731   2.265   5.246 -3.5140  0.1280  2.0682
 3458SOL     OW21835   4.339   1.923   1.464  0.0797 -0.4763  0.3873
 3458SOL    HW121836   4.278   1.913   1.537  2.2079  1.8951  2.4661
 3458SOL    HW221837   4.302   1.984   1.401 -2.0844 -1.2570  0.8940
 3459SOL     OW21838   3.458   0.236  13.655 -0.5102 -0.7790 -0.0060
 3459SOL    HW121839   3.495   0.160  13.610  1.7299  0.9297 -1.0674
 3459SOL    HW221840   3.525   0.303  13.642 -2.0216  1.2229  2.5423
 3460SOL     OW21841   0.830   0.703   7.622 -0.7863  0.3908 -0.5291
 3460SOL    HW121842   0.757   0.731   7.566 -1.3529  1.4100  0.7087
 3460SOL    HW221843   0.823   0.780   7.679  1.1197  0.5959 -0.5875
 3461SOL     OW21844   2.238   1.769   3.568 -0.0734  0.4312 -0.5419
 3461SOL    HW121845   2.256   1.677   3.588 -2.7285 -0.1790 -0.9217
 3461SOL    HW221846   2.147   1.763   3.539 -0.3441 -2.9312  1.0398
 3462SOL     OW21847   2.232   4.415   8.249  0.0991 -0.3794  0.1476
 3462SOL    HW121848   2.273   4.497   8.221 -0.2944 -0.7576 -1.5244
 3462SOL    HW221849   2.241   4.433   8.343  1.9695 -1.8367  0.2476
 3463SOL     OW21850   0.541   3.049   3.755  0.1241  0.0770 -0.2734
 3463SOL    HW121851   0.508   3.043   3.665  2.6093  0.6405 -1.2252
 3463SOL    HW221852   0.600   3.121   3.735  0.1781 -0.2448 -1.2764
 3464SOL     OW21853   2.591   1.394   4.295 -0.2391  0.5632 -0.0579
 3464SOL    HW121854   2.505   1.430   4.317 -0.9037 -0.8823 -0.3460
 3464SOL    HW221855   2.573   1.390   4.201  1.6920 -0.8876 -0.3619
 3465SOL     OW21856   1.096   1.395   2.651  0.2208  0.1814 -0.1823
 3465SOL    HW121857   1.043   1.458   2.700 -0.1943 -0.7047  0.5193
 3465SOL    HW221858   1.097   1.321   2.712 -2.0330 -2.1384 -2.9038
 3466SOL     OW21859   0.834   1.780   4.937 -0.1624  0.0405 -0.0403
 3466SOL    HW121860   0.792   1.730   5.007  0.8676 -0.3583  0.2910
 3466SOL    HW221861   0.851   1.715   4.869  0.7058 -2.7523  2.8438
 3467SOL     OW21862   0.202   3.082   2.745 -0.1056 -0.0513  0.0739
 3467SOL    HW121863   0.254   3.002   2.751 -0.4868 -0.2127  1.2893
 3467SOL    HW221864   0.146   3.069   2.669  1.2221 -0.5516 -0.8126
 3468SOL     OW21865   3.513   0.008   9.927 -0.1515 -0.2517 -0.2987
 3468SOL    HW121866   3.430   4.712   9.969 -0.4829  1.0862 -0.2956
 3468SOL    HW221867   3.573   4.723  10.001 -1.4240 -0.7321  0.6613
 3469SOL     OW21868   3.993   4.178   6.248 -0.2524  0.2853 -0.5608
 3469SOL    HW121869   3.994   4.248   6.314 -1.2886  0.5978 -0.8709
 3469SOL    HW221870   4.067   4.120   6.265  0.6809  1.3516 -1.0428
 3470SOL     OW21871   1.995   1.820  11.494 -0.6685  0.3425 -0.3808
 3470SOL    HW121872   1.930   1.777  11.439  0.2086 -1.1618 -0.2437
 3470SOL    HW221873   2.046   1.746  11.527 -0.1952  0.6408 -0.4264
 3471SOL     OW21874   2.878   2.127  13.541  0.2899 -0.2075  0.2389
 3471SOL    HW121875   2.882   2.093  13.452  2.3872 -1.4691  0.8243
 3471SOL    HW221876   2.899   2.048  13.591  0.0705 -0.3432  0.1127
 3472SOL     OW21877   3.391   3.745   5.652  0.3668 -0.0857  0.1271
 3472SOL    HW121878   3.421   3.836   5.657  0.6505 -0.4600  4.9905
 3472SOL    HW221879   3.406   3.729   5.559  0.6883 -0.2796  0.2131
 3473SOL     OW21880   3.776   0.303  15.053 -0.5844 -0.0598 -0.2275
 3473SOL    HW121881   3.759   0.246  15.128 -0.2324  0.7996  0.5061
 3473SOL    HW221882   3.833   0.256  14.992 -0.0524  0.3163 -0.0196
 3474SOL     OW21883   4.689   1.397   5.135  0.3998 -0.2501 -0.0928
 3474SOL    HW121884   4.708   1.304   5.149  1.5959 -0.1175 -0.8304
 3474SOL    HW221885   4.643   1.393   5.051 -1.4401 -1.3595  0.9689
 3475SOL     OW21886   1.547   4.169   2.324  0.0525  0.1755  0.0734
 3475SOL    HW121887   1.568   4.228   2.396 -1.2121  0.1959  0.4285
 3475SOL    HW221888   1.598   4.095   2.356  0.9428  0.1925 -1.2979
 3476SOL     OW21889   3.674   1.083   8.071  0.4657  0.0462 -0.0986
 3476SOL    HW121890   3.638   1.140   8.139 -1.3035 -0.4411 -0.6290
 3476SOL    HW221891   3.707   1.007   8.118  0.7741 -1.2940 -2.4763
 3477SOL     OW21892   1.552   1.477   4.593  0.1861  0.5221  0.5062
 3477SOL    HW121893   1.494   1.406   4.622  0.4192  0.7586  1.5674
 3477SOL    HW221894   1.535   1.467   4.500 -2.3148  1.9219  0.8022
 3478SOL     OW21895   0.288   3.833   4.335 -0.5683 -1.1003 -0.1445
 3478SOL    HW121896   0.319   3.758   4.386 -0.0100 -0.5704  0.2952
 3478SOL    HW221897   0.225   3.793   4.275  1.7424 -1.1910 -2.5037
 3479SOL     OW21898   1.155   2.013  11.981 -0.1376  0.2159  0.8135
 3479SOL    HW121899   1.243   2.027  12.016 -0.1025  0.6902  0.5300
 3479SOL    HW221900   1.170   1.931  11.934  0.7802 -0.3758  2.1288
 3480SOL     OW21901   3.988   1.525   8.860  0.2170 -0.3156  0.2730
 3480SOL    HW121902   3.979   1.433   8.886  0.2398 -0.8739 -1.6913
 3480SOL    HW221903   3.919   1.538   8.795 -0.4389  0.8935  1.2153
 3481SOL     OW21904   0.222   3.833   1.938  0.3052  0.1534  0.3414
 3481SOL    HW121905   0.174   3.883   1.873  1.1225  1.1297  0.4743
 3481SOL    HW221906   0.309   3.844   1.898  0.2005  1.0418  0.3455
 3482SOL     OW21907   2.828   4.340   7.989 -0.4736  0.5327 -0.3759
 3482SOL    HW121908   2.792   4.338   8.078  2.3497  2.3944  0.7827
 3482SOL    HW221909   2.750   4.333   7.934 -1.0928 -2.5298  0.9258
 3483SOL     OW21910   3.769   3.677   8.468  0.2553  0.0729  0.0811
 3483SOL    HW121911   3.736   3.596   8.428 -1.9717  1.3440 -0.6347
 3483SOL    HW221912   3.692   3.711   8.514  0.7183 -0.0860  0.9807
 3484SOL     OW21913   4.363   1.088   3.988 -0.2539 -0.3634 -0.0501
 3484SOL    HW121914   4.385   1.069   3.897  3.1786  1.5993  0.3803
 3484SOL    HW221915   4.271   1.062   3.998 -0.2970  0.3087  1.2502
 3485SOL     OW21916   2.747   2.294   7.059  0.2801 -0.5316  0.1283
 3485SOL    HW121917   2.776   2.257   6.976  0.2949  1.0797 -0.5873
 3485SOL    HW221918   2.680   2.353   7.025 -0.4124 -1.1560  0.4133
 3486SOL     OW21919   0.246   0.586  11.080  0.0508  0.0396 -0.0218
 3486SOL    HW121920   0.263   0.668  11.126 -0.6668  0.2378 -0.1121
 3486SOL    HW221921   0.288   0.605  10.997 -0.9733 -0.3983 -0.6424
 3487SOL     OW21922   0.199   3.832   0.394 -0.4835 -0.1287  0.0832
 3487SOL    HW121923   0.167   3.797   0.477 -0.8767 -0.3187 -0.1493
 3487SOL    HW221924   0.286   3.865   0.419 -0.9289 -0.3887  1.9623
 3488SOL     OW21925   0.245   1.707   8.710 -0.1585 -0.3000 -0.5989
 3488SOL    HW121926   0.218   1.617   8.729 -1.7143  0.4043  0.5123
 3488SOL    HW221927   0.312   1.715   8.779 -1.5798  0.8213  0.6509
 3489SOL     OW21928   0.181   1.123  14.267 -0.2854  0.5099 -0.0340
 3489SOL    HW121929   0.234   1.203  14.260  0.0948  0.3703  1.1691
 3489SOL    HW221930   0.172   1.102  14.174  1.4467  2.3140 -0.6079
 3490SOL     OW21931   3.660   0.395   4.372 -0.1707  0.0858  0.0056
 3490SOL    HW121932   3.737   0.386   4.428 -1.8405 -3.0337  1.8082
 3490SOL    HW221933   3.675   0.324   4.309  0.4124  1.0919 -0.9999
 3491SOL     OW21934   2.848   0.762  15.866  0.2621  0.5586  0.1910
 3491SOL    HW121935   2.765   0.755  15.819 -0.8122 -0.4796  2.2352
 3491SOL    HW221936   2.917   0.739  15.804 -0.1776  1.6625 -0.6985
 3492SOL     OW21937   1.801   1.143   3.228  0.2510  0.3072 -0.7303
 3492SOL    HW121938   1.790   1.131   3.322  2.1754  0.0770 -0.5312
 3492SOL    HW221939   1.739   1.214   3.214  1.3268  1.5931  1.0515
 3493SOL     OW21940   1.913   4.240   6.886  1.0522 -0.0979  0.3170
 3493SOL    HW121941   1.827   4.275   6.908  0.0276 -0.3851 -3.1625
 3493SOL    HW221942   1.904   4.247   6.791  1.7305 -0.9138  0.1916
 3494SOL     OW21943   1.854   4.325   8.508  0.5309  0.5423 -0.4326
 3494SOL    HW121944   1.923   4.292   8.566  0.3532 -1.4882 -1.3799
 3494SOL    HW221945   1.797   4.364   8.573 -0.5090 -1.5588 -0.1084
 3495SOL     OW21946   2.871   2.502   3.756  0.1272 -0.0010 -0.0528
 3495SOL    HW121947   2.817   2.484   3.832 -0.7517 -1.3939 -1.0147
 3495SOL    HW221948   2.923   2.421   3.755 -0.2394 -0.2330 -0.0808
 3496SOL     OW21949   4.109   4.420  14.092 -0.5417 -0.3112 -0.4993
 3496SOL    HW121950   4.044   4.489  14.073  1.2551  1.6458  0.5532
 3496SOL    HW221951   4.141   4.401  14.004  2.1599 -1.0637  0.6726
 3497SOL     OW21952   1.502   2.799   9.611 -0.0528  0.3463  0.1664
 3497SOL    HW121953   1.435   2.779   9.676  0.4667 -2.2281 -0.0915
 3497SOL    HW221954   1.483   2.729   9.549 -2.2517  1.5787 -0.5432
 3498SOL     OW21955   2.905   0.196   2.650 -0.1442  0.4151 -0.2322
 3498SOL    HW121956   2.985   0.238   2.617  0.7677 -3.3063 -2.7836
 3498SOL    HW221957   2.874   0.244   2.726  2.2613  0.4786  0.7115
 3499SOL     OW21958   3.036   4.145   8.083  0.0027  0.6976  0.5140
 3499SOL    HW121959   2.958   4.165   8.031  0.9764  1.7279 -0.5339
 3499SOL    HW221960   3.071   4.077   8.025 -1.5942 -0.0690  0.4272
 3500SOL     OW21961   1.536   3.016  14.954 -0.4232 -0.8735 -0.6324
 3500SOL    HW121962   1.458   3.024  14.900 -2.4224  1.0976  2.5583
 3500SOL    HW221963   1.501   2.953  15.018 -0.3162 -0.5967 -0.3025
 3501SOL     OW21964   4.606   3.541   8.136  0.2217 -0.1890 -0.4783
 3501SOL    HW121965   4.684   3.595   8.123  0.5165 -0.1889  1.3518
 3501SOL    HW221966   4.598   3.487   8.057 -1.7052 -1.9527  0.9118
 3502SOL     OW21967   1.881   0.547   6.535 -0.3695  0.0352 -0.7989
 3502SOL    HW121968   1.809   0.484   6.537  0.4643 -0.9006 -0.4058
 3502SOL    HW221969   1.858   0.604   6.462  2.1092  1.7920 -0.2013
 3503SOL     OW21970   3.396   2.932  12.075 -0.2057 -0.4213  0.1929
 3503SOL    HW121971   3.430   2.924  12.164  2.1613 -2.9270 -0.9051
 3503SOL    HW221972   3.379   2.843  12.044 -0.8384  0.4810 -2.0746
 3504SOL     OW21973   0.447   4.015   5.664  0.3182  0.1477 -0.2010
 3504SOL    HW121974   0.399   3.934   5.678  0.4723  0.5643  2.5932
 3504SOL    HW221975   0.491   3.989   5.583 -0.1471 -1.4241  0.0666
 3505SOL     OW21976   2.448   3.632   3.771  0.3611 -0.2744  0.4480
 3505SOL    HW121977   2.378   3.575   3.803  0.1097 -0.4439 -0.4045
 3505SOL    HW221978   2.523   3.589   3.813 -0.6684 -0.5448  1.9918
 3506SOL     OW21979   1.231   4.042   5.075 -0.2278  0.0935 -0.2197
 3506SOL    HW121980   1.172   4.065   5.146 -1.3025  0.1389 -1.1187
 3506SOL    HW221981   1.235   3.946   5.074  0.4021  0.1104  0.8728
 3507SOL     OW21982   4.044   1.891   5.869  0.0489 -0.5752 -0.4168
 3507SOL    HW121983   4.117   1.898   5.931  0.1840  1.4679 -0.7881
 3507SOL    HW221984   3.972   1.923   5.923 -1.5833 -0.9992 -2.3553
 3508SOL     OW21985   1.091   1.226   4.612  0.3639  0.0442  0.1096
 3508SOL    HW121986   1.123   1.200   4.526  0.4481  0.1405  0.1117
 3508SOL    HW221987   1.041   1.306   4.596 -1.4429 -1.0590  0.2356
 3509SOL     OW21988   4.579   0.610  13.803 -0.1830  0.0504  0.0585
 3509SOL    HW121989   4.542   0.698  13.795 -0.0892  0.0201 -0.7421
 3509SOL    HW221990   4.570   0.587  13.710 -1.5326  0.0467  0.1928
 3510SOL     OW21991   0.758   4.398   4.352  0.2710 -0.2134  0.6711
 3510SOL    HW121992   0.795   4.310   4.343  0.8729  0.2025 -0.8428
 3510SOL    HW221993   0.692   4.385   4.421 -0.2628  3.3160  0.8133
 3511SOL     OW21994   4.287   1.256   4.821 -0.1038  0.4493  0.4468
 3511SOL    HW121995   4.276   1.350   4.833  2.2347  0.6124  1.1825
 3511SOL    HW221996   4.355   1.254   4.754 -1.5592 -0.2659 -1.0086
 3512SOL     OW21997   2.915   4.406   5.905 -0.0850 -0.2504 -0.1648
 3512SOL    HW121998   2.929   4.450   5.821  3.1564 -0.7991  0.0585
 3512SOL    HW221999   2.987   4.437   5.960  0.4074 -0.3862 -0.7191
 3513SOL     OW22000   3.674   3.300   8.490  0.1638  0.2850  0.1738
 3513SOL    HW122001   3.641   3.214   8.515 -0.5347  0.0027 -1.7161
 3513SOL    HW222002   3.684   3.344   8.575 -0.8845  0.3333  0.2675
 3514SOL     OW22003   2.773   1.939   2.144  0.2971 -0.0727 -0.2977
 3514SOL    HW122004   2.713   1.998   2.097  1.7055  0.3407 -1.5987
 3514SOL    HW222005   2.727   1.920   2.226  1.2349 -1.3625 -0.0839
 3515SOL     OW22006   1.138   1.080  15.560  0.4196  0.0254  0.2904
 3515SOL    HW122007   1.061   1.111  15.608  0.6131 -0.8127  1.1270
 3515SOL    HW222008   1.109   1.099  15.470  0.1906 -0.9350  0.1559
 3516SOL     OW22009   4.722   2.295   6.980  0.1898 -0.1392 -0.2415
 3516SOL    HW122010   0.075   2.271   7.029 -0.2517 -0.0365  0.5106
 3516SOL    HW222011   0.006   2.221   6.919  1.0959 -1.6834  1.7842
 3517SOL     OW22012   4.140   0.112  17.323 -0.9076 -0.0120  0.5336
 3517SOL    HW122013   4.077   0.068  17.381 -0.4899 -0.6314  0.5280
 3517SOL    HW222014   4.124   0.204  17.342  1.6736  0.8291 -1.4427
 3518SOL     OW22015   1.802   0.169   5.747 -0.1008  0.0200 -0.3029
 3518SOL    HW122016   1.771   0.257   5.725 -0.0120  0.2628  0.5568
 3518SOL    HW222017   1.719   0.122   5.743  0.3855 -0.9939  1.4265
 3519SOL     OW22018   1.537   0.048  13.680 -0.3850  0.1233 -0.1337
 3519SOL    HW122019   1.507   0.005  13.600  0.3883 -0.4083 -0.1304
 3519SOL    HW222020   1.460   0.089  13.720 -0.5163  0.9288 -1.2095
 3520SOL     OW22021   3.126   0.318   4.514 -0.0509 -0.5652 -0.3978
 3520SOL    HW122022   3.095   0.384   4.576  1.1855 -1.9914  1.7509
 3520SOL    HW222023   3.209   0.355   4.482  0.2359  0.0658  1.0659
 3521SOL     OW22024   4.631   1.166   6.187 -0.0906  0.0607  0.5094
 3521SOL    HW122025   4.566   1.189   6.253 -1.6041  2.0722 -1.6709
 3521SOL    HW222026   4.710   1.189   6.234  1.5225  0.8052 -2.5341
 3522SOL     OW22027   1.311   1.576  12.041  0.3448  0.9286 -0.3272
 3522SOL    HW122028   1.264   1.560  11.960  0.8129  0.5541 -0.5274
 3522SOL    HW222029   1.313   1.485  12.069 -0.6119  0.5263 -1.5752
 3523SOL     OW22030   2.219   0.546   6.332  0.4276  0.4315 -0.4030
 3523SOL    HW122031   2.280   0.612   6.365  1.8462 -1.8254  1.5634
 3523SOL    HW222032   2.225   0.470   6.391  0.9185  2.0945  1.6919
 3524SOL     OW22033   2.153   0.548   2.998  0.0370 -0.1575  0.0832
 3524SOL    HW122034   2.091   0.518   3.065  2.2397  0.2111  2.3032
 3524SOL    HW222035   2.126   0.484   2.932 -1.9028  1.9065 -1.1109
 3525SOL     OW22036   3.524   4.239  15.831  0.5458  0.2617  0.1696
 3525SOL    HW122037   3.502   4.148  15.851  0.4170  0.1681 -0.4011
 3525SOL    HW222038   3.565   4.212  15.749  0.9738  2.9177 -0.5191
 3526SOL     OW22039   3.146   1.430  11.803 -0.3670 -0.0381  0.2951
 3526SOL    HW122040   3.111   1.515  11.776  1.2850  0.2676 -0.9146
 3526SOL    HW222041   3.159   1.387  11.718  1.4678  1.9684 -0.4651
 3527SOL     OW22042   4.106   3.428   3.336 -0.2855  0.4385  0.2875
 3527SOL    HW122043   4.125   3.377   3.257  0.2019 -0.1553  0.7892
 3527SOL    HW222044   4.182   3.412   3.392 -1.3469 -1.0020  1.3038
 3528SOL     OW22045   2.974   4.259   4.097  0.2636  0.3973 -0.1030
 3528SOL    HW122046   2.961   4.179   4.148 -0.0249  1.3835  1.3633
 3528SOL    HW222047   3.066   4.274   4.117  0.0124  0.1831  1.2286
 3529SOL     OW22048   2.057   4.677   6.946 -0.2151  0.1470 -0.0572
 3529SOL    HW122049   2.093   0.037   6.924  0.0679  0.3260  1.0788
 3529SOL    HW222050   1.986   4.702   7.006 -0.6668  0.4310 -0.7065
 3530SOL     OW22051   4.640   2.024  14.651 -0.0412  0.9217  0.0291
 3530SOL    HW122052   4.652   2.086  14.722 -0.1355  2.1805 -1.0517
 3530SOL    HW222053   0.001   1.984  14.661  0.6143  2.1374 -0.7646
 3531SOL     OW22054   2.904   1.028  11.310 -0.1700  0.7021 -0.0734
 3531SOL    HW122055   2.917   1.034  11.405  0.8294 -2.2610 -0.0326
 3531SOL    HW222056   2.962   0.957  11.286  0.2817  0.8177  0.6753
 3532SOL     OW22057   0.183   3.422  16.995  0.0721  0.0616  0.2449
 3532SOL    HW122058   0.241   3.450  17.066 -1.0064  2.3084  0.2344
 3532SOL    HW222059   0.098   3.456  17.024  1.0741  4.1400 -1.5558
 3533SOL     OW22060   1.174   2.549   8.794 -0.1280  0.4713 -0.1828
 3533SOL    HW122061   1.240   2.526   8.860 -1.0400 -1.3164  0.1249
 3533SOL    HW222062   1.102   2.505   8.841  0.8047 -1.3275 -0.4130
 3534SOL     OW22063   4.115   2.898   1.212 -0.0082 -0.0804  0.1617
 3534SOL    HW122064   4.082   2.835   1.147 -2.1270  1.6074 -0.4059
 3534SOL    HW222065   4.169   2.839   1.265 -0.5832  1.5065  2.5239
 3535SOL     OW22066   4.102   1.569  13.719  0.0775 -0.3760  0.5611
 3535SOL    HW122067   4.168   1.508  13.686 -0.0068  0.5651 -1.3671
 3535SOL    HW222068   4.018   1.528  13.698  0.4327 -0.9436  0.2588
 3536SOL     OW22069   4.076   1.088   9.822 -0.6256 -0.2747 -0.1449
 3536SOL    HW122070   4.108   1.112   9.909  1.3315  1.4388 -1.3354
 3536SOL    HW222071   4.085   1.174   9.780 -3.0000 -1.6182 -3.3897
 3537SOL     OW22072   2.470   1.763   5.112 -0.5915 -0.1757  0.1082
 3537SOL    HW122073   2.477   1.672   5.082 -0.8200  0.4521 -1.8490
 3537SOL    HW222074   2.481   1.808   5.029 -0.3419 -2.0281 -0.8758
 3538SOL     OW22075   0.906   0.247  15.897  0.0724 -0.4685  0.1850
 3538SOL    HW122076   0.945   0.302  15.965  0.7163 -1.2963  0.4937
 3538SOL    HW222077   0.947   0.162  15.915 -0.0808 -0.8702 -1.4152
 3539SOL     OW22078   0.856   4.638   8.024 -0.1845 -0.2584 -0.2860
 3539SOL    HW122079   0.807   4.706   8.071  0.0644  1.1959 -2.1109
 3539SOL    HW222080   0.787   4.574   8.006 -3.0677  2.7486 -0.0386
 3540SOL     OW22081   3.210   4.030  16.051  0.1081  0.0556 -0.1588
 3540SOL    HW122082   3.164   3.987  16.122  3.2934 -2.6623  0.2965
 3540SOL    HW222083   3.302   4.017  16.075  0.4960 -1.0304 -2.2531
 3541SOL     OW22084   3.483   0.702   9.153 -0.4881 -0.4840 -0.1611
 3541SOL    HW122085   3.549   0.729   9.217 -0.5117 -0.1923 -0.2623
 3541SOL    HW222086   3.521   0.722   9.067  1.8806  1.5555  1.3804
 3542SOL     OW22087   0.423   0.777   6.762 -0.5383  0.0143  0.4263
 3542SOL    HW122088   0.327   0.772   6.753 -0.7261  2.4381  1.4141
 3542SOL    HW222089   0.455   0.695   6.723 -1.2192  1.1231 -2.4428
 3543SOL     OW22090   1.292   4.055   9.724 -0.0728  0.4539  0.0417
 3543SOL    HW122091   1.360   4.121   9.736  0.8243 -0.2588 -1.0558
 3543SOL    HW222092   1.291   4.008   9.807 -0.0995  3.0817  1.5231
 3544SOL     OW22093   3.858   3.241   1.922  0.4003 -0.2523  0.6225
 3544SOL    HW122094   3.780   3.208   1.878  0.3377  0.2258  0.3789
 3544SOL    HW222095   3.897   3.159   1.953 -2.3670 -1.5071  0.8331
 3545SOL     OW22096   2.836   1.696   2.842  0.0547 -0.3992  0.2412
 3545SOL    HW122097   2.855   1.745   2.762  0.1166 -0.5465  0.1641
 3545SOL    HW222098   2.816   1.611   2.802 -1.0031 -0.2953  0.5483
 3546SOL     OW22099   3.233   1.596   9.581 -0.4756 -0.2819 -0.0830
 3546SOL    HW122100   3.241   1.508   9.544 -2.9834 -0.9452  0.9587
 3546SOL    HW222101   3.234   1.578   9.675  1.9281  1.0707  0.1403
 3547SOL     OW22102   1.826   0.113   0.369  0.4133 -0.2819 -0.0441
 3547SOL    HW122103   1.773   0.036   0.391 -1.2900  0.9723  0.2229
 3547SOL    HW222104   1.899   0.097   0.429  1.0485  2.1615 -0.1778
 3548SOL     OW22105   3.205   0.820   0.060  0.1303  0.2528 -0.4966
 3548SOL    HW122106   3.274   0.768   0.019 -1.7761 -2.6201 -0.0709
 3548SOL    HW222107   3.262   0.844   0.133  0.8651  0.3089 -1.0892
 3549SOL     OW22108   2.066   4.613  10.789  0.1652 -0.0156  0.0183
 3549SOL    HW122109   2.081   4.674  10.717  0.4143  0.0116  0.0907
 3549SOL    HW222110   2.013   4.547  10.745  3.2564 -1.7503 -1.1206
 3550SOL     OW22111   2.498   0.622  14.207  0.2438 -0.1032  0.1184
 3550SOL    HW122112   2.498   0.550  14.144  0.8429 -0.8744  0.9917
 3550SOL    HW222113   2.460   0.694  14.158 -0.9511 -1.0214 -0.3197
 3551SOL     OW22114   3.887   1.665   4.098  0.3051 -0.3338  0.1179
 3551SOL    HW122115   3.885   1.579   4.057  0.3976 -0.7819  1.0659
 3551SOL    HW222116   3.795   1.690   4.091  0.9946  2.9602  2.8902
 3552SOL     OW22117   0.115   3.023   0.590 -0.1028 -0.2859  0.2104
 3552SOL    HW122118   0.078   3.104   0.555  0.8932  0.2294  0.3514
 3552SOL    HW222119   0.201   3.039   0.629 -0.8788  2.1631  0.8978
 3553SOL     OW22120   0.189   3.539   2.152  0.0783 -0.0770  0.0558
 3553SOL    HW122121   0.145   3.485   2.218  0.4271 -1.6037 -0.9677
 3553SOL    HW222122   0.214   3.466   2.096  0.4651  0.1137 -0.0192
 3554SOL     OW22123   0.853   0.882   2.625  0.1797 -0.1555 -0.1411
 3554SOL    HW122124   0.931   0.899   2.573  0.5016  1.4331  0.8509
 3554SOL    HW222125   0.838   0.790   2.601  0.4604  0.1445 -1.4247
 3555SOL     OW22126   2.398   1.704  15.834 -0.3567 -0.5405  0.1489
 3555SOL    HW122127   2.376   1.683  15.925  0.9774  0.8412  0.7940
 3555SOL    HW222128   2.430   1.623  15.794 -1.0011 -1.2510  1.0677
 3556SOL     OW22129   1.092   2.472  13.040  0.3452 -0.0793  0.1385
 3556SOL    HW122130   1.032   2.442  12.972  0.4321 -0.7449  0.3570
 3556SOL    HW222131   1.171   2.419  13.030  0.9023  0.2978  2.6160
 3557SOL     OW22132   0.273   0.582  17.648  0.8819  0.1948 -0.0639
 3557SOL    HW122133   0.244   0.664  17.606  1.0426 -0.4534 -1.4593
 3557SOL    HW222134   0.194   0.531  17.633  1.1388  0.6177 -2.8895
 3558SOL     OW22135   2.139   1.892   4.784 -0.4847 -0.3285  0.3283
 3558SOL    HW122136   2.165   1.983   4.769  1.5297 -1.0462 -0.4587
 3558SOL    HW222137   2.045   1.895   4.763 -1.4690 -0.5299  4.5906
 3559SOL     OW22138   2.783   0.210  12.063  0.4400  0.5944 -0.3909
 3559SOL    HW122139   2.864   0.231  12.110  0.8159 -0.5055 -0.5477
 3559SOL    HW222140   2.809   0.215  11.971 -0.9665 -1.9095 -0.9089
 3560SOL     OW22141   4.194   0.235   3.569 -0.0853  0.3986  0.7554
 3560SOL    HW122142   4.166   0.289   3.643  0.9923  2.8142 -0.6152
 3560SOL    HW222143   4.287   0.255   3.573 -0.0531  0.1998  1.1267
 3561SOL     OW22144   0.279   2.127   3.591 -0.3346 -0.1237  0.3777
 3561SOL    HW122145   0.258   2.035   3.577  0.1649 -0.3080  0.8198
 3561SOL    HW222146   0.300   2.162   3.504 -0.0819 -0.5141  0.2817
 3562SOL     OW22147   2.896   2.968   9.129  0.4542 -0.4529  0.0593
 3562SOL    HW122148   2.853   2.970   9.043  0.7468 -2.2194 -0.1446
 3562SOL    HW222149   2.834   2.911   9.176  0.2259 -0.1389  0.1385
 3563SOL     OW22150   1.715   4.229   5.221  0.1138  0.3320  0.0103
 3563SOL    HW122151   1.682   4.184   5.143  0.2455  0.3765 -0.0716
 3563SOL    HW222152   1.758   4.158   5.268 -0.0755 -0.5479 -1.1522
 3564SOL     OW22153   4.493   0.303  16.644 -0.0798  0.1773  0.1841
 3564SOL    HW122154   4.521   0.254  16.567 -2.1045  0.5305 -0.7698
 3564SOL    HW222155   4.400   0.279  16.651  1.0374 -3.8428  0.9211
 3565SOL     OW22156   4.555   2.978  10.318 -0.3768  0.8307 -0.4877
 3565SOL    HW122157   4.492   2.906  10.316  0.2204  0.2320  1.9461
 3565SOL    HW222158   4.536   3.021  10.401 -2.0366 -1.6768  0.4634
 3566SOL     OW22159   1.462   2.895   7.138 -0.6138 -0.6282  0.7226
 3566SOL    HW122160   1.433   2.985   7.151 -0.5974 -0.7149  1.3681
 3566SOL    HW222161   1.551   2.909   7.170  0.0217 -1.6023 -0.6010
 3567SOL     OW22162   3.342   2.809   5.936 -0.2172 -0.0769 -0.0022
 3567SOL    HW122163   3.316   2.900   5.917 -1.4109 -0.3512  0.3635
 3567SOL    HW222164   3.267   2.758   5.967  0.0312 -0.5249 -0.1395
 3568SOL     OW22165   0.748   4.450   6.281  0.3331  0.0760  0.1413
 3568SOL    HW122166   0.710   4.394   6.349 -1.4323  0.9802 -0.1063
 3568SOL    HW222167   0.726   4.408   6.198  2.7081 -1.6821  0.3986
 3569SOL     OW22168   3.886   0.105  14.894  0.1750  0.1821 -0.0288
 3569SOL    HW122169   3.884   0.034  14.959 -1.9353  0.6019  0.3429
 3569SOL    HW222170   3.828   0.081  14.822 -1.4761  1.8939  0.7430
 3570SOL     OW22171   1.003   0.728   5.384 -0.1977  0.2022  0.0264
 3570SOL    HW122172   1.078   0.745   5.442 -2.3607  0.4546  2.7889
 3570SOL    HW222173   0.946   0.679   5.443  0.5190  1.1399  1.5229
 3571SOL     OW22174   1.579   4.290   6.354 -0.3526 -0.1234 -0.3123
 3571SOL    HW122175   1.518   4.335   6.297  0.2498 -0.4924 -1.2571
 3571SOL    HW222176   1.633   4.248   6.286  1.0330 -1.4309  1.5808
 3572SOL     OW22177   0.859   0.658   6.275  0.3198  0.2011  0.0346
 3572SOL    HW122178   0.847   0.595   6.204  2.4458 -0.6950  0.4743
 3572SOL    HW222179   0.888   0.609   6.352 -1.3998 -0.0363  0.5301
 3573SOL     OW22180   3.016   0.627  16.021 -0.4654  0.3217 -0.2426
 3573SOL    HW122181   2.965   0.665  15.950  0.8266  0.5698 -1.0373
 3573SOL    HW222182   3.079   0.698  16.033 -0.9929  0.6785  0.3954
 3574SOL     OW22183   4.202   2.519   7.031  0.1773 -0.4163 -0.5756
 3574SOL    HW122184   4.260   2.502   7.105 -0.1539 -0.7936 -0.3992
 3574SOL    HW222185   4.240   2.594   6.986  1.2276 -0.6389 -0.0670
 3575SOL     OW22186   2.288   1.403  11.549  0.1013  0.2119 -0.4668
 3575SOL    HW122187   2.254   1.319  11.518  0.5842 -0.2922  0.3574
 3575SOL    HW222188   2.382   1.389  11.559 -0.4117 -3.2540 -0.5016
 3576SOL     OW22189   4.322   3.390   7.827 -0.1382 -0.1182 -0.4725
 3576SOL    HW122190   4.348   3.314   7.775 -2.0675 -2.9461  2.7526
 3576SOL    HW222191   4.299   3.338   7.904  0.4953 -1.5459 -1.2435
 3577SOL     OW22192   0.736   1.796   6.626 -0.1222  0.1096  0.7921
 3577SOL    HW122193   0.741   1.841   6.710 -1.9428  1.1533  0.3414
 3577SOL    HW222194   0.827   1.797   6.596  0.2168  0.2834  1.8246
 3578SOL     OW22195   4.570   1.097  13.938 -0.3251 -0.1196 -0.5600
 3578SOL    HW122196   4.502   1.107  14.004 -0.2580  1.5366 -0.7279
 3578SOL    HW222197   4.540   1.156  13.869 -0.6355 -0.4279 -0.6864
 3579SOL     OW22198   4.281   4.037   6.825 -1.0148  0.0474  0.3273
 3579SOL    HW122199   4.264   4.129   6.843 -2.3881  0.2038 -1.7945
 3579SOL    HW222200   4.257   4.004   6.912  2.5012 -0.3786  1.1518
 3580SOL     OW22201   1.244   1.224   8.569  0.1825 -0.0965  0.0335
 3580SOL    HW122202   1.218   1.300   8.622  0.1466  1.6919 -2.5539
 3580SOL    HW222203   1.249   1.157   8.637 -1.5682  0.1509  0.4011
 3581SOL     OW22204   1.397   3.040  14.023  0.3502  0.3782 -0.5999
 3581SOL    HW122205   1.398   3.016  14.116 -1.9190 -2.3687 -1.2756
 3581SOL    HW222206   1.354   3.125  14.029  0.8968  0.5579  0.6748
 3582SOL     OW22207   4.713   1.221   0.263 -0.5346 -0.5130  0.2587
 3582SOL    HW122208   4.638   1.249   0.316 -0.2183  1.6828 -0.4209
 3582SOL    HW222209   0.039   1.301   0.277 -1.7059  0.3525 -0.3640
 3583SOL     OW22210   2.960   1.322  10.849 -0.2934  0.0786 -0.8096
 3583SOL    HW122211   2.983   1.256  10.914 -1.4520  0.3369 -0.1469
 3583SOL    HW222212   2.894   1.284  10.791 -2.0410  0.4650  0.9236
 3584SOL     OW22213   1.345   2.141   6.116  0.0210 -0.4797  0.0916
 3584SOL    HW122214   1.393   2.116   6.037 -0.1651  0.7995 -0.4335
 3584SOL    HW222215   1.407   2.204   6.151  0.2999 -0.5422 -0.2891
 3585SOL     OW22216   0.041   4.114   1.643 -0.1772 -0.1132 -0.1592
 3585SOL    HW122217   0.070   4.160   1.564  0.6785  0.8772  0.7303
 3585SOL    HW222218   4.676   4.144   1.652 -0.1459 -0.3880  1.0926
 3586SOL     OW22219   0.895   2.202   2.600 -0.5840  0.0134 -0.3767
 3586SOL    HW122220   0.881   2.237   2.512  0.3156  1.1041 -0.0786
 3586SOL    HW222221   0.922   2.285   2.638 -1.0460 -1.2933  2.7965
 3587SOL     OW22222   1.470   0.365   3.456  0.0293 -0.5141  0.8643
 3587SOL    HW122223   1.554   0.406   3.437 -0.0636 -0.7696 -0.1135
 3587SOL    HW222224   1.427   0.381   3.372  0.1263  0.1156  0.9360
 3588SOL     OW22225   0.358   4.633   2.881  0.1049  0.6686 -0.3233
 3588SOL    HW122226   0.365   4.605   2.790 -1.4941  1.1836 -0.5957
 3588SOL    HW222227   0.434   4.690   2.893 -1.4494  2.4096  1.1709
 3589SOL     OW22228   0.923   4.379   8.207  0.1415  0.0251  0.2620
 3589SOL    HW122229   0.872   4.393   8.128  1.9687 -0.7201 -1.0500
 3589SOL    HW222230   0.995   4.440   8.195  0.7350 -0.3599  1.7730
 3590SOL     OW22231   4.211   0.110  11.694 -0.0674 -0.5872 -0.1323
 3590SOL    HW122232   4.270   0.164  11.642  1.0602 -1.5896  0.1318
 3590SOL    HW222233   4.280   0.060  11.737 -1.4928 -2.3933  0.0794
 3591SOL     OW22234   2.944   2.715   6.147  0.0250  0.2026  0.5511
 3591SOL    HW122235   2.869   2.657   6.161  0.0981  0.0002  0.1107
 3591SOL    HW222236   2.909   2.803   6.135  2.2338  0.7815 -1.5859
 3592SOL     OW22237   3.326   0.718   0.971 -0.2287 -0.2571  0.7941
 3592SOL    HW122238   3.361   0.796   0.929 -2.5872  1.1775  1.5230
 3592SOL    HW222239   3.404   0.693   1.021 -1.1623 -1.3650  1.7228
 3593SOL     OW22240   4.059   4.711   5.933 -0.5102 -0.1120  0.5911
 3593SOL    HW122241   4.139   4.677   5.894 -0.8100  0.1190 -0.2211
 3593SOL    HW222242   3.997   4.687   5.864  0.6862  0.0601 -0.5330
 3594SOL     OW22243   1.866   0.117  17.458 -0.4581 -0.1113  0.2370
 3594SOL    HW122244   1.839   0.163  17.378 -1.9462  1.3466  1.5705
 3594SOL    HW222245   1.948   0.165  17.468 -0.5152  0.4983 -2.1609
 3595SOL     OW22246   4.193   1.205   9.109 -0.1431  0.4791  0.0474
 3595SOL    HW122247   4.128   1.150   9.067 -0.3485  0.5349  0.2918
 3595SOL    HW222248   4.147   1.255   9.177 -1.1143  0.1090 -0.3520
 3596SOL     OW22249   1.198   4.689   2.630  0.1483 -0.0677 -0.2077
 3596SOL    HW122250   1.152   4.722   2.553  0.6691 -0.3802 -0.6472
 3596SOL    HW222251   1.250   4.624   2.583 -0.1290  0.6167 -1.4573
 3597SOL     OW22252   2.671   4.565  13.142 -0.0813 -0.2179  0.7140
 3597SOL    HW122253   2.698   4.479  13.176  0.5119 -0.4316 -0.2993
 3597SOL    HW222254   2.751   4.590  13.096 -0.0255 -1.3301  0.1969
 3598SOL     OW22255   0.905   1.459  15.011 -0.2026  0.3266  0.3340
 3598SOL    HW122256   0.938   1.535  15.059 -2.8639  1.2437  0.6985
 3598SOL    HW222257   0.978   1.402  15.034 -1.0563 -1.0477 -0.3815
 3599SOL     OW22258   1.655   0.105  17.071  0.2726  0.3077  0.5688
 3599SOL    HW122259   1.591   0.149  17.127 -0.6336  0.1408 -0.3400
 3599SOL    HW222260   1.665   0.172  17.002 -0.3457 -0.7637 -0.5579
 3600SOL     OW22261   0.524   0.680   5.023 -0.3907  0.2354 -0.3936
 3600SOL    HW122262   0.476   0.684   5.106 -1.1245 -0.4971 -0.7802
 3600SOL    HW222263   0.581   0.604   5.033 -0.7607  0.0789  0.5015
 3601SOL     OW22264   0.739   1.824   6.899 -0.4039  0.2577  0.6338
 3601SOL    HW122265   0.809   1.789   6.955 -1.0655 -1.5364  0.3265
 3601SOL    HW222266   0.681   1.748   6.905 -0.8966  0.5324 -0.6580
 3602SOL     OW22267   4.560   0.487  16.853  0.7347  0.1385 -0.2037
 3602SOL    HW122268   4.645   0.523  16.828  1.3264 -0.7657  0.5021
 3602SOL    HW222269   4.542   0.434  16.775 -0.6432 -0.1741  0.3199
 3603SOL     OW22270   0.460   3.420   4.120  0.4999  0.2862 -0.0656
 3603SOL    HW122271   0.488   3.512   4.112 -1.3077  0.9730  1.5486
 3603SOL    HW222272   0.377   3.419   4.072 -0.7193 -0.2372  2.0770
 3604SOL     OW22273   2.688   2.266  16.501  0.5647 -0.2452 -0.3507
 3604SOL    HW122274   2.602   2.305  16.484  0.4859 -0.7981 -1.2371
 3604SOL    HW222275   2.714   2.238  16.413  4.0334  0.2724  0.5359
 3605SOL     OW22276   2.632   2.508   1.635  0.2177 -0.0542 -0.0453
 3605SOL    HW122277   2.698   2.549   1.581 -2.5775  3.3101 -0.9257
 3605SOL    HW222278   2.614   2.423   1.595  0.6120 -0.5066  0.7342
 3606SOL     OW22279   2.000   0.302  14.398  0.2060 -1.2427  0.3936
 3606SOL    HW122280   2.018   0.273  14.308  0.3295  1.6575 -0.5260
 3606SOL    HW222281   2.079   0.351  14.422  0.3128 -1.0734 -0.2801
 3607SOL     OW22282   3.418   1.908   2.172  0.3328  0.3745  0.8208
 3607SOL    HW122283   3.487   1.898   2.106  0.2905  1.1124  0.6684
 3607SOL    HW222284   3.458   1.875   2.252 -1.9508  0.2065  1.8942
 3608SOL     OW22285   4.716   3.612   2.519 -0.7625 -0.0750 -0.6497
 3608SOL    HW122286   4.698   3.690   2.570 -2.8377 -1.1799  0.3349
 3608SOL    HW222287   4.660   3.546   2.561 -1.3585  1.6161  1.2065
 3609SOL     OW22288   4.125   0.339  10.070 -0.3022 -0.4542  0.3348
 3609SOL    HW122289   4.186   0.412  10.079 -0.4691 -0.2652 -0.0843
 3609SOL    HW222290   4.124   0.307  10.161  1.4111 -0.8991  0.1818
 3610SOL     OW22291   0.908   2.544   3.866  0.3776 -0.3002  0.0826
 3610SOL    HW122292   0.883   2.634   3.887 -0.8446 -0.5573 -0.2271
 3610SOL    HW222293   0.830   2.515   3.818 -0.8405  1.6050  0.9155
 3611SOL     OW22294   3.050   4.532   8.911 -0.3144 -0.0913 -0.0479
 3611SOL    HW122295   3.071   4.625   8.923  1.8266 -0.6533  0.6463
 3611SOL    HW222296   3.108   4.482   8.968  1.4488  2.1540  0.1496
 3612SOL     OW22297   3.486   3.719   3.968  0.2876  0.0679 -0.0429
 3612SOL    HW122298   3.568   3.672   3.983  0.8016  1.3882  1.4034
 3612SOL    HW222299   3.448   3.718   4.056 -0.9168  1.1434 -0.5625
 3613SOL     OW22300   0.481   3.966  11.251  0.2531  0.3417  0.4083
 3613SOL    HW122301   0.433   3.915  11.316 -0.7702  0.4918 -0.2406
 3613SOL    HW222302   0.421   3.971  11.177  1.8690  1.6611 -0.8090
 3614SOL     OW22303   0.977   0.111   3.237 -0.0129  0.3246 -0.2862
 3614SOL    HW122304   0.973   0.164   3.317 -2.4982 -3.2766  2.0259
 3614SOL    HW222305   0.998   0.179   3.174 -0.7401  1.6808  0.9287
 3615SOL     OW22306   1.172   2.962   0.798  0.0409  0.0180 -0.2746
 3615SOL    HW122307   1.163   2.880   0.749 -1.8426 -0.4648  0.8730
 3615SOL    HW222308   1.261   2.948   0.833 -0.4028 -0.8529  0.5072
 3616SOL     OW22309   0.072   3.779  11.540  0.2973 -0.5008  0.2599
 3616SOL    HW122310   0.066   3.874  11.537 -0.2496 -0.5767 -1.2379
 3616SOL    HW222311   0.073   3.753  11.632  1.4453  0.1731  0.4345
 3617SOL     OW22312   3.847   0.740  13.262 -0.1129  0.6787 -0.1022
 3617SOL    HW122313   3.927   0.786  13.237  2.5341 -2.4012  2.6483
 3617SOL    HW222314   3.859   0.649  13.238  1.2067  0.3969  1.6134
 3618SOL     OW22315   0.656   2.269   7.545  0.4119 -0.6523 -0.7593
 3618SOL    HW122316   0.621   2.335   7.604  0.0308 -2.1977  0.7423
 3618SOL    HW222317   0.721   2.325   7.502 -0.6210  0.7922 -0.4374
 3619SOL     OW22318   0.857   0.047   5.817  0.1624 -0.3340  0.9122
 3619SOL    HW122319   0.798   0.114   5.851 -1.2038 -1.3714  0.6066
 3619SOL    HW222320   0.847   0.066   5.724  0.7479 -0.5311  0.8074
 3620SOL     OW22321   2.670   4.160  15.470 -0.1352 -0.0538 -0.0427
 3620SOL    HW122322   2.691   4.082  15.523 -4.6275 -0.7212  0.7563
 3620SOL    HW222323   2.726   4.226  15.510  1.1613 -2.6449  2.4747
 3621SOL     OW22324   0.520   0.680   1.494  0.7381  0.3024  0.8526
 3621SOL    HW122325   0.488   0.601   1.538  0.6212 -0.3298 -0.3579
 3621SOL    HW222326   0.600   0.705   1.540  0.9022  1.6480 -0.1621
 3622SOL     OW22327   3.946   0.273   5.961  0.5572  1.0347  0.4089
 3622SOL    HW122328   3.990   0.270   5.877 -0.3265  1.5234 -0.0728
 3622SOL    HW222329   3.952   0.179   5.977 -2.1700  1.0736  1.8442
 3623SOL     OW22330   4.424   2.934  15.259 -0.1593 -0.3313 -0.2385
 3623SOL    HW122331   4.381   2.850  15.238 -2.9403  1.3605 -1.3059
 3623SOL    HW222332   4.345   2.986  15.269 -1.2086 -1.6134 -1.8573
 3624SOL     OW22333   3.523   4.347   9.890 -0.1268 -0.5426 -0.1827
 3624SOL    HW122334   3.588   4.318   9.826  0.8918 -0.0467  0.6214
 3624SOL    HW222335   3.448   4.295   9.860  0.6675 -2.1945  0.7051
 3625SOL     OW22336   0.418   4.571  16.945  0.3655 -0.0409 -0.0214
 3625SOL    HW122337   0.484   4.513  16.907 -0.8970 -0.6933 -1.2646
 3625SOL    HW222338   0.459   4.657  16.942  0.9526 -0.3873 -2.1951
 3626SOL     OW22339   0.914   2.544   2.401 -0.3686  0.7931  0.5707
 3626SOL    HW122340   0.887   2.471   2.345 -1.4617  0.2356  1.8107
 3626SOL    HW222341   0.917   2.611   2.334 -0.0073  0.8800  0.6741
 3627SOL     OW22342   3.362   2.490   3.689  0.2035 -0.0919  0.2226
 3627SOL    HW122343   3.400   2.513   3.603  0.0470 -0.0944  0.1532
 3627SOL    HW222344   3.282   2.541   3.683 -0.2473 -0.8285  0.0744
 3628SOL     OW22345   0.894   4.564   8.510  0.2956  0.3474 -0.0986
 3628SOL    HW122346   0.970   4.618   8.489 -0.9273  1.8893 -0.5768
 3628SOL    HW222347   0.918   4.490   8.455  0.6411  1.4617 -1.4436
 3629SOL     OW22348   2.911   0.793   7.509  0.4784  0.0091 -0.0107
 3629SOL    HW122349   2.893   0.881   7.476 -1.7221 -0.8678 -1.1115
 3629SOL    HW222350   2.933   0.814   7.600 -0.5854 -0.8021  0.4278
 3630SOL     OW22351   0.142   3.232  13.563  0.2022 -0.1135 -0.4244
 3630SOL    HW122352   0.076   3.209  13.628  1.1790  0.4139  0.7703
 3630SOL    HW222353   0.095   3.270  13.489  0.1947  0.9505  0.1139
 3631SOL     OW22354   4.474   3.267   0.229 -0.2758 -0.2872 -0.0297
 3631SOL    HW122355   4.465   3.287   0.323  2.3694  0.4944  0.0327
 3631SOL    HW222356   4.422   3.343   0.203 -0.2567 -0.2499  0.0406
 3632SOL     OW22357   3.519   0.684   9.996  0.5706 -0.5015  0.6004
 3632SOL    HW122358   3.547   0.623  10.064 -1.2570 -0.5751  1.2645
 3632SOL    HW222359   3.429   0.705  10.020  0.4219 -0.2778 -0.1447
 3633SOL     OW22360   4.351   2.545   7.648  0.4455  0.1104 -0.2476
 3633SOL    HW122361   4.316   2.601   7.718 -1.4645 -0.9614 -0.3702
 3633SOL    HW222362   4.284   2.548   7.581 -0.2745 -0.4707  0.4515
 3634SOL     OW22363   0.526   1.207   8.282  0.3303  0.2560  0.3587
 3634SOL    HW122364   0.540   1.139   8.217  1.1477 -0.0440  0.8485
 3634SOL    HW222365   0.473   1.154   8.341 -0.1199 -0.2067 -0.4660
 3635SOL     OW22366   0.970   3.284   8.184 -0.3103  0.0259  0.1860
 3635SOL    HW122367   0.964   3.378   8.165 -1.2042 -0.3489 -1.3902
 3635SOL    HW222368   0.931   3.282   8.271 -0.3089  2.8762  0.2622
 3636SOL     OW22369   2.719   0.962  16.637  0.3306 -0.5461 -0.2639
 3636SOL    HW122370   2.774   0.896  16.679 -1.2626 -1.6260  0.1305
 3636SOL    HW222371   2.763   0.979  16.554  0.2456  0.5184 -0.0869
 3637SOL     OW22372   0.539   2.575   7.588  0.5759 -0.4991 -0.1333
 3637SOL    HW122373   0.573   2.556   7.501  3.7206 -0.5610  1.1068
 3637SOL    HW222374   0.568   2.667   7.593  0.6368 -0.4169 -1.9742
 3638SOL     OW22375   4.508   3.516  11.145  0.0156 -0.5608  0.2524
 3638SOL    HW122376   4.500   3.421  11.156  0.4007 -0.6955 -0.6118
 3638SOL    HW222377   4.499   3.543  11.236  0.8819  3.5167 -0.8444
 3639SOL     OW22378   0.877   0.621   4.460  0.5212  1.0554 -0.4147
 3639SOL    HW122379   0.832   0.618   4.545  1.7319  1.0189  0.2133
 3639SOL    HW222380   0.844   0.700   4.416 -0.2928  0.1876 -1.3598
 3640SOL     OW22381   0.440   2.269   6.593 -0.1422  0.1982 -0.2394
 3640SOL    HW122382   0.525   2.243   6.630 -1.3602 -1.9836  1.0295
 3640SOL    HW222383   0.423   2.184   6.553 -1.1632  0.7971 -1.0895
 3641SOL     OW22384   1.639   0.868  10.618  0.5093  0.7235 -0.2388
 3641SOL    HW122385   1.633   0.778  10.651 -1.2618  0.3475 -1.5314
 3641SOL    HW222386   1.656   0.839  10.528 -0.5716  1.6355 -0.7325
 3642SOL     OW22387   4.506   2.873  15.742  0.0252 -0.1229  0.2696
 3642SOL    HW122388   4.495   2.839  15.831  1.7114 -3.5141 -0.8035
 3642SOL    HW222389   4.425   2.921  15.727 -2.0335 -3.8083 -0.2881
 3643SOL     OW22390   1.349   3.937   6.378 -0.7924  0.1545  0.1437
 3643SOL    HW122391   1.331   4.013   6.434  1.1975  1.7184 -1.3565
 3643SOL    HW222392   1.418   3.887   6.421  0.0303  1.6935  0.6340
 3644SOL     OW22393   3.574   4.197  16.179 -0.4309  0.9164  0.2258
 3644SOL    HW122394   3.644   4.258  16.153  0.4520  0.1973  0.8920
 3644SOL    HW222395   3.509   4.247  16.228  1.2941  0.2515  3.2214
 3645SOL     OW22396   4.157   1.618   7.338 -0.6191 -0.2859  0.3789
 3645SOL    HW122397   4.100   1.682   7.380 -1.2063  1.0479 -2.4519
 3645SOL    HW222398   4.097   1.558   7.293 -3.8121  0.3761  3.6892
 3646SOL     OW22399   0.179   2.935   7.768 -0.0006 -1.1636 -0.6249
 3646SOL    HW122400   0.145   2.848   7.751  0.0801 -1.1175 -1.0387
 3646SOL    HW222401   0.164   2.979   7.684 -0.2096  0.5466  0.3034
 3647SOL     OW22402   0.209   1.259   8.285 -0.5912 -0.0814  0.2787
 3647SOL    HW122403   0.262   1.190   8.325  0.0915  0.2598 -0.0341
 3647SOL    HW222404   0.191   1.308   8.366 -2.6101 -0.3374 -0.0087
 3648SOL     OW22405   1.179   0.828   0.838  0.5890  0.5036 -0.2221
 3648SOL    HW122406   1.252   0.805   0.896  1.5945  2.4522 -0.7170
 3648SOL    HW222407   1.119   0.851   0.909  2.1566  1.6745  0.7125
 3649SOL     OW22408   2.132   1.941   8.377 -0.0083 -0.5482 -0.0212
 3649SOL    HW122409   2.148   2.018   8.322 -0.1751  1.1074  2.2585
 3649SOL    HW222410   2.150   1.869   8.318  1.1479  0.2224 -0.6195
 3650SOL     OW22411   4.319   3.632  15.045 -0.6269  0.3525 -0.4533
 3650SOL    HW122412   4.276   3.547  15.051  0.4954 -0.2026 -0.2985
 3650SOL    HW222413   4.404   3.603  15.013 -1.5241 -1.5272 -1.0911
 3651SOL     OW22414   1.095   4.425  17.001 -0.3974  0.3584 -0.0598
 3651SOL    HW122415   1.122   4.334  16.991  0.0145  0.6045 -1.2772
 3651SOL    HW222416   1.163   4.461  17.058  0.0676 -1.8710  0.7675
 3652SOL     OW22417   3.906   1.733  11.086  0.0668 -0.3807 -0.2708
 3652SOL    HW122418   3.958   1.677  11.029  0.9261 -0.3245  0.4597
 3652SOL    HW222419   3.827   1.726  11.033  0.9168 -1.3040 -1.3963
 3653SOL     OW22420   1.914   2.732   7.970 -0.1936  0.1318  0.1113
 3653SOL    HW122421   1.992   2.768   7.928  0.3979  0.6508  1.6514
 3653SOL    HW222422   1.954   2.681   8.040 -1.7623 -2.0730 -0.6205
 3654SOL     OW22423   1.341   3.860   4.770  0.0034 -0.3349 -0.4870
 3654SOL    HW122424   1.263   3.831   4.816 -0.6082  2.9824  0.5464
 3654SOL    HW222425   1.379   3.774   4.751 -1.2406 -0.8871 -0.4675
 3655SOL     OW22426   3.031   2.260   8.329  0.2324 -0.0701  0.4039
 3655SOL    HW122427   3.109   2.249   8.383 -0.3929  0.8911  1.5139
 3655SOL    HW222428   3.018   2.169   8.302  0.7796  0.2456 -0.9400
 3656SOL     OW22429   1.235   1.915   5.105 -0.1681  0.2768  0.0698
 3656SOL    HW122430   1.307   1.978   5.104  0.9282 -1.0044 -0.9353
 3656SOL    HW222431   1.223   1.907   5.010 -0.3643 -0.4857  0.1655
 3657SOL     OW22432   0.521   0.712   8.401 -0.0038 -0.0403  0.2947
 3657SOL    HW122433   0.442   0.740   8.355 -0.9471 -1.4311  1.0766
 3657SOL    HW222434   0.527   0.630   8.353  1.7421  0.7958 -0.9435
 3658SOL     OW22435   3.671   2.035  17.555  0.5757  0.0554 -0.1776
 3658SOL    HW122436   3.605   2.104  17.556 -0.9789 -1.4264 -0.2999
 3658SOL    HW222437   3.709   2.036  17.468 -1.7855  0.4549 -1.1910
 3659SOL     OW22438   4.154   1.243  12.900 -0.3243 -0.1802 -0.3078
 3659SOL    HW122439   4.060   1.225  12.908 -0.6296  0.9096 -1.4355
 3659SOL    HW222440   4.163   1.321  12.954  1.5906 -0.4006 -0.3126
 3660SOL     OW22441   1.410   0.287   5.980  0.1513 -0.0706 -0.7294
 3660SOL    HW122442   1.456   0.224   5.925  0.7624 -0.0120 -0.2887
 3660SOL    HW222443   1.341   0.310   5.918  0.4403 -0.7635 -1.3100
 3661SOL     OW22444   0.414   1.223   8.816 -0.2178  0.0274 -0.0086
 3661SOL    HW122445   0.412   1.134   8.781  0.2028  0.2112 -0.4862
 3661SOL    HW222446   0.423   1.282   8.741 -2.2333  0.5392  0.1535
 3662SOL     OW22447   4.056   0.183   7.902 -0.2772 -0.4221 -0.0658
 3662SOL    HW122448   4.148   0.165   7.880 -0.3223 -0.7956  0.0550
 3662SOL    HW222449   4.049   0.144   7.989  0.9700 -0.1817  0.1428
 3663SOL     OW22450   2.147   1.062   5.952  0.4679 -0.2578 -0.3199
 3663SOL    HW122451   2.179   1.076   6.042 -1.0076 -0.9740  0.3059
 3663SOL    HW222452   2.163   0.970   5.933 -1.3081 -0.6886  0.3077
 3664SOL     OW22453   2.780   0.287  13.025  0.1335  0.5626  0.2484
 3664SOL    HW122454   2.857   0.293  12.969  2.1528  1.4262  3.1498
 3664SOL    HW222455   2.729   0.225  12.974  0.2521 -0.6009  1.5504
 3665SOL     OW22456   0.145   3.157   5.376  0.1276  0.5165 -0.1666
 3665SOL    HW122457   0.222   3.105   5.354 -1.2080 -2.0524  1.2314
 3665SOL    HW222458   0.072   3.097   5.361 -0.2993  0.9140  0.3549
 3666SOL     OW22459   2.870   2.723   6.997 -0.0518  0.1912  0.2557
 3666SOL    HW122460   2.938   2.678   6.946  0.8360  1.8491 -0.0352
 3666SOL    HW222461   2.906   2.811   6.996 -0.0080  0.1601 -2.9181
 3667SOL     OW22462   4.538   0.377   9.659  0.7081 -0.2801 -0.2564
 3667SOL    HW122463   4.502   0.457   9.621 -0.2827 -1.6147 -2.2141
 3667SOL    HW222464   4.543   0.318   9.583 -1.8274 -1.9663  0.8613
 3668SOL     OW22465   1.702   4.578   1.742  0.4112  0.3201 -0.3766
 3668SOL    HW122466   1.777   4.543   1.790 -0.2642  1.2828  1.4095
 3668SOL    HW222467   1.650   4.498   1.752 -1.7935  1.7209 -0.5549
 3669SOL     OW22468   1.954   3.434   5.888 -0.0838 -0.3284  0.0959
 3669SOL    HW122469   2.023   3.369   5.876  1.3148  1.3048 -0.6479
 3669SOL    HW222470   1.934   3.407   5.978  0.5918  0.0296  0.3457
 3670SOL     OW22471   2.059   1.290   7.903  0.2470  0.3704  0.1637
 3670SOL    HW122472   1.976   1.335   7.915  0.3278 -0.1609  2.8029
 3670SOL    HW222473   2.107   1.308   7.984  0.7847  2.6287 -0.6549
 3671SOL     OW22474   0.427   3.797   7.317  0.6603 -0.0675 -0.0503
 3671SOL    HW122475   0.478   3.792   7.236 -2.4538 -5.5037 -1.6065
 3671SOL    HW222476   0.343   3.765   7.284  0.2001 -1.9077  2.9851
 3672SOL     OW22477   3.382   0.606   7.127 -0.9642  0.2982 -0.2531
 3672SOL    HW122478   3.332   0.660   7.189  1.2167  1.1886  0.7296
 3672SOL    HW222479   3.333   0.528   7.151 -2.1231  1.7481  2.1082
 3673SOL     OW22480   1.321   2.023  10.006 -0.0290 -0.4422 -0.4291
 3673SOL    HW122481   1.411   2.018  10.039  0.7440 -0.2217 -2.5004
 3673SOL    HW222482   1.291   1.942  10.045  1.9539 -1.5829 -1.2513
 3674SOL     OW22483   1.489   1.316   9.037  0.6019 -0.4017 -0.1207
 3674SOL    HW122484   1.556   1.260   9.075 -0.2635 -1.5716 -0.3141
 3674SOL    HW222485   1.410   1.262   9.044  0.0580  0.3598 -0.2755
 3675SOL     OW22486   0.151   1.361   8.049 -0.3079  0.3517 -0.5478
 3675SOL    HW122487   0.137   1.446   8.090 -0.3263 -0.2723  0.7354
 3675SOL    HW222488   0.166   1.302   8.122 -2.8918  1.5012  0.8845
 3676SOL     OW22489   0.582   0.488  11.297 -0.0345  0.2951  0.3567
 3676SOL    HW122490   0.617   0.495  11.386  1.2516 -1.3947 -0.0097
 3676SOL    HW222491   0.537   0.404  11.300 -3.2817  2.0041 -1.1714
 3677SOL     OW22492   3.481   0.534   8.759 -0.2670  0.5393 -0.6171
 3677SOL    HW122493   3.534   0.603   8.799  0.1550 -0.4438  0.4986
 3677SOL    HW222494   3.439   0.585   8.690 -2.1192 -2.0789 -1.4295
 3678SOL     OW22495   0.508   2.581   1.378 -0.3701 -0.4013 -0.8587
 3678SOL    HW122496   0.517   2.676   1.389 -1.7438 -0.2715 -0.8317
 3678SOL    HW222497   0.446   2.573   1.306 -3.5409 -2.6424  2.0968
 3679SOL     OW22498   3.545   0.530  12.030 -0.6467  0.9193 -0.6420
 3679SOL    HW122499   3.551   0.556  11.938 -0.5267  3.1587 -0.0085
 3679SOL    HW222500   3.623   0.475  12.038 -1.1028  0.1621 -1.3445
 3680SOL     OW22501   2.154   0.200   6.977  0.8256 -0.4421  0.0458
 3680SOL    HW122502   2.088   0.251   7.023  0.6471 -1.5337  0.9947
 3680SOL    HW222503   2.211   0.271   6.948  1.0915 -1.1901 -1.2653
 3681SOL     OW22504   0.241   1.627  11.491  0.0251  0.0318 -0.7452
 3681SOL    HW122505   0.333   1.646  11.474  0.0658 -0.2881 -0.8988
 3681SOL    HW222506   0.203   1.715  11.491 -0.4218 -0.1622  0.9743
 3682SOL     OW22507   3.674   1.622  16.323  0.0418  0.5713  0.4941
 3682SOL    HW122508   3.720   1.689  16.270  0.0211 -0.0009 -0.2502
 3682SOL    HW222509   3.590   1.661  16.345  0.3234  0.7052  1.3270
 3683SOL     OW22510   0.475   0.144  14.854 -0.2769 -0.1656 -0.4274
 3683SOL    HW122511   0.474   0.170  14.762  0.3947 -0.2040 -0.4418
 3683SOL    HW222512   0.566   0.159  14.878 -0.9184  0.7807  1.4696
 3684SOL     OW22513   4.427   1.137   7.106  0.5931 -0.1074 -0.6517
 3684SOL    HW122514   4.424   1.127   7.201 -1.4115 -0.1365 -0.7132
 3684SOL    HW222515   4.353   1.196   7.092  0.6580 -0.0550 -0.7807
 3685SOL     OW22516   0.902   3.729   8.442 -0.4742 -0.2981 -0.1815
 3685SOL    HW122517   0.825   3.673   8.454 -1.1126  0.8528  1.0925
 3685SOL    HW222518   0.868   3.817   8.425 -0.8999 -0.0561  1.8423
 3686SOL     OW22519   3.419   2.667   3.199 -0.0573 -0.5088  0.3485
 3686SOL    HW122520   3.351   2.723   3.161  0.0374  0.5713  1.7339
 3686SOL    HW222521   3.477   2.647   3.126 -1.2105  2.2001 -1.2923
 3687SOL     OW22522   3.355   2.520   7.500  0.0049  0.2469 -0.0456
 3687SOL    HW122523   3.449   2.537   7.488 -0.6351  2.5001 -1.9957
 3687SOL    HW222524   3.303   2.568   7.435 -1.0389 -0.1746  0.4912
 3688SOL     OW22525   0.687   1.384   0.216 -0.2658 -0.0229  0.3468
 3688SOL    HW122526   0.702   1.292   0.236 -2.4088  0.0311  2.2091
 3688SOL    HW222527   0.666   1.422   0.301  0.9166  0.2856  0.5027
 3689SOL     OW22528   3.751   3.656  16.021 -0.1712 -0.5216  0.0734
 3689SOL    HW122529   3.784   3.593  16.084  1.2813 -2.2619 -2.4233
 3689SOL    HW222530   3.835   3.680  15.981  0.1788 -2.5914 -0.4348
 3690SOL     OW22531   2.394   3.738   5.129  0.3094  0.2230  0.0235
 3690SOL    HW122532   2.314   3.785   5.104 -0.6125 -1.5454 -0.3414
 3690SOL    HW222533   2.372   3.703   5.215  0.8891 -1.6426 -0.5956
 3691SOL     OW22534   0.458   2.916   7.631 -0.5347 -0.2526 -0.0251
 3691SOL    HW122535   0.391   2.947   7.692  0.0668 -0.3042  0.6590
 3691SOL    HW222536   0.540   2.935   7.677 -1.9123  2.2987  1.3882
 3692SOL     OW22537   4.169   0.533   4.109  0.2928  0.2450  0.5162
 3692SOL    HW122538   4.116   0.590   4.054  1.3046 -1.8762 -2.6659
 3692SOL    HW222539   4.216   0.493   4.036  0.6828  0.7054  0.5174
 3693SOL     OW22540   1.557   4.558   3.345 -0.0577  0.3161  0.3298
 3693SOL    HW122541   1.621   4.495   3.376  0.1928  0.9638  1.1315
 3693SOL    HW222542   1.482   4.507   3.314  0.3934  0.6635 -1.3125
 3694SOL     OW22543   3.051   0.818   1.985 -0.2085 -0.2072 -0.2350
 3694SOL    HW122544   3.137   0.798   1.947 -0.0827  1.0341 -0.5916
 3694SOL    HW222545   3.050   0.912   1.967 -0.0997  0.1663  1.6884
 3695SOL     OW22546   1.269   2.580  12.243  0.8385  0.3105 -0.6737
 3695SOL    HW122547   1.265   2.501  12.190 -2.1627 -0.3099  0.5128
 3695SOL    HW222548   1.268   2.544  12.332  4.6255 -0.1755 -0.8013
 3696SOL     OW22549   2.632   3.001   3.595 -0.5086 -0.2152  0.4558
 3696SOL    HW122550   2.714   3.044   3.573 -1.5194  0.5391 -1.8723
 3696SOL    HW222551   2.656   2.909   3.601  1.7715  0.4022  0.6135
 3697SOL     OW22552   3.594   3.255   4.582 -0.0459  0.3491  0.0274
 3697SOL    HW122553   3.669   3.196   4.587 -0.8824 -0.5101  2.3164
 3697SOL    HW222554   3.601   3.279   4.490 -0.9619 -2.7013 -0.8411
 3698SOL     OW22555   0.840   1.039   8.413  0.2902 -0.0786 -0.3232
 3698SOL    HW122556   0.927   1.065   8.383  1.4088 -1.6903  1.5557
 3698SOL    HW222557   0.816   1.113   8.469 -0.8911 -0.1729 -0.7102
 3699SOL     OW22558   4.393   3.730   8.541  0.5525 -0.2021  0.5919
 3699SOL    HW122559   4.409   3.735   8.447 -1.1812 -0.5343  0.2805
 3699SOL    HW222560   4.450   3.796   8.581 -1.7320  1.6863  0.7377
 3700SOL     OW22561   4.321   2.575   2.674  0.1559  0.4116 -0.1004
 3700SOL    HW122562   4.286   2.599   2.588  0.7917  0.8313 -0.2472
 3700SOL    HW222563   4.239   2.548   2.716  0.5896 -0.8357 -0.0549
 3701SOL     OW22564   3.742   2.957   8.234 -0.1658  0.2353  0.0263
 3701SOL    HW122565   3.825   2.909   8.236 -0.3935 -0.2719 -2.7638
 3701SOL    HW222566   3.719   2.935   8.324  1.8626 -1.8158  0.0505
 3702SOL     OW22567   1.540   0.551   1.273  0.2494  0.5159 -0.7386
 3702SOL    HW122568   1.614   0.505   1.233  0.6241 -0.0184  0.5623
 3702SOL    HW222569   1.529   0.630   1.221  1.7622  1.1305 -0.1377
 3703SOL     OW22570   2.335   4.314   9.587  0.1373  0.1075 -0.3778
 3703SOL    HW122571   2.332   4.231   9.636  0.4254  0.6810  0.6086
 3703SOL    HW222572   2.304   4.374   9.655  0.1889 -2.2309  1.6985
 3704SOL     OW22573   0.760   4.248   7.185  0.5937  1.1033  0.7742
 3704SOL    HW122574   0.775   4.312   7.255  0.0509  1.1022  0.8938
 3704SOL    HW222575   0.695   4.298   7.136  1.1724 -0.9114 -2.0630
 3705SOL     OW22576   3.987   4.402  14.742 -0.2047 -0.2207 -0.1949
 3705SOL    HW122577   4.041   4.464  14.692 -1.4874 -0.5237 -1.9435
 3705SOL    HW222578   4.026   4.319  14.712 -2.1366 -0.7582 -1.2278
 3706SOL     OW22579   4.532   3.577  14.236 -0.0170 -0.7678 -0.2592
 3706SOL    HW122580   4.482   3.572  14.318  1.9733 -0.8483  0.9336
 3706SOL    HW222581   4.512   3.488  14.206 -2.4322 -0.8293  1.4552
 3707SOL     OW22582   0.776   3.848   6.220  0.2185 -0.1281 -0.2875
 3707SOL    HW122583   0.811   3.782   6.160  1.4170 -1.2479  1.6459
 3707SOL    HW222584   0.770   3.797   6.300 -0.1572  2.0363  1.0692
 3708SOL     OW22585   0.804   1.516   5.418  0.3838 -0.2320  0.0602
 3708SOL    HW122586   0.853   1.596   5.437  2.3260 -0.7498 -2.7260
 3708SOL    HW222587   0.825   1.510   5.325 -3.2516 -0.1890 -0.7536
 3709SOL     OW22588   2.359   1.358   6.173  0.6560  0.0584 -0.0210
 3709SOL    HW122589   2.287   1.405   6.130 -0.0079 -0.0788  0.9386
 3709SOL    HW222590   2.363   1.405   6.256  1.0881  0.5636 -0.3253
 3710SOL     OW22591   1.422   0.526   5.053  0.2847 -0.1581 -0.1043
 3710SOL    HW122592   1.492   0.553   5.113 -0.7163 -0.3093  1.1254
 3710SOL    HW222593   1.487   0.510   4.984  1.1503 -1.5942  1.0490
 3711SOL     OW22594   2.042   1.233   2.521 -0.1676  0.6876 -0.4842
 3711SOL    HW122595   2.051   1.316   2.475  1.2716  1.3923  1.0336
 3711SOL    HW222596   2.107   1.251   2.590 -0.3860 -0.1637 -0.0589
 3712SOL     OW22597   1.328   0.383   0.481  0.3134  0.0946  0.3087
 3712SOL    HW122598   1.391   0.335   0.534 -0.1554  1.9734  2.6063
 3712SOL    HW222599   1.297   0.313   0.424  1.4791 -1.7518  1.9483
 3713SOL     OW22600   1.965   3.894   5.004  0.2144  0.3855  0.1129
 3713SOL    HW122601   1.951   3.845   5.085  2.9095  0.0437  0.3847
 3713SOL    HW222602   2.037   3.951   5.035  1.2062 -0.0688 -1.3717
 3714SOL     OW22603   1.856   0.735  12.557  0.4177 -0.2284 -0.0066
 3714SOL    HW122604   1.904   0.653  12.546  2.5017  0.7919  1.5453
 3714SOL    HW222605   1.765   0.707  12.567  0.8370 -1.7350 -0.3989
 3715SOL     OW22606   3.240   1.050   8.356  0.1678  0.5424 -0.3664
 3715SOL    HW122607   3.313   0.988   8.354 -0.3159  0.0433 -2.2668
 3715SOL    HW222608   3.162   0.996   8.360  0.3931  0.4090  2.6979
 3716SOL     OW22609   1.981   4.526  15.218 -0.0145  0.1941  0.4213
 3716SOL    HW122610   1.906   4.468  15.233  1.0617 -1.4457 -0.5129
 3716SOL    HW222611   1.947   4.615  15.211 -2.0619 -0.5433  1.0454
 3717SOL     OW22612   4.708   2.324  10.197 -0.8758  0.2153 -0.4683
 3717SOL    HW122613   4.651   2.304  10.271 -0.7900  1.9243  0.0680
 3717SOL    HW222614   4.648   2.381  10.149 -0.3305  0.0803 -1.3001
 3718SOL     OW22615   2.526   4.713   0.573 -0.2905 -0.1183 -0.2383
 3718SOL    HW122616   2.554   4.622   0.577 -3.2821 -1.0460 -0.8179
 3718SOL    HW222617   2.604   0.032   0.608  0.3773 -1.0410 -0.5807
 3719SOL     OW22618   3.226   0.690   6.790 -0.0145  0.3288  0.4826
 3719SOL    HW122619   3.134   0.706   6.811 -0.5778  1.0679 -2.4531
 3719SOL    HW222620   3.229   0.595   6.793 -2.9296  0.2356  0.3576
 3720SOL     OW22621   2.270   0.357   6.806 -0.1441 -0.1400 -0.1212
 3720SOL    HW122622   2.271   0.361   6.710  4.0732 -0.8601 -0.0874
 3720SOL    HW222623   2.309   0.441   6.830  2.4865 -1.0763 -1.1096
 3721SOL     OW22624   2.584   1.166   7.636 -0.0982 -0.3994 -0.6567
 3721SOL    HW122625   2.583   1.073   7.658  1.0516 -0.7026 -1.9284
 3721SOL    HW222626   2.558   1.206   7.719  3.3947 -0.7412  0.6016
 3722SOL     OW22627   0.820   1.120  12.364  0.0355 -0.0330 -0.2674
 3722SOL    HW122628   0.750   1.072  12.321  0.5042 -1.5861  0.7332
 3722SOL    HW222629   0.889   1.112  12.298 -1.7592 -1.5848 -1.9077
 3723SOL     OW22630   0.392   2.391   5.852  0.3066 -0.2447  0.4161
 3723SOL    HW122631   0.485   2.371   5.866 -0.0332 -1.6433  0.6033
 3723SOL    HW222632   0.409   2.482   5.826 -0.7249  0.1273  1.0546
 3724SOL     OW22633   4.191   1.336  13.618  0.3492 -0.4567  0.1588
 3724SOL    HW122634   4.255   1.291  13.564 -0.7993 -0.4183 -1.2224
 3724SOL    HW222635   4.108   1.300  13.586 -0.4565  0.0415  1.6961
 3725SOL     OW22636   4.046   0.673   6.220  0.2473 -0.0947 -0.3387
 3725SOL    HW122637   4.087   0.591   6.247 -0.7636  0.0987  1.8406
 3725SOL    HW222638   4.061   0.718   6.303  0.1651 -0.9603  0.1482
 3726SOL     OW22639   3.153   4.605   9.668  0.3924 -0.1677 -0.0116
 3726SOL    HW122640   3.183   4.556   9.592  1.3622 -0.6407  0.6868
 3726SOL    HW222641   3.067   4.636   9.639  0.1241 -1.4663 -0.6139
 3727SOL     OW22642   1.110   1.137   8.332 -0.1803  0.5959 -0.3830
 3727SOL    HW122643   1.122   1.186   8.413  0.1714  1.0407 -0.7014
 3727SOL    HW222644   1.184   1.160   8.276  0.5516  0.3332  0.4788
 3728SOL     OW22645   2.249   0.301  17.056  0.1457  0.0936  0.7984
 3728SOL    HW122646   2.166   0.299  17.104 -1.3971 -1.3487 -1.9231
 3728SOL    HW222647   2.266   0.208  17.042 -0.7662  0.2607 -1.5339
 3729SOL     OW22648   2.248   1.219   7.122  0.1834  0.3257  0.2676
 3729SOL    HW122649   2.180   1.183   7.065 -0.1550 -1.0529  1.5665
 3729SOL    HW222650   2.243   1.313   7.102 -1.4611 -0.3523 -2.6234
 3730SOL     OW22651   0.519   0.222   6.375 -0.1252 -0.2557  0.5430
 3730SOL    HW122652   0.546   0.224   6.283 -2.3255  0.5756 -0.1093
 3730SOL    HW222653   0.510   0.129   6.397  0.5967 -1.1914 -3.0466
 3731SOL     OW22654   0.843   0.857  14.806 -0.1504 -0.0765  0.3095
 3731SOL    HW122655   0.763   0.831  14.852 -0.7004 -1.1593 -1.2704
 3731SOL    HW222656   0.890   0.779  14.836  2.5013  1.5835  0.4771
 3732SOL     OW22657   4.484   2.706  11.454 -0.0713 -0.0264  0.1985
 3732SOL    HW122658   4.408   2.696  11.397  0.7714 -1.7460 -0.6162
 3732SOL    HW222659   4.456   2.680  11.542  0.6837 -3.9788 -0.7241
 3733SOL     OW22660   2.098   3.381   8.385 -0.5927  0.0123 -0.1800
 3733SOL    HW122661   2.169   3.386   8.449  0.5603 -2.3151 -1.2625
 3733SOL    HW222662   2.136   3.441   8.321 -0.3979 -1.2895 -1.2862
 3734SOL     OW22663   4.700   2.646   3.710 -0.1843  0.0592 -0.4986
 3734SOL    HW122664   4.657   2.710   3.766  3.5619  1.3518  0.9433
 3734SOL    HW222665   4.686   2.566   3.760  0.3220  0.1031 -0.2872
 3735SOL     OW22666   2.104   1.900   2.822 -0.0586  0.1201 -0.6244
 3735SOL    HW122667   2.168   1.922   2.754  1.5169 -1.1259  0.4654
 3735SOL    HW222668   2.028   1.953   2.794 -0.0800  0.3507 -0.1336
 3736SOL     OW22669   3.367   2.167   4.789  0.6603 -0.5376  0.0364
 3736SOL    HW122670   3.455   2.128   4.784  0.2837 -1.3194 -0.4138
 3736SOL    HW222671   3.387   2.255   4.757 -1.5218 -0.6661 -1.6901
 3737SOL     OW22672   3.828   4.626   9.729 -0.3279 -0.0991  0.5148
 3737SOL    HW122673   3.899   4.614   9.667 -0.7479  0.6998 -0.1292
 3737SOL    HW222674   3.868   4.614   9.815 -0.2604  1.1727  0.6671
 3738SOL     OW22675   1.840   2.720  11.133  0.3926  0.2244 -0.5429
 3738SOL    HW122676   1.902   2.773  11.183  0.4545 -1.5172  1.2113
 3738SOL    HW222677   1.897   2.674  11.071 -0.5125 -0.0640 -1.1662
 3739SOL     OW22678   1.916   2.267   0.907 -0.1141 -0.2270 -0.0347
 3739SOL    HW122679   1.988   2.218   0.947 -0.9726  1.3040  3.3663
 3739SOL    HW222680   1.947   2.353   0.935  0.0944 -0.7552  1.3618
 3740SOL     OW22681   4.234   0.025  11.231 -0.0322  0.0477 -0.0471
 3740SOL    HW122682   4.285   4.710  11.160 -1.1761  0.8973 -1.3632
 3740SOL    HW222683   4.294   0.031  11.305 -1.5033 -0.4481  1.1926
 3741SOL     OW22684   0.546   0.006   7.440 -0.3678  0.3511  0.0532
 3741SOL    HW122685   0.451   0.003   7.440 -0.3379 -0.5059  1.3070
 3741SOL    HW222686   0.573   4.712   7.530 -1.3393 -2.2234 -0.1755
 3742SOL     OW22687   1.630   2.866   4.353  0.0885  0.0804 -0.1571
 3742SOL    HW122688   1.608   2.786   4.402 -1.1930  0.5021 -0.0637
 3742SOL    HW222689   1.704   2.895   4.407  1.8278 -0.0714 -2.4468
 3743SOL     OW22690   2.904   3.840   7.205 -0.3247 -0.5750 -0.3119
 3743SOL    HW122691   2.878   3.755   7.241 -2.4335 -0.4149 -1.4118
 3743SOL    HW222692   2.998   3.831   7.219 -0.6188 -2.7182  0.2113
 3744SOL     OW22693   0.045   2.336   6.569  0.0887 -0.2943  0.2965
 3744SOL    HW122694   0.050   2.272   6.640  0.3942  0.1064  0.6303
 3744SOL    HW222695   0.099   2.411   6.593  0.8011 -0.5064 -0.6393
 3745SOL     OW22696   0.269   1.104   6.326 -0.2578 -0.0451 -0.1347
 3745SOL    HW122697   0.353   1.133   6.361  0.1473 -0.6055 -0.6402
 3745SOL    HW222698   0.291   1.106   6.233 -0.7262 -1.0098 -0.2675
 3746SOL     OW22699   0.426   3.343   2.431  0.0702  0.0391 -0.0684
 3746SOL    HW122700   0.349   3.380   2.387  0.4173 -0.0845 -0.7858
 3746SOL    HW222701   0.396   3.321   2.519 -0.8976 -1.6589 -0.8274
 3747SOL     OW22702   1.419   2.485   2.061 -0.2884 -0.0531 -0.8575
 3747SOL    HW122703   1.378   2.541   1.995  0.4559  0.3917 -0.9377
 3747SOL    HW222704   1.417   2.400   2.016 -0.2967  0.6748 -2.2511
 3748SOL     OW22705   1.033   0.027   2.412  0.3820 -0.4744 -0.1924
 3748SOL    HW122706   0.962   4.688   2.413 -0.9611  1.0290  0.3825
 3748SOL    HW222707   1.086   4.722   2.339 -0.2046  1.4159 -1.3906
 3749SOL     OW22708   1.726   3.859   6.298  0.5022  0.3482 -0.0169
 3749SOL    HW122709   1.813   3.898   6.302  0.0746  1.2134  0.7351
 3749SOL    HW222710   1.691   3.863   6.387  0.3606 -1.1958  0.0064
 3750SOL     OW22711   1.905   3.646   9.466 -0.2704 -0.4653 -0.2887
 3750SOL    HW122712   1.990   3.621   9.503 -0.4684 -0.5585  0.0981
 3750SOL    HW222713   1.888   3.581   9.398 -2.7139  1.8244 -1.8439
 3751SOL     OW22714   2.495   4.376  14.165 -0.4668 -0.1640  0.0101
 3751SOL    HW122715   2.502   4.309  14.232 -1.8730 -1.6517 -1.3337
 3751SOL    HW222716   2.500   4.311  14.095  1.2239 -0.8339  0.7487
 3752SOL     OW22717   3.955   2.884   3.182  0.6393 -0.2058 -0.5788
 3752SOL    HW122718   4.041   2.904   3.219  0.8636  1.7540 -2.1505
 3752SOL    HW222719   3.944   2.952   3.115  1.0772  1.5540  1.1380
 3753SOL     OW22720   1.208   2.663  16.118  0.5620 -0.2165 -0.2572
 3753SOL    HW122721   1.120   2.651  16.153  0.2072 -1.2967 -1.4821
 3753SOL    HW222722   1.257   2.674  16.199  1.3739 -2.0311 -0.4937
 3754SOL     OW22723   2.243   1.918   3.820  0.1953 -0.2739  0.2527
 3754SOL    HW122724   2.153   1.902   3.847 -0.2247  2.1502  0.3091
 3754SOL    HW222725   2.234   1.890   3.729  1.8996  2.4819 -0.7706
 3755SOL     OW22726   1.722   0.775   2.427  0.3902 -0.6015  0.5202
 3755SOL    HW122727   1.768   0.809   2.503  2.2583 -3.1706  0.5203
 3755SOL    HW222728   1.649   0.837   2.424  2.7411  2.1024 -0.7131
 3756SOL     OW22729   3.266   1.857   0.397  0.5687  0.0944  0.2181
 3756SOL    HW122730   3.361   1.854   0.410  0.4880  0.7920  0.9836
 3756SOL    HW222731   3.251   1.939   0.349  0.7333 -0.3767 -0.6416
 3757SOL     OW22732   2.894   1.960   5.241  0.7940 -0.0932 -0.3825
 3757SOL    HW122733   2.886   1.871   5.207 -3.1964  0.3605 -0.7025
 3757SOL    HW222734   2.948   1.949   5.319  0.8709 -0.8849 -0.5505
 3758SOL     OW22735   2.176   2.383   1.915 -0.5724 -0.3627 -0.3088
 3758SOL    HW122736   2.200   2.470   1.882  0.3034  0.6433  2.9732
 3758SOL    HW222737   2.106   2.360   1.853  0.1637 -0.1579 -1.2201
 3759SOL     OW22738   1.546   3.813   6.558 -0.0641 -0.2077  0.5017
 3759SOL    HW122739   1.592   3.729   6.565  0.9424  0.2253 -0.9510
 3759SOL    HW222740   1.483   3.811   6.630 -0.6805 -0.4016 -0.0449
 3760SOL     OW22741   0.275   2.156   8.174  0.7119  0.1926  0.0348
 3760SOL    HW122742   0.269   2.070   8.218 -2.7976  1.0326  1.2289
 3760SOL    HW222743   0.268   2.135   8.081 -0.1417  1.9000 -0.2896
 3761SOL     OW22744   0.707   0.783   8.090 -0.3339 -0.1253  0.0405
 3761SOL    HW122745   0.741   0.749   8.172 -2.0674  0.9072  1.1797
 3761SOL    HW222746   0.627   0.826   8.120  0.8391  3.4128 -1.8323
 3762SOL     OW22747   1.975   3.091   2.984  0.0907  0.3140 -0.3356
 3762SOL    HW122748   1.919   3.023   2.945  1.7937 -1.3589  0.1398
 3762SOL    HW222749   2.055   3.091   2.931  0.7335  2.4926  0.6259
 3763SOL     OW22750   2.014   2.231   7.939  0.4456  0.6794 -0.3731
 3763SOL    HW122751   2.032   2.292   7.867 -0.7769 -0.1151 -1.3455
 3763SOL    HW222752   1.931   2.268   7.967  0.4264  0.9560 -0.7975
 3764SOL     OW22753   2.533   0.511   4.349  0.8880 -0.4006  0.5960
 3764SOL    HW122754   2.479   0.482   4.423 -0.6122  0.9555  0.0206
 3764SOL    HW222755   2.579   0.572   4.407  0.4929 -0.1952  0.7004
 3765SOL     OW22756   1.825   2.546   8.357 -0.6054 -0.6383  0.2048
 3765SOL    HW122757   1.883   2.571   8.429  0.6222  0.4844 -1.1654
 3765SOL    HW222758   1.758   2.614   8.360  0.2395  0.2149 -0.1079
 3766SOL     OW22759   4.336   0.124  14.681 -0.0208 -0.5877 -0.4626
 3766SOL    HW122760   4.367   0.210  14.652 -0.7641 -0.3941 -0.6644
 3766SOL    HW222761   4.245   0.145  14.703  0.5214 -0.2499  1.4109
 3767SOL     OW22762   0.105   4.583   5.614 -0.5221 -0.6518  0.0317
 3767SOL    HW122763   0.183   4.624   5.650 -0.5892 -0.2003 -0.3483
 3767SOL    HW222764   0.069   4.650   5.557  0.1893 -1.5529 -1.4728
 3768SOL     OW22765   3.931   0.736   5.211  0.5508 -0.8177  0.2239
 3768SOL    HW122766   4.018   0.761   5.180  0.9249 -2.8418 -0.3320
 3768SOL    HW222767   3.884   0.798   5.155  1.4735  0.1118  0.4894
 3769SOL     OW22768   1.678   4.238   9.867 -0.1558 -0.4611 -0.0936
 3769SOL    HW122769   1.652   4.153   9.901 -1.9962 -0.4517 -1.4421
 3769SOL    HW222770   1.643   4.293   9.938 -0.9972 -0.2825 -0.6467
 3770SOL     OW22771   2.826   2.278   4.547  0.0169 -0.7795  0.5036
 3770SOL    HW122772   2.867   2.195   4.523  1.3782  0.2711 -0.7991
 3770SOL    HW222773   2.903   2.333   4.533 -1.2705  0.6004 -1.3153
 3771SOL     OW22774   2.571   0.740   0.872  0.4568  0.5239 -0.0039
 3771SOL    HW122775   2.602   0.691   0.796 -0.1457  1.1256 -0.6407
 3771SOL    HW222776   2.632   0.813   0.865  0.5327  0.4631  0.0209
 3772SOL     OW22777   1.647   1.049  15.803  0.5931 -0.3509 -0.2325
 3772SOL    HW122778   1.605   1.106  15.738  1.4904  1.2149  0.5567
 3772SOL    HW222779   1.586   1.062  15.876  1.1406 -0.6735  0.2865
 3773SOL     OW22780   0.273   1.985  12.995 -0.3976 -0.8730  0.1804
 3773SOL    HW122781   0.340   2.054  13.003 -2.1041  1.0953 -2.4537
 3773SOL    HW222782   0.314   1.904  13.026  0.5895 -0.3984  0.1275
 3774SOL     OW22783   2.398   0.462   0.718 -0.1614  0.0019 -0.2141
 3774SOL    HW122784   2.426   0.519   0.646 -0.4006  0.1956 -0.1536
 3774SOL    HW222785   2.304   0.476   0.708 -0.6188 -1.8575  1.5124
 3775SOL     OW22786   1.827   2.426  14.675  0.2450 -0.0901  0.4418
 3775SOL    HW122787   1.919   2.423  14.649  0.0610  2.3354 -0.4561
 3775SOL    HW222788   1.815   2.331  14.681 -2.0400  0.2249  0.7866
 3776SOL     OW22789   0.104   1.025   2.867  0.0364 -0.4894  0.5078
 3776SOL    HW122790   0.128   0.949   2.921  2.5129  1.2027  1.8185
 3776SOL    HW222791   0.180   1.083   2.862 -0.2632 -0.0255  1.3254
 3777SOL     OW22792   0.295   2.405   9.803  0.0806 -0.3084 -0.2977
 3777SOL    HW122793   0.296   2.465   9.878  1.3971  1.3992 -1.6744
 3777SOL    HW222794   0.204   2.413   9.775  0.7025 -2.2561 -2.8776
 3778SOL     OW22795   3.967   4.339   3.903  0.4016  0.2754  0.1560
 3778SOL    HW122796   3.973   4.377   3.815  1.1243  1.9601  0.9481
 3778SOL    HW222797   3.991   4.248   3.883 -1.3957  0.1211 -1.2340
 3779SOL     OW22798   2.641   0.821   0.105  0.5696 -0.8698 -0.3873
 3779SOL    HW122799   2.661   0.787   0.018  1.5113 -0.2906 -0.3977
 3779SOL    HW222800   2.612   0.747   0.158  2.0288 -1.0710  0.1440
 3780SOL     OW22801   0.360   3.114  17.044 -0.3778  0.0697  0.0474
 3780SOL    HW122802   0.362   3.027  17.083  0.4223 -0.3589 -0.9303
 3780SOL    HW222803   0.440   3.152  17.080 -1.6148  2.0998  0.6413
 3781SOL     OW22804   2.755   2.680   4.344  0.3296  0.4174  0.1569
 3781SOL    HW122805   2.676   2.734   4.352 -0.8819 -1.5897  1.8851
 3781SOL    HW222806   2.812   2.715   4.412 -0.6403  0.6837  0.8357
 3782SOL     OW22807   2.941   1.949   6.715  0.2520  0.4747 -0.2898
 3782SOL    HW122808   2.907   1.918   6.632  1.2891  0.8932 -0.8716
 3782SOL    HW222809   3.008   1.884   6.736  0.8248  1.3953  0.7901
 3783SOL     OW22810   2.354   3.531   8.440  0.3563 -0.3733  0.1093
 3783SOL    HW122811   2.319   3.484   8.516 -0.4940 -1.8039 -1.1614
 3783SOL    HW222812   2.444   3.512   8.464  0.5338  1.6914  1.0883
 3784SOL     OW22813   4.267   2.125   1.719 -0.0983 -0.3455 -0.3753
 3784SOL    HW122814   4.252   2.161   1.806 -0.4810  0.0354 -0.6020
 3784SOL    HW222815   4.260   2.031   1.739 -0.5167 -0.3431 -0.5158
 3785SOL     OW22816   2.543   2.979   9.041  0.1373  0.2005 -0.4815
 3785SOL    HW122817   2.538   3.043   9.112  2.2414 -0.3247  0.1334
 3785SOL    HW222818   2.504   3.028   8.968 -1.3755 -1.8549 -1.0439
 3786SOL     OW22819   1.686   2.564   6.863  1.2508  0.2267  0.2443
 3786SOL    HW122820   1.612   2.601   6.911  1.3601 -2.2692  2.3666
 3786SOL    HW222821   1.728   2.638   6.820  0.3947  0.8309  0.4456
 3787SOL     OW22822   0.409   1.656   6.163 -0.3544 -0.6600  0.3887
 3787SOL    HW122823   0.345   1.690   6.101  1.8257  1.3055 -0.7880
 3787SOL    HW222824   0.352   1.647   6.239  1.3687  1.3203  1.9178
 3788SOL     OW22825   2.916   4.705   3.517 -0.6695  0.2185 -0.0201
 3788SOL    HW122826   2.940   4.616   3.543  0.4879  0.3866 -0.5183
 3788SOL    HW222827   3.001   0.024   3.524 -1.4545  1.9131 -1.3775
 3789SOL     OW22828   2.384   2.401   7.295  0.1249  0.2797  0.1852
 3789SOL    HW122829   2.322   2.409   7.222  0.3740  2.3889  0.1820
 3789SOL    HW222830   2.342   2.341   7.356 -0.7853  0.8688  0.1376
 3790SOL     OW22831   0.219   3.604  13.910 -0.3617  0.7564  0.2194
 3790SOL    HW122832   0.186   3.578  13.824 -1.1558 -0.7784  0.9891
 3790SOL    HW222833   0.138   3.616  13.959 -1.6639  0.5896 -1.9071
 3791SOL     OW22834   0.874   0.179   6.938 -0.1183 -0.2661  0.6089
 3791SOL    HW122835   0.909   0.160   7.025 -0.0226  3.8611  1.4756
 3791SOL    HW222836   0.829   0.096   6.923  0.6345 -0.5274 -0.1773
 3792SOL     OW22837   3.254   4.586   6.683 -0.0047  0.4887  0.1923
 3792SOL    HW122838   3.288   4.606   6.770  2.3150 -0.8059 -0.4238
 3792SOL    HW222839   3.306   4.640   6.624  0.8643 -1.7195 -1.0553
 3793SOL     OW22840   1.697   4.669   4.248  0.7132 -0.1997 -0.5558
 3793SOL    HW122841   1.700   4.574   4.260  0.2984 -0.6380 -3.7952
 3793SOL    HW222842   1.734   4.681   4.161  1.5853  1.1400  0.0048
 3794SOL     OW22843   3.506   1.712  14.850  0.0874 -0.8045 -0.4930
 3794SOL    HW122844   3.492   1.803  14.826  1.7775 -0.5545 -0.5812
 3794SOL    HW222845   3.438   1.711  14.917  0.3686  0.2939 -0.1969
 3795SOL     OW22846   3.276   2.177  15.892 -0.3110  0.0433 -0.1209
 3795SOL    HW122847   3.316   2.254  15.853  0.8261 -0.0435  0.8791
 3795SOL    HW222848   3.283   2.204  15.984 -3.3745 -1.2897  0.5152
 3796SOL     OW22849   0.262   4.070  10.082 -0.1436 -0.1720 -0.3598
 3796SOL    HW122850   0.194   4.131  10.053  0.3111  0.0902 -0.8672
 3796SOL    HW222851   0.328   4.119  10.032 -1.0085  1.3797 -0.0074
 3797SOL     OW22852   2.673   4.059   2.079  0.2501 -0.1182 -0.2132
 3797SOL    HW122853   2.605   4.106   2.127 -0.3426 -0.7247 -0.4614
 3797SOL    HW222854   2.731   4.128   2.046 -1.7946  2.3238  1.2705
 3798SOL     OW22855   0.113   4.684  10.158 -0.0477 -0.0123  0.1963
 3798SOL    HW122856   0.061   4.609  10.131 -1.1650 -0.0454  2.4181
 3798SOL    HW222857   0.204   4.661  10.139 -0.1819  0.6300 -1.2259
 3799SOL     OW22858   2.528   0.517   6.821  0.3952  0.3941 -0.1943
 3799SOL    HW122859   2.586   0.460   6.770 -0.6877 -0.6716 -0.2397
 3799SOL    HW222860   2.545   0.478   6.907  0.1611  0.6055 -0.0539
 3800SOL     OW22861   3.294   1.313  15.552 -0.2901 -0.1109 -0.5945
 3800SOL    HW122862   3.291   1.264  15.634  3.4455  1.8669  0.7159
 3800SOL    HW222863   3.218   1.269  15.514  1.0318 -2.6130 -0.3790
 3801SOL     OW22864   0.959   3.675   6.067 -0.4712  0.6059  0.3719
 3801SOL    HW122865   1.020   3.612   6.106 -0.5192 -0.3492 -1.1316
 3801SOL    HW222866   1.001   3.706   5.986 -2.0794  0.4438 -0.5123
 3802SOL     OW22867   2.741   0.281   5.394  0.2835  0.1489  0.2972
 3802SOL    HW122868   2.653   0.298   5.429  0.2573  1.8694 -0.6673
 3802SOL    HW222869   2.780   0.362   5.361 -1.8676  1.1112  0.1572
 3803SOL     OW22870   4.176   3.738   8.241  0.8784  0.5099  0.6498
 3803SOL    HW122871   4.264   3.746   8.279  0.5693 -1.2574  1.7417
 3803SOL    HW222872   4.197   3.683   8.165 -2.7946 -0.1203  0.1135
 3804SOL     OW22873   3.613   3.113  13.655  0.1173  0.0332  0.2781
 3804SOL    HW122874   3.555   3.038  13.665  0.6895 -0.4385  0.0638
 3804SOL    HW222875   3.692   3.084  13.701 -0.6707 -1.3332  0.7504
 3805SOL     OW22876   2.661   2.915   1.323 -0.0157  0.8022  0.6768
 3805SOL    HW122877   2.751   2.883   1.312 -0.0219  0.5714  1.3371
 3805SOL    HW222878   2.627   2.865   1.249  1.7380 -1.1737  1.1939
 3806SOL     OW22879   3.760   0.962  17.226 -0.6067 -0.3585  0.9439
 3806SOL    HW122880   3.782   0.924  17.142 -2.7227 -0.1312  0.2864
 3806SOL    HW222881   3.842   1.006  17.251 -1.1572  0.7268  0.8552
 3807SOL     OW22882   4.505   0.830   0.166  1.1992 -0.3003  0.2430
 3807SOL    HW122883   4.537   0.800   0.081  3.2727  0.0784  0.8820
 3807SOL    HW222884   4.578   0.823   0.228  1.0292  0.1188  0.4961
 3808SOL     OW22885   2.417   2.478   3.117  0.0901  0.4497 -0.8853
 3808SOL    HW122886   2.424   2.451   3.025 -1.8490  0.6217 -1.0813
 3808SOL    HW222887   2.322   2.480   3.132  0.1937  3.3654 -0.5967
 3809SOL     OW22888   2.313   0.380   9.301  0.4043  0.0873  0.0313
 3809SOL    HW122889   2.289   0.300   9.255  1.4508  0.2272 -0.7662
 3809SOL    HW222890   2.226   0.405   9.332  1.2496  1.3247  1.3961
 3810SOL     OW22891   4.070   1.634  10.868  0.1418 -0.2351  0.1945
 3810SOL    HW122892   4.160   1.615  10.896  0.4652 -0.8119 -1.2527
 3810SOL    HW222893   4.032   1.546  10.868  0.8384 -0.5367  2.5165
 3811SOL     OW22894   2.672   2.771  10.404  0.0938 -0.3242 -0.4711
 3811SOL    HW122895   2.659   2.707  10.474 -0.6000 -1.4579 -1.6264
 3811SOL    HW222896   2.613   2.731  10.339 -0.3574  1.1272 -0.9473
 3812SOL     OW22897   1.224   0.891  13.161 -0.1796 -0.5658  0.5237
 3812SOL    HW122898   1.278   0.879  13.083  1.0173 -0.5890  1.3478
 3812SOL    HW222899   1.152   0.834  13.135  0.3620  0.0054 -2.2288
 3813SOL     OW22900   2.657   0.326  14.002  0.0386 -0.1301  0.1117
 3813SOL    HW122901   2.683   0.358  13.916  1.3741  0.4175  0.7246
 3813SOL    HW222902   2.727   0.366  14.054 -0.2468 -0.9282  1.1160
 3814SOL     OW22903   0.295   4.015   5.279 -0.0531 -0.5284  0.3219
 3814SOL    HW122904   0.386   4.044   5.276  0.0732 -0.8873  0.8005
 3814SOL    HW222905   0.247   4.097   5.269  1.1865 -0.0900 -2.0178
 3815SOL     OW22906   0.103   2.045   9.603  0.1906 -0.1603 -0.3190
 3815SOL    HW122907   0.158   1.983   9.651 -1.2785 -1.0270  0.2491
 3815SOL    HW222908   0.174   2.080   9.548  1.6457 -1.0405  0.9925
 3816SOL     OW22909   0.774   4.368   4.853  0.4523 -0.3123  0.0529
 3816SOL    HW122910   0.711   4.345   4.922 -1.0995  0.7274 -1.0087
 3816SOL    HW222911   0.788   4.282   4.814 -0.2646 -0.3306 -0.1786
 3817SOL     OW22912   2.602   4.614   3.784 -0.1484 -0.1800 -0.1582
 3817SOL    HW122913   2.650   4.539   3.819  2.6258  1.0709 -1.3473
 3817SOL    HW222914   2.513   4.582   3.767 -0.6369  0.9789  0.2214
 3818SOL     OW22915   2.326   1.492   4.359  0.5357 -0.4498 -0.6486
 3818SOL    HW122916   2.286   1.456   4.437 -1.0404 -0.4985 -1.4868
 3818SOL    HW222917   2.355   1.578   4.390 -1.8845  1.0484 -2.5378
 3819SOL     OW22918   1.946   0.361   0.881 -0.4716 -0.3832  0.3921
 3819SOL    HW122919   1.854   0.376   0.862  0.4632  1.8770 -2.4183
 3819SOL    HW222920   1.951   0.266   0.872 -3.9558 -0.4887 -0.3500
 3820SOL     OW22921   3.659   2.451   4.954  0.8019  0.0076  0.6581
 3820SOL    HW122922   3.584   2.508   4.969  0.9652  0.7509 -1.3868
 3820SOL    HW222923   3.636   2.374   5.006 -1.1570  1.3557  1.7928
 3821SOL     OW22924   4.330   2.547  13.382  0.4729  0.1335 -0.0687
 3821SOL    HW122925   4.310   2.558  13.289  1.5904  1.7025 -0.1291
 3821SOL    HW222926   4.258   2.496  13.419  0.4659  0.2843  0.1316
 3822SOL     OW22927   1.918   4.398   8.220 -0.4263  0.1368 -0.4008
 3822SOL    HW122928   1.941   4.482   8.259  1.6632 -0.7391  0.2341
 3822SOL    HW222929   1.902   4.353   8.303 -0.8940  2.1043  0.5774
 3823SOL     OW22930   0.621   4.295   8.459  0.0158  0.0242 -0.4849
 3823SOL    HW122931   0.716   4.281   8.455  0.0852  0.3746 -0.0413
 3823SOL    HW222932   0.587   4.207   8.445  0.4880 -0.1666 -0.4342
 3824SOL     OW22933   0.600   4.574   8.872  0.1110 -0.1153 -0.6706
 3824SOL    HW122934   0.549   4.633   8.817  0.8786  1.4835  0.3169
 3824SOL    HW222935   0.650   4.524   8.807 -0.7160 -1.0210 -0.6013
 3825SOL     OW22936   3.801   1.187   0.037 -0.4143  0.3523  0.2074
 3825SOL    HW122937   3.832   1.268   0.079 -0.6702  1.4764 -1.7776
 3825SOL    HW222938   3.749   1.217  17.664 -2.0439 -1.5237  0.6004
 3826SOL     OW22939   0.344   0.707  14.457  0.0174 -0.6339  0.4096
 3826SOL    HW122940   0.344   0.658  14.375 -1.1044 -1.8727  1.1317
 3826SOL    HW222941   0.276   0.770  14.434  0.7482 -0.1784 -0.4982
 3827SOL     OW22942   2.348   3.765  11.457  0.0365 -0.3974  0.0915
 3827SOL    HW122943   2.339   3.851  11.498 -0.6003 -1.0898  1.4266
 3827SOL    HW222944   2.257   3.736  11.447  0.8201 -2.1367 -1.9379
 3828SOL     OW22945   4.528   3.670   6.677 -0.0032  0.0602  0.3423
 3828SOL    HW122946   4.434   3.683   6.673  0.0261  0.2289  0.2002
 3828SOL    HW222947   4.556   3.668   6.769 -3.8665 -1.2364  1.4703
 3829SOL     OW22948   3.693   3.584   2.600  0.0379  0.5615  0.2751
 3829SOL    HW122949   3.690   3.598   2.695  0.8140 -3.4202  0.8804
 3829SOL    HW222950   3.701   3.678   2.585 -0.2800  0.0042 -3.3066
 3830SOL     OW22951   3.748   0.112   7.332  0.0949 -0.2654  0.1638
 3830SOL    HW122952   3.729   0.174   7.401 -2.2528  2.1386 -2.6589
 3830SOL    HW222953   3.663   0.095   7.291 -0.0088 -3.1015  1.5136
 3831SOL     OW22954   4.137   0.962   3.257 -0.2296  0.1647 -0.0723
 3831SOL    HW122955   4.159   0.949   3.165 -1.2368 -0.0561 -0.2781
 3831SOL    HW222956   4.078   0.890   3.277 -1.1725  1.0397  0.2721
 3832SOL     OW22957   2.350   0.096   2.408 -0.8047 -0.0311 -0.3680
 3832SOL    HW122958   2.442   0.100   2.432 -0.9419  1.6285 -0.1031
 3832SOL    HW222959   2.318   0.017   2.452 -0.9019 -0.7076 -1.6355
 3833SOL     OW22960   1.686   0.446   2.147 -0.3806 -0.8992 -0.9487
 3833SOL    HW122961   1.675   0.384   2.219  1.0226 -1.8617 -1.5518
 3833SOL    HW222962   1.704   0.387   2.074 -1.7813 -0.5519 -1.5697
 3834SOL     OW22963   2.926   3.974   7.856 -0.4427 -0.2730 -0.4338
 3834SOL    HW122964   3.001   3.918   7.833 -0.4576  0.1867 -1.6214
 3834SOL    HW222965   2.869   3.902   7.883 -0.3829 -0.6688 -1.3700
 3835SOL     OW22966   0.021   4.657  16.196  0.7379  0.2703  0.2860
 3835SOL    HW122967   0.054   0.022  16.196  0.5361  0.3449  0.1017
 3835SOL    HW222968   0.060   4.622  16.116  0.0565 -0.0070  0.0722
 3836SOL     OW22969   1.264   1.137   7.180  0.2389 -0.3613 -0.2389
 3836SOL    HW122970   1.169   1.154   7.180  0.1298 -0.9502 -1.0150
 3836SOL    HW222971   1.293   1.184   7.258 -0.4466 -1.1419  0.4933
 3837SOL     OW22972   0.248   0.720   3.804 -0.7012 -0.1652  0.0141
 3837SOL    HW122973   0.271   0.628   3.815 -2.6876 -0.8831 -1.7268
 3837SOL    HW222974   0.170   0.707   3.749 -0.9901  0.5014  0.2616
 3838SOL     OW22975   3.051   4.359  11.860  0.6004 -0.3403  1.1043
 3838SOL    HW122976   3.096   4.442  11.840 -0.4340 -0.2477 -0.8171
 3838SOL    HW222977   3.113   4.325  11.923  1.4310 -0.2356  0.3480
 3839SOL     OW22978   4.323   1.699   8.086  0.1244 -0.0615 -0.4707
 3839SOL    HW122979   4.264   1.624   8.093  0.1263  0.0196  0.4428
 3839SOL    HW222980   4.323   1.707   7.991 -2.7172 -3.4778 -0.7852
 3840SOL     OW22981   0.827   1.888  15.461  0.4564  0.2376 -0.5187
 3840SOL    HW122982   0.738   1.905  15.432  0.7411  2.1487 -0.2495
 3840SOL    HW222983   0.814   1.841  15.543  0.4385 -0.0562 -0.6891
 3841SOL     OW22984   3.899   2.789  15.707  0.2358  0.4839 -0.6364
 3841SOL    HW122985   3.946   2.868  15.683  1.4489  0.9401  3.2740
 3841SOL    HW222986   3.910   2.785  15.802  1.2601 -1.4541 -0.8336
 3842SOL     OW22987   1.261   1.928  13.735 -0.2632  0.1340 -0.3615
 3842SOL    HW122988   1.245   1.854  13.677  0.4966  0.9122 -1.5721
 3842SOL    HW222989   1.338   1.894  13.782 -1.9909 -2.8860  0.2630
 3843SOL     OW22990   4.116   2.623   4.550  0.0534  0.1838  0.2146
 3843SOL    HW122991   4.164   2.547   4.518 -1.3708 -0.7313  0.2809
 3843SOL    HW222992   4.069   2.663   4.476  0.7770 -1.5934 -1.2105
 3844SOL     OW22993   1.805   1.444   9.347 -0.2643  0.3198  0.0341
 3844SOL    HW122994   1.818   1.357   9.310 -2.5777  0.5865 -1.3913
 3844SOL    HW222995   1.899   1.460   9.362 -0.2732 -0.2753  0.7380
 3845SOL     OW22996   2.534   1.970   8.369 -0.0296 -0.1910 -0.2935
 3845SOL    HW122997   2.568   1.948   8.455  1.8734  1.4950 -0.5909
 3845SOL    HW222998   2.504   2.061   8.379 -0.7684 -0.6719  1.8612
 3846SOL     OW22999   4.041   4.121  11.498  0.2934 -0.1681  0.0640
 3846SOL    HW123000   4.106   4.178  11.456  0.7758 -0.3874  0.5177
 3846SOL    HW223001   4.087   4.103  11.580  0.9412  2.7458  0.3457
 3847SOL     OW23002   4.675   0.313   5.189 -0.4960  0.1491  0.1235
 3847SOL    HW123003   4.700   0.221   5.175 -1.0784  0.0675 -0.3937
 3847SOL    HW223004   4.584   0.303   5.161 -0.6636  2.5371 -0.1212
 3848SOL     OW23005   3.980   4.006  17.193 -0.4933 -0.3247  0.1146
 3848SOL    HW123006   4.053   4.052  17.153 -0.2345  0.9927  2.1286
 3848SOL    HW223007   3.905   4.044  17.147 -0.2323 -0.3876 -0.3670
 3849SOL     OW23008   1.849   4.476   5.248  0.1458  0.3990 -0.1263
 3849SOL    HW123009   1.863   4.480   5.342 -0.1312 -2.6628  0.0485
 3849SOL    HW223010   1.779   4.411   5.251 -1.1134  1.8374  1.4770
 3850SOL     OW23011   4.165   4.712  13.691  0.2713  0.1006 -0.4469
 3850SOL    HW123012   4.199   0.071  13.722 -1.1156 -0.4577  2.6078
 3850SOL    HW223013   4.246   4.663  13.710 -0.2397 -0.5300  0.0846
 3851SOL     OW23014   3.421   2.827   7.968  0.0631 -0.2686 -0.1020
 3851SOL    HW123015   3.386   2.802   8.054 -0.3091 -0.8628 -0.4260
 3851SOL    HW223016   3.515   2.831   7.986  0.0498  0.9566 -0.2647
 3852SOL     OW23017   1.887   1.978   0.993  0.2687  0.0767 -0.3241
 3852SOL    HW123018   1.877   1.901   1.050 -1.6233  1.3504  1.0961
 3852SOL    HW223019   1.953   2.033   1.035 -0.0954  0.0304  0.3128
 3853SOL     OW23020   2.904   2.511   7.167 -0.1658  0.2132  0.3733
 3853SOL    HW123021   2.867   2.589   7.126 -0.1666 -0.9809 -1.9045
 3853SOL    HW223022   2.858   2.438   7.125  0.3119  1.1922 -1.7953
 3854SOL     OW23023   4.165   4.551   7.754 -0.1175 -0.9731 -0.2927
 3854SOL    HW123024   4.183   4.510   7.839 -0.0246 -0.7241 -0.1917
 3854SOL    HW223025   4.088   4.603   7.776  0.8348  0.6843 -0.8163
 3855SOL     OW23026   1.294   0.757   4.741 -0.5706 -0.2046  0.5272
 3855SOL    HW123027   1.244   0.774   4.661 -0.3324  2.8500  1.0511
 3855SOL    HW223028   1.359   0.689   4.723 -1.8262 -1.1458 -0.5766
 3856SOL     OW23029   4.151   4.135   5.980  0.5235 -0.0226 -0.0021
 3856SOL    HW123030   4.230   4.082   5.974  0.5133  0.0697 -1.0926
 3856SOL    HW223031   4.177   4.226   5.995 -3.2066  1.1573 -0.6495
 3857SOL     OW23032   4.276   3.370  13.098  0.3342  0.3443 -0.7656
 3857SOL    HW123033   4.229   3.288  13.113  0.4311  0.5873  0.7840
 3857SOL    HW223034   4.207   3.420  13.054  2.0040  0.6757 -3.0322
 3858SOL     OW23035   4.142   3.930   0.783  0.0166 -0.8024 -0.2032
 3858SOL    HW123036   4.170   4.000   0.723 -2.0444  0.4451  0.2752
 3858SOL    HW223037   4.229   3.904   0.811 -0.5036 -0.8095  1.4272
 3859SOL     OW23038   2.193   4.413   9.785  1.0085 -0.0954  0.2352
 3859SOL    HW123039   2.107   4.373   9.773  0.1259  1.7524  0.3355
 3859SOL    HW223040   2.224   4.382   9.870  1.3149  0.7841  0.4505
 3860SOL     OW23041   4.553   2.868   9.407 -0.1166 -0.2880  0.0604
 3860SOL    HW123042   4.579   2.791   9.457  2.6198  0.4095 -0.2782
 3860SOL    HW223043   4.636   2.915   9.398  1.7812 -3.4288  1.3725
 3861SOL     OW23044   1.901   1.118   7.448  0.0971  0.0265  0.0900
 3861SOL    HW123045   1.895   1.054   7.520  0.4428  0.8792  0.8671
 3861SOL    HW223046   1.888   1.060   7.373  1.8393 -1.5826  1.0208
 3862SOL     OW23047   2.952   3.263   6.676  0.0281 -0.7562  0.6982
 3862SOL    HW123048   3.016   3.332   6.659 -1.4093 -0.2115 -2.4033
 3862SOL    HW223049   2.976   3.197   6.610 -0.5931 -0.8767  0.5991
 3863SOL     OW23050   0.280   1.949  17.627  0.4020 -0.6367  0.5782
 3863SOL    HW123051   0.356   1.967  17.572 -1.2204  0.0500 -1.4665
 3863SOL    HW223052   0.321   1.961   0.011  0.8766 -2.2267  0.5716
 3864SOL     OW23053   1.260   1.346   6.370  0.4319 -0.3014 -0.2208
 3864SOL    HW123054   1.234   1.279   6.307 -0.5040 -2.5572  2.5562
 3864SOL    HW223055   1.351   1.358   6.343  1.1041 -1.4819  1.5144
 3865SOL     OW23056   4.602   0.966  11.588 -0.2467 -0.5097  0.0646
 3865SOL    HW123057   4.567   1.022  11.657  1.9631  1.2736 -0.2585
 3865SOL    HW223058   4.526   0.934  11.540 -1.1291 -1.0040  1.7695
 3866SOL     OW23059   1.381   3.876  12.291 -0.1973 -0.0964 -0.4974
 3866SOL    HW123060   1.299   3.883  12.339 -0.7895 -1.5717 -1.3045
 3866SOL    HW223061   1.442   3.917  12.353 -0.6200 -0.5854  0.2402
 3867SOL     OW23062   0.765   4.399   8.685  0.4348  0.1352 -0.3156
 3867SOL    HW123063   0.796   4.465   8.623  1.5878  1.2206  1.4143
 3867SOL    HW223064   0.692   4.358   8.639 -0.6494  0.4629  1.1131
 3868SOL     OW23065   1.374   2.861   8.246  0.7173  0.4443 -0.0949
 3868SOL    HW123066   1.363   2.863   8.342 -2.7952  1.0231 -0.5043
 3868SOL    HW223067   1.415   2.945   8.227  1.0592  0.1412 -0.6953
 3869SOL     OW23068   2.868   1.009  10.925 -0.4084 -0.0716 -0.0906
 3869SOL    HW123069   2.934   0.941  10.915 -0.7420 -0.3159 -0.6154
 3869SOL    HW223070   2.806   0.967  10.985 -0.6327  0.0867 -0.2097
 3870SOL     OW23071   0.739   1.866  13.069 -0.1686 -0.3318  0.3875
 3870SOL    HW123072   0.751   1.801  13.000  1.0013  0.5522 -0.2506
 3870SOL    HW223073   0.788   1.832  13.144 -2.1965 -1.9512  0.9537
 3871SOL     OW23074   3.920   4.689   2.927  0.3317 -0.0141 -0.0998
 3871SOL    HW123075   3.933   4.686   3.022 -0.1747 -0.3439 -0.0417
 3871SOL    HW223076   3.879   0.047   2.903  0.3731  0.2611  0.7896
 3872SOL     OW23077   0.425   1.545   0.056  0.5113 -0.2174 -0.0120
 3872SOL    HW123078   0.337   1.577   0.038  0.4267 -1.1819 -1.2814
 3872SOL    HW223079   0.445   1.585   0.141 -2.3171  0.3237  0.4201
 3873SOL     OW23080   4.432   0.114  10.280  0.0152 -0.1821 -0.0895
 3873SOL    HW123081   4.441   0.021  10.257 -1.6190 -0.9351  2.2284
 3873SOL    HW223082   4.498   0.162  10.231  0.1493  1.3917  1.6403
 3874SOL     OW23083   2.482   0.582  16.718  0.9864 -0.1553 -0.1922
 3874SOL    HW123084   2.448   0.538  16.796  0.2532 -0.3063 -0.5906
 3874SOL    HW223085   2.548   0.515  16.702  0.6907 -0.1676 -1.3418
 3875SOL     OW23086   3.120   1.755   7.697 -0.1196  0.3137 -0.0982
 3875SOL    HW123087   3.029   1.764   7.671  0.0500  1.6591 -0.2391
 3875SOL    HW223088   3.151   1.832   7.648 -2.0085  1.1165 -0.0217
 3876SOL     OW23089   3.019   2.385  13.224 -0.3433 -0.0684  0.0405
 3876SOL    HW123090   3.091   2.391  13.162 -2.7749 -0.1921 -2.7730
 3876SOL    HW223091   3.033   2.292  13.246  0.5660 -0.0905 -0.6193
 3877SOL     OW23092   0.773   4.368   7.984 -0.2841 -0.2242  0.6521
 3877SOL    HW123093   0.678   4.376   7.979 -0.1244  1.8822  1.0645
 3877SOL    HW223094   0.784   4.297   7.920 -0.5002  0.2991  0.0308
 3878SOL     OW23095   0.752   2.501   7.813  0.7031 -0.0261  0.5410
 3878SOL    HW123096   0.841   2.505   7.850  0.1185  1.5776  1.7714
 3878SOL    HW223097   0.771   2.480   7.721  2.2182  1.2191  0.5666
 3879SOL     OW23098   4.363   0.106  13.177 -0.2199 -0.6384 -0.2568
 3879SOL    HW123099   4.337   0.138  13.264 -0.2335  1.2593 -0.9430
 3879SOL    HW223100   4.298   0.155  13.126 -1.9415 -2.5364  0.1224
 3880SOL     OW23101   2.774   3.695   3.624 -0.2178 -0.6428  0.3982
 3880SOL    HW123102   2.829   3.642   3.566 -1.1940  0.9474 -1.9387
 3880SOL    HW223103   2.700   3.710   3.566 -0.3337 -0.7277  0.5223
 3881SOL     OW23104   3.343   1.572  17.494  0.1587 -0.3033  0.4433
 3881SOL    HW123105   3.257   1.535  17.473  1.3943 -1.3621 -2.7130
 3881SOL    HW223106   3.357   1.523  17.575  0.2261 -1.5726 -0.3428
 3882SOL     OW23107   0.900   0.925   6.315  0.3126  0.0342  0.3220
 3882SOL    HW123108   0.845   0.918   6.393  0.9325 -0.2347  0.7349
 3882SOL    HW223109   0.903   0.839   6.273  1.3727  0.2039  0.0598
 3883SOL     OW23110   4.622   0.203   9.064 -0.1351 -0.4129 -0.4069
 3883SOL    HW123111   4.556   0.171   9.124  0.3216 -0.9983 -0.2189
 3883SOL    HW223112   4.673   0.259   9.123 -0.0320  0.6793 -1.5126
 3884SOL     OW23113   3.551   3.196  13.148 -0.0409  0.2165  0.8351
 3884SOL    HW123114   3.604   3.263  13.192  1.6555 -0.7591  0.2685
 3884SOL    HW223115   3.545   3.126  13.212  0.8218  1.7445  2.5996
 3885SOL     OW23116   1.384   2.878   8.524  0.0947  0.1476 -0.3377
 3885SOL    HW123117   1.429   2.795   8.539  1.1891  0.5154 -1.6243
 3885SOL    HW223118   1.310   2.860   8.582  0.8532  0.5958  0.7699
 3886SOL     OW23119   3.642   1.142  11.886  0.1193  0.5302  0.3208
 3886SOL    HW123120   3.625   1.051  11.863  0.7284 -0.1435  2.5757
 3886SOL    HW223121   3.551   1.162  11.907 -0.7415 -0.1346 -2.7829
 3887SOL     OW23122   0.789   3.596   4.955  0.4713 -0.1000  0.1559
 3887SOL    HW123123   0.733   3.671   4.933 -1.7159 -1.7444  0.0399
 3887SOL    HW223124   0.730   3.529   4.991 -2.2369  1.7795 -0.7665
 3888SOL     OW23125   3.060   3.057   7.666  0.7359 -0.2002  0.4859
 3888SOL    HW123126   3.091   2.971   7.694  3.5476  0.1876 -1.4539
 3888SOL    HW223127   3.064   3.098   7.753  2.8657 -0.6686  0.6013
 3889SOL     OW23128   2.950   2.474   2.506 -0.3462 -0.1602  0.3013
 3889SOL    HW123129   3.007   2.491   2.431  0.9334  1.9620  1.7567
 3889SOL    HW223130   2.869   2.514   2.475 -0.1419  0.3676  0.4512
 3890SOL     OW23131   3.071   2.327  15.473  0.0651  0.4843 -0.4428
 3890SOL    HW123132   3.128   2.251  15.457  1.6834  1.4246  0.8039
 3890SOL    HW223133   3.018   2.286  15.542 -2.3103  0.8326 -2.0721
 3891SOL     OW23134   0.363   2.393  14.859  0.0289  0.0226 -0.0305
 3891SOL    HW123135   0.276   2.398  14.819 -1.1110 -1.4121  2.3288
 3891SOL    HW223136   0.434   2.400  14.794  2.7964 -2.3374  2.7373
 3892SOL     OW23137   1.784   0.045  16.441  0.5426  0.1985 -0.1238
 3892SOL    HW123138   1.867   0.033  16.488 -0.4130  0.0823  1.5226
 3892SOL    HW223139   1.728   4.714  16.494 -0.8778  0.2395 -1.5817
 3893SOL     OW23140   4.226   2.592   8.373 -0.1898 -0.1719 -0.1680
 3893SOL    HW123141   4.184   2.506   8.372  0.2057 -0.3995  1.9661
 3893SOL    HW223142   4.190   2.640   8.448  1.0283 -0.1828  0.4264
 3894SOL     OW23143   3.440   3.481   3.709 -0.0072 -0.0700  0.1956
 3894SOL    HW123144   3.523   3.475   3.756 -0.2871 -0.7887  0.5859
 3894SOL    HW223145   3.464   3.458   3.619 -0.0248 -0.2071  0.2261
 3895SOL     OW23146   0.653   1.807   6.170 -0.1857 -0.0396  0.1970
 3895SOL    HW123147   0.572   1.756   6.160 -0.0563 -0.2334  0.1348
 3895SOL    HW223148   0.653   1.867   6.096 -0.0029  0.2594  0.4404
 3896SOL     OW23149   0.576   3.670   8.305  0.1291  0.1116 -0.1886
 3896SOL    HW123150   0.659   3.700   8.267  1.1155 -0.6346  1.3347
 3896SOL    HW223151   0.593   3.579   8.330  2.5514  0.5683 -0.1085
 3897SOL     OW23152   1.498   1.657   4.095 -0.5976  0.1812 -0.0785
 3897SOL    HW123153   1.445   1.635   4.018  0.2894 -1.4204 -0.2289
 3897SOL    HW223154   1.582   1.626   4.061 -0.5101 -1.3377  1.5010
 3898SOL     OW23155   1.765   3.329   4.103 -0.1012 -0.8623  0.1210
 3898SOL    HW123156   1.793   3.338   4.194  2.5906  0.1256 -0.8168
 3898SOL    HW223157   1.840   3.286   4.062 -1.2068 -2.3481 -0.3668
 3899SOL     OW23158   4.635   3.489  17.087 -0.6204 -0.1863 -0.5447
 3899SOL    HW123159   4.621   3.423  17.019 -2.0928 -0.0897 -0.3201
 3899SOL    HW223160   4.615   3.574  17.049  2.1451  0.4158 -0.6732
 3900SOL     OW23161   3.723   0.631   5.548  0.1821  0.1339  0.3261
 3900SOL    HW123162   3.735   0.720   5.581 -1.9407  0.5976 -0.1848
 3900SOL    HW223163   3.629   0.629   5.529  0.1597 -0.1707  0.4609
 3901SOL     OW23164   1.118   2.924  10.330  0.8811  0.1622  0.3251
 3901SOL    HW123165   1.162   2.909  10.246 -1.6423 -1.6169 -0.6838
 3901SOL    HW223166   1.183   2.881  10.386  0.8139  1.4423  1.4003
 3902SOL     OW23167   0.918   3.352  16.710 -0.0424  0.0520 -0.4471
 3902SOL    HW123168   0.894   3.350  16.617  0.2883  1.7480 -0.5692
 3902SOL    HW223169   0.831   3.346  16.749  1.3385  0.0499  2.5755
 3903SOL     OW23170   2.391   2.441   9.305 -0.2775  0.2439 -0.6841
 3903SOL    HW123171   2.441   2.440   9.387 -1.6296 -0.4572  0.1251
 3903SOL    HW223172   2.445   2.508   9.263 -0.7247  0.4984 -0.8425
 3904SOL     OW23173   3.911   3.746   4.945  0.4923  0.0146  0.4525
 3904SOL    HW123174   3.918   3.739   4.850  0.4364  1.2823  0.3600
 3904SOL    HW223175   3.819   3.758   4.968  0.3206 -0.0224 -0.2134
 3905SOL     OW23176   0.741   2.665   4.620  0.0908 -0.4409  0.2995
 3905SOL    HW123177   0.719   2.657   4.527 -0.9365  1.6975  0.3566
 3905SOL    HW223178   0.702   2.582   4.647 -0.2297 -1.0548 -1.9996
 3906SOL     OW23179   2.685   0.830  11.470 -0.0167 -0.2387  0.3317
 3906SOL    HW123180   2.696   0.755  11.528 -2.9128 -0.8903  0.0598
 3906SOL    HW223181   2.712   0.802  11.383 -0.1305  0.6777 -0.0011
 3907SOL     OW23182   3.778   3.073   8.980  0.3296  0.3741  0.4413
 3907SOL    HW123183   3.693   3.049   8.944  0.2931  1.2599 -0.0667
 3907SOL    HW223184   3.751   3.092   9.070  0.3927 -1.8790  0.9379
 3908SOL     OW23185   1.546   3.344  16.522  0.2726  0.2119 -0.1187
 3908SOL    HW123186   1.470   3.303  16.563  0.3691  1.7769  1.6436
 3908SOL    HW223187   1.567   3.407  16.591  0.4790 -1.7654  1.6279
 3909SOL     OW23188   4.543   0.403   2.835 -0.1117 -0.0043  0.6918
 3909SOL    HW123189   4.633   0.387   2.805 -0.5905 -1.7001  0.1576
 3909SOL    HW223190   4.511   0.425   2.748 -2.3667 -1.0858  1.2574
 3910SOL     OW23191   3.945   2.845  12.421 -0.3796 -0.0636  0.2220
 3910SOL    HW123192   4.015   2.908  12.404  0.2666  0.0126  3.1217
 3910SOL    HW223193   3.873   2.882  12.370  0.7575 -0.6154 -1.7738
 3911SOL     OW23194   4.006   0.846  10.608 -0.2767 -0.0659  0.4081
 3911SOL    HW123195   3.961   0.809  10.532 -0.1922 -1.8646  1.2205
 3911SOL    HW223196   4.020   0.762  10.653 -0.4413 -0.1049  0.3838
 3912SOL     OW23197   2.581   1.137   4.432  0.3929 -0.2256 -0.2904
 3912SOL    HW123198   2.657   1.093   4.393  1.2388  1.2940 -0.3540
 3912SOL    HW223199   2.584   1.224   4.392  1.9123 -0.1173  0.0549
 3913SOL     OW23200   4.624   4.465  10.642  0.2482 -0.1472  0.5747
 3913SOL    HW123201   4.648   4.459  10.735 -0.0661  0.0616  0.6689
 3913SOL    HW223202   4.708   4.432  10.610  0.1792 -0.0337  0.2777
 3914SOL     OW23203   0.416   0.157   1.016  0.3656 -0.1650 -0.5332
 3914SOL    HW123204   0.475   0.231   1.000  1.2940 -0.5038  1.3985
 3914SOL    HW223205   0.427   0.116   0.930  0.1542  2.4908 -1.8466
 3915SOL     OW23206   0.773   3.081  15.107 -0.5025 -0.0267 -0.1548
 3915SOL    HW123207   0.830   3.006  15.092  0.1236  0.6515 -1.1072
 3915SOL    HW223208   0.810   3.125  15.183 -0.4526 -0.5931  0.1522
 3916SOL     OW23209   3.544   2.179  13.746 -0.2849  0.3106  0.1665
 3916SOL    HW123210   3.503   2.202  13.829  0.5952  0.7368  0.4841
 3916SOL    HW223211   3.548   2.261  13.696 -0.4657 -0.9149 -1.8453
 3917SOL     OW23212   1.256   4.590   3.021  0.5728  0.0020  0.3465
 3917SOL    HW123213   1.341   4.621   2.990  0.5716 -1.1557 -0.7967
 3917SOL    HW223214   1.263   4.573   3.115 -4.2128  0.1270  0.7602
 3918SOL     OW23215   0.315   4.268   0.735 -0.1504 -0.3951 -0.3026
 3918SOL    HW123216   0.390   4.256   0.793 -0.3093 -0.2137 -0.0627
 3918SOL    HW223217   0.245   4.257   0.799  0.5942 -0.3944  0.5010
 3919SOL     OW23218   4.286   2.270   6.916  0.3454  0.4588 -0.3516
 3919SOL    HW123219   4.247   2.279   6.829  0.4087 -0.0031 -0.4254
 3919SOL    HW223220   4.239   2.339   6.964  2.0471  0.1549  1.7232
 3920SOL     OW23221   1.027   4.438  10.868 -0.0270 -0.1530  0.7864
 3920SOL    HW123222   1.119   4.448  10.894  0.5461 -2.1479 -0.4138
 3920SOL    HW223223   1.031   4.431  10.772 -3.8802 -1.0317  0.6895
 3921SOL     OW23224   4.187   0.661   3.338  0.6538  0.1329 -0.5026
 3921SOL    HW123225   4.169   0.665   3.244 -1.4342 -0.7288 -0.1454
 3921SOL    HW223226   4.107   0.705   3.367  1.0253  0.3092  0.2676
 3922SOL     OW23227   4.712   0.577   3.214  0.1523 -0.0861 -0.4175
 3922SOL    HW123228   0.035   0.495   3.208 -1.1982 -0.9978  1.2533
 3922SOL    HW223229   4.686   0.600   3.125  2.3462  0.5250 -0.8914
 3923SOL     OW23230   4.322   1.649   1.068  0.1893 -0.4463  0.3581
 3923SOL    HW123231   4.403   1.687   1.035 -1.0515  1.2209 -0.8250
 3923SOL    HW223232   4.284   1.718   1.122  0.7563 -0.3253  0.6005
 3924SOL     OW23233   0.136   2.527   4.052 -0.2117  0.3065 -0.3041
 3924SOL    HW123234   0.070   2.554   4.116 -1.6595  0.0021 -1.6972
 3924SOL    HW223235   0.209   2.519   4.114 -0.5872 -1.4159 -0.0771
 3925SOL     OW23236   2.159   1.419  17.265  0.2013 -0.4242  0.2417
 3925SOL    HW123237   2.250   1.438  17.290 -0.8771  5.3313 -0.3419
 3925SOL    HW223238   2.136   1.335  17.306  1.3038 -0.1471  1.4438
 3926SOL     OW23239   1.752   0.519   0.550 -0.2276 -0.1003  0.1434
 3926SOL    HW123240   1.809   0.546   0.622  0.8052  0.6309 -0.9543
 3926SOL    HW223241   1.673   0.542   0.597 -1.2583  1.4305 -2.3169
 3927SOL     OW23242   2.290   4.009   0.631  0.1302  0.7409 -0.2377
 3927SOL    HW123243   2.291   3.931   0.576  1.6693  1.3551 -1.0837
 3927SOL    HW223244   2.383   4.034   0.631  0.3829 -0.2740  2.5006
 3928SOL     OW23245   0.786   1.897   7.913  0.0411 -0.1232  0.0248
 3928SOL    HW123246   0.861   1.945   7.877  0.3944 -1.1142 -0.5720
 3928SOL    HW223247   0.750   1.963   7.972 -2.3951  0.0012 -1.5923
 3929SOL     OW23248   0.660   3.848  15.571  0.3536  0.2527  0.1874
 3929SOL    HW123249   0.570   3.872  15.551  0.7617  1.1097 -0.6167
 3929SOL    HW223250   0.717   3.848  15.494 -0.2191  1.0901 -0.2311
 3930SOL     OW23251   4.651   2.405   5.776 -0.1400  0.9204 -0.9700
 3930SOL    HW123252   4.695   2.385   5.694  0.4093  0.2893 -0.5230
 3930SOL    HW223253   4.710   2.465   5.822 -0.8399  2.6511 -2.3418
 3931SOL     OW23254   1.110   2.618   1.494 -0.9540 -0.6999 -0.5124
 3931SOL    HW123255   1.113   2.549   1.428  1.0985 -1.2094  0.1062
 3931SOL    HW223256   1.018   2.645   1.497 -1.0479 -0.7958 -2.6019
 3932SOL     OW23257   3.352   0.533   9.788 -0.7884  0.3839  0.3015
 3932SOL    HW123258   3.325   0.442   9.796 -0.1350  0.1348 -0.3365
 3932SOL    HW223259   3.411   0.549   9.862 -0.4392 -1.6304  0.4429
 3933SOL     OW23260   4.057   2.540   0.793 -0.6858  0.4529  0.4405
 3933SOL    HW123261   4.112   2.611   0.758  0.9956 -1.3735 -0.6762
 3933SOL    HW223262   3.976   2.586   0.813 -0.7948  1.2241 -1.7511
 3934SOL     OW23263   3.928   4.520   8.794 -0.2085 -0.6077  0.1463
 3934SOL    HW123264   3.992   4.498   8.861 -2.5642  1.5948  3.1280
 3934SOL    HW223265   3.961   4.604   8.763  1.1190 -1.0738  0.3059
 3935SOL     OW23266   3.704   3.175   0.995  0.1217 -0.7147 -0.4593
 3935SOL    HW123267   3.706   3.232   1.072  0.7664 -2.1343  0.5705
 3935SOL    HW223268   3.621   3.204   0.959 -0.4153 -1.1059  0.4565
 3936SOL     OW23269   1.012   0.617   3.241 -0.9634  0.1512  0.4740
 3936SOL    HW123270   1.018   0.665   3.159 -2.5643 -0.1105  0.2131
 3936SOL    HW223271   0.917   0.618   3.252 -1.0848  0.3645 -0.6872
 3937SOL     OW23272   3.041   2.953   7.295 -0.3318 -0.4600  0.3442
 3937SOL    HW123273   3.091   2.887   7.247  0.6890 -0.1823  1.0352
 3937SOL    HW223274   3.062   2.932   7.386 -0.5849 -2.6788 -0.1013
 3938SOL     OW23275   4.622   4.720   6.616  0.1548 -0.0376  0.0924
 3938SOL    HW123276   4.589   0.005   6.706  1.6293  1.7851  0.4254
 3938SOL    HW223277   4.680   4.644   6.619 -0.9764 -0.8900  0.1726
 3939SOL     OW23278   2.224   1.577   0.220 -0.5143 -0.2789 -0.0929
 3939SOL    HW123279   2.273   1.548   0.297 -1.2462  0.9690  0.8663
 3939SOL    HW223280   2.190   1.663   0.244 -0.1936 -0.2529  0.2794
 3940SOL     OW23281   2.650   0.639  13.871  0.1592  0.5721  0.3184
 3940SOL    HW123282   2.638   0.689  13.790 -0.6848  1.0361  0.7287
 3940SOL    HW223283   2.678   0.554  13.838 -0.8406  0.7434 -0.9908
 3941SOL     OW23284   0.488   2.397   8.739 -0.4096  0.0687  0.2121
 3941SOL    HW123285   0.504   2.343   8.661  0.6682 -0.0782  0.5341
 3941SOL    HW223286   0.474   2.332   8.807  0.3389 -2.2976 -1.8990
 3942SOL     OW23287   2.940   4.249   7.339  0.0968 -0.3580  0.7464
 3942SOL    HW123288   2.960   4.300   7.417 -0.5864  0.3177  0.4789
 3942SOL    HW223289   2.973   4.161   7.355  1.2267  0.0632  0.6930
 3943SOL     OW23290   3.196   2.014   6.929  0.2151  0.3111 -0.2312
 3943SOL    HW123291   3.117   1.961   6.940  0.0512  0.6635  0.2705
 3943SOL    HW223292   3.224   2.002   6.838  2.4409 -2.4186  0.8170
 3944SOL     OW23293   0.601   1.320   7.675  0.1706 -0.0167  0.3993
 3944SOL    HW123294   0.543   1.257   7.632 -1.3438  0.0716  2.3190
 3944SOL    HW223295   0.677   1.265   7.653  0.2682 -0.3370  1.5457
 3945SOL     OW23296   4.109   1.352   9.321 -0.3342 -0.1270  0.0217
 3945SOL    HW123297   4.193   1.329   9.360  0.0274  2.0562  0.5437
 3945SOL    HW223298   4.126   1.446   9.318 -4.2788  0.5631 -0.6751
 3946SOL     OW23299   2.893   1.051   4.361 -0.0323  0.0670 -0.1935
 3946SOL    HW123300   2.881   1.132   4.312  3.3128  0.5095 -0.3342
 3946SOL    HW223301   2.886   0.992   4.286  0.2233  0.1460 -0.2793
 3947SOL     OW23302   3.127   4.451   0.378 -0.2255  0.1315 -0.2214
 3947SOL    HW123303   3.208   4.433   0.426 -0.6570 -0.9365  0.0910
 3947SOL    HW223304   3.142   4.401   0.298  3.2135  1.7612 -0.5938
 3948SOL     OW23305   0.209   1.206  14.934 -0.2110  0.3355  0.2306
 3948SOL    HW123306   0.251   1.174  14.853 -1.1701  0.6171 -0.3824
 3948SOL    HW223307   0.224   1.130  14.991 -0.4426  1.3280  1.6011
 3949SOL     OW23308   3.553   2.956  10.586  0.1570 -0.0978 -0.2220
 3949SOL    HW123309   3.474   2.926  10.632  0.2817 -0.5077 -0.2729
 3949SOL    HW223310   3.550   3.043  10.625  0.4447 -0.2845  0.2126
 3950SOL     OW23311   2.050   3.686   8.318  0.1843  0.3461 -0.2078
 3950SOL    HW123312   2.111   3.706   8.389  0.8530 -0.4148 -0.5614
 3950SOL    HW223313   2.088   3.749   8.256 -1.9623 -0.3225 -2.1890
 3951SOL     OW23314   3.415   3.095   3.500  1.2985  0.0453 -0.3299
 3951SOL    HW123315   3.439   3.009   3.534  2.6375  1.0755  1.3036
 3951SOL    HW223316   3.502   3.129   3.478  1.5068 -1.1077 -1.2856
 3952SOL     OW23317   3.880   4.573   4.363  0.0022 -0.3666  0.1609
 3952SOL    HW123318   3.916   4.513   4.297  1.8417  0.9171  0.0151
 3952SOL    HW223319   3.854   4.648   4.310  0.8661 -0.4316 -0.3655
 3953SOL     OW23320   2.055   3.490   2.801  0.2549  0.0727 -0.3896
 3953SOL    HW123321   2.035   3.566   2.856 -0.4894  0.1883 -0.8272
 3953SOL    HW223322   2.149   3.501   2.787  0.1625  0.6371 -0.5718
 3954SOL     OW23323   1.702   3.355   4.833  0.1473 -0.0381  0.4292
 3954SOL    HW123324   1.735   3.330   4.919  2.6262  0.3270 -0.4204
 3954SOL    HW223325   1.776   3.400   4.791  1.1190 -0.1088  2.0508
 3955SOL     OW23326   0.725   1.060   4.911  0.4106  0.1382 -0.5256
 3955SOL    HW123327   0.645   1.017   4.878 -1.0914  0.9905  2.0046
 3955SOL    HW223328   0.789   1.028   4.848  0.6038 -0.8267  0.1533
 3956SOL     OW23329   0.001   0.169   5.791  0.2538  0.0796 -0.5470
 3956SOL    HW123330   4.713   0.230   5.863 -1.6634  1.2742 -1.9075
 3956SOL    HW223331   0.028   0.225   5.718  0.6310  0.3019 -0.2402
 3957SOL     OW23332   3.997   3.576  17.243 -0.0888 -0.3934 -0.1682
 3957SOL    HW123333   3.932   3.641  17.269  0.4469 -0.3109  0.9890
 3957SOL    HW223334   3.972   3.499  17.294  0.4163  0.4747  1.3875
 3958SOL     OW23335   4.630   2.172  12.668 -0.0505  0.3190 -0.2021
 3958SOL    HW123336   4.654   2.099  12.726 -0.9071  1.0749  1.0780
 3958SOL    HW223337   4.535   2.171  12.676  0.1443 -4.7739  1.8195
 3959SOL     OW23338   2.057   2.440  15.466  0.0077 -0.6384 -0.2525
 3959SOL    HW123339   2.074   2.476  15.553 -0.0944 -3.3119  0.8553
 3959SOL    HW223340   1.997   2.366  15.478 -0.6167 -0.0982 -0.0032
 3960SOL     OW23341   2.747   2.341   6.423  0.4358 -0.3985 -0.0449
 3960SOL    HW123342   2.686   2.280   6.465  1.4589 -0.3781  1.4799
 3960SOL    HW223343   2.737   2.423   6.472 -1.9291  0.1410 -1.4235
 3961SOL     OW23344   0.700   2.186   9.585  0.0215 -0.1001  0.6728
 3961SOL    HW123345   0.656   2.158   9.665 -0.9478 -0.8631 -0.1121
 3961SOL    HW223346   0.714   2.097   9.551 -0.0169 -0.8868  2.6926
 3962SOL     OW23347   2.731   4.368   3.353 -0.0646  0.1889  0.3654
 3962SOL    HW123348   2.646   4.403   3.326  0.0847 -1.6149 -2.4245
 3962SOL    HW223349   2.778   4.370   3.269 -3.4290 -1.9876 -1.5979
 3963SOL     OW23350   1.739   0.590   7.806  0.1433 -0.1058  0.0767
 3963SOL    HW123351   1.738   0.557   7.896 -0.5352 -0.1695  0.0480
 3963SOL    HW223352   1.831   0.607   7.788  0.0329  2.7169  2.0626
 3964SOL     OW23353   0.260   0.519   6.857 -0.1963  0.0338  0.2474
 3964SOL    HW123354   0.274   0.562   6.942 -0.1353  0.7498 -0.1186
 3964SOL    HW223355   0.348   0.499   6.826 -0.3848 -0.3986 -0.0071
 3965SOL     OW23356   2.685   4.590   6.718  0.0409 -0.1924  0.9495
 3965SOL    HW123357   2.726   4.508   6.692 -0.0100  0.7689 -2.2815
 3965SOL    HW223358   2.727   4.610   6.801  0.0622 -0.6447  1.0478
 3966SOL     OW23359   3.739   3.048   6.853  0.2828 -0.5748  0.2127
 3966SOL    HW123360   3.764   3.044   6.761  2.1069 -3.3728  0.8319
 3966SOL    HW223361   3.672   3.116   6.859 -0.9405 -1.8434  0.8911
 3967SOL     OW23362   4.422   3.225   5.044 -0.4257  0.0139  0.1709
 3967SOL    HW123363   4.405   3.230   5.139 -1.7476  0.2430 -0.0765
 3967SOL    HW223364   4.371   3.148   5.019  2.6307 -1.3219 -1.9440
 3968SOL     OW23365   3.784   2.524   3.595  0.1487 -0.3761 -0.7976
 3968SOL    HW123366   3.875   2.553   3.594  0.2249 -0.6078 -0.6702
 3968SOL    HW223367   3.799   2.430   3.585  1.2556 -0.1672 -1.1172
 3969SOL     OW23368   2.288   0.127   8.006 -0.6515 -0.2451  0.2518
 3969SOL    HW123369   2.333   0.173   7.934  0.8627  0.9571  1.9830
 3969SOL    HW223370   2.219   0.192   8.022  2.1205  2.6686  0.3970
 3970SOL     OW23371   3.733   0.925   2.721  0.4666  0.4493  0.5714
 3970SOL    HW123372   3.696   0.944   2.808 -2.0374  1.2208 -0.6621
 3970SOL    HW223373   3.663   0.969   2.673 -0.4713  0.2801  1.7735
 3971SOL     OW23374   3.968   3.336  13.298 -0.3659  0.0567 -0.6461
 3971SOL    HW123375   3.886   3.379  13.325 -1.1132 -1.2319 -0.9004
 3971SOL    HW223376   4.014   3.417  13.273 -0.6159  0.1177 -0.9184
 3972SOL     OW23377   1.835   2.810   5.688 -0.1822  0.4006 -0.4131
 3972SOL    HW123378   1.897   2.741   5.713 -0.7913 -0.6437 -1.7751
 3972SOL    HW223379   1.811   2.772   5.604  1.0544  0.1832 -0.6603
 3973SOL     OW23380   1.996   3.509  11.626 -0.0545  0.8608 -0.0844
 3973SOL    HW123381   2.042   3.427  11.614 -0.3481  0.5368  0.9371
 3973SOL    HW223382   2.041   3.555  11.698  0.2930 -1.1327  0.9831
 3974SOL     OW23383   0.814   1.696   2.179 -0.2962 -0.3912  0.1209
 3974SOL    HW123384   0.909   1.703   2.192 -0.3521 -2.0474  1.3449
 3974SOL    HW223385   0.777   1.748   2.250 -0.8888 -0.9678  0.2323
 3975SOL     OW23386   3.175   2.013   6.200  0.0657  0.1649 -0.2051
 3975SOL    HW123387   3.255   2.062   6.179  1.0741 -2.0043 -1.4154
 3975SOL    HW223388   3.201   1.925   6.172  0.5523  0.9903 -2.3412
 3976SOL     OW23389   1.508   0.809   8.432 -0.4911  1.1039 -0.3083
 3976SOL    HW123390   1.522   0.824   8.525  1.5869 -0.0012 -0.4400
 3976SOL    HW223391   1.495   0.902   8.415  1.9877  1.6522  0.7939
 3977SOL     OW23392   4.681   1.233  16.918  0.7138 -0.0518  0.1703
 3977SOL    HW123393   4.669   1.327  16.902 -1.3303 -0.2816  0.4171
 3977SOL    HW223394   4.590   1.216  16.942  1.0310 -0.1793  1.2856
 3978SOL     OW23395   0.664   3.214   8.329 -0.3597 -0.4536  0.3605
 3978SOL    HW123396   0.717   3.139   8.355 -0.8950 -0.7583  0.5629
 3978SOL    HW223397   0.587   3.190   8.381  0.4059  0.9288  2.1587
 3979SOL     OW23398   1.361   1.603  11.646  0.3430  0.0256 -0.5924
 3979SOL    HW123399   1.403   1.688  11.637 -0.5157  0.7180  1.9171
 3979SOL    HW223400   1.414   1.536  11.603  2.0665  0.8373  0.2848
 3980SOL     OW23401   2.404   0.852   2.536  0.0380  0.0211  0.0601
 3980SOL    HW123402   2.347   0.786   2.575  1.5463 -0.9651  0.5900
 3980SOL    HW223403   2.492   0.824   2.561 -0.7888 -0.5881  2.2065
 3981SOL     OW23404   1.108   3.683   4.574  0.2238  1.3809 -0.3721
 3981SOL    HW123405   1.157   3.670   4.655  0.1121  1.1130 -0.3464
 3981SOL    HW223406   1.026   3.635   4.584  0.4509  1.0414 -0.1235
 3982SOL     OW23407   2.734   3.672   9.379  0.2332 -0.2694 -0.6989
 3982SOL    HW123408   2.674   3.650   9.308 -0.4959  3.9255 -1.4172
 3982SOL    HW223409   2.781   3.748   9.345 -1.6496  0.7972 -0.9356
 3983SOL     OW23410   3.247   2.541   1.054  0.2912 -0.3877  0.4448
 3983SOL    HW123411   3.296   2.612   1.013  3.6389 -1.7536  2.1146
 3983SOL    HW223412   3.225   2.591   1.132 -0.2648  0.9423 -0.5574
 3984SOL     OW23413   2.327   2.489   9.622  0.1836  0.9411 -0.3765
 3984SOL    HW123414   2.360   2.484   9.711  0.6772 -0.5768 -0.6367
 3984SOL    HW223415   2.405   2.454   9.579  1.6738  2.2228  1.2817
 3985SOL     OW23416   2.915   1.337   3.986 -0.3535  0.6775  0.1760
 3985SOL    HW123417   2.875   1.321   4.071  0.6159 -2.9528 -0.0387
 3985SOL    HW223418   2.990   1.277   3.984 -0.4862  0.5519 -1.0104
 3986SOL     OW23419   3.071   3.343  13.314 -0.1761  0.1939  0.1297
 3986SOL    HW123420   3.054   3.318  13.223 -0.9926 -0.6823  0.5307
 3986SOL    HW223421   2.980   3.350  13.343 -1.1162  0.9152 -2.9312
 3987SOL     OW23422   0.138   3.324   4.147  0.3045 -0.2881  0.6906
 3987SOL    HW123423   0.089   3.396   4.187  0.6130  0.8167 -0.9676
 3987SOL    HW223424   0.078   3.304   4.076  0.7962 -0.4830  0.3320
 3988SOL     OW23425   0.515   1.307   4.401 -0.5101 -0.2081  0.2491
 3988SOL    HW123426   0.473   1.312   4.487  1.2708  3.0027  0.9472
 3988SOL    HW223427   0.449   1.250   4.360  1.5582 -1.7551 -0.9023
 3989SOL     OW23428   4.332   2.756   7.873 -0.2131  0.2021  0.2439
 3989SOL    HW123429   4.334   2.823   7.805  0.1635 -0.3142 -0.2633
 3989SOL    HW223430   4.419   2.738   7.910  0.7491 -0.8230 -2.4874
 3990SOL     OW23431   1.147   0.403  13.519  0.2873 -0.1032  0.4916
 3990SOL    HW123432   1.153   0.313  13.552 -1.3424  0.0859  1.2905
 3990SOL    HW223433   1.178   0.376  13.432 -0.2811  0.2477  0.1819
 3991SOL     OW23434   3.256   3.331  12.736 -0.0573  0.3048  0.4591
 3991SOL    HW123435   3.321   3.278  12.689 -0.4727 -1.0318  1.3756
 3991SOL    HW223436   3.301   3.352  12.818 -0.3058  2.9563 -0.1057
 3992SOL     OW23437   1.802   0.561   4.017  0.2892  0.6682  0.2137
 3992SOL    HW123438   1.753   0.633   3.977  1.2168  1.1345 -0.0794
 3992SOL    HW223439   1.796   0.491   3.953  1.3712  0.1791  0.6441
 3993SOL     OW23440   0.226   4.232   5.692 -0.0483 -0.2012 -0.2320
 3993SOL    HW123441   0.296   4.170   5.673 -1.3052 -1.5820 -0.3301
 3993SOL    HW223442   0.178   4.244   5.610  1.2067 -0.3093 -0.9818
 3994SOL     OW23443   2.995   3.831   9.379  0.2969 -0.2369  0.0445
 3994SOL    HW123444   2.929   3.874   9.324 -1.2119  1.8234  3.5213
 3994SOL    HW223445   3.038   3.909   9.413 -1.2903  0.0629  1.3410
 3995SOL     OW23446   2.989   2.991  15.299  0.1680  0.1518  0.3761
 3995SOL    HW123447   3.057   2.927  15.320  0.6497  0.6992  0.4630
 3995SOL    HW223448   3.001   3.042  15.379  1.0593  0.4556  0.0440
 3996SOL     OW23449   0.070   1.233   7.202  0.3868  0.2584  0.4759
 3996SOL    HW123450   0.011   1.280   7.142  0.3921 -0.8879 -0.4346
 3996SOL    HW223451   0.141   1.295   7.215 -1.6983  2.7646 -0.0978
 3997SOL     OW23452   1.646   4.344   6.895  0.7195  0.1204  0.4427
 3997SOL    HW123453   1.628   4.329   6.802  0.7355  0.3057  0.4107
 3997SOL    HW223454   1.587   4.418   6.911  0.8374 -0.2173  2.4210
 3998SOL     OW23455   2.537   0.169   1.870 -0.0958 -0.4431 -0.1045
 3998SOL    HW123456   2.616   0.118   1.853  1.2143  1.2523  0.9733
 3998SOL    HW223457   2.510   0.140   1.957 -2.4013  1.2887 -0.2596
 3999SOL     OW23458   0.500   2.273   9.396 -0.1207  0.2682  0.3724
 3999SOL    HW123459   0.585   2.273   9.441  1.0315  1.1167 -1.7695
 3999SOL    HW223460   0.518   2.282   9.302  0.0819 -0.1547  0.3733
 4000SOL     OW23461   3.834   2.189   7.916 -0.3051  0.0453  0.0081
 4000SOL    HW123462   3.845   2.169   8.009 -0.6173 -1.0408 -0.1815
 4000SOL    HW223463   3.876   2.109   7.883 -0.5884 -0.8403  1.7878
 4001SOL     OW23464   3.397   2.449   8.231 -0.0345 -0.0322  0.0140
 4001SOL    HW123465   3.380   2.357   8.213  1.0383  0.2241 -2.2358
 4001SOL    HW223466   3.358   2.458   8.318  0.9630 -0.0404  0.4635
 4002SOL     OW23467   0.729   3.031   3.201 -0.0781  0.1900 -0.4651
 4002SOL    HW123468   0.692   2.991   3.122 -1.4272  2.8456 -1.1749
 4002SOL    HW223469   0.818   3.037   3.166  0.0372 -0.2917 -0.2541
 4003SOL     OW23470   1.840   0.243   9.696 -0.2246  0.1097  0.3918
 4003SOL    HW123471   1.811   0.320   9.743  1.6859  0.6454  0.7073
 4003SOL    HW223472   1.856   0.194   9.776 -1.5342 -0.9463  0.0136
 4004SOL     OW23473   1.190   4.717   5.613 -0.3818 -0.5702 -0.1486
 4004SOL    HW123474   1.254   4.703   5.683 -1.6999 -1.0325  0.9726
 4004SOL    HW223475   1.238   4.705   5.531 -1.3017 -1.5904 -0.5496
 4005SOL     OW23476   2.385   0.794   7.240  0.0967 -0.0715 -0.0301
 4005SOL    HW123477   2.478   0.783   7.262 -0.2177  0.8915  1.7748
 4005SOL    HW223478   2.387   0.773   7.147  1.4099  0.2249 -0.0774
 4006SOL     OW23479   0.659   0.271   2.695 -0.7253 -0.9708 -0.0833
 4006SOL    HW123480   0.630   0.361   2.711 -0.5204 -1.3245  2.2695
 4006SOL    HW223481   0.742   0.296   2.656 -0.6942  0.4022  0.8861
 4007SOL     OW23482   4.155   1.671   3.754  0.5195 -0.0535  0.1301
 4007SOL    HW123483   4.067   1.640   3.730  0.8617 -1.2165  0.4301
 4007SOL    HW223484   4.190   1.590   3.788  0.1885 -0.4062 -0.3581
 4008SOL     OW23485   2.075   1.994  12.361  0.3005 -0.0659 -0.2117
 4008SOL    HW123486   2.120   1.909  12.365 -1.7424 -1.0578  2.3070
 4008SOL    HW223487   2.142   2.056  12.333 -0.5953 -0.5019 -3.2782
 4009SOL     OW23488   1.541   3.727   5.780  0.4129 -0.4858  0.2994
 4009SOL    HW123489   1.619   3.714   5.833  0.4706  1.0930  0.5821
 4009SOL    HW223490   1.492   3.655   5.821  1.1523 -1.5125 -0.6123
 4010SOL     OW23491   1.522   1.243  15.649  0.0961 -0.3316 -0.4667
 4010SOL    HW123492   1.545   1.320  15.596 -0.8986 -0.3866 -0.9633
 4010SOL    HW223493   1.449   1.216  15.594  1.5092 -2.0929 -1.4645
 4011SOL     OW23494   3.998   3.768   9.880 -0.5149  0.2689  0.4334
 4011SOL    HW123495   3.995   3.773   9.975  3.3292  1.5370  0.4623
 4011SOL    HW223496   4.070   3.829   9.863 -1.1093  0.4071 -1.5942
 4012SOL     OW23497   1.985   2.432   2.886  0.2018  0.9659 -0.3822
 4012SOL    HW123498   2.074   2.450   2.916  0.5529 -0.9168 -0.3021
 4012SOL    HW223499   1.966   2.380   2.964 -1.6204  2.4207  0.1541
 4013SOL     OW23500   2.284   0.192   6.129 -0.1543  0.1691 -0.3697
 4013SOL    HW123501   2.221   0.236   6.072 -1.6595 -0.8555  0.5087
 4013SOL    HW223502   2.367   0.235   6.109  0.0238 -0.9386 -1.9271
 4014SOL     OW23503   4.534   0.959   4.342  0.3637  0.3568  0.1196
 4014SOL    HW123504   4.627   0.952   4.319  0.3572  0.7081 -0.0122
 4014SOL    HW223505   4.503   0.875   4.307 -0.7456  0.8635 -0.1042
 4015SOL     OW23506   1.715   3.402   5.564 -0.4107  0.4038  0.0542
 4015SOL    HW123507   1.790   3.384   5.507 -0.8414 -3.1724  0.6237
 4015SOL    HW223508   1.750   3.467   5.625  1.1387  0.6473 -1.0676
 4016SOL     OW23509   2.694   1.221   6.247  0.1833 -0.7228  0.0946
 4016SOL    HW123510   2.664   1.267   6.325  1.2071  1.0935 -0.5849
 4016SOL    HW223511   2.788   1.209   6.265  0.3571 -1.0001 -0.9988
 4017SOL     OW23512   2.815   2.160  17.060  0.2875  0.3341 -0.4514
 4017SOL    HW123513   2.775   2.101  16.995  1.0882 -0.5794 -0.1102
 4017SOL    HW223514   2.862   2.214  16.996 -1.5661  0.7136 -1.5236
 4018SOL     OW23515   4.594   1.492   8.985  0.6285  0.2775  0.0230
 4018SOL    HW123516   4.535   1.439   9.039  1.4077  0.5985  1.1855
 4018SOL    HW223517   4.530   1.519   8.919  1.1439 -1.2518 -1.1255
 4019SOL     OW23518   3.351   4.245  11.877 -0.0478  0.1989  0.3436
 4019SOL    HW123519   3.330   4.318  11.820 -0.4315  0.5952  0.9918
 4019SOL    HW223520   3.442   4.226  11.852 -0.3180  2.3792 -2.2329
 4020SOL     OW23521   1.922   3.655   6.080 -0.5027 -0.3813  0.3008
 4020SOL    HW123522   2.004   3.607   6.072 -0.5306 -0.3267 -0.3136
 4020SOL    HW223523   1.887   3.609   6.156  1.2643 -0.6558  0.9320
 4021SOL     OW23524   1.630   1.183   1.695  0.8076 -0.1445  0.1922
 4021SOL    HW123525   1.685   1.242   1.642 -0.8962  1.1009 -0.1867
 4021SOL    HW223526   1.678   1.189   1.777 -0.6789  1.1309  0.9590
 4022SOL     OW23527   1.603   2.707   8.318 -0.0813 -0.7869  0.1205
 4022SOL    HW123528   1.514   2.742   8.322  0.8771  1.5268  0.9204
 4022SOL    HW223529   1.637   2.776   8.262  1.3577 -1.6571 -0.0697
 4023SOL     OW23530   0.637   0.122   1.273 -0.0567 -0.1162  0.2048
 4023SOL    HW123531   0.697   0.168   1.214 -1.8968  1.6103 -0.3258
 4023SOL    HW223532   0.625   0.039   1.227 -0.3990 -0.1943  0.4378
 4024SOL     OW23533   3.479   3.380   5.628  0.2386  0.2962 -0.1783
 4024SOL    HW123534   3.436   3.304   5.589  1.1848 -1.1294  1.5547
 4024SOL    HW223535   3.416   3.403   5.696  1.0807 -0.1390  0.7406
 4025SOL     OW23536   4.051   1.918   9.129 -0.0760 -0.0756  0.2181
 4025SOL    HW123537   4.088   1.997   9.089 -0.5536  0.5353  0.9731
 4025SOL    HW223538   4.090   1.861   9.063 -1.0098 -1.6184  1.0194
 4026SOL     OW23539   1.932   3.362   5.373 -0.8474 -0.5063  0.0877
 4026SOL    HW123540   1.868   3.323   5.314 -0.6003 -0.0823 -0.4594
 4026SOL    HW223541   2.000   3.296   5.386 -1.8869 -1.3401  1.3934
 4027SOL     OW23542   1.712   2.076   7.154 -0.4591 -0.4212 -0.6506
 4027SOL    HW123543   1.766   2.116   7.222 -2.3972  0.9752  0.0847
 4027SOL    HW223544   1.742   2.108   7.069  1.6271  0.8787  0.5606
 4028SOL     OW23545   0.191   0.187   3.583 -0.0918 -0.6579 -0.0251
 4028SOL    HW123546   0.190   0.180   3.488 -1.1244 -0.7237 -0.0113
 4028SOL    HW223547   0.180   0.096   3.611 -0.1789  0.2827  2.9585
 4029SOL     OW23548   4.263   1.646  16.881  0.1356 -0.0384 -0.7087
 4029SOL    HW123549   4.214   1.582  16.933  1.8587 -1.1882 -0.4857
 4029SOL    HW223550   4.316   1.592  16.822 -0.2244  0.1834 -1.2348
 4030SOL     OW23551   4.532   0.334   5.506 -0.4763 -0.7808  0.1725
 4030SOL    HW123552   4.614   0.287   5.491 -0.5176 -0.5053 -0.9045
 4030SOL    HW223553   4.557   0.392   5.578 -1.3117 -2.0832  1.5093
 4031SOL     OW23554   2.421   1.379  16.277 -0.0574  0.0505  0.5638
 4031SOL    HW123555   2.464   1.402  16.359 -1.4354 -1.9332  1.8543
 4031SOL    HW223556   2.328   1.377  16.302 -0.4599 -2.0835 -1.1693
 4032SOL     OW23557   0.581   2.612   3.969  0.3464  0.4405  0.0350
 4032SOL    HW123558   0.606   2.551   3.900  0.5023  0.5512 -0.0072
 4032SOL    HW223559   0.595   2.693   3.921 -1.9971  0.2991 -0.8805
 4033SOL     OW23560   3.573   1.217   3.915 -0.3972 -0.2648  0.7718
 4033SOL    HW123561   3.524   1.273   3.855 -0.4583  0.2325  1.2844
 4033SOL    HW223562   3.534   1.134   3.887 -1.3072  0.9732 -1.6318
 4034SOL     OW23563   4.386   2.788   4.378 -0.4909 -0.3805  0.4578
 4034SOL    HW123564   4.291   2.775   4.381 -0.9866  3.1832  0.3636
 4034SOL    HW223565   4.414   2.774   4.468  0.0803  0.8752  0.4714
 4035SOL     OW23566   2.556   3.633   7.330  0.1035  0.7906 -0.4437
 4035SOL    HW123567   2.473   3.587   7.321  0.0353  0.6652  0.9277
 4035SOL    HW223568   2.586   3.626   7.239  0.8558  0.9366 -0.2103
 4036SOL     OW23569   2.083   0.889   4.429  0.2182 -0.0270  0.1266
 4036SOL    HW123570   2.154   0.829   4.404 -0.1924 -1.1934  1.7176
 4036SOL    HW223571   2.001   0.846   4.405 -0.3033  0.9029  0.2818
 4037SOL     OW23572   2.095   2.728   6.046 -0.3754  0.5768 -0.6120
 4037SOL    HW123573   2.184   2.695   6.058 -0.5406  0.9723  1.7259
 4037SOL    HW223574   2.058   2.640   6.046  2.7190 -0.7058  0.7977
 4038SOL     OW23575   3.157   2.538   8.618 -0.3952 -0.0100  0.2288
 4038SOL    HW123576   3.249   2.511   8.613 -0.2197  0.4927  0.7454
 4038SOL    HW223577   3.146   2.562   8.526  1.5625  1.0741  0.2774
 4039SOL     OW23578   4.564   0.777   3.326 -0.0202  0.0179 -0.3811
 4039SOL    HW123579   4.535   0.815   3.243  0.1436  0.6598 -0.1452
 4039SOL    HW223580   4.607   0.697   3.293 -3.3309 -1.7117 -0.5042
 4040SOL     OW23581   1.335   0.623   2.105 -0.2700 -0.6627  0.2291
 4040SOL    HW123582   1.334   0.697   2.045 -1.1382 -0.6625  0.2554
 4040SOL    HW223583   1.381   0.558   2.052 -2.0857 -2.7176  1.1485
 4041SOL     OW23584   2.240   0.621  16.519 -0.0171  0.2390 -0.1774
 4041SOL    HW123585   2.246   0.544  16.462  0.5026  0.4872 -0.4524
 4041SOL    HW223586   2.304   0.595  16.586 -3.4933 -1.1625  2.6096
 4042SOL     OW23587   3.934   1.058  10.763 -0.0806 -0.4986  0.3781
 4042SOL    HW123588   3.882   1.007  10.825  1.7139 -1.2091  1.2767
 4042SOL    HW223589   3.962   0.983  10.709 -1.8939 -1.0466  0.1794
 4043SOL     OW23590   4.616   3.765   6.061  0.0767 -0.5756  0.2202
 4043SOL    HW123591   4.551   3.732   5.998 -0.9613 -0.2662  1.1368
 4043SOL    HW223592   4.589   3.708   6.133 -0.3006  1.6518  1.8306
 4044SOL     OW23593   3.683   3.958   6.586  0.1319 -0.3397 -0.1064
 4044SOL    HW123594   3.663   3.976   6.677 -1.7659 -3.6840  0.1178
 4044SOL    HW223595   3.762   4.012   6.581  0.1704 -0.2496  1.7127
 4045SOL     OW23596   3.158   3.061   4.695 -0.9148  0.0771 -1.0077
 4045SOL    HW123597   3.207   3.137   4.727  0.2775 -2.0452  2.3119
 4045SOL    HW223598   3.095   3.087   4.629 -1.4570  1.3547  0.0187
 4046SOL     OW23599   0.517   2.809   4.300 -0.0985  0.3241 -0.0893
 4046SOL    HW123600   0.468   2.879   4.344  0.1378  0.9996 -0.9079
 4046SOL    HW223601   0.548   2.865   4.229  1.1430  1.1608  1.1213
 4047SOL     OW23602   2.090   1.720   1.123  0.0432  0.9064  0.4295
 4047SOL    HW123603   2.072   1.650   1.061  0.7024  0.0424  1.2093
 4047SOL    HW223604   2.008   1.764   1.146  0.5834  1.7956  0.6675
 4048SOL     OW23605   4.170   1.853   9.674  0.2050  0.2323 -0.1909
 4048SOL    HW123606   4.088   1.903   9.674  0.0188 -0.0785 -0.2900
 4048SOL    HW223607   4.223   1.916   9.624 -1.3174  1.3890 -0.3578
 4049SOL     OW23608   4.479   1.860  12.881  0.0764 -0.0607  0.0310
 4049SOL    HW123609   4.459   1.804  12.806  0.6416 -0.0407 -0.1385
 4049SOL    HW223610   4.396   1.873  12.926 -0.2380 -0.0505 -0.5541
 4050SOL     OW23611   3.846   4.655   4.002  0.0890 -0.6658 -0.3845
 4050SOL    HW123612   3.929   4.700   4.016 -0.8435  0.4909  1.4038
 4050SOL    HW223613   3.798   4.721   3.953 -0.0303 -1.4081 -1.2727
 4051SOL     OW23614   2.325   1.535  14.872 -0.3390 -0.2455 -0.0613
 4051SOL    HW123615   2.382   1.551  14.797  0.4126 -3.3850 -0.1466
 4051SOL    HW223616   2.248   1.490  14.837 -1.6109  1.5787  0.3673
 4052SOL     OW23617   0.622   0.955  12.204  0.3067 -0.0670  0.0664
 4052SOL    HW123618   0.563   0.895  12.250  0.1055  0.3060  0.2942
 4052SOL    HW223619   0.627   0.901  12.125 -2.2477 -0.3452  0.0746
 4053SOL     OW23620   1.719   1.854   2.823  0.6665 -0.0653  0.3911
 4053SOL    HW123621   1.783   1.925   2.824  0.4210  0.1469  1.0833
 4053SOL    HW223622   1.752   1.786   2.882  0.6314 -0.4703 -0.0579
 4054SOL     OW23623   2.908   2.960   3.854  0.1383 -0.2409 -0.1861
 4054SOL    HW123624   2.948   2.944   3.769  0.0464  0.9511 -0.4470
 4054SOL    HW223625   2.941   2.882   3.900 -0.9297 -0.6685 -0.1278
 4055SOL     OW23626   4.522   0.772   4.815 -0.5933  0.1130 -0.5909
 4055SOL    HW123627   4.493   0.731   4.897 -0.7031 -1.3995 -1.3983
 4055SOL    HW223628   4.577   0.705   4.776 -2.2514 -1.1323 -0.7786
 4056SOL     OW23629   0.220   0.600   5.574 -0.3702  0.2216 -0.7441
 4056SOL    HW123630   0.221   0.665   5.644 -2.6090 -1.6865  1.0650
 4056SOL    HW223631   0.135   0.625   5.538 -0.2622 -0.4252 -1.4344
 4057SOL     OW23632   1.141   4.091   3.435  0.3656  0.1317 -0.7281
 4057SOL    HW123633   1.164   4.124   3.348 -0.1067  0.6866 -0.6408
 4057SOL    HW223634   1.046   4.094   3.432  0.3863  1.2237 -0.2041
 4058SOL     OW23635   0.553   4.468   9.109 -0.4731 -0.3037  0.2902
 4058SOL    HW123636   0.589   4.515   9.034 -1.1891  0.1647  0.2432
 4058SOL    HW223637   0.578   4.379   9.084 -1.6567  0.4928 -3.7574
 4059SOL     OW23638   1.558   2.774  16.009  0.3996  0.5471 -0.0676
 4059SOL    HW123639   1.570   2.722  15.929 -0.8231  1.5326 -0.8795
 4059SOL    HW223640   1.477   2.740  16.048  0.5484  0.6137  0.3004
 4060SOL     OW23641   3.366   2.177   5.451  0.3986 -0.5671 -0.2147
 4060SOL    HW123642   3.360   2.266   5.417 -0.3687  0.4034  2.4805
 4060SOL    HW223643   3.385   2.197   5.543  1.3140  1.8609 -0.9270
 4061SOL     OW23644   0.301   0.237   6.140  0.7048  0.4185 -0.0482
 4061SOL    HW123645   0.396   0.230   6.137  0.5350 -2.9150  2.0044
 4061SOL    HW223646   0.285   0.260   6.232  0.1984 -0.1815  0.0164
 4062SOL     OW23647   4.399   3.039   6.452 -0.1697 -0.0489  0.5942
 4062SOL    HW123648   4.473   2.998   6.408 -1.8599 -0.8559 -1.5194
 4062SOL    HW223649   4.382   3.117   6.398  1.0230  0.3745  0.8300
 4063SOL     OW23650   2.463   3.905  13.224 -0.0205  0.2437 -0.1088
 4063SOL    HW123651   2.537   3.955  13.257  0.0837 -1.0969  1.6496
 4063SOL    HW223652   2.497   3.816  13.233  0.3252  0.5358  1.4238
 4064SOL     OW23653   1.448   2.491   7.588 -0.0526  0.4437  0.3822
 4064SOL    HW123654   1.538   2.497   7.554  0.3048  0.0499  1.2426
 4064SOL    HW223655   1.405   2.440   7.520 -0.9065  2.4977 -0.6154
 4065SOL     OW23656   0.327   1.310   5.009  0.2306 -0.0181 -0.0204
 4065SOL    HW123657   0.287   1.289   4.925  0.3476 -0.1302 -0.0488
 4065SOL    HW223658   0.293   1.397   5.030 -2.3569 -0.8825 -0.7198
 4066SOL     OW23659   0.569   0.733   0.979  0.4337  0.8206  0.3423
 4066SOL    HW123660   0.542   0.736   1.071  1.1004  2.4220  0.5025
 4066SOL    HW223661   0.570   0.826   0.956 -1.8302  0.8558  0.3641
 4067SOL     OW23662   2.543   3.626  17.137 -0.4499  0.0094  0.8263
 4067SOL    HW123663   2.633   3.657  17.125 -0.6808 -0.1330 -1.2372
 4067SOL    HW223664   2.545   3.592  17.226 -0.1518  0.0891  0.8518
 4068SOL     OW23665   1.399   0.630   2.362  0.4191  0.4283  0.2165
 4068SOL    HW123666   1.490   0.623   2.332 -0.3308 -1.2126 -1.6713
 4068SOL    HW223667   1.360   0.647   2.276  1.2671 -3.8170 -0.9729
 4069SOL     OW23668   2.854   0.305  16.156 -0.2762 -0.0154  0.2638
 4069SOL    HW123669   2.812   0.387  16.130 -0.4362 -0.3316 -0.4850
 4069SOL    HW223670   2.820   0.246  16.089  0.1707 -0.5033  0.4615
 4070SOL     OW23671   3.748   2.893   7.698  0.5269  0.1683 -0.3318
 4070SOL    HW123672   3.693   2.815   7.705  4.1428 -2.4009 -0.6414
 4070SOL    HW223673   3.781   2.894   7.788  1.8388 -1.0704 -0.8020
 4071SOL     OW23674   3.898   3.214   5.760 -0.1795  0.5268  0.2491
 4071SOL    HW123675   3.985   3.181   5.737 -0.6861 -1.4626  1.2027
 4071SOL    HW223676   3.884   3.277   5.689  0.4163 -0.7719 -1.0083
 4072SOL     OW23677   4.037   1.947   7.726  0.2810 -0.8282 -0.5984
 4072SOL    HW123678   4.027   1.987   7.812  0.4072 -0.9027 -0.5491
 4072SOL    HW223679   4.060   1.856   7.744 -0.1931 -1.0340 -1.0330
 4073SOL     OW23680   2.992   0.283   2.291 -0.0241  0.0462  0.7407
 4073SOL    HW123681   3.059   0.275   2.224 -0.5570 -0.4756  0.2666
 4073SOL    HW223682   2.943   0.200   2.286 -0.9009  0.6334 -0.5410
 4074SOL     OW23683   3.184   0.189   5.350  0.2717 -0.0014 -0.9478
 4074SOL    HW123684   3.119   0.144   5.296 -0.6108 -2.3597  2.1184
 4074SOL    HW223685   3.251   0.126   5.327  1.5635  1.0815 -0.1295
 4075SOL     OW23686   1.410   1.694   7.194 -0.4955  0.3715 -0.5412
 4075SOL    HW123687   1.448   1.618   7.151  1.1396  0.4183  0.8422
 4075SOL    HW223688   1.412   1.667   7.286 -0.7934 -0.6603 -0.8386
 4076SOL     OW23689   3.610   2.677   0.583 -0.0184  0.5022 -0.4691
 4076SOL    HW123690   3.697   2.678   0.623  0.4197 -2.6886 -1.3733
 4076SOL    HW223691   3.570   2.596   0.614 -1.6686  0.5405 -2.5410
 4077SOL     OW23692   0.268   1.377  14.008  0.0092  0.2002 -0.2346
 4077SOL    HW123693   0.332   1.319  13.968 -1.0594  0.6706 -2.6304
 4077SOL    HW223694   0.201   1.368  13.940  0.1089  1.1563 -0.4722
 4078SOL     OW23695   4.274   1.637   5.939 -0.6918 -0.1098 -0.5582
 4078SOL    HW123696   4.349   1.610   5.885 -0.3380 -1.5367  0.6189
 4078SOL    HW223697   4.314   1.693   6.005  1.0015 -1.5482 -0.3503
 4079SOL     OW23698   1.951   1.080   1.466  0.7543  0.2263 -0.0061
 4079SOL    HW123699   1.978   1.096   1.557 -0.0259  1.8856 -0.0691
 4079SOL    HW223700   1.915   1.166   1.449 -2.1144 -1.0861 -0.5599
 4080SOL     OW23701   3.985   4.436  12.770  0.2604 -0.0725  0.3076
 4080SOL    HW123702   4.006   4.413  12.680 -1.9350  0.9946 -0.4844
 4080SOL    HW223703   4.065   4.476  12.802 -1.0616  1.3735  1.8186
 4081SOL     OW23704   3.515   0.557   4.608 -0.3643 -0.1880 -0.3279
 4081SOL    HW123705   3.498   0.488   4.544  0.2223  0.2813 -0.9952
 4081SOL    HW223706   3.606   0.537   4.631 -0.4985  1.2880  1.4447
 4082SOL     OW23707   1.675   0.769   9.132 -0.0265  0.3021  0.4743
 4082SOL    HW123708   1.679   0.681   9.093  2.2960 -0.4324  2.3267
 4082SOL    HW223709   1.762   0.755   9.169 -0.1701 -0.2298  0.6213
 4083SOL     OW23710   1.769   4.147   4.229 -0.2312  0.2182  0.6026
 4083SOL    HW123711   1.857   4.135   4.265  0.6497 -0.9470 -1.8750
 4083SOL    HW223712   1.721   4.069   4.258  1.3232 -0.6639  0.8087
 4084SOL     OW23713   0.218   2.956   0.321 -0.3495  0.3263  0.1542
 4084SOL    HW123714   0.190   2.953   0.412 -1.0270 -0.6596 -0.0919
 4084SOL    HW223715   0.257   2.869   0.315 -1.2775  0.2871 -5.4398
 4085SOL     OW23716   4.555   1.384   6.454 -0.0427 -0.7173  0.1775
 4085SOL    HW123717   4.492   1.439   6.407  0.2512 -1.3563 -0.9692
 4085SOL    HW223718   4.588   1.439   6.524 -0.8154 -0.4791  0.3529
 4086SOL     OW23719   1.509   0.426  15.748  0.3072 -0.1431  0.1235
 4086SOL    HW123720   1.583   0.445  15.690 -0.0249  3.6241  0.9548
 4086SOL    HW223721   1.435   0.461  15.699 -0.6744 -0.8519  1.0987
 4087SOL     OW23722   1.032   0.208   5.623 -0.3000  0.4685 -0.5473
 4087SOL    HW123723   1.102   0.143   5.621 -0.6811  0.0495 -0.0714
 4087SOL    HW223724   1.033   0.250   5.537  2.6169 -0.5450 -1.0005
 4088SOL     OW23725   4.038   1.993   1.429  0.2910 -0.6786  0.3838
 4088SOL    HW123726   4.092   2.065   1.462  1.5785 -0.8577 -1.3278
 4088SOL    HW223727   4.010   2.042   1.351 -0.2430 -1.1540  0.2768
 4089SOL     OW23728   3.765   0.311   0.569 -0.0795  0.3787 -0.4816
 4089SOL    HW123729   3.785   0.403   0.554  0.4414 -0.1919 -3.1631
 4089SOL    HW223730   3.670   0.321   0.570 -0.0478  0.6757 -0.4770
 4090SOL     OW23731   3.623   2.779   4.859  0.2684  0.8534 -0.1217
 4090SOL    HW123732   3.542   2.826   4.839 -1.9223 -2.8150 -0.0511
 4090SOL    HW223733   3.633   2.719   4.785 -0.9472 -3.0294  2.7847
 4091SOL     OW23734   4.576   1.925  10.140  0.5732 -0.1544 -0.2060
 4091SOL    HW123735   4.647   1.983  10.111  0.7698 -1.4052 -2.2758
 4091SOL    HW223736   4.526   1.924  10.058  1.1375 -0.1651 -0.5558
 4092SOL     OW23737   1.629   1.883   5.071 -0.3886 -0.1493  0.1459
 4092SOL    HW123738   1.584   1.967   5.070  0.7680  0.4744 -0.2185
 4092SOL    HW223739   1.652   1.875   5.164 -1.5822 -0.4919  0.4032
 4093SOL     OW23740   1.509   3.331   5.928 -0.2789  0.4285  0.3672
 4093SOL    HW123741   1.545   3.418   5.942  2.3640 -0.6805  0.5989
 4093SOL    HW223742   1.494   3.303   6.018 -1.9102  2.5135  0.7262
 4094SOL     OW23743   1.032   4.529   7.539  0.0089 -0.4782 -0.5634
 4094SOL    HW123744   1.028   4.538   7.634 -0.7506  0.0290 -0.6421
 4094SOL    HW223745   1.067   4.614   7.510  0.9502 -1.1928 -1.5080
 4095SOL     OW23746   4.523   1.370  10.480 -0.7149 -0.0528  0.0431
 4095SOL    HW123747   4.517   1.370  10.576  0.3551 -0.7374  0.1109
 4095SOL    HW223748   4.572   1.451  10.464  1.0949 -0.7207  2.1119
 4096SOL     OW23749   3.225   4.061   5.970  0.1537 -0.2839 -0.1232
 4096SOL    HW123750   3.184   3.984   5.930 -0.0626 -0.7682  1.0432
 4096SOL    HW223751   3.143   4.091   6.010 -0.3986 -0.2911 -1.2287
 4097SOL     OW23752   1.506   1.825   3.290  0.2508  0.5326 -0.1647
 4097SOL    HW123753   1.479   1.876   3.366 -2.7174 -0.5016 -0.5101
 4097SOL    HW223754   1.491   1.882   3.214 -0.2941 -1.1992 -1.3640
 4098SOL     OW23755   3.037   4.440   9.246  0.3003  0.8261  0.0464
 4098SOL    HW123756   3.062   4.457   9.337 -2.3114  1.1948  0.6993
 4098SOL    HW223757   3.117   4.397   9.215 -1.1171 -1.2698 -0.6856
 4099SOL     OW23758   3.302   2.056  13.408  0.0207 -0.2493  0.1026
 4099SOL    HW123759   3.347   1.985  13.455  1.5034 -0.5818 -1.7853
 4099SOL    HW223760   3.279   2.116  13.478 -2.9451 -1.7873  0.4429
 4100SOL     OW23761   1.776   1.861   3.218 -0.2592 -0.4969  0.3461
 4100SOL    HW123762   1.762   1.792   3.153  2.7597 -1.5555  0.8313
 4100SOL    HW223763   1.699   1.858   3.274 -2.3738  0.8963 -2.4215
 4101SOL     OW23764   1.238   1.993  17.392  0.0531 -0.2608  0.4119
 4101SOL    HW123765   1.205   2.051  17.323 -0.1992  0.1594  0.8854
 4101SOL    HW223766   1.169   1.929  17.408 -1.3500  0.7147 -1.6845
 4102SOL     OW23767   1.988   1.508   2.490  0.1290 -0.1431  0.1164
 4102SOL    HW123768   1.934   1.560   2.430 -0.5847  0.3612  1.1905
 4102SOL    HW223769   2.016   1.564   2.562  1.3413  0.8261 -1.1232
 4103SOL     OW23770   3.127   2.302   8.805  0.2194  0.1521  0.1251
 4103SOL    HW123771   3.107   2.368   8.738  0.2444  1.6180  1.5637
 4103SOL    HW223772   3.218   2.286   8.781  0.4479  0.0305  1.0613
 4104SOL     OW23773   1.245   0.701   5.510 -0.2605 -0.2504  0.7296
 4104SOL    HW123774   1.235   0.607   5.494 -0.3365 -1.0442  5.4582
 4104SOL    HW223775   1.338   0.721   5.500 -0.0062 -1.0259  1.5952
 4105SOL     OW23776   1.760   2.068   0.310 -0.3800  0.2923 -0.0568
 4105SOL    HW123777   1.792   1.980   0.289 -1.1904  0.0183 -0.1283
 4105SOL    HW223778   1.755   2.095   0.218  0.9598  0.6405 -0.0351
 4106SOL     OW23779   4.516   0.006   6.891 -0.0735 -0.3199 -0.0303
 4106SOL    HW123780   4.575   0.016   6.966 -0.4308 -1.8006  0.4572
 4106SOL    HW223781   4.458   4.673   6.940 -0.8890  1.1663  0.7673
 4107SOL     OW23782   2.777   3.938   9.260 -0.7106  0.1715 -0.1404
 4107SOL    HW123783   2.703   3.969   9.207  0.3800 -2.2446 -3.0669
 4107SOL    HW223784   2.772   3.995   9.337  2.2141 -1.2375  1.0725
 4108SOL     OW23785   1.203   2.407  15.054 -0.1252 -0.1001  0.5461
 4108SOL    HW123786   1.269   2.400  14.986  0.4321 -1.3521  1.2182
 4108SOL    HW223787   1.236   2.336  15.110 -2.5608 -1.4376  0.3348
 4109SOL     OW23788   3.763   4.472   5.990  0.1769 -0.2421 -0.1781
 4109SOL    HW123789   3.734   4.388   6.026 -1.0472  0.4890  0.5388
 4109SOL    HW223790   3.806   4.442   5.910  1.7235  1.3715  0.0644
 4110SOL     OW23791   4.562   3.270   7.514  0.7856 -0.0443  0.2895
 4110SOL    HW123792   4.526   3.238   7.597 -0.1954  1.7489  0.5689
 4110SOL    HW223793   4.543   3.195   7.457 -0.9772  0.4884  0.1732
 4111SOL     OW23794   3.890   4.508   7.089 -0.0002 -0.3216  0.3843
 4111SOL    HW123795   3.968   4.490   7.036  0.5312 -0.6588  1.2809
 4111SOL    HW223796   3.899   4.445   7.161  2.4796 -0.5003 -0.0816
 4112SOL     OW23797   2.373   0.360  16.455 -0.0676  0.6239  0.2908
 4112SOL    HW123798   2.309   0.291  16.438 -2.0920  2.2829  1.1690
 4112SOL    HW223799   2.424   0.318  16.524 -1.3334 -1.6627 -0.1582
 4113SOL     OW23800   4.068   1.957   3.194 -0.6624 -0.3164  0.1337
 4113SOL    HW123801   3.980   1.957   3.229 -1.0236  0.2853 -0.7683
 4113SOL    HW223802   4.125   2.014   3.246  0.2983  0.0738 -1.3282
 4114SOL     OW23803   4.559   4.457   5.473 -0.2675 -0.1404 -0.5958
 4114SOL    HW123804   4.527   4.461   5.563 -0.4598  0.5627 -0.6965
 4114SOL    HW223805   4.599   4.542   5.455 -0.9395 -0.0072 -1.5335
 4115SOL     OW23806   2.684   0.430   7.263  0.2095  0.1244  0.1084
 4115SOL    HW123807   2.674   0.524   7.248 -0.2542  0.2691  1.2980
 4115SOL    HW223808   2.641   0.397   7.184 -0.8806  0.1136  0.7048
 4116SOL     OW23809   2.557   1.958   8.737  0.7711  0.4778  0.6216
 4116SOL    HW123810   2.617   1.905   8.685 -1.0423  1.4233 -2.4126
 4116SOL    HW223811   2.587   2.046   8.717  2.5344 -0.7623 -2.2215
 4117SOL     OW23812   3.911   1.367  10.116  0.4754  0.0386 -0.0812
 4117SOL    HW123813   3.998   1.361  10.075 -1.7709 -1.4394 -4.5764
 4117SOL    HW223814   3.852   1.391  10.045  1.4485 -1.8925 -1.5618
 4118SOL     OW23815   3.203   3.126  13.450  0.3381  0.2951 -0.3772
 4118SOL    HW123816   3.286   3.172  13.441 -0.1919  1.1813 -0.6737
 4118SOL    HW223817   3.137   3.192  13.431  1.8883  1.7422 -0.7342
 4119SOL     OW23818   3.174   2.034   4.922 -0.6032  0.5263 -0.5432
 4119SOL    HW123819   3.216   1.948   4.928  0.6526  1.0083 -2.6631
 4119SOL    HW223820   3.236   2.071   4.860  0.2933 -1.2870 -0.7464
 4120SOL     OW23821   3.751   3.288  10.829 -0.3742  0.4004  0.1749
 4120SOL    HW123822   3.836   3.295  10.873  0.3987 -3.5708 -0.6377
 4120SOL    HW223823   3.745   3.380  10.804  0.2631  0.8019  1.5391
 4121SOL     OW23824   4.595   3.895   7.914  0.5720  0.2037  0.6169
 4121SOL    HW123825   4.558   3.819   7.870  1.3793  0.0257  0.2312
 4121SOL    HW223826   4.649   3.859   7.984 -0.1278 -2.6591 -0.3193
 4122SOL     OW23827   2.440   1.752   2.200  0.5669  0.3490 -0.0322
 4122SOL    HW123828   2.484   1.687   2.255 -2.2733 -1.3277  0.2700
 4122SOL    HW223829   2.511   1.766   2.138  0.6497 -0.9370 -0.2264
 4123SOL     OW23830   1.602   3.619   4.284 -0.7336  0.0376  0.1279
 4123SOL    HW123831   1.574   3.560   4.214  1.4205 -2.0307  0.9953
 4123SOL    HW223832   1.525   3.625   4.340  0.6887  1.9469  1.8841
 4124SOL     OW23833   2.394   3.078   8.498  0.1219  0.1114  0.7913
 4124SOL    HW123834   2.446   3.150   8.463 -1.3230  0.5526 -0.4814
 4124SOL    HW223835   2.462   3.029   8.545 -0.1683 -0.7562  0.3137
 4125SOL     OW23836   0.642   4.427  16.908  0.5160 -0.5237 -0.1350
 4125SOL    HW123837   0.693   4.373  16.847  1.0474 -0.2778  0.0937
 4125SOL    HW223838   0.712   4.443  16.971  0.0750  1.3455 -0.1408
 4126SOL     OW23839   0.628   1.474   6.108 -0.0926  0.2233 -0.3168
 4126SOL    HW123840   0.686   1.486   6.183 -1.4930  0.2724  0.7613
 4126SOL    HW223841   0.552   1.520   6.143 -0.4434  0.2657 -1.1504
 4127SOL     OW23842   4.554   0.741   7.092  0.0952  0.3620  0.1477
 4127SOL    HW123843   4.557   0.711   7.001 -1.1283 -3.4233  1.3680
 4127SOL    HW223844   4.603   0.822   7.073  0.1340  0.6997  1.7416
 4128SOL     OW23845   1.121   3.333   8.990  0.1885 -0.1751  0.0737
 4128SOL    HW123846   1.132   3.296   8.902 -0.2177 -2.7999  1.1308
 4128SOL    HW223847   1.210   3.364   9.006  0.2736 -0.8955  1.0160
 4129SOL     OW23848   1.950   0.252   4.265  0.3448  0.5104  0.3277
 4129SOL    HW123849   2.026   0.310   4.255  0.7090 -0.5073 -2.8965
 4129SOL    HW223850   1.901   0.278   4.342 -1.2501 -2.1578  0.2090
 4130SOL     OW23851   3.008   1.705  11.754 -0.0414  0.5437  0.0784
 4130SOL    HW123852   2.914   1.692  11.762  0.0631  0.6839  1.4275
 4130SOL    HW223853   3.015   1.754  11.672 -0.2427  0.8951  0.2688
 4131SOL     OW23854   0.962   2.221  11.943  0.3971  0.0138 -0.1322
 4131SOL    HW123855   0.986   2.225  11.851  0.4725  0.9723 -0.0701
 4131SOL    HW223856   1.013   2.144  11.968 -1.4541 -1.8192 -2.0390
 4132SOL     OW23857   2.527   3.584  13.954  0.2780  0.2078 -0.5865
 4132SOL    HW123858   2.487   3.637  14.023  0.9770 -0.0949  0.0484
 4132SOL    HW223859   2.453   3.566  13.897 -1.0531  2.4971  0.4106
 4133SOL     OW23860   1.718   0.341   6.473 -0.0049  0.3112  0.1028
 4133SOL    HW123861   1.738   0.257   6.433 -1.8287 -0.3789  0.6293
 4133SOL    HW223862   1.641   0.367   6.421  1.4242  3.0210 -0.6593
 4134SOL     OW23863   0.052   3.347   5.657 -0.4228 -0.0663  0.3254
 4134SOL    HW123864   4.704   3.288   5.675 -1.9570  1.7292 -0.0724
 4134SOL    HW223865   0.039   3.339   5.563  1.3076  1.7543 -0.0615
 4135SOL     OW23866   3.168   0.683  10.408  0.1979  0.0166  0.0361
 4135SOL    HW123867   3.263   0.677  10.399  0.2357 -0.5138  0.7736
 4135SOL    HW223868   3.146   0.590  10.414  1.3116 -0.3689 -1.6986
 4136SOL     OW23869   0.052   3.024   9.424 -0.7977 -0.7909 -0.6839
 4136SOL    HW123870   0.127   3.078   9.400 -2.7724  2.0820 -0.3980
 4136SOL    HW223871   0.079   2.994   9.511 -0.8796 -0.4386 -0.5359
 4137SOL     OW23872   4.262   0.298  11.465  0.5356 -0.2089  0.3044
 4137SOL    HW123873   4.171   0.316  11.442  0.0173 -4.1866 -0.8582
 4137SOL    HW223874   4.288   0.390  11.467 -2.6277  0.6880 -1.0221
 4138SOL     OW23875   2.996   4.248  13.197 -0.0822 -0.1586 -0.1100
 4138SOL    HW123876   2.994   4.266  13.291  2.2973 -2.1432  0.3382
 4138SOL    HW223877   2.904   4.256  13.174  0.0861 -0.7188 -0.9728
 4139SOL     OW23878   0.220   0.140   3.310 -0.4569 -0.0379  0.1329
 4139SOL    HW123879   0.188   0.216   3.260  0.2169 -1.2694 -2.1710
 4139SOL    HW223880   0.226   0.074   3.241  0.6457 -0.5517  0.7330
 4140SOL     OW23881   2.463   2.226  15.864  0.1994  0.0898  0.2531
 4140SOL    HW123882   2.489   2.133  15.861 -1.7011 -0.3257 -4.4917
 4140SOL    HW223883   2.551   2.263  15.870 -0.5576  1.5653  1.8326
 4141SOL     OW23884   2.991   2.397   4.915 -0.2739  0.2419  0.2072
 4141SOL    HW123885   2.926   2.329   4.935 -0.4693  0.6519  0.9963
 4141SOL    HW223886   3.055   2.380   4.984  1.0507 -3.9320 -2.0438
 4142SOL     OW23887   4.035   0.916  16.070  1.1158  0.0369 -0.4842
 4142SOL    HW123888   3.956   0.889  16.116  1.3698 -0.0246 -0.0857
 4142SOL    HW223889   4.082   0.941  16.150  1.2215 -1.6047 -0.0352
 4143SOL     OW23890   2.719   3.249   3.051  0.2881  0.7445  0.0785
 4143SOL    HW123891   2.770   3.239   2.970 -1.3042 -0.5761 -0.7680
 4143SOL    HW223892   2.655   3.181   3.029 -0.7769  1.5446  0.7209
 4144SOL     OW23893   2.324   4.472  10.766  0.0276 -0.2014  0.3622
 4144SOL    HW123894   2.253   4.513  10.717 -1.1093  1.2701  3.2085
 4144SOL    HW223895   2.270   4.407  10.813  0.6212 -0.6418  0.4324
 4145SOL     OW23896   0.740   0.882   4.352 -0.5720  0.0753 -0.2574
 4145SOL    HW123897   0.798   0.905   4.279 -0.4883  2.8538  0.6979
 4145SOL    HW223898   0.657   0.880   4.304 -0.7237 -1.5580  0.0886
 4146SOL     OW23899   2.634   2.729   7.955 -0.6787 -0.5787  0.3890
 4146SOL    HW123900   2.650   2.654   8.014 -0.7597 -0.8338  0.0867
 4146SOL    HW223901   2.656   2.705   7.865 -1.8682 -0.6144  0.1140
 4147SOL     OW23902   0.025   4.521  14.077  0.1797 -0.0422 -0.3443
 4147SOL    HW123903   0.002   4.501  14.168  2.4211 -0.2988  0.1498
 4147SOL    HW223904   0.120   4.521  14.082 -0.0125  0.0233  2.7454
 4148SOL     OW23905   1.639   1.784   0.956  0.0979  0.1449  0.5105
 4148SOL    HW123906   1.674   1.872   0.966 -0.4856  0.6004 -1.4077
 4148SOL    HW223907   1.688   1.731   1.020  0.3501 -0.3189 -0.0640
 4149SOL     OW23908   4.346   1.914   7.253 -0.0658 -0.3331 -0.1330
 4149SOL    HW123909   4.427   1.956   7.227  0.0276  0.6095  1.6388
 4149SOL    HW223910   4.310   1.982   7.311 -0.6007 -0.2465 -0.5670
 4150SOL     OW23911   4.643   2.889   4.365  0.0604 -0.1716  0.2222
 4150SOL    HW123912   4.565   2.914   4.415  0.4380  0.4489  0.5019
 4150SOL    HW223913   4.681   2.976   4.351  0.9740 -0.7495 -0.8971
 4151SOL     OW23914   2.072   1.260   4.194  0.3432 -0.1915 -0.2292
 4151SOL    HW123915   2.075   1.194   4.125  0.9616 -0.9396  0.5125
 4151SOL    HW223916   1.988   1.234   4.233  0.1710 -1.1057 -1.2340
 4152SOL     OW23917   3.425   2.820  17.155 -0.1761  0.2069 -0.3052
 4152SOL    HW123918   3.450   2.819  17.247 -0.4664  1.1258 -0.2130
 4152SOL    HW223919   3.363   2.748  17.143 -0.6699  0.4790  0.6286
 4153SOL     OW23920   2.358   0.595   5.794 -0.4668 -0.1186  0.5892
 4153SOL    HW123921   2.447   0.571   5.768 -0.2827  1.2109 -0.0334
 4153SOL    HW223922   2.368   0.576   5.888  0.0966 -0.2426  0.5055
 4154SOL     OW23923   2.838   2.980   6.148 -0.4660  0.2644 -0.2216
 4154SOL    HW123924   2.907   3.029   6.192  0.5232 -0.6808 -0.7327
 4154SOL    HW223925   2.766   2.988   6.211  0.1163  2.0988  0.2034
 4155SOL     OW23926   4.423   3.940   3.374 -0.6758  0.1506 -0.0942
 4155SOL    HW123927   4.392   3.998   3.304 -2.6758 -0.4987  0.2592
 4155SOL    HW223928   4.343   3.924   3.423 -0.6866 -0.2459 -0.2376
 4156SOL     OW23929   3.532   2.037   3.407  0.0845 -0.3383  0.0204
 4156SOL    HW123930   3.440   2.062   3.414 -0.1239 -1.3141  0.8523
 4156SOL    HW223931   3.520   1.944   3.428  5.0366 -0.9474  0.1362
 4157SOL     OW23932   3.661   1.030   2.966  0.0462  0.0439 -0.2126
 4157SOL    HW123933   3.621   1.098   3.020  1.3633  0.6749 -0.0220
 4157SOL    HW223934   3.740   1.075   2.936  0.5102 -0.4677  0.2279
 4158SOL     OW23935   1.938   0.252   4.613 -0.2088  0.2430 -0.2003
 4158SOL    HW123936   1.868   0.190   4.593 -0.8797  0.6213  0.9708
 4158SOL    HW223937   1.911   0.336   4.575  0.4090  1.8472  2.9022
 4159SOL     OW23938   4.167   1.642   0.732  0.3177  0.6243 -0.3222
 4159SOL    HW123939   4.239   1.695   0.766  0.4982  0.7908 -0.9591
 4159SOL    HW223940   4.099   1.707   0.716  0.0048  1.2050  3.4498
 4160SOL     OW23941   4.295   0.950  12.457  0.0450  0.2695  0.0465
 4160SOL    HW123942   4.354   1.025  12.466  1.7453 -1.1902  1.1244
 4160SOL    HW223943   4.243   0.953  12.536  0.4751 -0.3600  0.3519
 4161SOL     OW23944   1.509   3.127   4.381 -0.0047 -0.2174  0.0787
 4161SOL    HW123945   1.574   3.197   4.382  2.3120 -2.3678  0.2507
 4161SOL    HW223946   1.555   3.055   4.339  2.2870  0.8030  0.8354
 4162SOL     OW23947   2.249   3.950   6.738 -0.3378 -0.5664 -0.7661
 4162SOL    HW123948   2.305   4.022   6.707 -0.2256 -0.4358 -0.2734
 4162SOL    HW223949   2.311   3.914   6.802 -2.3544 -2.1066  0.3092
 4163SOL     OW23950   0.224   3.058   2.161 -0.0960 -0.0383 -0.1725
 4163SOL    HW123951   0.301   3.061   2.104 -0.0291 -2.3458 -0.2053
 4163SOL    HW223952   0.216   3.152   2.180  1.5203  0.2835 -1.0815
 4164SOL     OW23953   3.470   4.505   1.701 -1.0476 -0.3230  0.6208
 4164SOL    HW123954   3.558   4.484   1.672 -0.7719 -0.3053  1.4452
 4164SOL    HW223955   3.479   4.544   1.788  0.1820  1.1259 -0.1615
 4165SOL     OW23956   0.578   0.121  11.583 -0.5502 -0.2394 -0.3150
 4165SOL    HW123957   0.646   0.128  11.517 -0.4737 -0.2092 -0.2342
 4165SOL    HW223958   0.529   0.202  11.571  1.9213  1.1736 -0.8602
 4166SOL     OW23959   2.915   3.058   4.255  0.0497  0.1707  0.2027
 4166SOL    HW123960   2.861   2.998   4.203 -0.0700  0.6190 -0.2000
 4166SOL    HW223961   2.966   3.109   4.192  0.7632 -1.0233 -0.1657
 4167SOL     OW23962   2.299   3.401  15.752 -0.2408 -0.0909 -0.2582
 4167SOL    HW123963   2.367   3.391  15.819  0.4343  0.3777 -0.8790
 4167SOL    HW223964   2.274   3.308  15.745  1.7219 -0.6383 -0.0674
 4168SOL     OW23965   2.992   1.418   7.436 -0.1571  0.1891 -0.1544
 4168SOL    HW123966   3.075   1.453   7.468 -0.0583  1.3572 -1.7147
 4168SOL    HW223967   3.027   1.337   7.398 -2.3490  0.8419 -3.5894
 4169SOL     OW23968   1.063   3.074  11.066  0.3891 -0.3495  0.5745
 4169SOL    HW123969   1.111   3.157  11.074  1.6622 -1.1306  0.9095
 4169SOL    HW223970   1.055   3.074  10.971 -1.2664  1.8332  0.7067
 4170SOL     OW23971   1.105   2.023   9.194  0.2255  0.4435  0.1601
 4170SOL    HW123972   1.023   2.007   9.148  0.0525 -1.6359  1.1620
 4170SOL    HW223973   1.143   2.091   9.139  0.0146  1.1913  0.9397
 4171SOL     OW23974   1.265   0.372  13.276  0.0032  0.4058  0.3399
 4171SOL    HW123975   1.215   0.385  13.196 -0.5606 -0.3669  0.5669
 4171SOL    HW223976   1.349   0.348  13.236  0.3574  0.0426  1.2991
 4172SOL     OW23977   0.544   4.393   7.050  0.2369  0.1234  0.4616
 4172SOL    HW123978   0.454   4.363   7.057  0.4966 -0.6980  0.1825
 4172SOL    HW223979   0.558   4.413   6.958 -0.0335  1.1185  0.6291
 4173SOL     OW23980   1.541   3.865   1.552  0.3573  0.1860  0.5687
 4173SOL    HW123981   1.532   3.960   1.540 -1.1120 -0.0648 -0.3195
 4173SOL    HW223982   1.631   3.853   1.583  0.6539  0.9076  0.0037
 4174SOL     OW23983   4.266   3.312  10.912  0.6656 -0.2308 -0.6276
 4174SOL    HW123984   4.298   3.374  10.977 -3.1181 -0.1764  1.1743
 4174SOL    HW223985   4.203   3.373  10.872 -0.8881  0.3252  2.6563
 4175SOL     OW23986   0.351   0.255   4.783  0.2824 -0.6720  0.1729
 4175SOL    HW123987   0.389   0.279   4.867 -0.2832 -0.8961  0.4940
 4175SOL    HW223988   0.257   0.254   4.801  0.0100 -0.8928 -1.2783
 4176SOL     OW23989   3.590   2.558  10.239 -0.1480  0.0595  0.5688
 4176SOL    HW123990   3.646   2.563  10.317  1.2323 -1.0707 -0.3480
 4176SOL    HW223991   3.557   2.645  10.217 -0.1938  0.1250  0.8971
 4177SOL     OW23992   4.443   2.469   3.412 -0.2495  0.2823  0.3980
 4177SOL    HW123993   4.444   2.373   3.418  1.2916  0.2088 -1.1261
 4177SOL    HW223994   4.536   2.486   3.425  0.8966 -5.2461 -0.5290
 4178SOL     OW23995   1.834   1.771   0.246  0.4820 -0.1337  0.5506
 4178SOL    HW123996   1.741   1.767   0.269 -0.4653 -0.8939 -3.4818
 4178SOL    HW223997   1.876   1.729   0.321 -0.1902  1.2370  1.7014
 4179SOL     OW23998   4.601   3.157   6.140  0.4260 -0.1653  0.0433
 4179SOL    HW123999   4.690   3.183   6.164 -0.1536  0.5944  1.3629
 4179SOL    HW224000   4.580   3.237   6.092  0.9489 -0.4651 -0.6926
 4180SOL     OW24001   0.487   0.634   5.662 -0.3265 -0.5847  0.6762
 4180SOL    HW124002   0.463   0.593   5.746 -2.2111 -0.3364  0.2674
 4180SOL    HW224003   0.413   0.603   5.609  0.7826  0.2636 -1.3128
 4181SOL     OW24004   4.123   3.918   7.038 -0.1968  0.1972  0.2278
 4181SOL    HW124005   4.085   3.843   6.993  1.2552  0.0250 -0.7216
 4181SOL    HW224006   4.065   3.922   7.113  0.2157 -0.5679  0.5914
 4182SOL     OW24007   3.802   2.553   8.048  0.4643 -0.4873  0.2428
 4182SOL    HW124008   3.845   2.522   7.969 -0.7242 -0.0487 -0.5820
 4182SOL    HW224009   3.836   2.494   8.115  0.8333  0.5791  0.9961
 4183SOL     OW24010   0.001   4.437  13.408 -0.0424  0.2263 -0.2725
 4183SOL    HW124011   4.698   4.506  13.347 -2.0659  1.6261  2.2485
 4183SOL    HW224012   0.051   4.492  13.469  1.0932 -2.4612  1.1936
 4184SOL     OW24013   4.629   1.123  17.532  0.4519  0.0781 -0.2829
 4184SOL    HW124014   4.652   1.122  17.439 -2.1470  0.1347 -0.9281
 4184SOL    HW224015   4.685   1.192  17.566  2.0429 -0.5081 -1.7276
 4185SOL     OW24016   0.618   3.252  17.129 -0.6777  0.0919  0.4864
 4185SOL    HW124017   0.596   3.191  17.199 -1.8380 -3.0810 -2.6408
 4185SOL    HW224018   0.675   3.311  17.180 -1.2084  0.2338  0.9129
 4186SOL     OW24019   0.541   2.463   9.707 -0.2973  0.1306  0.4242
 4186SOL    HW124020   0.454   2.428   9.725  0.0992 -0.1810  1.6873
 4186SOL    HW224021   0.539   2.558   9.723 -1.6158  0.2878 -0.6881
 4187SOL     OW24022   3.488   1.780  11.439  0.4447 -0.0426  0.0671
 4187SOL    HW124023   3.457   1.796  11.528 -0.1268 -0.2814 -0.0893
 4187SOL    HW224024   3.478   1.867  11.399  1.3665  0.4340  0.8559
 4188SOL     OW24025   3.157   2.173  17.101  0.7335 -0.9587 -0.1287
 4188SOL    HW124026   3.101   2.115  17.152 -0.3709  1.4617  1.4005
 4188SOL    HW224027   3.241   2.145  17.137  0.0351 -0.4882  1.8586
 4189SOL     OW24028   2.495   3.165   8.864  0.4175  0.1048 -0.1102
 4189SOL    HW124029   2.500   3.261   8.860 -2.4745  0.2742  0.5508
 4189SOL    HW224030   2.539   3.150   8.781  0.4024  2.8154 -0.6019
 4190SOL     OW24031   0.736   0.230   1.066 -0.0753 -0.3501  0.0962
 4190SOL    HW124032   0.803   0.297   1.082  0.3994 -0.8765  0.3078
 4190SOL    HW224033   0.670   0.278   1.016  1.7838  2.1570  0.0165
 4191SOL     OW24034   2.160   2.600   3.958 -0.3680 -0.3565 -0.0189
 4191SOL    HW124035   2.166   2.616   4.053 -0.7908 -3.2398  0.4820
 4191SOL    HW224036   2.095   2.530   3.957  1.9524 -2.4877 -0.2917
 4192SOL     OW24037   4.688   0.616  11.074  0.0851  0.1342 -0.2382
 4192SOL    HW124038   0.058   0.613  11.075  0.1836  1.9509 -2.3675
 4192SOL    HW224039   4.669   0.569  11.155 -0.5999  0.5198 -0.1693
 4193SOL     OW24040   3.963   3.697  15.839 -0.0257 -0.2640  0.0425
 4193SOL    HW124041   4.043   3.731  15.880  0.1897 -1.5274  0.6504
 4193SOL    HW224042   3.993   3.614  15.804 -0.5539 -0.2383 -0.4725
 4194SOL     OW24043   1.105   1.349   1.551  0.7158  0.3933  0.1724
 4194SOL    HW124044   1.179   1.406   1.527  0.6937 -0.2299 -1.3977
 4194SOL    HW224045   1.150   1.285   1.606  0.6124  0.8771  0.8247
 4195SOL     OW24046   0.308   0.318  10.555 -0.5590 -0.5053  0.4963
 4195SOL    HW124047   0.349   0.400  10.581 -0.5290  0.2402 -1.8963
 4195SOL    HW224048   0.248   0.340  10.484  0.1405  1.1649  0.4314
 4196SOL     OW24049   2.423   0.160   4.221 -0.0110 -0.0798 -0.0340
 4196SOL    HW124050   2.415   0.089   4.285  0.0929 -0.4401 -0.4233
 4196SOL    HW224051   2.466   0.119   4.146  2.0924  0.0065  1.1161
 4197SOL     OW24052   1.220   1.764  10.949 -0.1116 -0.1064  0.4574
 4197SOL    HW124053   1.287   1.822  10.984 -0.0066 -0.3427  0.6486
 4197SOL    HW224054   1.224   1.690  11.010  2.0870 -0.4214 -0.0547
 4198SOL     OW24055   0.205   2.833   6.814 -0.2715 -0.4730  0.2165
 4198SOL    HW124056   0.231   2.894   6.883 -3.2957  0.5827  0.4312
 4198SOL    HW224057   0.278   2.831   6.752 -2.4598 -0.7290 -2.3601
 4199SOL     OW24058   2.243   1.512  12.159 -0.0944 -0.3695  0.7489
 4199SOL    HW124059   2.149   1.497  12.171 -0.3513 -0.7653 -1.8190
 4199SOL    HW224060   2.239   1.500  12.065  0.8657  2.9235  0.2796
 4200SOL     OW24061   3.249   3.078   5.904  0.3241  0.4166  0.0369
 4200SOL    HW124062   3.195   3.151   5.934 -0.2826  0.5247 -1.3203
 4200SOL    HW224063   3.328   3.094   5.956  1.1888  0.2527 -1.2132
 4201SOL     OW24064   3.580   1.776   2.570 -0.1764 -0.3333  0.0837
 4201SOL    HW124065   3.552   1.717   2.499  1.0367 -0.1568 -0.5297
 4201SOL    HW224066   3.522   1.753   2.642  0.2237  0.4495  0.6471
 4202SOL     OW24067   3.138   3.495   6.427  0.1631  0.6720  0.1811
 4202SOL    HW124068   3.216   3.450   6.396 -0.3856  0.4309 -0.8719
 4202SOL    HW224069   3.126   3.575   6.375  2.8380  1.0159  0.0833
 4203SOL     OW24070   0.980   2.759   0.408  0.2189 -0.2659 -0.3189
 4203SOL    HW124071   0.944   2.772   0.496 -0.4507  1.3672 -0.8258
 4203SOL    HW224072   0.903   2.755   0.352 -1.7934  0.4833  2.3462
 4204SOL     OW24073   1.188   0.040   4.151 -0.2439  0.4919 -0.8763
 4204SOL    HW124074   1.207   0.046   4.057 -1.2819  0.8355 -1.0642
 4204SOL    HW224075   1.273   0.060   4.190 -1.5805  4.3227  0.0323
 4205SOL     OW24076   4.665   2.990   5.421  0.2975 -0.4661 -0.8898
 4205SOL    HW124077   4.586   2.967   5.372  0.5586  1.2107 -2.1038
 4205SOL    HW224078   4.696   2.901   5.438  1.7400  0.6489  2.1587
 4206SOL     OW24079   0.585   1.589   4.808 -0.2985 -0.3025  0.6068
 4206SOL    HW124080   0.607   1.521   4.872  2.0553 -1.3039 -1.2244
 4206SOL    HW224081   0.608   1.550   4.723 -3.0589  0.7916 -0.6409
 4207SOL     OW24082   0.956   2.094  11.435  0.0597  0.1046 -0.2569
 4207SOL    HW124083   1.043   2.096  11.475  0.5088 -2.7718 -1.0514
 4207SOL    HW224084   0.925   2.181  11.458  1.8648  0.3125  1.4058
 4208SOL     OW24085   0.238   2.528   6.585 -0.0958 -0.1722  0.5528
 4208SOL    HW124086   0.308   2.510   6.648  0.3849  1.2463  0.4239
 4208SOL    HW224087   0.218   2.620   6.598  1.9125  0.2628  0.5349
 4209SOL     OW24088   2.013   2.897  10.949 -0.8709 -0.0148  0.0608
 4209SOL    HW124089   2.010   2.847  11.031  1.2376  1.5932  1.1275
 4209SOL    HW224090   2.104   2.883  10.921 -0.9462  1.0113 -0.6891
 4210SOL     OW24091   0.830   2.270  10.380 -0.4630  0.1447  0.2705
 4210SOL    HW124092   0.925   2.259  10.381 -0.2878  1.7758  1.3926
 4210SOL    HW224093   0.807   2.319  10.302 -2.5074 -0.3868  0.5428
 4211SOL     OW24094   1.255   3.166   8.554  0.4357 -0.2999 -0.3256
 4211SOL    HW124095   1.249   3.211   8.470 -0.6077 -2.1953 -1.2694
 4211SOL    HW224096   1.310   3.091   8.531  1.8944 -0.1708  2.7916
 4212SOL     OW24097   2.053   1.293   3.381  0.3359 -0.1176 -0.0588
 4212SOL    HW124098   2.093   1.326   3.301 -0.6836  0.4779 -0.3141
 4212SOL    HW224099   2.003   1.366   3.417  0.7710  0.4530 -0.6145
 4213SOL     OW24100   1.582   0.918   1.332 -0.3819 -0.2552  0.3627
 4213SOL    HW124101   1.640   0.886   1.401 -1.1362 -0.2021  1.0167
 4213SOL    HW224102   1.610   0.865   1.258  1.3298 -0.4857  1.1581
 4214SOL     OW24103   0.233   2.322   3.044 -0.3831  0.1320  0.2549
 4214SOL    HW124104   0.200   2.310   2.955 -0.3805  0.1469  0.2520
 4214SOL    HW224105   0.321   2.356   3.027 -0.2119  0.7881  2.5088
 4215SOL     OW24106   3.779   3.266   8.087  0.0134 -0.5254 -1.0137
 4215SOL    HW124107   3.704   3.209   8.103 -0.5070 -0.2086 -2.3366
 4215SOL    HW224108   3.731   3.340   8.051  0.8257 -0.2009 -1.4351
 4216SOL     OW24109   0.996   4.187   0.274  0.3243 -0.3958  0.6423
 4216SOL    HW124110   1.049   4.178   0.194 -2.5723  1.0023 -1.4453
 4216SOL    HW224111   0.962   4.275   0.257 -1.0944 -1.1234 -0.2395
 4217SOL     OW24112   2.388   0.089   8.598 -0.0129 -0.5037  0.2183
 4217SOL    HW124113   2.477   0.065   8.571  0.4284 -1.1207  2.2670
 4217SOL    HW224114   2.374   0.046   8.682 -1.5723  2.8629  1.6295
 4218SOL     OW24115   2.494   4.154  14.338 -0.1706  0.2749  0.3373
 4218SOL    HW124116   2.527   4.081  14.286  3.1546  1.1437  1.2402
 4218SOL    HW224117   2.450   4.109  14.410 -0.0972 -0.3250  0.0043
 4219SOL     OW24118   2.388   1.984   2.325 -0.0777  0.3899  0.1026
 4219SOL    HW124119   2.388   1.893   2.294  1.1138  0.9716 -1.5525
 4219SOL    HW224120   2.468   2.020   2.288 -0.0254 -0.0487 -0.2086
 4220SOL     OW24121   0.845   2.404   5.328 -0.1442  0.6010  0.0655
 4220SOL    HW124122   0.758   2.431   5.298 -0.0600 -1.2151 -1.7741
 4220SOL    HW224123   0.828   2.319   5.370  0.5982  0.5565  0.2704
 4221SOL     OW24124   1.433   3.178  15.841 -0.1892  0.1420  0.0122
 4221SOL    HW124125   1.434   3.095  15.889  4.2992  0.2894  0.2177
 4221SOL    HW224126   1.444   3.230  15.921  2.7194 -0.6090  0.0910
 4222SOL     OW24127   3.029   1.231   5.969 -0.1980 -0.3574 -0.2246
 4222SOL    HW124128   3.073   1.225   6.054 -1.0760 -1.4333  0.1558
 4222SOL    HW224129   3.092   1.203   5.903  0.1177 -0.4350  0.1109
 4223SOL     OW24130   0.205   1.078   9.319  0.2770 -0.4314  0.3458
 4223SOL    HW124131   0.201   1.064   9.225  3.0743  0.9797  0.0193
 4223SOL    HW224132   0.156   1.160   9.320  1.4651  0.3122 -1.8994
 4224SOL     OW24133   2.054   3.967   8.855  0.1416 -0.2810 -0.5696
 4224SOL    HW124134   2.041   3.948   8.762  1.6720  0.5365 -0.9660
 4224SOL    HW224135   2.117   3.902   8.886 -0.5841 -0.6825  0.0387
 4225SOL     OW24136   2.979   2.401   5.978  0.2260  0.3152  0.2129
 4225SOL    HW124137   2.992   2.312   5.946 -1.0116  0.0575  0.4110
 4225SOL    HW224138   3.025   2.395   6.061  3.0546 -2.2199 -1.5352
 4226SOL     OW24139   1.217   1.067   9.575 -0.0443 -0.5546 -0.2063
 4226SOL    HW124140   1.216   0.979   9.538  0.5979 -1.3237  1.6162
 4226SOL    HW224141   1.279   1.062   9.648  0.9330  1.4391 -0.9135
 4227SOL     OW24142   1.502   4.564   5.620  0.0619  0.1234  0.7136
 4227SOL    HW124143   1.452   4.514   5.685 -2.1005  1.2899 -0.0567
 4227SOL    HW224144   1.431   4.564   5.556 -0.2257 -2.4315  1.0258
 4228SOL     OW24145   0.819   4.104   0.726 -0.2841  0.3252  0.4555
 4228SOL    HW124146   0.727   4.095   0.703  0.1529 -0.9817 -0.8135
 4228SOL    HW224147   0.864   4.087   0.643 -0.3787 -1.3638  0.7438
 4229SOL     OW24148   3.623   1.625   8.740 -0.4376 -0.4626 -0.0838
 4229SOL    HW124149   3.591   1.603   8.828 -0.7504 -0.6320 -0.2393
 4229SOL    HW224150   3.542   1.656   8.700 -0.2554 -2.5352 -2.0289
 4230SOL     OW24151   0.619   1.990   5.958 -0.2439  0.2063  0.5753
 4230SOL    HW124152   0.596   2.061   6.017 -0.8815  1.2519 -0.9198
 4230SOL    HW224153   0.697   2.021   5.911  1.7863 -0.1659  3.7292
 4231SOL     OW24154   1.871   0.916  13.724  1.1059  0.0679 -0.2920
 4231SOL    HW124155   1.933   0.853  13.688 -0.7641 -2.1785  0.4143
 4231SOL    HW224156   1.814   0.931  13.649 -1.3950 -0.6321  1.4976
 4232SOL     OW24157   1.854   0.046  16.143  0.4627  0.3381  0.0554
 4232SOL    HW124158   1.859   0.128  16.094 -2.4175  0.4759  0.0246
 4232SOL    HW224159   1.821   0.065  16.231  1.7315  1.6316  0.2530
 4233SOL     OW24160   3.326   1.767   4.067  0.0902  0.1044  0.1475
 4233SOL    HW124161   3.348   1.841   4.009  1.2885  0.8909  1.5763
 4233SOL    HW224162   3.353   1.692   4.015  4.1430  0.4471  1.7437
 4234SOL     OW24163   2.169   0.685   9.050 -0.0242 -0.3586 -0.1558
 4234SOL    HW124164   2.157   0.772   9.088 -0.6089 -1.8364  3.0167
 4234SOL    HW224165   2.099   0.631   9.088  0.0696  0.4908  1.2046
 4235SOL     OW24166   2.012   0.836  12.304 -0.4892  0.2012  0.3074
 4235SOL    HW124167   1.944   0.780  12.267  0.5176 -1.3716  0.8294
 4235SOL    HW224168   2.060   0.863  12.225 -2.4931  1.5320 -0.4303
 4236SOL     OW24169   2.350   1.695  17.681  0.7438 -0.2503 -0.3953
 4236SOL    HW124170   2.303   1.637   0.039  2.1195 -0.1444  0.8028
 4236SOL    HW224171   2.282   1.687  17.614 -1.0465  1.1363  1.2773
 4237SOL     OW24172   4.668   1.941   7.045 -0.1360 -0.0771 -0.3392
 4237SOL    HW124173   0.007   2.010   7.063  1.1771 -1.4175  0.1919
 4237SOL    HW224174   4.600   1.986   6.996  0.4515  1.6040  0.3560
 4238SOL     OW24175   0.024   1.576   1.116  0.2003  0.1930  0.0852
 4238SOL    HW124176   4.725   1.483   1.110 -0.5726  0.4526 -0.7665
 4238SOL    HW224177   0.102   1.575   1.173  0.6004 -1.0007 -0.4718
 4239SOL     OW24178   4.111   3.627   2.520  0.1115  0.2204 -0.2632
 4239SOL    HW124179   4.087   3.539   2.493  0.4114 -0.7031  2.4557
 4239SOL    HW224180   4.138   3.610   2.610 -0.3011 -0.5032 -0.2725
 4240SOL     OW24181   1.746   1.517   5.295 -0.4559 -0.7071 -0.1617
 4240SOL    HW124182   1.665   1.522   5.245 -0.7707 -2.7783  0.1403
 4240SOL    HW224183   1.794   1.593   5.262 -1.7306 -1.0150 -2.6924
 4241SOL     OW24184   3.438   2.827   3.535  0.1297 -0.1925 -0.1543
 4241SOL    HW124185   3.459   2.734   3.528 -0.4533 -0.2118 -1.5860
 4241SOL    HW224186   3.371   2.846   3.469 -0.5498  0.8209  0.8225
 4242SOL     OW24187   1.805   0.549   2.584 -0.2221 -0.0634  0.5279
 4242SOL    HW124188   1.749   0.583   2.514  1.9193  2.1845 -0.0906
 4242SOL    HW224189   1.794   0.618   2.650 -0.8475 -1.3637  1.7999
 4243SOL     OW24190   2.187   3.112   2.625  0.2169  0.0480  0.2334
 4243SOL    HW124191   2.197   3.116   2.720  0.2945  1.0488  0.1810
 4243SOL    HW224192   2.221   3.024   2.610 -0.7116 -0.4289  0.8781
 4244SOL     OW24193   3.852   0.246   9.907 -0.0059 -0.1017  0.0315
 4244SOL    HW124194   3.865   0.317   9.970 -3.0172  0.0771  0.4471
 4244SOL    HW224195   3.825   0.174   9.965 -0.7757  1.4711  1.6370
 4245SOL     OW24196   2.668   3.936  16.137 -1.0266  0.5234 -0.0869
 4245SOL    HW124197   2.614   3.975  16.068  0.1434  2.8602  0.3217
 4245SOL    HW224198   2.655   3.842  16.122 -0.5743  0.4092  0.2314
 4246SOL     OW24199   1.046   1.270   3.544 -0.8386 -0.2638  0.1049
 4246SOL    HW124200   1.140   1.287   3.538 -0.6684 -1.2888 -0.1029
 4246SOL    HW224201   1.011   1.359   3.538  1.1666  0.6530  1.9309
 4247SOL     OW24202   3.588   2.064   6.851 -0.0784  0.2964 -0.3809
 4247SOL    HW124203   3.553   2.153   6.862  0.1056  0.0901  1.7110
 4247SOL    HW224204   3.674   2.085   6.813 -2.0213  2.6530 -3.5277
 4248SOL     OW24205   2.234   0.783  14.230  0.5917 -0.4819  0.0395
 4248SOL    HW124206   2.294   0.848  14.192 -0.7881  0.3962 -0.6230
 4248SOL    HW224207   2.150   0.801  14.189  0.0239  2.4071  2.4456
 4249SOL     OW24208   4.510   0.021  16.578  0.1149  0.1676 -0.2319
 4249SOL    HW124209   4.533   4.656  16.601 -1.6171 -0.9182 -2.7789
 4249SOL    HW224210   4.451   0.007  16.505 -0.2256  0.4949 -0.0191
 4250SOL     OW24211   0.900   0.457   3.948 -0.0715  0.3111 -0.2765
 4250SOL    HW124212   0.833   0.390   3.954  1.6368 -1.3115  0.6976
 4250SOL    HW224213   0.872   0.507   3.871 -2.9139  0.4254  0.8566
 4251SOL     OW24214   3.198   1.312   2.232  0.5783  0.4067  0.2132
 4251SOL    HW124215   3.229   1.224   2.257 -0.3067 -0.6296 -2.3344
 4251SOL    HW224216   3.242   1.324   2.148 -0.6781  0.4938 -0.4295
 4252SOL     OW24217   0.081   0.937   8.420  0.0004  0.1944 -0.5956
 4252SOL    HW124218   0.023   0.863   8.402  0.2265 -0.6630  2.1000
 4252SOL    HW224219   0.031   0.996   8.478 -1.9275 -0.2123 -1.8276
 4253SOL     OW24220   4.365   3.544   9.492  0.2547 -0.0540 -0.6310
 4253SOL    HW124221   4.395   3.487   9.422 -2.2118 -0.5953 -1.2515
 4253SOL    HW224222   4.272   3.539   9.469  1.2011 -0.8252 -4.2096
 4254SOL     OW24223   2.483   2.557   4.131 -0.5504  0.2622  0.0418
 4254SOL    HW124224   2.482   2.565   4.227 -0.2203 -0.0496  0.0742
 4254SOL    HW224225   2.391   2.536   4.118 -1.4077  4.0441 -0.0403
 4255SOL     OW24226   4.114   0.646   8.499  0.5726 -0.0921 -0.4299
 4255SOL    HW124227   4.168   0.711   8.452  2.2548 -1.9736 -1.0934
 4255SOL    HW224228   4.055   0.620   8.428  1.3568 -0.3259 -0.9997
 4256SOL     OW24229   1.081   1.099   7.991 -0.4270  0.0220 -0.1335
 4256SOL    HW124230   1.087   1.104   8.087  1.4178  1.5531 -0.3219
 4256SOL    HW224231   0.995   1.068   7.962 -0.1830 -0.2337 -0.5848
 4257SOL     OW24232   0.406   2.461   2.033  0.4644 -0.1585  0.1099
 4257SOL    HW124233   0.347   2.398   2.073  1.3491 -1.6834 -0.9972
 4257SOL    HW224234   0.395   2.443   1.940  0.9341  0.4032 -0.0537
 4258SOL     OW24235   1.633   2.759   2.558  0.4972  0.5362 -0.0386
 4258SOL    HW124236   1.644   2.842   2.511 -1.7801  1.9479  1.8498
 4258SOL    HW224237   1.559   2.786   2.613  1.7261  1.3242  1.2349
 4259SOL     OW24238   1.262   3.056   6.696 -0.4540  0.1459 -0.2539
 4259SOL    HW124239   1.337   3.000   6.673  0.4490  1.3080 -0.1207
 4259SOL    HW224240   1.300   3.094   6.775  0.0017 -0.8750  0.0244
 4260SOL     OW24241   2.073   1.853   6.815  0.0860  0.3185 -0.0417
 4260SOL    HW124242   2.012   1.797   6.767  0.6792 -0.8312  0.5143
 4260SOL    HW224243   2.051   1.825   6.904  0.0724 -2.0930 -0.7964
 4261SOL     OW24244   4.664   0.734   5.476  0.2241  0.0780 -0.0674
 4261SOL    HW124245   4.633   0.668   5.537 -0.0390  0.1395 -0.1371
 4261SOL    HW224246   4.637   0.817   5.516  1.5303  0.3084  0.3647
 4262SOL     OW24247   3.277   1.222   5.610  0.4679  0.1681 -0.5561
 4262SOL    HW124248   3.198   1.169   5.618  0.1748  0.5543 -0.8482
 4262SOL    HW224249   3.348   1.172   5.650  0.0753  0.5042  0.5566
 4263SOL     OW24250   3.408   4.453   4.082 -0.0952  0.1947  0.3347
 4263SOL    HW124251   3.498   4.419   4.086  0.2385  0.9634 -0.5485
 4263SOL    HW224252   3.360   4.372   4.099 -0.5857  0.2255 -0.9320
 4264SOL     OW24253   2.787   4.694   5.629  0.4736 -0.3985 -0.4885
 4264SOL    HW124254   2.852   4.624   5.641 -0.6081 -1.3868 -0.2863
 4264SOL    HW224255   2.844   0.040   5.601  0.8180 -0.1895  0.7844
 4265SOL     OW24256   0.073   3.363   3.511  0.4727 -0.1736  0.8576
 4265SOL    HW124257   0.017   3.408   3.447 -0.1614 -1.5314  0.4729
 4265SOL    HW224258   0.163   3.375   3.481 -0.0569 -0.3685 -0.8116
 4266SOL     OW24259   2.071   1.109   7.703 -0.8526 -0.3217  0.0782
 4266SOL    HW124260   2.157   1.136   7.670 -0.1493  0.2651  2.3641
 4266SOL    HW224261   2.058   1.176   7.770  0.2616  0.6826 -0.7095
 4267SOL     OW24262   3.012   2.889   2.454  0.1062 -0.0933 -0.0236
 4267SOL    HW124263   3.071   2.918   2.524 -2.1620  3.0896  0.6005
 4267SOL    HW224264   2.926   2.913   2.488  0.3866  1.3819 -0.3374
 4268SOL     OW24265   4.021   4.371   6.466  0.2351 -0.5096  0.2724
 4268SOL    HW124266   4.016   4.467   6.473  2.5811 -0.3195 -0.7616
 4268SOL    HW224267   4.112   4.359   6.439 -0.1018 -0.4928 -0.8450
 4269SOL     OW24268   1.288   1.937   8.121  0.2283  0.2084  0.2355
 4269SOL    HW124269   1.215   1.994   8.097 -0.7872 -0.9042  0.7453
 4269SOL    HW224270   1.239   1.890   8.188  0.3426  0.5396  0.5529
 4270SOL     OW24271   2.026   0.989  13.921 -0.0734  0.1857  0.3287
 4270SOL    HW124272   1.968   0.976  13.847 -1.9291  1.3079  1.5816
 4270SOL    HW224273   1.958   0.997  13.989 -0.4867 -1.9831  0.1844
 4271SOL     OW24274   2.697   1.322   8.970 -0.9669 -0.1674  0.6914
 4271SOL    HW124275   2.748   1.244   8.994 -0.9540 -1.3134 -3.0436
 4271SOL    HW224276   2.622   1.278   8.929 -3.3831  2.7324  1.9767
 4272SOL     OW24277   2.942   1.223  13.763  0.7005  0.3185  0.6669
 4272SOL    HW124278   2.952   1.229  13.858  1.4648  1.1157  0.5316
 4272SOL    HW224279   2.846   1.229  13.763  0.6789 -0.2339  3.0953
 4273SOL     OW24280   3.682   3.621   2.865 -0.4095 -0.1843 -0.0022
 4273SOL    HW124281   3.754   3.581   2.914  0.0603 -1.2007 -1.5024
 4273SOL    HW224282   3.654   3.685   2.930 -1.8419 -0.1087 -0.6971
 4274SOL     OW24283   3.442   3.982  15.859  0.6040  0.1629  0.4048
 4274SOL    HW124284   3.460   3.955  15.949  0.7445  0.0039  0.3281
 4274SOL    HW224285   3.393   3.906  15.830  0.2769  1.4297 -2.4020
 4275SOL     OW24286   3.174   4.297   3.124 -0.7731 -0.1084  0.4307
 4275SOL    HW124287   3.205   4.253   3.202 -0.9407 -0.4884  0.2826
 4275SOL    HW224288   3.249   4.347   3.092 -1.1594 -0.7236 -1.4766
 4276SOL     OW24289   1.326   2.903   2.312  0.0888 -0.1405 -0.1050
 4276SOL    HW124290   1.377   2.860   2.244 -0.6293 -0.1319 -0.6476
 4276SOL    HW224291   1.390   2.912   2.383  0.3979  1.1369 -0.5429
 4277SOL     OW24292   0.580   3.526  12.961  0.3951  0.5130 -0.5927
 4277SOL    HW124293   0.591   3.606  13.013  1.5567  0.7163 -1.1534
 4277SOL    HW224294   0.628   3.468  13.020 -0.4783 -0.1612 -0.5435
 4278SOL     OW24295   1.682   2.878  12.456  0.4448 -0.2813  0.1722
 4278SOL    HW124296   1.631   2.902  12.533 -0.4883  1.6213 -1.0501
 4278SOL    HW224297   1.717   2.964  12.435  3.1086 -1.4454 -0.0648
 4279SOL     OW24298   0.184   1.032   7.526 -0.5365 -0.6195 -0.0197
 4279SOL    HW124299   0.107   1.073   7.487 -1.7840 -3.7128 -0.8247
 4279SOL    HW224300   0.245   1.105   7.542 -0.6160 -0.9786  1.9534
 4280SOL     OW24301   0.059   0.980   4.671  0.0186 -0.1205  0.6608
 4280SOL    HW124302   0.072   1.000   4.763  1.0921 -1.5922  0.8318
 4280SOL    HW224303   0.109   0.898   4.666 -0.6294 -0.5272  0.7676
 4281SOL     OW24304   4.659   3.106  13.729 -0.4965  0.0439 -0.2563
 4281SOL    HW124305   4.566   3.116  13.708  0.0621  1.5905 -1.9058
 4281SOL    HW224306   4.672   3.012  13.715 -0.9091 -0.2391  1.2725
 4282SOL     OW24307   2.137   2.394   2.465 -0.2035 -0.0230 -0.0064
 4282SOL    HW124308   2.129   2.306   2.428 -1.4239  0.0776  0.0337
 4282SOL    HW224309   2.066   2.434   2.415 -1.6278 -0.9758  1.2846
 4283SOL     OW24310   1.311   0.887   7.375 -0.1456  0.5931  0.6713
 4283SOL    HW124311   1.244   0.952   7.396 -1.3535  0.5381 -3.0773
 4283SOL    HW224312   1.371   0.904   7.448  0.5924 -0.1046  0.2293
 4284SOL     OW24313   1.662   1.738   0.671 -0.7456 -0.4002 -0.5744
 4284SOL    HW124314   1.733   1.803   0.673 -1.3816  0.2354  1.6616
 4284SOL    HW224315   1.625   1.764   0.756  1.1310  0.9895 -0.1746
 4285SOL     OW24316   1.223   4.406  10.394  0.1250  0.6482 -0.4300
 4285SOL    HW124317   1.288   4.468  10.428  2.2611 -1.0742 -1.4279
 4285SOL    HW224318   1.190   4.453  10.317  4.4564  1.7515 -1.6224
 4286SOL     OW24319   0.741   1.459   3.541  0.2861 -0.2414 -0.5076
 4286SOL    HW124320   0.751   1.366   3.562 -1.6135 -0.8191 -2.2130
 4286SOL    HW224321   0.733   1.496   3.629  0.3189 -0.7492 -0.2909
 4287SOL     OW24322   0.482   3.986   9.722 -0.3778  0.1254  0.0316
 4287SOL    HW124323   0.571   3.978   9.755 -0.4956  0.0342  0.3269
 4287SOL    HW224324   0.453   4.049   9.788  2.6320  0.5852  0.9125
 4288SOL     OW24325   4.139   3.284   8.424  0.1343  0.3617  0.3939
 4288SOL    HW124326   4.231   3.302   8.406  0.4672 -0.9302  0.7932
 4288SOL    HW224327   4.106   3.371   8.405  0.9731  0.3028 -1.2983
 4289SOL     OW24328   3.228   0.767  14.798 -0.2247 -0.4810  0.3985
 4289SOL    HW124329   3.204   0.859  14.808 -2.8819 -1.3679  2.1925
 4289SOL    HW224330   3.143   0.743  14.759 -0.4463  0.9628  0.0165
 4290SOL     OW24331   2.770   2.473   8.639  0.2732  0.1275  0.0036
 4290SOL    HW124332   2.684   2.504   8.666  0.3022  0.7051 -0.5517
 4290SOL    HW224333   2.757   2.462   8.545 -0.9831  3.7702 -0.2387
 4291SOL     OW24334   1.957   0.594  14.496  0.5099  0.3808  0.7014
 4291SOL    HW124335   1.885   0.640  14.539 -0.3575  0.1250 -0.4487
 4291SOL    HW224336   1.956   0.512  14.545  0.9464 -0.3979 -0.5861
 4292SOL     OW24337   4.141   4.193   3.401  0.2803 -0.0621  0.5996
 4292SOL    HW124338   4.131   4.171   3.308  0.7944  0.9127  0.3115
 4292SOL    HW224339   4.204   4.265   3.394  0.5581 -0.4590 -0.9837
 4293SOL     OW24340   2.871   0.414  11.117 -0.4137 -0.1408 -0.5135
 4293SOL    HW124341   2.891   0.324  11.092 -0.6067 -0.8787  1.9682
 4293SOL    HW224342   2.778   0.405  11.136 -0.0022 -1.4473  0.8974
 4294SOL     OW24343   0.215   0.753   4.645 -0.1959  0.3927 -0.1241
 4294SOL    HW124344   0.261   0.669   4.632 -0.7429 -0.2744  2.3559
 4294SOL    HW224345   0.274   0.788   4.711  0.9871 -2.5969  0.4435
 4295SOL     OW24346   4.341   1.150   5.242 -0.0488  0.1811  0.3240
 4295SOL    HW124347   4.412   1.089   5.262 -0.3123 -0.0257  0.6309
 4295SOL    HW224348   4.272   1.133   5.306 -0.5036  0.7742 -0.0096
 4296SOL     OW24349   3.434   4.511   5.369 -0.0351  0.4918  0.1119
 4296SOL    HW124350   3.406   4.513   5.460  0.2971  1.1852  0.1983
 4296SOL    HW224351   3.525   4.527   5.393  0.7922 -1.6884 -1.5214
 4297SOL     OW24352   1.533   2.231   3.800 -0.4763 -0.0015 -0.3636
 4297SOL    HW124353   1.583   2.170   3.745  0.8142 -0.2226  1.0660
 4297SOL    HW224354   1.456   2.263   3.753 -1.4338 -0.1977  1.0861
 4298SOL     OW24355   3.971   2.625   4.764  0.5129 -0.3411 -0.3953
 4298SOL    HW124356   4.035   2.624   4.694 -0.5392  2.2498 -1.4162
 4298SOL    HW224357   3.902   2.569   4.728  0.0706  0.5569 -0.9620
 4299SOL     OW24358   0.032   0.930   4.926  0.1307  0.7226  0.1542
 4299SOL    HW124359   4.706   0.852   4.906  2.0880 -0.4428 -0.3850
 4299SOL    HW224360   0.034   0.925   5.022  1.9213  1.9000  0.1905
 4300SOL     OW24361   0.270   4.041   6.897  0.6920  0.6796  0.1391
 4300SOL    HW124362   0.235   4.111   6.841  2.7230  0.7523 -1.0706
 4300SOL    HW224363   0.365   4.057   6.890  0.6847 -0.2789 -2.0266
 4301SOL     OW24364   4.393   1.993   3.691  0.1101  0.2278 -0.4748
 4301SOL    HW124365   4.313   1.954   3.656  1.1068 -1.5257 -0.8099
 4301SOL    HW224366   4.456   1.923   3.671  0.2000  0.5124 -1.1820
 4302SOL     OW24367   3.369   2.796  10.789  0.0430 -0.3372  0.3157
 4302SOL    HW124368   3.390   2.720  10.734  0.4375 -0.8056  1.1071
 4302SOL    HW224369   3.432   2.775  10.858 -0.6818  0.5731  1.2397
 4303SOL     OW24370   4.342   1.068  17.576  0.0312  0.4111  0.8202
 4303SOL    HW124371   4.319   1.061  17.483 -0.6758  0.8649  0.9579
 4303SOL    HW224372   4.437   1.062  17.576 -0.0596 -1.0557 -0.6470
 4304SOL     OW24373   3.959   0.343   6.391 -0.3084 -0.0890 -0.2066
 4304SOL    HW124374   3.994   0.276   6.333 -0.6300  1.3175 -2.0381
 4304SOL    HW224375   3.878   0.379   6.354 -1.3171 -0.7849  1.3476
 4305SOL     OW24376   1.270   4.440  10.986 -0.4501 -0.1195  0.4299
 4305SOL    HW124377   1.210   4.459  11.059 -1.1171 -0.9591  0.0854
 4305SOL    HW224378   1.348   4.406  11.030 -0.6056 -2.5172 -1.1737
 4306SOL     OW24379   3.911   0.214   6.695 -0.5696  0.4736  0.4022
 4306SOL    HW124380   3.956   0.199   6.611 -0.8788 -0.2765  0.3666
 4306SOL    HW224381   3.916   0.131   6.743  2.3789 -0.3018 -1.2440
 4307SOL     OW24382   3.977   3.244  12.813  0.3122  0.2191  0.4040
 4307SOL    HW124383   4.016   3.330  12.825 -0.5192  0.5768  0.5269
 4307SOL    HW224384   4.048   3.200  12.766 -1.8800 -3.1930  0.2530
 4308SOL     OW24385   1.594   1.227  11.026 -0.1600 -0.1804  0.2379
 4308SOL    HW124386   1.608   1.172  10.949 -0.6951  1.0012 -0.7069
 4308SOL    HW224387   1.669   1.203  11.080 -0.4843  0.4844  1.0021
 4309SOL     OW24388   4.172   2.750  15.830  0.1775  0.1000  0.0915
 4309SOL    HW124389   4.234   2.805  15.877  1.2986  1.2536 -2.7699
 4309SOL    HW224390   4.154   2.799  15.750  1.1197  2.3591  1.2825
 4310SOL     OW24391   4.308   2.517   5.210 -0.0283  0.1133 -0.5338
 4310SOL    HW124392   4.272   2.564   5.285  2.6456 -1.1989  1.5874
 4310SOL    HW224393   4.327   2.432   5.250 -1.9736  0.1446  0.4428
 4311SOL     OW24394   3.370   1.280   6.552 -0.1359 -0.4981  0.3222
 4311SOL    HW124395   3.390   1.287   6.458  0.9102 -1.7194  0.4580
 4311SOL    HW224396   3.384   1.186   6.559  2.0517 -0.0690  1.7515
 4312SOL     OW24397   1.049   3.894   9.363  0.3755  0.0009 -0.4496
 4312SOL    HW124398   1.024   3.822   9.421 -1.4211  0.2042 -0.9772
 4312SOL    HW224399   0.986   3.964   9.381  0.6836 -0.0456  0.8395
 4313SOL     OW24400   4.056   0.766   6.468  0.6483  0.1105 -0.4611
 4313SOL    HW124401   3.986   0.707   6.495  0.4735  0.6042  0.1721
 4313SOL    HW224402   4.063   0.829   6.540 -1.5484  1.4398 -1.4244
 4314SOL     OW24403   3.142   3.543   8.329 -0.4157  0.2024 -0.3019
 4314SOL    HW124404   3.142   3.606   8.257  1.2017 -0.2948 -0.7237
 4314SOL    HW224405   3.065   3.573   8.377  0.6879  0.2838  1.3862
 4315SOL     OW24406   2.555   1.415  16.536 -0.0375  0.2522 -0.1373
 4315SOL    HW124407   2.477   1.431  16.589  0.8722 -0.0658  1.2703
 4315SOL    HW224408   2.620   1.380  16.596 -0.3664  1.3130  0.8312
 4316SOL     OW24409   0.334   1.851   3.923  0.4834 -0.6331 -0.3756
 4316SOL    HW124410   0.424   1.840   3.954  0.3485  2.1179  1.0171
 4316SOL    HW224411   0.296   1.907   3.990  1.4290  0.1658 -0.5018
 4317SOL     OW24412   4.011   2.739  16.696 -0.0115  0.0889  0.5053
 4317SOL    HW124413   3.999   2.655  16.652 -0.3202  0.5685 -0.3254
 4317SOL    HW224414   3.921   2.771  16.691  1.0333  2.5731 -2.5216
 4318SOL     OW24415   0.877   0.354   6.383  0.4996  0.0109 -0.0491
 4318SOL    HW124416   0.963   0.342   6.423 -0.4856 -0.6722  1.8635
 4318SOL    HW224417   0.882   0.289   6.313  0.2839  1.4890 -1.4320
 4319SOL     OW24418   3.020   4.468   6.155 -0.4475  0.0916  0.2277
 4319SOL    HW124419   3.115   4.476   6.162 -0.4809  0.5571  0.1628
 4319SOL    HW224420   3.002   4.561   6.137  2.3390  0.6084  0.2200
 4320SOL     OW24421   2.051   3.555   5.571  0.1119 -0.0579 -0.5530
 4320SOL    HW124422   2.027   3.520   5.485 -0.0154 -0.0416 -0.5234
 4320SOL    HW224423   2.099   3.483   5.612 -1.8486 -0.6899  0.6583
 4321SOL     OW24424   4.634   1.017   6.837 -0.1612 -0.4178  0.2811
 4321SOL    HW124425   4.552   1.029   6.884 -0.2320 -0.2557  0.1109
 4321SOL    HW224426   4.602   1.036   6.749 -1.6616  1.5857  1.2647
 4322SOL     OW24427   2.707   1.606  14.734  0.6633 -0.4656 -0.5854
 4322SOL    HW124428   2.612   1.590  14.730  0.9015 -1.8260 -0.9153
 4322SOL    HW224429   2.751   1.552  14.669 -0.3382 -2.0725  0.0744
 4323SOL     OW24430   2.348   3.624   8.971 -0.4989  0.0629 -0.9444
 4323SOL    HW124431   2.349   3.704   8.919 -1.5319 -0.0192 -1.0974
 4323SOL    HW224432   2.257   3.621   9.002  0.1396  1.1367  1.0945
 4324SOL     OW24433   3.928   2.513  13.224  0.3837  0.1016 -0.4996
 4324SOL    HW124434   3.959   2.508  13.314 -1.1447 -1.3770 -0.0494
 4324SOL    HW224435   3.920   2.422  13.194  1.3074 -0.5922  1.3190
 4325SOL     OW24436   0.664   3.739   4.575 -0.2646  0.5750  0.0683
 4325SOL    HW124437   0.671   3.715   4.483 -0.8202 -1.6523  0.6040
 4325SOL    HW224438   0.747   3.703   4.605  0.0985  0.6077 -0.9021
 4326SOL     OW24439   3.753   2.675  16.747 -0.0820  0.1586  0.4047
 4326SOL    HW124440   3.734   2.643  16.835 -0.5704  0.3610  0.3725
 4326SOL    HW224441   3.696   2.631  16.685  1.0307  2.8930 -2.5965
 4327SOL     OW24442   2.904   2.822   8.873  0.9326 -0.2887 -0.0369
 4327SOL    HW124443   2.959   2.745   8.855  1.3791 -0.4834  2.1515
 4327SOL    HW224444   2.816   2.790   8.892  0.6317 -0.7348 -2.2618
 4328SOL     OW24445   0.004   4.173   5.838 -0.1228  0.1875 -0.0610
 4328SOL    HW124446   0.099   4.184   5.835 -0.0345 -0.6787 -0.5011
 4328SOL    HW224447   4.694   4.245   5.786  2.4092  0.7791 -0.9395
 4329SOL     OW24448   1.043   4.420  13.832 -0.0971 -0.4709 -0.6965
 4329SOL    HW124449   0.989   4.449  13.758 -0.7859 -0.3271 -0.1328
 4329SOL    HW224450   1.002   4.333  13.829  0.9481 -0.9954  0.1748
 4330SOL     OW24451   0.546   2.626   7.294 -0.5129  0.2391 -0.4000
 4330SOL    HW124452   0.598   2.706   7.292 -3.1530  1.9217 -1.6661
 4330SOL    HW224453   0.506   2.635   7.208  1.6392  0.0197 -1.4105
 4331SOL     OW24454   3.107   2.581   3.650  0.1282  0.0606  0.1759
 4331SOL    HW124455   3.018   2.576   3.685  0.3692  0.4978  0.8576
 4331SOL    HW224456   3.108   2.512   3.584 -0.5784 -1.2729  1.5666
 4332SOL     OW24457   3.859   3.803   7.494  0.1453  0.1685  0.2785
 4332SOL    HW124458   3.850   3.847   7.579  0.2067 -0.7603  0.7657
 4332SOL    HW224459   3.862   3.714   7.530  1.7248  0.8903  1.9242
 4333SOL     OW24460   2.942   2.964   7.044  0.6013  0.2928 -0.1412
 4333SOL    HW124461   2.933   3.058   7.027  1.4771  0.5405  0.7819
 4333SOL    HW224462   2.966   2.970   7.136  0.9217 -0.8011 -0.1599
 4334SOL     OW24463   0.260   3.044   8.196 -0.2907  0.1916  0.2692
 4334SOL    HW124464   0.319   3.035   8.271  0.8563 -2.7602 -1.0164
 4334SOL    HW224465   0.174   3.045   8.238  0.0912  1.2998  1.0359
 4335SOL     OW24466   2.625   2.628   4.812 -0.2732 -0.4148  0.0759
 4335SOL    HW124467   2.700   2.616   4.871 -0.4145  0.8481  0.5355
 4335SOL    HW224468   2.645   2.568   4.740  0.8082 -0.2900  0.2753
 4336SOL     OW24469   3.650   0.700   9.768  0.1721  0.4761 -0.1763
 4336SOL    HW124470   3.703   0.778   9.782 -0.0887  0.6045  0.0954
 4336SOL    HW224471   3.620   0.679   9.857  0.6628 -0.6177 -0.2607
 4337SOL     OW24472   1.869   2.538   4.424  0.1912  0.3789  0.4874
 4337SOL    HW124473   1.779   2.532   4.454  0.4462 -1.9659  0.8241
 4337SOL    HW224474   1.858   2.597   4.350  0.3984 -0.8937 -0.5581
 4338SOL     OW24475   4.149   0.516  11.027  0.1687  0.3131  0.0624
 4338SOL    HW124476   4.149   0.456  11.102  1.4812  1.7442  1.1996
 4338SOL    HW224477   4.244   0.520  11.017  0.2025 -1.8257 -0.4943
 4339SOL     OW24478   3.854   1.000   6.697  0.8652 -0.3719 -0.5560
 4339SOL    HW124479   3.943   0.970   6.680  1.4405  1.9001 -1.6332
 4339SOL    HW224480   3.807   0.921   6.722  1.4519 -0.1594  1.2694
 4340SOL     OW24481   3.322   3.711   6.107 -0.3607  0.6772 -0.1008
 4340SOL    HW124482   3.303   3.717   6.200 -1.7190 -0.3832 -0.3182
 4340SOL    HW224483   3.264   3.643   6.072  0.6925  0.3259 -1.1951
 4341SOL     OW24484   2.253   0.430   0.357 -0.0073 -0.7689 -0.2075
 4341SOL    HW124485   2.172   0.403   0.400 -0.9142  1.3020 -0.5950
 4341SOL    HW224486   2.315   0.383   0.413 -0.6113 -0.0215  1.0920
 4342SOL     OW24487   2.269   3.822   3.033 -0.4190  0.2347  0.3150
 4342SOL    HW124488   2.351   3.819   2.984 -1.1787  1.0581 -1.0014
 4342SOL    HW224489   2.274   3.741   3.084  0.6754  1.0770  1.5528
 4343SOL     OW24490   2.572   0.204  13.581  0.3377  0.0572 -0.5405
 4343SOL    HW124491   2.562   0.166  13.494  2.2861  3.0480 -2.0903
 4343SOL    HW224492   2.624   0.133  13.619  1.5034  1.4079  0.4161
 4344SOL     OW24493   2.852   4.565   5.338 -0.0619 -0.2210 -0.2502
 4344SOL    HW124494   2.939   4.601   5.355 -0.8649  1.6125 -0.0778
 4344SOL    HW224495   2.830   4.624   5.267 -0.2558  1.2983  1.0580
 4345SOL     OW24496   3.077   0.689  15.375 -0.7668  0.7604  0.1264
 4345SOL    HW124497   3.163   0.647  15.372 -1.2865 -0.2809 -0.3320
 4345SOL    HW224498   3.031   0.664  15.295  0.4982  0.2530 -0.4400
 4346SOL     OW24499   4.390   2.268   7.646 -0.1783  0.0194 -0.1216
 4346SOL    HW124500   4.379   2.362   7.660 -1.5130 -0.0042 -1.0222
 4346SOL    HW224501   4.386   2.269   7.550 -1.5013 -2.7699 -0.0964
 4347SOL     OW24502   2.086   0.297   1.652 -0.6233 -0.2059 -0.2798
 4347SOL    HW124503   2.084   0.355   1.728 -1.5543 -1.7080  0.8429
 4347SOL    HW224504   2.027   0.335   1.587  0.0199  1.1900 -0.0470
 4348SOL     OW24505   2.245   1.225  16.745 -0.4632  0.5556 -0.7076
 4348SOL    HW124506   2.180   1.241  16.814 -2.0588 -3.9903 -1.1753
 4348SOL    HW224507   2.328   1.257  16.779 -0.2916 -0.7820  0.1369
 4349SOL     OW24508   1.325   0.742   6.845 -0.7751  0.5236  0.0368
 4349SOL    HW124509   1.321   0.773   6.936 -1.6197 -2.0977  0.8780
 4349SOL    HW224510   1.370   0.821   6.815 -1.3376  0.2330 -1.5786
 4350SOL     OW24511   1.736   4.408   4.288  0.2052 -0.3383  0.4041
 4350SOL    HW124512   1.807   4.402   4.353 -0.2068  1.3866  1.0184
 4350SOL    HW224513   1.730   4.321   4.250  2.8025 -1.2379  2.0201
 4351SOL     OW24514   3.025   2.893  11.565  0.0013 -0.3703  0.3201
 4351SOL    HW124515   2.936   2.862  11.553  1.0255 -2.6294 -1.4417
 4351SOL    HW224516   3.029   2.886  11.661  1.0368 -0.8429  0.2465
 4352SOL     OW24517   3.728   2.204   8.431 -0.0365  0.1644 -0.7623
 4352SOL    HW124518   3.728   2.200   8.526 -1.4254  0.0549 -0.7637
 4352SOL    HW224519   3.820   2.228   8.425 -0.1505  0.9637  0.6973
 4353SOL     OW24520   3.941   3.054   2.972 -0.3846  0.2877 -0.2054
 4353SOL    HW124521   3.972   3.125   2.916 -0.3049  0.3774 -0.0482
 4353SOL    HW224522   3.954   2.976   2.918  0.2483  0.9051 -0.9510
 4354SOL     OW24523   3.054   0.090  12.877 -0.9503  0.1513  0.2368
 4354SOL    HW124524   3.068   0.170  12.827 -3.0943  0.1048 -0.4362
 4354SOL    HW224525   3.121   0.096  12.945 -1.4465  0.2327  0.7197
 4355SOL     OW24526   0.811   3.234   6.143 -0.1905 -0.1165  0.0745
 4355SOL    HW124527   0.732   3.198   6.102  0.2571  0.8613 -1.6268
 4355SOL    HW224528   0.845   3.149   6.170 -0.8858  0.3771  2.4880
 4356SOL     OW24529   2.698   0.745   7.027  0.3083 -0.8139 -0.3922
 4356SOL    HW124530   2.714   0.838   7.009 -1.5823  0.1015  2.6215
 4356SOL    HW224531   2.608   0.734   6.998 -0.1600 -1.7721  1.4098
 4357SOL     OW24532   2.357   4.679   8.832  0.0834 -0.1831 -0.3787
 4357SOL    HW124533   2.355   4.650   8.924  2.5396 -1.3016 -0.6900
 4357SOL    HW224534   2.303   4.608   8.796 -3.0966  2.3092 -0.5827
 4358SOL     OW24535   2.454   4.118   9.902 -0.0462  0.1805  0.4374
 4358SOL    HW124536   2.452   4.213   9.892 -0.0837 -0.0710 -1.9828
 4358SOL    HW224537   2.506   4.104   9.981 -1.2183  1.0821  1.3711
 4359SOL     OW24538   2.659   1.276   5.712  0.1398  0.3561  0.2583
 4359SOL    HW124539   2.646   1.276   5.806  1.9958 -2.2062  0.5108
 4359SOL    HW224540   2.626   1.365   5.696  2.2429  1.2858  1.0475
 4360SOL     OW24541   2.928   4.675   4.924 -0.5049 -0.1693 -0.5613
 4360SOL    HW124542   2.838   4.705   4.937 -0.3502 -0.8601  2.2357
 4360SOL    HW224543   2.926   4.617   4.848 -2.1244  0.0557 -0.6819
 4361SOL     OW24544   2.005   3.080   5.574 -0.0571  0.2472 -0.1078
 4361SOL    HW124545   1.919   3.089   5.614 -1.1134 -0.1552 -2.2976
 4361SOL    HW224546   2.063   3.127   5.634  1.3621  0.6402 -1.7940
 4362SOL     OW24547   3.872   0.261   0.858  0.1355 -0.6401  0.5099
 4362SOL    HW124548   3.873   0.167   0.842  0.0484 -0.5576  0.0012
 4362SOL    HW224549   3.889   0.304   0.774 -1.2143 -0.8475  0.1307
 4363SOL     OW24550   2.766   1.795   4.626  0.0065 -0.7536 -0.1747
 4363SOL    HW124551   2.768   1.836   4.540 -1.9866 -0.0422  0.1201
 4363SOL    HW224552   2.774   1.867   4.689  0.3004  1.6580 -3.0053
 4364SOL     OW24553   4.425   3.410  12.776  0.0205 -0.3948  0.8616
 4364SOL    HW124554   4.486   3.433  12.846  0.1079  0.3214  0.5479
 4364SOL    HW224555   4.363   3.483  12.775  2.5677  1.7389 -1.6386
 4365SOL     OW24556   3.783   3.578   7.627  0.0408  0.6213 -0.5762
 4365SOL    HW124557   3.790   3.555   7.719 -2.1924  2.3199  0.0167
 4365SOL    HW224558   3.691   3.591   7.603  0.2413  3.2315  0.0787
 4366SOL     OW24559   1.609   4.068   1.279  1.0621  0.0788  0.2193
 4366SOL    HW124560   1.643   3.981   1.259  0.8616 -1.0262  4.8580
 4366SOL    HW224561   1.631   4.122   1.202 -1.8083  0.3888 -0.3820
 4367SOL     OW24562   0.743   1.470  11.451 -0.7492  0.1878 -0.2214
 4367SOL    HW124563   0.725   1.437  11.363  0.2349 -3.6679  1.0346
 4367SOL    HW224564   0.838   1.476  11.462 -0.4913  1.3646 -3.2159
 4368SOL     OW24565   4.311   1.366   6.025  0.1360  0.5530 -0.1457
 4368SOL    HW124566   4.376   1.413   6.077 -0.1125  1.3270 -0.5336
 4368SOL    HW224567   4.281   1.441   5.973  0.8828  0.5424 -0.5985
 4369SOL     OW24568   0.352   2.704  10.901  0.5081  0.0502  0.2019
 4369SOL    HW124569   0.376   2.771  10.837  1.3887 -0.8558 -0.4158
 4369SOL    HW224570   0.421   2.641  10.879  0.8458 -0.1218  1.6960
 4370SOL     OW24571   0.303   3.087   4.131  0.0871 -0.4918  0.1320
 4370SOL    HW124572   0.216   3.047   4.130 -0.7160  1.2750  0.0781
 4370SOL    HW224573   0.275   3.177   4.146 -2.3431 -1.0968 -0.7529
 4371SOL     OW24574   1.184   2.811   8.687 -0.5676  0.1041 -0.0157
 4371SOL    HW124575   1.139   2.727   8.700  1.3430 -1.0285 -0.7666
 4371SOL    HW224576   1.106   2.864   8.671  0.9448  1.9229 -1.3036
 4372SOL     OW24577   2.925   2.721   8.165  0.3643 -0.1874 -0.0491
 4372SOL    HW124578   2.918   2.733   8.260 -1.2053 -1.8154  0.0642
 4372SOL    HW224579   2.893   2.630   8.166  1.0909 -0.4617 -3.2110
 4373SOL     OW24580   0.120   2.937   5.727 -0.4366  0.2949  0.2769
 4373SOL    HW124581   0.190   2.884   5.764 -1.9171 -2.7130 -1.2501
 4373SOL    HW224582   0.171   3.000   5.675  1.1653 -0.0513  1.4112
 4374SOL     OW24583   0.028   2.377   9.601  0.1560  0.0639 -1.2712
 4374SOL    HW124584   4.712   2.297   9.568 -0.9171 -0.7124  1.9646
 4374SOL    HW224585   0.005   2.374   9.693  0.5966 -1.4161 -1.2090
 4375SOL     OW24586   4.312   2.964   9.590 -0.1152 -0.4072 -0.5482
 4375SOL    HW124587   4.321   2.906   9.514 -0.4048  0.2324 -1.0711
 4375SOL    HW224588   4.252   3.028   9.554  0.6423  0.0579 -0.9759
 4376SOL     OW24589   2.874   3.148   2.865  0.0752 -0.1887  0.6351
 4376SOL    HW124590   2.891   3.181   2.777  0.0276  0.4737  0.8794
 4376SOL    HW224591   2.949   3.090   2.878 -0.8949 -1.6736 -0.3955
 4377SOL     OW24592   4.321   1.227   7.967 -0.0106  0.1545 -0.2471
 4377SOL    HW124593   4.324   1.189   7.879 -1.3521 -0.1449 -0.1671
 4377SOL    HW224594   4.415   1.216   7.982 -0.0598 -0.3510 -0.3088
 4378SOL     OW24595   0.223   2.464   9.130  0.3019 -0.2947 -0.7634
 4378SOL    HW124596   0.198   2.442   9.220  0.1448 -2.1385 -1.2617
 4378SOL    HW224597   0.299   2.522   9.141  1.6035 -1.8431 -1.6018
 4379SOL     OW24598   3.411   4.189  10.128 -0.5388  0.2526 -0.6597
 4379SOL    HW124599   3.353   4.229  10.193 -0.9736 -1.1784 -0.1630
 4379SOL    HW224600   3.431   4.271  10.082  0.4798  1.1597  1.4333
 4380SOL     OW24601   0.726   2.488   9.921  0.2047 -0.2410 -0.1589
 4380SOL    HW124602   0.662   2.456   9.857 -2.2890  1.6553  1.3924
 4380SOL    HW224603   0.801   2.488   9.861 -1.8734  1.4771 -2.7353
 4381SOL     OW24604   3.389   4.029   6.422 -0.3926  0.6765 -0.1073
 4381SOL    HW124605   3.460   3.969   6.441 -0.5065  0.2165 -1.1649
 4381SOL    HW224606   3.336   4.025   6.502 -2.9049 -3.6407 -2.0351
 4382SOL     OW24607   1.090   1.075   5.884  0.7265 -0.6481  0.6841
 4382SOL    HW124608   1.002   1.100   5.855  1.3148  1.7624  0.9339
 4382SOL    HW224609   1.083   0.984   5.912  3.0313 -1.5232 -1.6267
 4383SOL     OW24610   2.104   3.507   3.325 -0.1739 -0.5624 -0.0190
 4383SOL    HW124611   2.114   3.437   3.389 -0.2216  1.3608  2.1118
 4383SOL    HW224612   2.077   3.466   3.244 -3.0214  0.6166  0.3267
 4384SOL     OW24613   2.680   2.199   3.579 -0.2385  0.2525  0.0063
 4384SOL    HW124614   2.708   2.281   3.539  0.7715 -1.0365 -1.9109
 4384SOL    HW224615   2.587   2.218   3.566 -0.0216  1.0029 -0.4304
 4385SOL     OW24616   2.510   2.418   6.958  0.2460  0.3753 -0.4184
 4385SOL    HW124617   2.524   2.330   6.923  0.7868  0.3039 -0.0238
 4385SOL    HW224618   2.419   2.412   6.987  1.1356 -0.2770  2.1748
 4386SOL     OW24619   0.404   3.420  12.491  0.2846  0.6059  0.3075
 4386SOL    HW124620   0.367   3.371  12.565  0.1262 -0.3110 -0.3730
 4386SOL    HW224621   0.384   3.507  12.525 -1.0152 -0.4888  2.3841
 4387SOL     OW24622   1.416   2.049   3.961 -0.3495 -0.2744 -0.5314
 4387SOL    HW124623   1.494   2.020   4.009 -0.9427 -1.7158 -0.4499
 4387SOL    HW224624   1.455   2.124   3.916 -0.4511  0.2295  0.2211
 4388SOL     OW24625   0.963   0.563   7.866  0.4584 -0.2893 -0.3554
 4388SOL    HW124626   0.929   0.594   7.783 -0.1364  0.7780  0.2878
 4388SOL    HW224627   0.912   0.483   7.865 -1.4884  0.9542 -0.4010
 4389SOL     OW24628   2.428   2.940   5.468  0.4301  0.4317  0.0049
 4389SOL    HW124629   2.485   2.882   5.418 -1.4792 -0.1781 -1.4360
 4389SOL    HW224630   2.346   2.921   5.424 -0.5525  2.9013  0.7764
 4390SOL     OW24631   0.452   1.887   7.545  0.0416  0.1696  0.6594
 4390SOL    HW124632   0.459   1.798   7.578  0.4424  0.3284  0.9990
 4390SOL    HW224633   0.546   1.903   7.535  0.2394 -0.5096  1.3975
 4391SOL     OW24634   0.862   1.248  14.537  0.0054 -0.0226  0.0436
 4391SOL    HW124635   0.783   1.222  14.488 -0.6397  0.5455  0.7746
 4391SOL    HW224636   0.903   1.164  14.558  2.2960  0.5294 -2.2320
 4392SOL     OW24637   2.679   3.722   2.336 -0.0914  0.0943  0.1188
 4392SOL    HW124638   2.657   3.703   2.245 -0.3461  0.2796  0.1402
 4392SOL    HW224639   2.686   3.634   2.374  0.7854 -0.3644 -1.1372
 4393SOL     OW24640   2.878   1.158   2.872  0.6837  0.2786  0.0146
 4393SOL    HW124641   2.820   1.133   2.944  0.9656  2.3080  0.9521
 4393SOL    HW224642   2.836   1.243   2.856  2.1916  1.1289  0.5683
 4394SOL     OW24643   1.868   2.688  12.631  0.4513 -0.1698 -0.1306
 4394SOL    HW124644   1.907   2.675  12.545 -2.4427  1.2955 -1.6529
 4394SOL    HW224645   1.775   2.690  12.612  0.1583  2.9776  1.6069
 4395SOL     OW24646   1.801   3.861   9.751  0.9440  0.0912  0.1045
 4395SOL    HW124647   1.755   3.843   9.833  0.9713 -0.3454  0.0259
 4395SOL    HW224648   1.875   3.917   9.777  2.0222 -1.4804  0.4518
 4396SOL     OW24649   0.553   0.945   6.319 -0.0524  0.2746 -0.5451
 4396SOL    HW124650   0.547   0.909   6.231  0.1436 -1.1102  0.0089
 4396SOL    HW224651   0.557   0.870   6.378  1.8384 -0.3857 -1.5181
 4397SOL     OW24652   1.658   0.332   6.121 -0.0094  0.4686  0.2862
 4397SOL    HW124653   1.652   0.262   6.185 -1.3562  0.2020 -0.1419
 4397SOL    HW224654   1.567   0.328   6.093  0.0739 -1.3939  0.3362
 4398SOL     OW24655   2.704   0.807   2.038  0.0724 -0.0943 -0.6338
 4398SOL    HW124656   2.688   0.850   2.122  2.1518 -0.8700  0.1590
 4398SOL    HW224657   2.798   0.814   2.020  0.0505 -0.7465 -1.0006
 4399SOL     OW24658   2.234   2.840   2.536 -0.1485 -0.2474 -0.0639
 4399SOL    HW124659   2.182   2.833   2.456  1.5501  2.4943 -1.4148
 4399SOL    HW224660   2.193   2.777   2.595 -1.1337 -0.7847 -1.3152
 4400SOL     OW24661   0.654   0.646  10.933 -0.2629  0.1395  0.7997
 4400SOL    HW124662   0.713   0.575  10.910 -2.5203 -1.3839 -0.1941
 4400SOL    HW224663   0.717   0.718  10.939  1.2818 -0.8966 -2.9672
 4401SOL     OW24664   4.584   0.456   1.103 -0.0217  0.4186  0.2407
 4401SOL    HW124665   4.509   0.399   1.118 -0.8140  1.0065 -1.3935
 4401SOL    HW224666   4.547   0.544   1.095  0.5039  0.5462 -0.8570
 4402SOL     OW24667   3.202   1.268   4.683 -0.3702  0.2800 -0.0414
 4402SOL    HW124668   3.190   1.230   4.596 -0.4555 -0.3033  0.2249
 4402SOL    HW224669   3.250   1.349   4.669 -2.6387  1.7590  0.7405
 4403SOL     OW24670   0.007   1.990   6.026  0.3480 -0.4268 -0.2829
 4403SOL    HW124671   4.716   2.081   6.054  0.9002 -0.3153 -0.3328
 4403SOL    HW224672   4.721   1.944   6.109 -4.2104  0.7395 -0.2354
 4404SOL     OW24673   1.087   0.301   1.081  0.0637  0.6103 -0.1154
 4404SOL    HW124674   1.040   0.384   1.083 -1.9553 -0.5588  0.2707
 4404SOL    HW224675   1.175   0.330   1.108  0.6932 -0.8622 -0.6235
 4405SOL     OW24676   3.291   0.311  11.007  0.2444 -0.5324  0.6508
 4405SOL    HW124677   3.296   0.380  10.941  2.8372 -1.0412  0.2995
 4405SOL    HW224678   3.319   0.237  10.953 -1.3682 -0.2430 -0.5532
 4406SOL     OW24679   0.335   0.008  15.553  0.1851  0.1987 -0.5634
 4406SOL    HW124680   0.290   0.091  15.570  1.2069  0.7167 -0.3808
 4406SOL    HW224681   0.425   0.040  15.540  0.5491 -0.8649 -0.6288
 4407SOL     OW24682   0.247   4.113   4.325  0.4464  0.1316 -0.3746
 4407SOL    HW124683   0.253   4.018   4.338 -0.6192  0.0792 -0.3074
 4407SOL    HW224684   0.335   4.142   4.299  0.0811 -0.2843 -2.0529
 4408SOL     OW24685   1.329   3.720   7.724  0.4932 -0.0021  0.1207
 4408SOL    HW124686   1.307   3.812   7.707  0.9767 -0.1129 -1.1219
 4408SOL    HW224687   1.375   3.699   7.643 -0.8500 -2.5947  0.0514
 4409SOL     OW24688   1.721   3.526   5.182 -0.2601 -0.4848  0.4795
 4409SOL    HW124689   1.707   3.434   5.203  0.4776 -0.4978  0.9079
 4409SOL    HW224690   1.800   3.525   5.128 -0.8976 -0.1711 -0.4632
 4410SOL     OW24691   0.274   1.820   4.691  0.7340  0.1080  0.0081
 4410SOL    HW124692   0.348   1.762   4.673  0.4760 -0.1768 -0.1323
 4410SOL    HW224693   0.307   1.853   4.774  0.3999 -0.9310  0.5591
 4411SOL     OW24694   0.578   2.624   6.235 -0.1208 -0.2694 -0.2280
 4411SOL    HW124695   0.527   2.686   6.288 -0.3105  0.1531 -0.9027
 4411SOL    HW224696   0.527   2.547   6.260  1.6664 -1.0807  0.8720
 4412SOL     OW24697   0.583   4.189   5.812  0.3794 -0.6006  0.5123
 4412SOL    HW124698   0.577   4.133   5.890  1.2953  1.8760  2.3753
 4412SOL    HW224699   0.523   4.144   5.753  0.8477  1.2010 -1.3294
 4413SOL     OW24700   2.220   0.472   7.179  0.1463  0.0556  0.4945
 4413SOL    HW124701   2.208   0.393   7.231 -1.6829 -0.2095 -0.3202
 4413SOL    HW224702   2.139   0.490   7.132  1.2987 -0.4867 -1.7006
 4414SOL     OW24703   1.497   3.360   7.011 -0.3699 -0.4617 -0.1203
 4414SOL    HW124704   1.554   3.378   7.085 -2.9611  2.5771  1.1196
 4414SOL    HW224705   1.524   3.432   6.954 -0.1885  1.0864  1.9736
 4415SOL     OW24706   0.115   2.449   5.243  0.0193  0.3319  0.4705
 4415SOL    HW124707   0.170   2.470   5.168 -0.8891  0.5187 -0.1525
 4415SOL    HW224708   0.034   2.422   5.198  1.2501 -0.0196 -1.5345
 4416SOL     OW24709   3.081   0.579   2.333  0.1948 -0.1620 -0.1030
 4416SOL    HW124710   3.110   0.501   2.286  0.5363  0.4044 -0.8472
 4416SOL    HW224711   2.986   0.586   2.323  0.3951 -0.9784 -2.4810
 4417SOL     OW24712   2.817   4.711  11.269 -0.4603  0.2310  0.0549
 4417SOL    HW124713   2.817   4.618  11.248 -0.2311  0.2772 -0.1386
 4417SOL    HW224714   2.784   0.012  11.183 -1.7732 -1.6919 -0.0300
 4418SOL     OW24715   0.500   1.071   3.750 -0.5008  0.2208 -0.3508
 4418SOL    HW124716   0.421   1.104   3.792  0.8267  1.9543  0.7780
 4418SOL    HW224717   0.495   0.980   3.781 -1.5976  0.3451 -0.1596
 4419SOL     OW24718   3.190   0.112   9.463 -0.0296  0.3665  0.3122
 4419SOL    HW124719   3.215   0.095   9.373  0.0322  1.8397  0.0454
 4419SOL    HW224720   3.115   0.169   9.448 -0.7538 -0.9395 -0.9330
 4420SOL     OW24721   1.905   2.020   8.899  0.0774  0.0814  0.0813
 4420SOL    HW124722   1.973   2.019   8.832  0.0680  1.0468  0.0488
 4420SOL    HW224723   1.825   2.031   8.847 -0.8802 -0.2718  1.4941
 4421SOL     OW24724   1.143   2.192   8.129  0.2211 -0.0257 -0.2657
 4421SOL    HW124725   1.165   2.283   8.147  1.6386 -0.2393 -0.8483
 4421SOL    HW224726   1.187   2.183   8.044 -0.3073  1.5832 -0.7142
 4422SOL     OW24727   0.938   3.096  15.618  0.4030 -0.2561 -0.2034
 4422SOL    HW124728   1.029   3.124  15.625  0.3545 -0.2213  0.3040
 4422SOL    HW224729   0.918   3.053  15.702 -1.1211  0.8283 -0.0069
 4423SOL     OW24730   1.241   3.588  16.099 -0.6538  0.2846  0.2142
 4423SOL    HW124731   1.328   3.572  16.135 -0.1456  1.1453 -0.5947
 4423SOL    HW224732   1.191   3.511  16.124 -1.3086  0.2589 -1.1723
 4424SOL     OW24733   0.715   1.357   4.991  0.1260  0.5405  0.2176
 4424SOL    HW124734   0.745   1.313   4.911  0.1104 -1.7457  1.4607
 4424SOL    HW224735   0.775   1.324   5.058 -2.7156  0.9982  2.9438
 4425SOL     OW24736   4.042   4.050   4.668 -0.5415 -0.1371 -0.0725
 4425SOL    HW124737   4.089   4.116   4.618 -0.1281 -2.1914 -2.4078
 4425SOL    HW224738   4.122   4.020   4.712  0.9370  3.0005 -0.6132
 4426SOL     OW24739   1.899   4.253  13.624 -0.6697  0.5499 -0.1080
 4426SOL    HW124740   1.827   4.189  13.622 -0.8409  0.7070  1.1066
 4426SOL    HW224741   1.878   4.307  13.548 -0.0647 -0.0455 -0.6954
 4427SOL     OW24742   2.952   3.108   0.519  0.6891 -0.4911  0.1222
 4427SOL    HW124743   2.896   3.035   0.544 -0.7877  1.0351  1.3077
 4427SOL    HW224744   3.036   3.064   0.526  0.9872 -0.5738 -4.4014
 4428SOL     OW24745   1.470   1.394  11.510 -0.2329  0.1332  0.0779
 4428SOL    HW124746   1.509   1.310  11.484 -0.1606 -0.0638  0.8254
 4428SOL    HW224747   1.480   1.432  11.423  0.0310  0.9946  0.4845
 4429SOL     OW24748   1.590   2.560  12.621 -0.4662 -0.1076  0.5954
 4429SOL    HW124749   1.505   2.529  12.650  0.4054 -1.5135  1.6155
 4429SOL    HW224750   1.592   2.527  12.531 -1.3648 -2.4100  1.4125
 4430SOL     OW24751   0.407   2.309   6.887 -0.8351 -0.3205 -0.1525
 4430SOL    HW124752   0.363   2.312   6.802  2.2694 -2.1933 -1.8778
 4430SOL    HW224753   0.434   2.217   6.892 -0.1633 -0.1302 -0.3151
 4431SOL     OW24754   1.410   0.477   3.984 -0.2817 -0.2504  0.3133
 4431SOL    HW124755   1.426   0.390   4.019  2.0845  1.4756  3.5807
 4431SOL    HW224756   1.454   0.468   3.900 -2.9651  0.5656 -1.1944
 4432SOL     OW24757   4.523   3.092   0.721  0.0283 -0.2992 -0.0410
 4432SOL    HW124758   4.548   3.184   0.717 -0.9213 -0.0814 -0.9618
 4432SOL    HW224759   4.511   3.060   0.811  0.2863  0.5108  0.2765
 4433SOL     OW24760   1.449   1.426   2.456  0.7629 -0.1263  0.2312
 4433SOL    HW124761   1.412   1.506   2.492  0.2035 -0.6954  0.9123
 4433SOL    HW224762   1.464   1.449   2.364  0.8449  0.2195  0.3323
 4434SOL     OW24763   3.347   1.698   2.701  0.0299 -0.2525  0.5029
 4434SOL    HW124764   3.283   1.769   2.695  1.2234  0.7965  0.1225
 4434SOL    HW224765   3.305   1.621   2.664  0.5704 -0.8896  1.1867
 4435SOL     OW24766   0.716   2.638   5.004  0.3695  0.3093  0.0724
 4435SOL    HW124767   0.768   2.704   5.049  0.5865 -0.0905  0.4110
 4435SOL    HW224768   0.666   2.698   4.949  0.4198 -0.2475 -0.5831
 4436SOL     OW24769   4.659   2.686   3.301  0.3188  0.4364  0.5767
 4436SOL    HW124770   4.623   2.773   3.288 -2.2269 -0.4580  1.5801
 4436SOL    HW224771   4.719   2.699   3.374  0.9032  1.7406 -0.1535
 4437SOL     OW24772   4.196   2.214   0.860 -0.2830  0.3255 -0.0074
 4437SOL    HW124773   4.108   2.250   0.849 -0.0040  0.7584 -0.7988
 4437SOL    HW224774   4.171   2.135   0.909 -3.1917 -0.0633 -2.1073
 4438SOL     OW24775   0.368   3.786  13.105  0.0145 -0.0742  0.1774
 4438SOL    HW124776   0.460   3.780  13.132 -0.4968 -2.0590  1.4795
 4438SOL    HW224777   0.341   3.843  13.177 -0.6255 -1.7330  1.2391
 4439SOL     OW24778   1.253   0.206   7.818  0.1862  0.0117  0.2492
 4439SOL    HW124779   1.194   0.224   7.892 -0.1236 -0.0392  0.0133
 4439SOL    HW224780   1.197   0.229   7.744  1.2285  1.3880 -0.1102
 4440SOL     OW24781   1.628   0.790   3.950  0.5494 -0.6098  0.2949
 4440SOL    HW124782   1.539   0.798   3.913  0.7286  0.8470  0.1656
 4440SOL    HW224783   1.612   0.844   4.027 -1.4830  1.5007 -1.5738
 4441SOL     OW24784   0.940   4.018   0.478  0.2857  0.3747  0.6193
 4441SOL    HW124785   0.952   4.077   0.404 -1.6545 -1.6930 -1.3323
 4441SOL    HW224786   1.030   4.000   0.504  1.6042  1.6641 -3.0419
 4442SOL     OW24787   1.065   1.629   9.032 -0.1191 -0.1212 -0.0807
 4442SOL    HW124788   0.974   1.639   9.061  0.2042  1.2776  0.4462
 4442SOL    HW224789   1.063   1.682   8.953 -2.1334 -0.8143 -0.4896
 4443SOL     OW24790   1.515   1.574   3.393 -0.0127 -0.4175 -0.1066
 4443SOL    HW124791   1.419   1.571   3.393 -0.0111 -0.8068 -2.3381
 4443SOL    HW224792   1.534   1.654   3.345  0.8576 -1.8077 -2.0676
 4444SOL     OW24793   0.951   1.780  10.160  0.0977 -0.8086 -0.1095
 4444SOL    HW124794   0.899   1.741  10.230 -0.0428 -0.6452 -0.1218
 4444SOL    HW224795   0.926   1.872  10.172  1.2043 -0.2263 -2.2081
 4445SOL     OW24796   2.653   0.159  17.340 -0.1380 -0.1098  0.5052
 4445SOL    HW124797   2.580   0.116  17.296  0.3069  0.0546 -0.3957
 4445SOL    HW224798   2.729   0.103  17.323 -0.1640  0.1072 -0.3308
 4446SOL     OW24799   1.840   4.029   8.647 -0.1225  0.0305 -0.1791
 4446SOL    HW124800   1.810   3.999   8.733 -0.1661  2.5697  0.7180
 4446SOL    HW224801   1.773   3.991   8.589  0.7597 -0.0583 -1.1298
 4447SOL     OW24802   2.334   0.779  15.665  0.0255 -1.0047  0.5827
 4447SOL    HW124803   2.268   0.829  15.713  0.0126 -0.7347  0.2828
 4447SOL    HW224804   2.298   0.782  15.577 -1.3234 -0.3491  1.1639
 4448SOL     OW24805   0.954   2.968   8.675  0.6183 -0.4406 -0.5280
 4448SOL    HW124806   0.960   2.941   8.767 -0.0153 -2.5504 -1.1283
 4448SOL    HW224807   1.005   3.049   8.684 -0.4518  0.0877  0.8601
 4449SOL     OW24808   2.570   1.083   9.337  0.1399 -0.7624 -0.2707
 4449SOL    HW124809   2.600   1.002   9.295 -0.5981 -0.0706 -2.1613
 4449SOL    HW224810   2.480   1.093   9.307 -0.1044 -1.4397  0.2333
 4450SOL     OW24811   1.856   0.522   6.134 -0.0770  0.3223  0.1902
 4450SOL    HW124812   1.840   0.569   6.216  4.0001 -1.0936  1.8231
 4450SOL    HW224813   1.786   0.459   6.149 -0.7356  1.2142  0.8735
 4451SOL     OW24814   1.716   0.769   1.139  0.2568  0.2244 -0.0243
 4451SOL    HW124815   1.725   0.785   1.044 -2.5647 -4.0542 -0.9889
 4451SOL    HW224816   1.801   0.794   1.175 -0.6453  0.9847  1.5679
 4452SOL     OW24817   0.897   4.425   0.216  0.3938  0.1259 -0.0205
 4452SOL    HW124818   0.974   4.456   0.169 -0.2120 -0.0667 -1.1391
 4452SOL    HW224819   0.884   4.486   0.289 -0.3223 -2.6767  2.2056
 4453SOL     OW24820   0.060   2.659   4.769  0.4381  0.1639  0.7103
 4453SOL    HW124821   0.151   2.652   4.796  1.0284  0.5536 -1.1773
 4453SOL    HW224822   0.036   2.720   4.839  2.0869 -0.0634  1.4649
 4454SOL     OW24823   3.490   2.594   7.263 -1.0143  0.5493  0.3725
 4454SOL    HW124824   3.537   2.526   7.213 -0.8536 -1.3169  3.0657
 4454SOL    HW224825   3.560   2.653   7.291 -0.7206 -0.2511  1.3454
 4455SOL     OW24826   2.285   1.375   8.630  0.4140 -0.2507 -0.4530
 4455SOL    HW124827   2.360   1.344   8.579 -1.0868 -1.4197 -1.9617
 4455SOL    HW224828   2.250   1.447   8.578  1.2005  0.6480  0.2757
 4456SOL     OW24829   3.074   1.257   2.697 -0.1421  0.7853 -0.1258
 4456SOL    HW124830   3.124   1.337   2.714 -0.7105  0.8477  1.2595
 4456SOL    HW224831   3.071   1.220   2.785 -1.5111 -0.9380 -0.8842
 4457SOL     OW24832   2.892   1.045  12.038  0.4702  0.1361  0.0153
 4457SOL    HW124833   2.973   1.059  12.087  0.2661  0.3610  0.2931
 4457SOL    HW224834   2.885   1.136  12.009 -0.4571  0.5751  1.5711
 4458SOL     OW24835   4.425   3.273  17.498 -0.0030 -0.4049 -0.1635
 4458SOL    HW124836   4.450   3.333  17.428 -2.9175  1.5148  0.4193
 4458SOL    HW224837   4.459   3.313  17.579  3.2594 -1.0044 -1.2369
 4459SOL     OW24838   1.498   0.201   7.329 -0.0763 -0.3379 -0.7067
 4459SOL    HW124839   1.593   0.215   7.330 -0.0380 -0.8179  2.0293
 4459SOL    HW224840   1.466   0.290   7.316  0.2588 -0.3337 -1.4681
 4460SOL     OW24841   0.137   3.673  12.853 -0.2928  0.0191 -0.2247
 4460SOL    HW124842   0.194   3.611  12.897  1.0729  1.2782 -0.2387
 4460SOL    HW224843   0.169   3.753  12.893 -2.4732 -0.6362  2.8464
 4461SOL     OW24844   4.314   0.264   8.524  0.3136 -0.1509 -0.0999
 4461SOL    HW124845   4.222   0.291   8.530  0.2895 -0.2830  0.1486
 4461SOL    HW224846   4.357   0.347   8.545 -1.9955  1.1205 -0.4500
 4462SOL     OW24847   4.128   0.987   9.546 -0.1711 -0.3303  0.2095
 4462SOL    HW124848   4.042   1.022   9.522  0.0687 -0.9336 -1.5377
 4462SOL    HW224849   4.121   0.992   9.642 -0.2991  0.8964  0.1369
 4463SOL     OW24850   4.172   0.415   6.756  0.3288  0.0376 -0.7223
 4463SOL    HW124851   4.207   0.357   6.823  0.2411 -0.2647 -0.9365
 4463SOL    HW224852   4.233   0.488   6.769 -0.7026  0.9172 -0.7942
 4464SOL     OW24853   2.716   1.870  14.683 -0.3337  0.0854  0.3762
 4464SOL    HW124854   2.780   1.897  14.749  1.4676 -3.7170  0.1763
 4464SOL    HW224855   2.711   1.776  14.703 -1.0712 -0.3823 -2.0182
 4465SOL     OW24856   1.136   3.414   7.837  0.8326 -0.3625  0.2171
 4465SOL    HW124857   1.180   3.487   7.879  0.7592 -1.4400  2.1825
 4465SOL    HW224858   1.056   3.397   7.887  0.5038 -0.3723 -0.3148
 4466SOL     OW24859   0.476   2.499   4.616 -0.0765  0.3533 -0.1915
 4466SOL    HW124860   0.529   2.493   4.695 -0.2610 -1.7008 -0.2132
 4466SOL    HW224861   0.493   2.413   4.577  0.8819  0.3534  0.2419
 4467SOL     OW24862   4.191   3.092  15.217  0.1500  0.4452 -0.2172
 4467SOL    HW124863   4.107   3.127  15.247 -0.9165 -2.2839 -0.0165
 4467SOL    HW224864   4.178   3.124  15.128 -1.7974  2.7802  0.9088
 4468SOL     OW24865   4.421   0.592  11.125  0.0701  0.1509 -0.2321
 4468SOL    HW124866   4.496   0.565  11.072  0.4567  2.7255 -1.0164
 4468SOL    HW224867   4.457   0.662  11.180 -0.0870  0.2349 -0.2352
 4469SOL     OW24868   2.206   1.339   0.050 -0.1336  0.7718  0.1541
 4469SOL    HW124869   2.198   1.411   0.113 -0.0493 -2.2730  3.6060
 4469SOL    HW224870   2.115   1.312   0.053  0.4436 -1.0516  1.2577
 4470SOL     OW24871   0.195   3.635   5.267  0.3202  0.0597 -0.3938
 4470SOL    HW124872   0.222   3.563   5.324  1.3442 -0.7601 -1.9443
 4470SOL    HW224873   0.142   3.577   5.212 -0.6681 -0.5411  1.1908
 4471SOL     OW24874   2.652   4.657   2.924 -0.0033  0.8120 -0.2369
 4471SOL    HW124875   2.566   4.625   2.951 -0.6520  0.9544 -2.1548
 4471SOL    HW224876   2.661   4.621   2.836  0.2605 -1.8785  0.9017
 4472SOL     OW24877   0.448   1.098   5.528 -0.1553  0.6982  0.1114
 4472SOL    HW124878   0.506   1.022   5.536 -1.3284  0.1376  3.4021
 4472SOL    HW224879   0.480   1.159   5.462  3.6330 -1.9067 -0.4551
 4473SOL     OW24880   4.179   0.440   5.257 -0.3187 -0.1692  0.6903
 4473SOL    HW124881   4.084   0.451   5.244 -0.2485 -1.7756 -1.2116
 4473SOL    HW224882   4.209   0.494   5.183  1.2448  0.1316  1.5590
 4474SOL     OW24883   1.344   4.126   4.814  0.2608  0.5755  0.2327
 4474SOL    HW124884   1.271   4.095   4.868 -0.0398  4.1294  1.8698
 4474SOL    HW224885   1.356   4.041   4.773  0.5660  0.4128  0.6610
 4475SOL     OW24886   2.686   3.363   9.126  0.1121 -0.2371  0.3494
 4475SOL    HW124887   2.732   3.368   9.209  0.9048 -1.0593 -0.0421
 4475SOL    HW224888   2.649   3.451   9.129  1.9848  0.6541 -2.6002
 4476SOL     OW24889   2.110   3.375   3.077 -0.7071  0.5852 -0.1807
 4476SOL    HW124890   2.129   3.380   2.984 -1.1881  0.1914 -0.3002
 4476SOL    HW224891   2.176   3.308   3.096 -0.9756  0.0668 -1.0837
 4477SOL     OW24892   4.142   4.042  14.079 -0.1103  0.1927 -0.0088
 4477SOL    HW124893   4.237   4.048  14.070 -0.0699  0.8870  0.8306
 4477SOL    HW224894   4.122   4.022  13.988  1.8862 -1.5870 -0.0364
 4478SOL     OW24895   4.384   2.312  13.001  0.0092 -0.5074 -0.0959
 4478SOL    HW124896   4.370   2.393  13.050 -0.4534 -1.9703  2.1982
 4478SOL    HW224897   4.319   2.323  12.931  0.9290 -5.6155 -1.7393
 4479SOL     OW24898   1.481   2.061  17.496  0.3239  0.0696 -0.1870
 4479SOL    HW124899   1.395   2.084  17.532  0.2051 -3.2451  1.6804
 4479SOL    HW224900   1.449   1.992  17.437  0.3124  2.1569 -2.6194
 4480SOL     OW24901   3.189   0.199  12.028 -0.5674  0.1802 -0.2018
 4480SOL    HW124902   3.127   0.193  12.101  1.5493 -2.1467  1.3853
 4480SOL    HW224903   3.269   0.212  12.079 -0.2110  1.3623 -1.0753
 4481SOL     OW24904   0.058   4.444   2.725 -0.6659  0.8499  0.9048
 4481SOL    HW124905   0.074   4.401   2.641  0.8189  2.2288  0.4939
 4481SOL    HW224906   4.717   4.393   2.772 -1.3932  0.2256 -0.7927
 4482SOL     OW24907   2.742   1.359   7.260  0.2013  0.3372  0.3174
 4482SOL    HW124908   2.813   1.382   7.320  0.2053 -0.6336  0.6820
 4482SOL    HW224909   2.705   1.281   7.301 -2.0726  1.6993  0.8888
 4483SOL     OW24910   2.016   0.713  16.727  0.4616 -0.2647  0.2323
 4483SOL    HW124911   2.094   0.717  16.673  0.4802 -2.3262  0.0954
 4483SOL    HW224912   1.982   0.630  16.693 -0.3904  0.3243 -0.3909
 4484SOL     OW24913   0.404   2.153   7.490 -0.0481 -0.4109  0.5888
 4484SOL    HW124914   0.406   2.068   7.535 -0.7347 -0.2865  0.8423
 4484SOL    HW224915   0.494   2.183   7.502 -0.4381  0.2903  1.7675
 4485SOL     OW24916   3.588   2.745   5.121  0.0534 -0.1193  0.5893
 4485SOL    HW124917   3.533   2.821   5.136  0.8997  1.1751 -2.8355
 4485SOL    HW224918   3.609   2.756   5.028  1.8750 -3.0847  0.6322
 4486SOL     OW24919   4.590   4.169   4.069 -0.0907  0.1530 -0.2776
 4486SOL    HW124920   4.549   4.103   4.013  0.3089  0.8514 -1.3980
 4486SOL    HW224921   4.682   4.164   4.041 -0.3804 -0.0621 -1.1782
 4487SOL     OW24922   1.474   2.826   7.757 -0.0976  0.1122  0.0731
 4487SOL    HW124923   1.547   2.828   7.694 -0.1252 -1.0208  0.0007
 4487SOL    HW224924   1.403   2.809   7.695  0.2081  2.0818 -0.8388
 4488SOL     OW24925   3.788   3.250   3.554 -0.5901  0.6047  0.4268
 4488SOL    HW124926   3.820   3.233   3.466 -0.6684 -0.8032  0.6767
 4488SOL    HW224927   3.735   3.172   3.571 -2.1052  1.4313 -0.5266
 4489SOL     OW24928   3.245   2.385  16.361 -0.4000  0.7036 -0.0817
 4489SOL    HW124929   3.179   2.347  16.420 -0.4116 -0.7751 -1.0394
 4489SOL    HW224930   3.224   2.478  16.367 -1.3820  0.5047 -0.4450
 4490SOL     OW24931   3.909   3.432   7.397  0.3313 -0.1169 -0.0781
 4490SOL    HW124932   3.885   3.340   7.385 -1.2449  0.3488 -0.5895
 4490SOL    HW224933   3.848   3.446   7.470  1.5543 -1.0805  1.1137
 4491SOL     OW24934   3.574   1.636   8.302  0.2257  0.1843 -0.2428
 4491SOL    HW124935   3.558   1.575   8.374 -0.1527 -1.1448 -1.4501
 4491SOL    HW224936   3.503   1.614   8.243  1.2125 -0.8479 -1.0548
 4492SOL     OW24937   4.580   1.963   1.217  0.2362 -0.4859 -0.2973
 4492SOL    HW124938   4.534   1.882   1.193 -0.9452  0.4275 -1.1096
 4492SOL    HW224939   4.597   1.952   1.311 -0.3270 -1.7827 -0.3474
 4493SOL     OW24940   0.212   4.164   8.344 -0.6056 -0.1111 -0.0548
 4493SOL    HW124941   0.262   4.243   8.364  0.2896 -1.1379  1.8156
 4493SOL    HW224942   0.243   4.156   8.255  2.1882  0.6751  0.8627
 4494SOL     OW24943   1.604   2.086   8.437  0.1261  0.4017 -0.3403
 4494SOL    HW124944   1.673   2.032   8.399  0.6076  1.7018 -1.3081
 4494SOL    HW224945   1.552   2.095   8.357 -2.6740 -0.6155  1.3702
 4495SOL     OW24946   1.798   1.136  11.221  0.3535 -0.0486 -0.3235
 4495SOL    HW124947   1.886   1.163  11.247 -0.6119  0.6906  2.2401
 4495SOL    HW224948   1.788   1.058  11.276 -1.8712  1.0272  0.8331
 4496SOL     OW24949   1.897   0.457   3.168  0.1409  0.6681  0.1819
 4496SOL    HW124950   1.815   0.416   3.140  0.4964  0.4359 -0.5051
 4496SOL    HW224951   1.888   0.540   3.121 -1.4178  0.7143  0.5642
 4497SOL     OW24952   1.179   1.422   8.705  0.2491  0.1325 -0.1061
 4497SOL    HW124953   1.168   1.429   8.799  0.7115  0.3236 -0.0670
 4497SOL    HW224954   1.233   1.501   8.700  0.5251  0.0820  2.3122
 4498SOL     OW24955   1.296   1.396  15.439 -0.5623 -0.0168  0.1385
 4498SOL    HW124956   1.391   1.393  15.425 -0.1708  2.4214  2.1936
 4498SOL    HW224957   1.283   1.463  15.506 -3.7127 -1.5408  1.0493
 4499SOL     OW24958   1.448   0.340   6.963  0.7918  0.1974 -0.2035
 4499SOL    HW124959   1.541   0.364   6.967  0.2872  2.0645  0.3039
 4499SOL    HW224960   1.440   0.341   6.868 -0.6093 -2.3161 -0.1300
 4500SOL     OW24961   4.314   1.701   8.545  0.4977 -0.7095  0.0692
 4500SOL    HW124962   4.384   1.643   8.514  0.7781 -0.3127 -0.0384
 4500SOL    HW224963   4.232   1.656   8.523  0.0103 -0.3251  1.1077
 4501SOL     OW24964   4.078   4.140   9.043 -0.3389  0.3754 -0.1559
 4501SOL    HW124965   4.002   4.082   9.048  0.1542 -0.0371  2.5606
 4501SOL    HW224966   4.152   4.079   9.039  1.3762  2.4465  0.1183
 4502SOL     OW24967   1.422   3.261   1.804  0.0744  0.0291 -0.4243
 4502SOL    HW124968   1.478   3.264   1.727 -1.3338  1.1498 -1.4226
 4502SOL    HW224969   1.345   3.311   1.775 -0.6587 -0.2337  1.0803
 4503SOL     OW24970   2.773   0.415   7.809  0.0081  0.1412 -0.3685
 4503SOL    HW124971   2.804   0.489   7.860  2.0173 -0.5807 -0.5429
 4503SOL    HW224972   2.812   0.429   7.723  1.6418  0.2937  0.3975
 4504SOL     OW24973   1.869   3.743   2.101 -0.2452  0.0407 -0.6379
 4504SOL    HW124974   1.883   3.652   2.127  3.5921  0.5914 -0.8149
 4504SOL    HW224975   1.779   3.745   2.067  0.1718 -0.2607 -1.7544
 4505SOL     OW24976   2.491   0.993  11.496 -0.1057 -0.0636 -0.0550
 4505SOL    HW124977   2.570   0.963  11.452 -0.4268 -1.1854  0.1319
 4505SOL    HW224978   2.439   0.913  11.505  0.3197 -0.5286 -1.7007
 4506SOL     OW24979   1.847   0.055   6.015  0.3288  0.6728  0.2687
 4506SOL    HW124980   1.897   0.120   5.967  1.9203  0.8653  2.1691
 4506SOL    HW224981   1.777   0.102   6.061  0.2366  1.8834 -1.1442
 4507SOL     OW24982   1.384   2.763   2.919  0.1228 -0.7482  0.5010
 4507SOL    HW124983   1.380   2.774   2.824 -1.4862 -0.7661  0.5663
 4507SOL    HW224984   1.303   2.803   2.951  1.8099  0.0191  3.8469
 4508SOL     OW24985   2.676   3.053  15.830  0.0660 -0.0045  0.3922
 4508SOL    HW124986   2.603   2.996  15.806  0.6206  0.4282 -2.3474
 4508SOL    HW224987   2.715   2.994  15.894  2.9080  2.4437  0.9502
 4509SOL     OW24988   0.639   1.154   7.065  0.9787  0.0396  0.2889
 4509SOL    HW124989   0.603   1.067   7.043 -1.3501  1.2615 -0.7657
 4509SOL    HW224990   0.562   1.210   7.068  1.1014  0.2502 -0.4042
 4510SOL     OW24991   4.075   1.112   4.408 -0.4330 -0.2175 -0.2388
 4510SOL    HW124992   4.035   1.183   4.458 -0.2240  0.0723 -0.4807
 4510SOL    HW224993   4.168   1.113   4.433 -0.5781 -0.5060  0.3293
 4511SOL     OW24994   0.381   3.610  13.357  0.1057  0.1380  0.4289
 4511SOL    HW124995   0.397   3.589  13.449 -1.4759  0.0107  0.6662
 4511SOL    HW224996   0.436   3.687  13.342 -2.4418  1.4081 -2.3468
 4512SOL     OW24997   1.768   1.610   7.399 -0.1951 -0.1193  0.1220
 4512SOL    HW124998   1.735   1.521   7.403  1.5486 -0.6091  3.7513
 4512SOL    HW224999   1.800   1.614   7.309  0.5480 -3.0627  0.2746
 4513SOL     OW25000   0.243   2.920   4.397  0.5195 -0.9993 -0.0337
 4513SOL    HW125001   0.187   2.997   4.383  1.0499 -0.5892  0.0820
 4513SOL    HW225002   0.189   2.852   4.359 -2.4890  1.1458  0.3932
 4514SOL     OW25003   0.549   2.188   4.532 -0.3792 -0.2874  0.6038
 4514SOL    HW125004   0.637   2.167   4.501  0.3735  3.9805 -0.1036
 4514SOL    HW225005   0.499   2.113   4.500 -0.1827  1.0398 -2.8202
 4515SOL     OW25006   1.151   2.702  15.861 -0.1134  0.1726 -0.7037
 4515SOL    HW125007   1.157   2.705  15.957 -0.9873 -1.4712 -0.6015
 4515SOL    HW225008   1.067   2.656  15.858  0.0312 -0.2534  1.3504
 4516SOL     OW25009   4.522   2.358   9.237 -0.3015  0.4352  0.2794
 4516SOL    HW125010   4.601   2.308   9.258  0.0445  0.8255 -0.0908
 4516SOL    HW225011   4.505   2.320   9.151 -2.9340 -0.4719  1.1994
 4517SOL     OW25012   2.009   4.075   4.403 -0.2807  0.2658 -1.0146
 4517SOL    HW125013   1.961   4.058   4.484  1.1449 -2.9801 -0.8526
 4517SOL    HW225014   2.095   4.036   4.413 -0.3636 -0.0182 -1.4113
 4518SOL     OW25015   1.107   4.282  14.867  0.1829 -0.5242  0.5982
 4518SOL    HW125016   1.042   4.331  14.917  0.0169  0.8984 -0.9928
 4518SOL    HW225017   1.166   4.353  14.840 -1.1363 -0.3577 -1.8495
 4519SOL     OW25018   4.686   1.328   4.340 -0.0965 -0.7714  0.3770
 4519SOL    HW125019   0.025   1.275   4.387 -0.2768 -0.3733  1.0652
 4519SOL    HW225020   4.652   1.257   4.286  1.1434 -1.0955  0.0082
 4520SOL     OW25021   1.261   4.193  17.229  0.8013 -0.4772  0.3890
 4520SOL    HW125022   1.229   4.184  17.139  0.9470  1.9530  0.0793
 4520SOL    HW225023   1.298   4.106  17.242 -1.4684 -1.3260  1.1800
 4521SOL     OW25024   0.261   0.537  14.235  0.3167  0.3426 -0.3982
 4521SOL    HW125025   0.166   0.538  14.242  0.1181  2.8688 -3.2487
 4521SOL    HW225026   0.265   0.522  14.140 -0.5426 -0.6222 -0.2810
 4522SOL     OW25027   1.274   3.572  14.575  0.0704 -0.3540 -0.6431
 4522SOL    HW125028   1.225   3.495  14.549  2.4702 -2.3742  0.7906
 4522SOL    HW225029   1.199   3.623  14.604 -0.2381 -0.9039 -0.4798
 4523SOL     OW25030   1.176   2.105   5.800  0.3712  0.3135 -0.0422
 4523SOL    HW125031   1.237   2.034   5.818  2.1981  2.8766  3.7006
 4523SOL    HW225032   1.214   2.150   5.724  0.4389 -1.8642 -1.3062
 4524SOL     OW25033   0.323   4.074   1.725 -0.2729  0.1980  0.0140
 4524SOL    HW125034   0.231   4.079   1.702 -0.0983  1.6210 -0.3668
 4524SOL    HW225035   0.352   3.993   1.684 -0.0094  0.8566 -1.1004
 4525SOL     OW25036   4.263   0.155  12.191  0.0862 -1.4413 -0.1830
 4525SOL    HW125037   4.315   0.185  12.117  0.7678 -0.0179  0.8686
 4525SOL    HW225038   4.324   0.121  12.257  1.0558 -1.7168 -1.2324
 4526SOL     OW25039   4.583   2.874   7.662  0.1363  0.1494 -0.3385
 4526SOL    HW125040   4.548   2.826   7.587 -0.6319  1.3824 -0.7643
 4526SOL    HW225041   4.645   2.807   7.689 -0.2056 -0.4120 -0.9427
 4527SOL     OW25042   3.529   3.474  15.905  0.0233  0.2129  0.0004
 4527SOL    HW125043   3.610   3.526  15.907  0.2582 -0.1401 -0.2325
 4527SOL    HW225044   3.484   3.497  15.986 -2.3039 -0.2376 -1.1883
 4528SOL     OW25045   2.020   1.207   3.058 -0.8800  0.6307  0.1145
 4528SOL    HW125046   1.953   1.193   3.125 -0.4334 -0.5472  0.3190
 4528SOL    HW225047   2.068   1.271   3.111  0.9551 -0.9875  0.4119
 4529SOL     OW25048   0.605   2.589  10.710  0.0458  0.1197 -0.3380
 4529SOL    HW125049   0.648   2.508  10.684  0.5872 -0.0550  1.1272
 4529SOL    HW225050   0.662   2.613  10.782 -2.3805  1.2265  1.2207
 4530SOL     OW25051   3.316   0.535   9.531  0.3835 -0.4959  0.0865
 4530SOL    HW125052   3.408   0.518   9.515  0.5375  0.3406  0.0944
 4530SOL    HW225053   3.309   0.535   9.627 -1.7737  0.7836 -0.0482
 4531SOL     OW25054   3.218   4.105   3.320 -0.1214  0.1043  0.2100
 4531SOL    HW125055   3.147   4.042   3.303 -0.0678 -0.1905  1.0704
 4531SOL    HW225056   3.194   4.140   3.406 -2.8690  1.5346 -1.1402
 4532SOL     OW25057   3.788   4.654   6.803 -0.1376  0.2816 -0.1214
 4532SOL    HW125058   3.860   4.598   6.830 -0.8506  0.1382  1.4623
 4532SOL    HW225059   3.720   4.661   6.870 -0.0119 -0.3841  0.0755
 4533SOL     OW25060   2.153   0.754   0.081  0.8322  0.4190 -0.0580
 4533SOL    HW125061   2.241   0.781   0.056  1.0917  0.3479  0.7710
 4533SOL    HW225062   2.172   0.736   0.173  2.7274  1.5794 -0.2183
 4534SOL     OW25063   4.172   4.673   3.568  0.3284  0.6362 -0.8727
 4534SOL    HW125064   4.153   0.037   3.596  1.9640  0.6032  0.3473
 4534SOL    HW225065   4.245   4.679   3.507  1.2557  1.0719  0.2712
 4535SOL     OW25066   1.725   3.285   8.509 -0.2550  0.0383  0.2352
 4535SOL    HW125067   1.813   3.248   8.519 -0.5108 -1.0053 -1.3877
 4535SOL    HW225068   1.677   3.213   8.550 -0.1201 -0.4412 -0.4512
 4536SOL     OW25069   4.214   2.006  13.828  0.0558  0.7229  0.6884
 4536SOL    HW125070   4.126   1.972  13.812 -0.6788  2.4206  1.0540
 4536SOL    HW225071   4.258   1.971  13.751 -1.9058 -0.3459  0.0457
 4537SOL     OW25072   1.380   2.325   8.846  0.0458 -0.6670 -0.3883
 4537SOL    HW125073   1.452   2.388   8.846  0.3183 -0.9839  0.6849
 4537SOL    HW225074   1.411   2.246   8.889 -0.5996 -0.4180  0.5483
 4538SOL     OW25075   2.888   1.803  16.780  0.3150 -0.4177 -0.4672
 4538SOL    HW125076   2.935   1.795  16.863 -1.0695 -0.4617  0.3209
 4538SOL    HW225077   2.963   1.835  16.730  1.2013 -1.1855  0.3642
 4539SOL     OW25078   2.720   1.975   6.893  0.0726 -0.3301 -0.2789
 4539SOL    HW125079   2.790   1.988   6.829 -1.3164  1.9834 -1.3600
 4539SOL    HW225080   2.664   1.921   6.836 -0.3177 -0.4366  0.2091
 4540SOL     OW25081   2.457   4.461  17.376 -0.2781  0.2256  0.0122
 4540SOL    HW125082   2.399   4.501  17.441 -0.0183 -0.3115  0.5810
 4540SOL    HW225083   2.533   4.499  17.419 -2.0662  2.8166  0.8715
 4541SOL     OW25084   3.536   0.834  14.775  0.0612  0.0551  0.0059
 4541SOL    HW125085   3.445   0.841  14.805  0.3124  0.1943  0.7415
 4541SOL    HW225086   3.578   0.875  14.851 -1.3830 -2.7616  2.3458
 4542SOL     OW25087   1.910   0.299  17.194 -0.2908  0.1939  0.3652
 4542SOL    HW125088   1.946   0.321  17.108  0.3234 -0.8549  0.3593
 4542SOL    HW225089   1.930   0.375  17.249 -2.1404  0.9091  0.0424
 4543SOL     OW25090   3.778   1.663  11.324  0.2875  0.0684 -0.0805
 4543SOL    HW125091   3.824   1.706  11.252  0.3116 -1.2001 -0.8166
 4543SOL    HW225092   3.835   1.587  11.329 -0.3679 -0.3148  1.5920
 4544SOL     OW25093   4.146   0.068   4.457  0.5735  0.4933  0.0720
 4544SOL    HW125094   4.212   4.723   4.453 -0.7935 -0.7490 -0.6822
 4544SOL    HW225095   4.146   0.100   4.367 -1.1132  1.6920  0.5059
 4545SOL     OW25096   3.286   0.682   4.526  0.0397 -0.2243 -0.2566
 4545SOL    HW125097   3.381   0.671   4.527 -0.1286 -1.6769 -0.2783
 4545SOL    HW225098   3.275   0.756   4.466  1.4985 -1.4873 -2.0629
 4546SOL     OW25099   2.424   4.499   5.624  0.1013  0.1116 -0.0573
 4546SOL    HW125100   2.482   4.528   5.553  2.2386 -1.4915  1.0140
 4546SOL    HW225101   2.378   4.576   5.658  3.2074  1.2695  1.5026
 4547SOL     OW25102   1.102   0.934   3.395 -0.5426 -0.2745 -0.4119
 4547SOL    HW125103   1.040   0.875   3.437  0.0747 -0.4318  0.2959
 4547SOL    HW225104   1.170   0.869   3.378 -1.8211 -1.6940  0.0034
 4548SOL     OW25105   0.800   3.635  14.471 -0.3033 -0.0909 -0.3708
 4548SOL    HW125106   0.743   3.566  14.505  0.4389 -0.7717 -0.4777
 4548SOL    HW225107   0.802   3.622  14.376 -1.5168 -3.4675  0.0597
 4549SOL     OW25108   3.393   0.344   4.400  0.4982  0.0094  0.5828
 4549SOL    HW125109   3.357   0.409   4.340  1.4839  0.2186  0.2119
 4549SOL    HW225110   3.484   0.355   4.372 -0.3336  0.7949 -1.7773
 4550SOL     OW25111   1.238   0.513   1.330 -0.9757 -0.2799 -0.5775
 4550SOL    HW125112   1.264   0.596   1.291  2.1911 -2.2117 -2.5364
 4550SOL    HW225113   1.322   0.468   1.324 -0.8264  0.0370 -0.8115
 4551SOL     OW25114   4.167   4.133   4.245 -0.0934 -0.2820 -0.4291
 4551SOL    HW125115   4.143   4.106   4.157 -0.1622 -1.9352  0.1036
 4551SOL    HW225116   4.251   4.175   4.228 -1.3430  1.9605 -1.1001
 4552SOL     OW25117   1.184   2.780   6.945 -0.0655 -0.4822 -0.3616
 4552SOL    HW125118   1.190   2.793   7.040 -0.5095  1.3377 -0.5829
 4552SOL    HW225119   1.107   2.723   6.947 -1.0493  0.8251 -0.7602
 4553SOL     OW25120   1.036   0.808   1.089 -0.0735  0.2547 -0.2502
 4553SOL    HW125121   0.966   0.867   1.062  0.6020  0.6812 -1.0917
 4553SOL    HW225122   0.981   0.754   1.146 -0.5662  1.3734  0.3226
 4554SOL     OW25123   0.843   1.716   3.152 -0.1478 -0.1755 -0.1711
 4554SOL    HW125124   0.934   1.695   3.133 -0.8299 -0.4608 -3.1728
 4554SOL    HW225125   0.852   1.803   3.191 -1.4708 -1.0965  2.1823
 4555SOL     OW25126   3.394   1.922  17.475 -0.3814 -0.5441  0.7532
 4555SOL    HW125127   3.409   2.013  17.503  0.7704  0.2871 -2.4795
 4555SOL    HW225128   3.301   1.912  17.491 -0.0723 -1.5866  1.8608
 4556SOL     OW25129   2.561   0.006  13.379  0.0326 -0.0846 -0.0629
 4556SOL    HW125130   2.575   4.645  13.420 -1.6435 -1.3528 -2.1145
 4556SOL    HW225131   2.567   4.701  13.289 -1.2691  0.6161 -0.3889
 4557SOL     OW25132   3.282   0.928   4.357  0.6806  0.0209 -0.0228
 4557SOL    HW125133   3.373   0.956   4.359  0.5564  0.2395  1.8890
 4557SOL    HW225134   3.257   0.932   4.264  3.1680 -0.6136 -0.7001
 4558SOL     OW25135   1.275   0.681  14.350  0.0234  0.0990  0.1578
 4558SOL    HW125136   1.198   0.661  14.296 -0.3087 -0.0228  0.6770
 4558SOL    HW225137   1.232   0.654  14.430  2.6069 -1.3471  1.0562
 4559SOL     OW25138   2.869   0.967   5.426 -0.1084 -0.0875 -0.0664
 4559SOL    HW125139   2.821   1.016   5.360  2.9044  1.8108 -0.8365
 4559SOL    HW225140   2.800   0.942   5.487 -1.6570 -1.7440 -2.5353
 4560SOL     OW25141   2.593   2.553   3.381 -0.2290 -0.5168  0.3684
 4560SOL    HW125142   2.507   2.559   3.340  0.2309  0.3227 -0.5018
 4560SOL    HW225143   2.587   2.471   3.430 -1.1436 -0.6257  0.0756
 4561SOL     OW25144   2.020   1.222  11.330 -1.2378  0.3402 -0.1806
 4561SOL    HW125145   2.050   1.312  11.314  2.0651 -0.9616 -1.2201
 4561SOL    HW225146   1.964   1.225  11.407 -1.9623  2.9729 -0.8057
 4562SOL     OW25147   1.625   0.738  15.552  0.4875  0.3889 -0.9463
 4562SOL    HW125148   1.650   0.647  15.541 -0.0413  0.2941 -1.3243
 4562SOL    HW225149   1.573   0.735  15.633  0.6868 -4.4286 -1.0123
 4563SOL     OW25150   3.845   2.369   5.798 -0.1519  0.0163 -0.5700
 4563SOL    HW125151   3.917   2.331   5.748 -0.7242 -1.5092 -0.2297
 4563SOL    HW225152   3.884   2.456   5.805 -1.3498  0.6412 -1.6909
 4564SOL     OW25153   2.271   2.190   7.452  0.0772  0.2071 -0.2042
 4564SOL    HW125154   2.212   2.243   7.507 -1.2026  0.1229 -1.4932
 4564SOL    HW225155   2.213   2.148   7.388  1.0181 -1.8624  0.3118
 4565SOL     OW25156   0.064   3.136   7.986  0.0270  0.2726 -0.2854
 4565SOL    HW125157   0.070   3.231   7.987  2.8526  0.1089 -1.3308
 4565SOL    HW225158   4.710   3.124   7.935  0.9182 -0.6044 -1.4724
 4566SOL     OW25159   0.789   2.917  11.656  0.1745 -0.0038 -0.6461
 4566SOL    HW125160   0.826   2.873  11.733 -1.7495 -0.6149 -0.0869
 4566SOL    HW225161   0.854   2.980  11.624  1.1030 -0.2465  0.7665
 4567SOL     OW25162   4.331   4.664  16.386 -0.2882 -0.0227  0.5230
 4567SOL    HW125163   4.401   4.610  16.349 -0.0891  2.2196 -2.3223
 4567SOL    HW225164   4.313   0.005  16.320  0.0294  1.2896  1.7592
 4568SOL     OW25165   3.968   2.570  12.419 -0.0020 -0.4959  0.3302
 4568SOL    HW125166   3.952   2.664  12.421 -1.1717 -0.6469 -2.5495
 4568SOL    HW225167   3.890   2.537  12.465  1.5489 -0.4461  3.0016
 4569SOL     OW25168   3.855   2.555   7.380 -0.1057  0.3587  0.2544
 4569SOL    HW125169   3.802   2.631   7.357 -1.8233  0.0791  3.3702
 4569SOL    HW225170   3.853   2.501   7.301  1.5734 -2.5998  2.2248
 4570SOL     OW25171   2.112   2.902   8.836 -0.8988 -0.3818  0.0706
 4570SOL    HW125172   2.084   2.817   8.869 -0.2865 -0.1216  1.2557
 4570SOL    HW225173   2.179   2.867   8.777  0.3704 -0.4719  1.5639
 4571SOL     OW25174   3.623   4.637   7.055 -0.3654 -0.5322 -0.4958
 4571SOL    HW125175   3.579   4.560   7.018 -1.1691 -0.5332  0.4555
 4571SOL    HW225176   3.706   4.603   7.088  0.0263 -0.2115 -1.1584
 4572SOL     OW25177   2.478   2.539   2.241 -0.4713 -0.5461  0.5364
 4572SOL    HW125178   2.524   2.490   2.173  1.3118  0.0610  1.2852
 4572SOL    HW225179   2.552   2.593   2.270 -0.2022 -0.9481  0.5954
 4573SOL     OW25180   0.648   0.797   3.507 -0.0532 -0.1091 -0.2855
 4573SOL    HW125181   0.630   0.742   3.584  1.8220 -1.1944 -0.6240
 4573SOL    HW225182   0.603   0.877   3.535  1.6386  0.7247  0.0311
 4574SOL     OW25183   3.091   1.021  17.018  0.3991 -0.0364  0.3305
 4574SOL    HW125184   3.183   1.036  17.039  0.6905 -1.1691 -0.1262
 4574SOL    HW225185   3.079   0.926  17.012 -0.7660 -0.0566  2.7773
 4575SOL     OW25186   3.900   3.788   3.061  0.2187 -0.5614  0.6539
 4575SOL    HW125187   3.815   3.826   3.040  0.5536 -0.4046 -0.4350
 4575SOL    HW225188   3.914   3.828   3.147 -1.3415 -3.6272  2.3367
 4576SOL     OW25189   1.599   2.690   6.526 -0.4319 -0.2414  0.8668
 4576SOL    HW125190   1.679   2.641   6.509  1.7814  3.5796  0.3101
 4576SOL    HW225191   1.648   2.767   6.554  3.5757 -2.3789 -0.2853
 4577SOL     OW25192   3.712   4.423   8.593  0.2110  0.6206 -0.5684
 4577SOL    HW125193   3.763   4.472   8.657  0.1715 -1.8499  1.3798
 4577SOL    HW225194   3.745   4.465   8.513 -1.7507  1.5543 -0.8755
 4578SOL     OW25195   3.934   3.442  16.967 -0.0901  0.2838 -0.2382
 4578SOL    HW125196   4.014   3.490  16.988  0.7442 -0.8008 -0.8998
 4578SOL    HW225197   3.867   3.500  17.004  0.6418  0.6295  0.5558
 4579SOL     OW25198   0.309   3.628  12.632  0.6225  0.4600  0.4866
 4579SOL    HW125199   0.335   3.709  12.587  0.7617  1.3679  2.2247
 4579SOL    HW225200   0.344   3.635  12.721  1.6255 -0.0992  0.1479
 4580SOL     OW25201   3.778   1.811   8.255 -0.1427  0.0396 -0.4695
 4580SOL    HW125202   3.720   1.741   8.285  0.5821  1.2114  3.7130
 4580SOL    HW225203   3.733   1.890   8.285 -2.3179 -1.5240  0.3713
 4581SOL     OW25204   2.987   4.392   7.097  0.1814  0.0083 -0.2695
 4581SOL    HW125205   2.962   4.462   7.157  3.0770  2.0332 -1.4090
 4581SOL    HW225206   2.979   4.323   7.163 -2.0212  0.6837  0.1555
 4582SOL     OW25207   4.105   0.924  14.130  0.1160 -0.3822 -0.2750
 4582SOL    HW125208   4.068   0.918  14.219  0.4034 -2.6210 -0.3184
 4582SOL    HW225209   4.199   0.909  14.139  0.0243  0.3122  2.0237
 4583SOL     OW25210   1.172   2.275   9.066  0.0189  0.0949 -0.0294
 4583SOL    HW125211   1.105   2.338   9.041  0.1265  1.0323  2.0155
 4583SOL    HW225212   1.214   2.259   8.982 -2.3610 -0.7067 -1.0655
 4584SOL     OW25213   1.070   2.957   2.511  0.0677  0.3852 -0.0919
 4584SOL    HW125214   0.975   2.946   2.510  0.1061 -0.0179  0.5018
 4584SOL    HW225215   1.093   2.934   2.421 -0.7472 -1.0695  0.0773
 4585SOL     OW25216   1.138   1.101  11.890  0.1945  0.2022  0.0846
 4585SOL    HW125217   1.195   1.092  11.813  2.3347  2.5132  1.4009
 4585SOL    HW225218   1.185   1.073  11.969 -0.2803  0.8727  0.5987
 4586SOL     OW25219   3.238   3.371   4.978 -0.3230  0.4855  0.1741
 4586SOL    HW125220   3.287   3.325   4.910  0.3703  0.4085  0.7191
 4586SOL    HW225221   3.279   3.457   4.971  0.1392  0.3241  0.8679
 4587SOL     OW25222   3.688   1.646   6.045 -0.5349  0.0815  0.1095
 4587SOL    HW125223   3.635   1.724   6.030  0.3076  0.7579  0.6134
 4587SOL    HW225224   3.722   1.633   5.956 -3.4823  1.9416 -1.2871
 4588SOL     OW25225   0.527   4.485   0.432 -0.1521 -0.3121  0.0064
 4588SOL    HW125226   0.495   4.543   0.362 -0.2114  1.2363  1.3138
 4588SOL    HW225227   0.447   4.481   0.485 -0.8045 -1.4877 -1.0724
 4589SOL     OW25228   2.700   0.633  11.664  0.1069  0.2982  0.2862
 4589SOL    HW125229   2.702   0.642  11.759  0.9484  0.6084  0.2460
 4589SOL    HW225230   2.624   0.580  11.640 -0.1627  1.3734 -1.2330
 4590SOL     OW25231   4.559   3.372  13.084  0.6186 -0.0517 -0.2162
 4590SOL    HW125232   4.475   3.386  13.127  0.3245 -0.7591 -0.5672
 4590SOL    HW225233   4.539   3.300  13.024  2.9839 -0.0691 -0.9843
 4591SOL     OW25234   1.525   3.747  10.177 -0.2689  0.1317 -0.0783
 4591SOL    HW125235   1.505   3.698  10.257 -0.8904  0.6449  0.0732
 4591SOL    HW225236   1.450   3.804  10.162 -0.1547  0.8891  2.2650
 4592SOL     OW25237   0.756   2.025   2.956 -0.3650 -0.4356 -0.1374
 4592SOL    HW125238   0.730   1.934   2.969  1.0368 -1.1287 -2.2450
 4592SOL    HW225239   0.677   2.079   2.960 -0.7435 -0.9418 -0.7960
 4593SOL     OW25240   4.161   3.904  14.307 -0.4483 -0.1381  0.3659
 4593SOL    HW125241   4.120   3.931  14.225  1.1061  2.0284  0.2853
 4593SOL    HW225242   4.250   3.903  14.273 -0.3657 -0.7909  0.6123
 4594SOL     OW25243   1.767   2.762   7.680 -0.6110 -0.2899 -0.2147
 4594SOL    HW125244   1.790   2.849   7.713  0.3713 -0.5851 -0.1007
 4594SOL    HW225245   1.814   2.705   7.741 -1.5652  1.5934  2.2536
 4595SOL     OW25246   0.677   2.435   4.146  0.5735  0.1506 -0.1780
 4595SOL    HW125247   0.754   2.491   4.156  0.8312 -0.2502  0.0722
 4595SOL    HW225248   0.630   2.503   4.098  1.5071  0.2071 -1.0166
 4596SOL     OW25249   1.685   0.160   2.254  0.1210  0.1669  0.0878
 4596SOL    HW125250   1.751   0.101   2.219 -1.8218 -1.9253 -0.0601
 4596SOL    HW225251   1.604   0.115   2.232 -1.2263  3.9311 -2.5701
 4597SOL     OW25252   2.712   2.311  15.944 -0.0530  0.4186 -0.0234
 4597SOL    HW125253   2.698   2.397  15.983  0.1393 -0.0415  1.0526
 4597SOL    HW225254   2.797   2.283  15.978  0.2141 -0.9912 -1.8524
 4598SOL     OW25255   2.400   0.584   6.073  0.9464 -0.2264  0.2528
 4598SOL    HW125256   2.413   0.675   6.101 -0.4868  0.9003 -2.7828
 4598SOL    HW225257   2.366   0.543   6.153 -0.8053 -1.8226 -1.3286
 4599SOL     OW25258   0.703   3.268   3.723  0.2964  0.1503 -0.7357
 4599SOL    HW125259   0.785   3.293   3.766  0.2391  1.6190 -1.4899
 4599SOL    HW225260   0.737   3.270   3.634 -2.1184  0.4270 -1.6564
 4600SOL     OW25261   1.318   1.312  16.310  0.3345  0.2019 -0.3357
 4600SOL    HW125262   1.412   1.320  16.321  0.5326  0.1404 -2.0189
 4600SOL    HW225263   1.317   1.293  16.404 -1.5515  1.5709 -0.0761
 4601SOL     OW25264   2.111   0.636   0.978  0.1536  0.4614  0.1907
 4601SOL    HW125265   2.187   0.603   1.026 -0.1307 -0.7462 -0.1980
 4601SOL    HW225266   2.060   0.555   0.975  2.7411 -1.1636  0.1945
 4602SOL     OW25267   2.769   0.370   3.149  0.3112 -1.0724 -0.8537
 4602SOL    HW125268   2.676   0.373   3.124  0.2379 -1.4911 -0.6353
 4602SOL    HW225269   2.768   0.296   3.209 -1.0710 -0.3328  0.0529
 4603SOL     OW25270   2.749   0.369   2.836  0.4455 -0.1809  0.0961
 4603SOL    HW125271   2.670   0.316   2.823 -0.6895  1.7325 -0.9567
 4603SOL    HW225272   2.739   0.382   2.931  0.5994  0.1875  0.0627
 4604SOL     OW25273   2.719   0.249   3.463  0.2726  0.1071 -0.1745
 4604SOL    HW125274   2.735   0.179   3.527 -0.7143  0.2060  0.1749
 4604SOL    HW225275   2.770   0.205   3.395  0.3457  0.2025 -0.1806
 4605SOL     OW25276   0.052   3.458   5.138 -0.3858  0.1352 -0.2312
 4605SOL    HW125277   4.686   3.469   5.112 -1.0283  0.6597  2.3145
 4605SOL    HW225278   0.097   3.401   5.075  2.0768  2.9282 -1.0588
 4606SOL     OW25279   2.967   4.109   6.045  0.5030 -0.5188 -0.2266
 4606SOL    HW125280   2.942   4.200   6.057  0.2458 -0.6196 -0.0118
 4606SOL    HW225281   2.900   4.076   5.985  1.2799  0.2228 -1.5166
 4607SOL     OW25282   3.745   4.662   6.539 -0.6816  0.2045 -0.2968
 4607SOL    HW125283   3.839   4.658   6.520 -0.5293  0.7849  0.3226
 4607SOL    HW225284   3.744   4.639   6.632 -0.0583  0.5401 -0.2066
 4608SOL     OW25285   2.789   2.353   1.145  0.5973  0.2523 -0.1436
 4608SOL    HW125286   2.872   2.315   1.175 -0.1678 -0.1469  1.4443
 4608SOL    HW225287   2.820   2.436   1.109  1.1344  1.0440  2.1194
 4609SOL     OW25288   3.892   1.323   3.711  0.0877 -0.1465 -0.6303
 4609SOL    HW125289   3.912   1.307   3.619  0.0814 -1.9993 -0.3111
 4609SOL    HW225290   3.863   1.242   3.751 -0.9449  1.1602  1.2839
 4610SOL     OW25291   0.619   3.397   5.045 -0.0676  0.2211 -0.0200
 4610SOL    HW125292   0.542   3.349   5.014 -0.3603  0.7744 -0.1494
 4610SOL    HW225293   0.592   3.429   5.131 -1.5986 -0.9105 -0.0868
 4611SOL     OW25294   1.644   0.803  11.244 -0.0749 -0.0115 -0.0488
 4611SOL    HW125295   1.727   0.817  11.288  1.0929 -0.7075 -2.0099
 4611SOL    HW225296   1.672   0.764  11.161 -0.4714 -1.2244  0.3876
 4612SOL     OW25297   3.387   0.861  10.183 -0.3006 -0.3922 -0.1415
 4612SOL    HW125298   3.414   0.943  10.143 -0.1094 -0.6337 -0.4995
 4612SOL    HW225299   3.308   0.839  10.134  1.1544 -1.4741 -1.9782
 4613SOL     OW25300   4.701   4.240   4.348  0.5815  0.5222  0.2571
 4613SOL    HW125301   0.056   4.196   4.317 -1.0032 -2.5666  0.4834
 4613SOL    HW225302   4.644   4.234   4.271 -1.2676  0.0235  1.6711
 4614SOL     OW25303   3.149   2.269   0.464 -0.2777 -0.0134 -0.5402
 4614SOL    HW125304   3.208   2.327   0.512 -0.8980  0.8634 -0.8391
 4614SOL    HW225305   3.119   2.208   0.531  1.9167  0.3102  0.7360
 4615SOL     OW25306   0.577   2.833  15.415  0.1648  0.1357  0.6105
 4615SOL    HW125307   0.572   2.855  15.322 -2.0286  0.5468  0.8367
 4615SOL    HW225308   0.640   2.898  15.446  0.7865 -0.5902  0.8715
 4616SOL     OW25309   2.762   1.126   5.205 -0.3007 -0.0963  0.0248
 4616SOL    HW125310   2.700   1.116   5.133 -1.8900  1.6063  1.1336
 4616SOL    HW225311   2.721   1.202   5.247  0.9212  1.0450 -0.8804
 4617SOL     OW25312   3.433   0.201  17.021  0.9067  0.1522 -0.4117
 4617SOL    HW125313   3.409   0.213  16.929  0.6593 -0.9749 -0.4841
 4617SOL    HW225314   3.452   0.108  17.026 -1.4050 -0.2406  0.9336
 4618SOL     OW25315   2.297   3.276   4.106 -0.5908 -0.1268 -0.1413
 4618SOL    HW125316   2.317   3.318   4.189 -0.9556  1.2426 -0.7475
 4618SOL    HW225317   2.362   3.321   4.052 -0.3230 -0.7615 -0.3535
 4619SOL     OW25318   1.492   4.259   9.663  0.3743 -0.5520  0.1926
 4619SOL    HW125319   1.516   4.198   9.593 -0.6293 -0.9618  0.2040
 4619SOL    HW225320   1.567   4.239   9.720 -0.2562 -0.6942  0.9809
 4620SOL     OW25321   2.387   1.353   9.114  0.2056  0.1013 -0.0325
 4620SOL    HW125322   2.358   1.405   9.039 -0.1329  0.0686  0.0738
 4620SOL    HW225323   2.469   1.312   9.087  0.4918 -0.1347  1.1745
 4621SOL     OW25324   2.115   1.832   0.337 -0.4681 -0.1281 -0.4081
 4621SOL    HW125325   2.060   1.891   0.285 -0.6218 -0.7469 -0.9587
 4621SOL    HW225326   2.137   1.889   0.410  0.9711  0.5754 -1.3776
 4622SOL     OW25327   3.637   3.885   3.459  0.3788  0.0316 -0.4766
 4622SOL    HW125328   3.657   3.818   3.394  0.0599 -2.4318  1.9652
 4622SOL    HW225329   3.643   3.971   3.418 -0.4831 -0.0780 -0.8318
 4623SOL     OW25330   0.480   1.465   8.359 -0.0487  0.4622  0.2899
 4623SOL    HW125331   0.485   1.373   8.331  0.8079  0.4234  0.5697
 4623SOL    HW225332   0.422   1.496   8.290 -1.0273 -0.1158  0.8543
 4624SOL     OW25333   1.806   1.374   2.728 -0.3245 -0.2926 -0.5496
 4624SOL    HW125334   1.893   1.378   2.690 -0.1819  2.5825  0.0482
 4624SOL    HW225335   1.749   1.380   2.652 -1.4185  1.7953  0.4188
 4625SOL     OW25336   0.905   1.930   5.188 -0.4236  0.2554 -0.3779
 4625SOL    HW125337   0.857   1.931   5.105 -0.9468  1.4168 -0.0551
 4625SOL    HW225338   0.887   2.021   5.211  3.1625  0.7355  0.4963
 4626SOL     OW25339   1.121   4.016  15.008  0.6168 -0.5775 -0.3002
 4626SOL    HW125340   1.120   4.074  14.932 -1.2621 -0.5445 -0.2698
 4626SOL    HW225341   1.128   3.929  14.969  2.4825 -1.2471  1.4930
 4627SOL     OW25342   0.258   1.935   8.368 -0.4394  0.4572  0.5026
 4627SOL    HW125343   0.215   1.872   8.425 -0.5633 -1.4907 -1.7587
 4627SOL    HW225344   0.276   2.001   8.434 -1.1124  0.5008  0.6422
 4628SOL     OW25345   3.409   1.287   3.424  0.5545  0.0472 -0.3379
 4628SOL    HW125346   3.349   1.291   3.499 -0.9998  0.4006 -1.5897
 4628SOL    HW225347   3.356   1.264   3.347 -1.0384  0.2725  0.6982
 4629SOL     OW25348   4.648   2.657   9.607 -0.1678  0.1575  0.1398
 4629SOL    HW125349   4.672   2.565   9.613  0.2916  0.3169  0.7103
 4629SOL    HW225350   0.009   2.695   9.589 -0.7368  2.2876  1.8671
 4630SOL     OW25351   3.738   4.327   2.997  0.3109 -0.3775 -0.3436
 4630SOL    HW125352   3.786   4.277   3.064  0.5960  0.4679  0.0889
 4630SOL    HW225353   3.817   4.368   2.962  0.1147  0.1008 -0.2266
 4631SOL     OW25354   1.124   1.391   2.227 -0.5672  0.3773 -0.2666
 4631SOL    HW125355   1.137   1.462   2.291 -2.2615 -0.5461  1.1014
 4631SOL    HW225356   1.098   1.429   2.144 -0.7005  0.7133 -0.0726
 4632SOL     OW25357   2.611   1.424   6.739  0.3990 -0.6265 -0.0926
 4632SOL    HW125358   2.573   1.353   6.688 -0.7324  1.2207 -1.8226
 4632SOL    HW225359   2.601   1.401   6.831 -1.3761  0.4828 -0.0174
 4633SOL     OW25360   4.644   4.318  17.335  0.4777 -0.0867 -0.4179
 4633SOL    HW125361   4.600   4.402  17.318 -1.3236 -0.5907  1.7095
 4633SOL    HW225362   4.600   4.258  17.274 -0.8164 -0.3679  0.7914
 4634SOL     OW25363   4.564   1.731   0.492  0.1226 -0.5875  0.3796
 4634SOL    HW125364   4.490   1.780   0.456 -0.0510 -0.8919  0.3206
 4634SOL    HW225365   4.528   1.668   0.554  0.9563 -0.9789  0.4723
 4635SOL     OW25366   1.972   3.957   3.512  0.1612  0.5133 -0.5197
 4635SOL    HW125367   1.996   3.867   3.537 -3.3413 -0.4416 -0.6419
 4635SOL    HW225368   1.950   3.999   3.594 -1.6764 -2.1686  0.3667
 4636SOL     OW25369   4.564   2.498   6.853  0.4260  0.2231 -0.1033
 4636SOL    HW125370   4.651   2.532   6.831  0.4569 -1.5123 -2.6369
 4636SOL    HW225371   4.574   2.423   6.912 -4.2588  1.3537  2.1421
 4637SOL     OW25372   2.265   1.026   8.579 -0.4532 -0.7533 -0.3305
 4637SOL    HW125373   2.251   1.013   8.673 -0.5700 -1.3869 -0.4381
 4637SOL    HW225374   2.360   1.039   8.582 -0.3500 -0.7179 -3.1782
 4638SOL     OW25375   2.709   0.335   8.296 -0.1246 -0.2006 -0.1132
 4638SOL    HW125376   2.691   0.309   8.386  0.0357 -1.3387 -0.4105
 4638SOL    HW225377   2.627   0.312   8.253 -1.0818 -0.7715  2.0081
 4639SOL     OW25378   4.035   1.195  12.587 -0.4467  0.3839 -0.0221
 4639SOL    HW125379   3.951   1.150  12.601 -1.0087  1.1985 -0.8152
 4639SOL    HW225380   4.044   1.216  12.680 -0.6658  2.5438 -0.4936
 4640SOL     OW25381   3.119   2.003  14.098 -0.4825 -0.1757  0.2149
 4640SOL    HW125382   3.092   2.009  14.190  0.1299 -2.5191  0.5487
 4640SOL    HW225383   3.049   2.045  14.050 -2.0073 -3.1481 -0.1738
 4641SOL     OW25384   0.386   3.477   7.449  0.3550  0.1695  0.3378
 4641SOL    HW125385   0.389   3.551   7.509  1.7601  0.6511 -0.3345
 4641SOL    HW225386   0.378   3.405   7.511 -0.3007  0.2759  0.3813
 4642SOL     OW25387   0.830   1.863   8.627 -0.4929 -0.1036 -0.4652
 4642SOL    HW125388   0.740   1.857   8.658 -0.6369  0.1135 -0.8474
 4642SOL    HW225389   0.853   1.774   8.656  3.0303  1.0059  0.1696
 4643SOL     OW25390   3.023   0.981   3.037  0.6376  0.1818  0.1435
 4643SOL    HW125391   2.932   1.010   3.028  0.3411 -1.2115 -1.2343
 4643SOL    HW225392   3.058   1.060   2.995  1.1270 -0.7301 -1.1697
 4644SOL     OW25393   1.189   1.161   6.587  0.5114 -0.1060 -0.2124
 4644SOL    HW125394   1.242   1.229   6.546  1.9420 -1.5242 -0.6879
 4644SOL    HW225395   1.103   1.178   6.549  0.5330  1.6891  0.5129
 4645SOL     OW25396   3.360   0.552  15.411  0.2738  0.2482 -0.1016
 4645SOL    HW125397   3.437   0.566  15.356 -0.3197 -1.3929 -1.3511
 4645SOL    HW225398   3.301   0.495  15.363  3.6152 -1.6548 -1.9662
 4646SOL     OW25399   1.994   0.230   2.089  0.2662 -0.2133 -0.0509
 4646SOL    HW125400   2.058   0.268   2.029  0.6981 -0.4427  0.2711
 4646SOL    HW225401   2.002   0.278   2.171  1.5795  1.9539 -1.4356
 4647SOL     OW25402   1.693   3.180   3.476  0.6251  0.0045 -0.4046
 4647SOL    HW125403   1.768   3.187   3.417 -1.1033  4.1913 -2.0965
 4647SOL    HW225404   1.667   3.090   3.457 -0.4617  0.3991 -0.8052
 4648SOL     OW25405   2.106   1.624  17.545  0.3111 -0.4662 -0.0944
 4648SOL    HW125406   2.073   1.577  17.469 -1.3067  2.5461 -1.2205
 4648SOL    HW225407   2.038   1.615  17.612  1.7487 -2.0799  1.1564
 4649SOL     OW25408   2.851   2.300  12.232 -0.4179  0.2533 -0.8636
 4649SOL    HW125409   2.849   2.254  12.316 -0.8089  0.9749 -0.4716
 4649SOL    HW225410   2.827   2.385  12.269 -0.5552 -0.1214 -0.0939
 4650SOL     OW25411   4.364   4.175   5.138  0.1388 -0.3258 -0.1712
 4650SOL    HW125412   4.434   4.228   5.176 -1.4107  2.1364 -0.7600
 4650SOL    HW225413   4.374   4.195   5.045 -0.8111  1.1516  0.0551
 4651SOL     OW25414   1.737   3.335   8.131 -0.2565  0.2786 -0.0601
 4651SOL    HW125415   1.779   3.420   8.144 -0.0978 -0.0996  1.9111
 4651SOL    HW225416   1.803   3.282   8.175  0.2076  2.6609  2.0928
 4652SOL     OW25417   3.637   2.489   7.550 -0.4295  0.1336 -0.5688
 4652SOL    HW125418   3.695   2.491   7.474 -1.5191 -1.2103 -1.4220
 4652SOL    HW225419   3.685   2.425   7.603  0.8937 -0.0337 -1.9759
 4653SOL     OW25420   2.543   3.404   2.537  0.3648 -0.4671 -0.7644
 4653SOL    HW125421   2.629   3.427   2.500  0.7137 -0.4088  0.0967
 4653SOL    HW225422   2.562   3.321   2.581 -0.2034 -0.3895 -0.3734
 4654SOL     OW25423   0.232   0.232   7.754 -0.1334  0.1851 -0.2940
 4654SOL    HW125424   0.258   0.251   7.844  0.8709 -1.4207 -0.2439
 4654SOL    HW225425   0.294   0.280   7.701 -0.6778  0.0470 -1.0613
 4655SOL     OW25426   4.407   1.554   6.279  0.0852 -0.0500 -0.0461
 4655SOL    HW125427   4.456   1.506   6.212  1.8660  2.0671 -0.2869
 4655SOL    HW225428   4.401   1.636   6.231  0.0906 -0.5148 -0.8471
 4656SOL     OW25429   0.924   2.770   9.337 -0.1354  0.2896 -0.2394
 4656SOL    HW125430   1.007   2.758   9.383 -1.0857 -0.7413  1.2054
 4656SOL    HW225431   0.953   2.835   9.273  1.2697 -1.4888 -1.3941
 4657SOL     OW25432   4.158   1.773   6.695  0.4424  0.2452 -0.6007
 4657SOL    HW125433   4.118   1.737   6.615  2.9159 -0.8355 -1.3475
 4657SOL    HW225434   4.091   1.758   6.762  0.7638  0.1486 -0.3028
 4658SOL     OW25435   1.144   2.646   4.762 -0.3359 -0.3318 -0.4930
 4658SOL    HW125436   1.119   2.664   4.853 -0.7872 -2.3386 -0.2213
 4658SOL    HW225437   1.074   2.697   4.721  1.8453  2.4142 -0.7496
 4659SOL     OW25438   1.533   3.013   2.472  0.1907 -0.2998  0.4921
 4659SOL    HW125439   1.475   3.070   2.523  0.0117  0.7461 -0.8728
 4659SOL    HW225440   1.599   3.077   2.444  2.2392 -2.1646  1.1442
 4660SOL     OW25441   3.486   2.527  13.477 -0.0796  0.0709  0.1217
 4660SOL    HW125442   3.398   2.490  13.463 -1.0751  2.5840 -0.2678
 4660SOL    HW225443   3.468   2.587  13.549  0.6354 -0.4935  0.7726
 4661SOL     OW25444   1.324   4.479   2.153 -0.3051  0.3258  0.3961
 4661SOL    HW125445   1.303   4.387   2.167  0.6874  0.0380  0.0304
 4661SOL    HW225446   1.294   4.486   2.062  1.1212  2.9657  0.1404
 4662SOL     OW25447   1.101   3.110   4.133  0.5908 -0.5614 -0.5297
 4662SOL    HW125448   1.085   3.047   4.062  1.1507 -2.8719  1.4215
 4662SOL    HW225449   1.016   3.153   4.145  0.3329 -1.2632  0.1305
 4663SOL     OW25450   3.319   2.208  15.388 -0.7289  0.2979  0.0146
 4663SOL    HW125451   3.379   2.281  15.371  0.6900 -1.2846 -1.7658
 4663SOL    HW225452   3.332   2.158  15.307 -0.1693 -0.6615  0.7035
 4664SOL     OW25453   0.400   2.727   0.324  0.8683  0.5286 -0.3314
 4664SOL    HW125454   0.400   2.650   0.380  1.9801 -0.3686 -1.5717
 4664SOL    HW225455   0.452   2.708   0.246 -0.1172 -0.9423 -0.6237
 4665SOL     OW25456   4.637   1.572  15.714  0.0178  0.7777  0.3403
 4665SOL    HW125457   4.571   1.598  15.649  0.6966 -1.2729 -1.1629
 4665SOL    HW225458   4.588   1.570  15.796  0.4765  0.7077  0.6112
 4666SOL     OW25459   1.041   4.086  14.671  1.0205 -0.4747  0.0397
 4666SOL    HW125460   1.067   4.140  14.745  1.6403 -0.8401  0.0951
 4666SOL    HW225461   1.105   4.015  14.679  0.2546 -1.3628 -1.6895
 4667SOL     OW25462   1.296   0.512   7.753  0.1471 -0.3550  0.4535
 4667SOL    HW125463   1.324   0.436   7.803 -0.4539 -0.9244 -0.0774
 4667SOL    HW225464   1.204   0.491   7.734 -0.5569 -0.4724  4.0727
 4668SOL     OW25465   1.018   3.801   3.039  0.1525  0.0591 -0.0318
 4668SOL    HW125466   1.035   3.742   2.965 -0.0573 -2.4580  1.9089
 4668SOL    HW225467   1.020   3.885   2.995  1.5055  0.2942  0.4864
 4669SOL     OW25468   1.123   0.694  12.488  0.2683  0.1687 -0.4642
 4669SOL    HW125469   1.095   0.717  12.576 -0.7565  2.7071 -1.4374
 4669SOL    HW225470   1.086   0.606  12.487  0.1398  0.2207  0.1914
 4670SOL     OW25471   1.284   3.882   2.426 -0.0113 -0.0204  0.3382
 4670SOL    HW125472   1.328   3.954   2.471 -0.5166  1.2345 -1.1800
 4670SOL    HW225473   1.276   3.824   2.501 -1.3994  3.6286  2.9728
 4671SOL     OW25474   1.105   1.723   2.219 -0.3030 -0.0766  0.4816
 4671SOL    HW125475   1.079   1.811   2.245  0.4277  0.9587 -2.2989
 4671SOL    HW225476   1.122   1.690   2.307 -1.3218 -1.4487  0.1734
 4672SOL     OW25477   4.218   1.627   4.230 -0.0589  0.3891  0.2432
 4672SOL    HW125478   4.313   1.626   4.216 -0.1038 -1.5919  0.0464
 4672SOL    HW225479   4.207   1.535   4.255  2.7330 -0.4717 -1.6587
 4673SOL     OW25480   3.663   2.699  17.188 -0.1332  0.1193  0.0920
 4673SOL    HW125481   3.594   2.745  17.141  0.4988  1.0271  0.0634
 4673SOL    HW225482   3.652   2.729  17.278 -0.7709 -0.4502  0.2076
 4674SOL     OW25483   1.342   1.240   9.335  0.3957  0.8063 -0.5208
 4674SOL    HW125484   1.316   1.181   9.265 -0.4061 -1.7076  1.9111
 4674SOL    HW225485   1.391   1.184   9.395  0.1000  1.5158  0.3903
 4675SOL     OW25486   1.453   1.768   7.955 -0.2184 -0.6867 -0.0999
 4675SOL    HW125487   1.395   1.836   7.990 -0.5348 -1.0297  0.0423
 4675SOL    HW225488   1.493   1.818   7.884 -0.3411 -1.2726 -0.5855
 4676SOL     OW25489   1.680   3.944   2.395 -0.3474  0.1339 -0.0045
 4676SOL    HW125490   1.770   3.947   2.426  0.1136  1.2609 -1.4521
 4676SOL    HW225491   1.655   3.865   2.443  1.0386 -0.9627 -1.0783
 4677SOL     OW25492   1.564   3.059  16.753 -0.6038 -0.4543 -0.3737
 4677SOL    HW125493   1.644   3.098  16.788 -1.2329  1.2789 -0.8346
 4677SOL    HW225494   1.498   3.129  16.759 -0.2454 -0.1594  0.0431
 4678SOL     OW25495   3.000   0.831   4.897 -0.0319 -0.1041  0.0824
 4678SOL    HW125496   2.945   0.873   4.831  1.2431  0.0109 -0.8959
 4678SOL    HW225497   3.018   0.895   4.966 -4.1524  1.0337  0.0872
 4679SOL     OW25498   0.745   4.165   1.199  0.0435  0.2859 -0.3768
 4679SOL    HW125499   0.798   4.089   1.224  0.9900  0.8815 -0.5686
 4679SOL    HW225500   0.666   4.129   1.161 -0.3294  1.5343 -0.7866
 4680SOL     OW25501   2.241   3.009   0.421 -0.1350 -0.2945 -0.4973
 4680SOL    HW125502   2.146   3.013   0.433 -0.0727  0.5429 -0.2992
 4680SOL    HW225503   2.245   3.033   0.329  1.7624  0.1813 -0.2771
 4681SOL     OW25504   1.050   1.773  16.119  0.3897 -0.2834  0.0686
 4681SOL    HW125505   1.091   1.689  16.139 -0.9928 -0.6542  1.3323
 4681SOL    HW225506   0.967   1.732  16.093 -0.2146  1.5683 -0.8838
 4682SOL     OW25507   2.706   4.714   9.818  0.2910 -0.1336  0.9171
 4682SOL    HW125508   2.783   4.662   9.839 -0.5959 -1.0020  2.0678
 4682SOL    HW225509   2.743   0.061   9.768  1.7487 -0.8649  0.9322
 4683SOL     OW25510   2.637   1.719   2.010 -0.0847 -0.3682  0.6292
 4683SOL    HW125511   2.694   1.642   2.014  0.9474  0.4135  0.7733
 4683SOL    HW225512   2.706   1.784   2.022 -0.7108  0.3770  0.1623
 4684SOL     OW25513   4.490   1.271   8.175  0.1957 -0.0085  0.1675
 4684SOL    HW125514   4.517   1.356   8.210 -0.1604  1.0155 -2.0587
 4684SOL    HW225515   4.420   1.243   8.234  0.1818  0.4052  0.3528
 4685SOL     OW25516   3.098   1.261   8.469 -0.0746 -0.0248  0.3799
 4685SOL    HW125517   3.169   1.221   8.419 -1.3268  0.2658 -1.6572
 4685SOL    HW225518   3.143   1.320   8.529  0.9946 -1.2521  0.7873
 4686SOL     OW25519   3.863   4.020  16.302  0.5821 -0.3012 -0.3632
 4686SOL    HW125520   3.896   3.999  16.215 -0.0606 -2.5942 -0.0394
 4686SOL    HW225521   3.808   4.098  16.295  0.4948 -0.4856 -1.6548
 4687SOL     OW25522   1.523   3.999   3.338 -0.1424  0.0621  0.5789
 4687SOL    HW125523   1.446   4.040   3.378 -1.0721  1.6835 -2.8697
 4687SOL    HW225524   1.502   3.906   3.348 -0.9556  0.1817 -0.0536
 4688SOL     OW25525   4.138   2.602   7.431  0.5001  0.2224 -0.7004
 4688SOL    HW125526   4.051   2.571   7.406  1.8310 -3.0075 -1.3493
 4688SOL    HW225527   4.136   2.691   7.395  0.5132 -0.3577 -2.1465
 4689SOL     OW25528   3.615   4.001   8.668  0.1330  0.3039 -0.3833
 4689SOL    HW125529   3.590   4.004   8.760 -0.7459 -0.1909 -0.6063
 4689SOL    HW225530   3.561   3.926   8.640  1.8188 -0.6537 -1.0536
 4690SOL     OW25531   4.682   0.645   5.005 -0.3104 -0.2536 -0.0320
 4690SOL    HW125532   0.049   0.647   5.033 -0.3679  4.7217 -0.1673
 4690SOL    HW225533   4.631   0.607   5.077 -1.6544 -1.1434 -1.4738
 4691SOL     OW25534   1.892   1.073   2.838 -0.0137 -0.0016 -0.8256
 4691SOL    HW125535   1.948   1.124   2.897 -0.3946  0.8938 -1.2527
 4691SOL    HW225536   1.943   1.093   2.760  2.5943 -0.2976  0.8078
 4692SOL     OW25537   2.517   0.829  13.418 -0.1908 -0.1240  0.2806
 4692SOL    HW125538   2.431   0.806  13.383 -0.1909  2.1426 -1.2253
 4692SOL    HW225539   2.566   0.855  13.340 -0.4145 -0.2297  0.1037
 4693SOL     OW25540   0.815   2.471   8.576  0.1126 -0.7081 -0.0518
 4693SOL    HW125541   0.747   2.426   8.526  0.4129  0.4140 -1.4903
 4693SOL    HW225542   0.891   2.434   8.531  0.5517 -1.2273  1.1204
 4694SOL     OW25543   0.371   2.427   3.843  0.4191  0.5952  0.0073
 4694SOL    HW125544   0.354   2.467   3.757  2.3658  0.1354 -0.6093
 4694SOL    HW225545   0.341   2.500   3.897  0.6336 -1.3344  2.7251
 4695SOL     OW25546   2.360   4.020   9.672 -0.3512  0.0275 -0.2657
 4695SOL    HW125547   2.385   4.023   9.765  1.5327  1.4906 -0.8264
 4695SOL    HW225548   2.445   4.003   9.631 -0.2958 -1.0977  0.3151
 4696SOL     OW25549   2.929   1.789  11.158 -0.1901 -0.1856  0.1464
 4696SOL    HW125550   2.986   1.731  11.108 -0.7274  0.4396 -1.1936
 4696SOL    HW225551   2.867   1.812  11.089 -2.2734 -2.1196  1.3220
 4697SOL     OW25552   0.129   3.764   0.655 -0.0483  0.2010  0.5365
 4697SOL    HW125553   0.091   3.844   0.690 -1.5215  0.7121 -2.2074
 4697SOL    HW225554   0.165   3.723   0.734  1.4355  1.5861  0.5791
 4698SOL     OW25555   3.432   0.849   5.647 -0.3062  0.2380 -0.0612
 4698SOL    HW125556   3.452   0.931   5.693  2.9515 -0.4956 -0.1816
 4698SOL    HW225557   3.345   0.877   5.619 -0.9224 -0.2988  1.3603
 4699SOL     OW25558   4.247   3.516   5.146 -0.1450 -0.1037 -0.2134
 4699SOL    HW125559   4.285   3.433   5.117  1.1782  0.1465  0.8114
 4699SOL    HW225560   4.172   3.484   5.196  2.0464 -0.4934  2.8381
 4700SOL     OW25561   1.094   4.339   6.270 -0.0578 -0.1892  0.2424
 4700SOL    HW125562   1.035   4.265   6.255 -0.2399 -0.1408  0.7087
 4700SOL    HW225563   1.031   4.398   6.312 -0.2305  0.1152 -0.4475
 4701SOL     OW25564   0.087   1.776   0.898  0.2990 -0.2880 -0.4664
 4701SOL    HW125565   0.156   1.734   0.949  1.2622  1.5241 -0.2586
 4701SOL    HW225566   0.108   1.866   0.924 -0.8030  0.0553 -0.7581
 4702SOL     OW25567   0.793   2.558   8.839 -0.0367 -0.1760  0.3743
 4702SOL    HW125568   0.803   2.566   8.744  1.6842 -0.3761  0.5375
 4702SOL    HW225569   0.698   2.568   8.851  0.1376  2.1925 -0.2861
 4703SOL     OW25570   0.364   4.507   0.651  0.2219  1.0239  0.4662
 4703SOL    HW125571   0.349   4.417   0.679  0.9086  0.1306 -2.0663
 4703SOL    HW225572   0.274   4.539   0.646 -0.5057 -0.7795  1.9867
 4704SOL     OW25573   3.031   3.099   0.192  0.5692 -0.3336  0.3449
 4704SOL    HW125574   2.981   3.074   0.115  0.5322 -0.7081  0.4867
 4704SOL    HW225575   3.120   3.089   0.158  0.7320 -0.8732  0.9288
 4705SOL     OW25576   1.980   0.994  16.108  0.1861 -0.2387  0.3260
 4705SOL    HW125577   1.952   0.948  16.029  1.0684 -0.5369  0.1800
 4705SOL    HW225578   2.076   0.988  16.109  0.2771  1.0350 -1.9124
 4706SOL     OW25579   3.234   1.766   2.362  0.1381 -0.0430  0.2543
 4706SOL    HW125580   3.266   1.835   2.420  0.6297 -0.4367  0.4427
 4706SOL    HW225581   3.139   1.777   2.369  0.3012  0.8916  0.9494
 4707SOL     OW25582   2.488   2.005   6.041 -0.5868  0.6549 -0.3223
 4707SOL    HW125583   2.402   2.020   6.001 -0.0152 -1.6764 -2.4051
 4707SOL    HW225584   2.553   2.053   5.989  1.4089  1.0673  2.5336
 4708SOL     OW25585   1.115   2.546   9.672 -0.4361 -0.3897  0.6232
 4708SOL    HW125586   1.100   2.546   9.578 -0.7822 -0.0038  0.6775
 4708SOL    HW225587   1.042   2.490   9.698  0.4175 -0.9945  1.7269
 4709SOL     OW25588   0.127   0.986   7.112  0.1652 -0.0999  0.4437
 4709SOL    HW125589   0.091   1.069   7.143  0.3925  0.7639 -1.6109
 4709SOL    HW225590   0.083   0.925   7.172 -0.0882  0.8483  1.2171
 4710SOL     OW25591   1.695   4.367   1.449  0.0147 -0.5014  0.0227
 4710SOL    HW125592   1.687   4.277   1.482  1.2833 -1.4691 -2.3126
 4710SOL    HW225593   1.789   4.369   1.462 -0.1268 -0.0035  0.9693
 4711SOL     OW25594   2.553   1.574   6.061 -0.3319  0.1028 -0.1683
 4711SOL    HW125595   2.572   1.491   6.018  0.2695 -0.2010  0.6778
 4711SOL    HW225596   2.460   1.583   6.042 -0.4212  0.0615  0.2622
 4712SOL     OW25597   3.108   2.339   0.944 -0.5045 -0.3003  0.1543
 4712SOL    HW125598   3.107   2.287   1.024 -1.5887  3.3624  2.5253
 4712SOL    HW225599   3.165   2.409   0.975  0.2031 -1.1472  0.7649
 4713SOL     OW25600   3.289   4.150   5.133  0.3291 -0.6019  0.1593
 4713SOL    HW125601   3.297   4.245   5.122 -2.0366 -0.6241 -1.6719
 4713SOL    HW225602   3.296   4.145   5.228  0.1922  1.1742  0.2642
 4714SOL     OW25603   2.385   2.508  14.623  0.0837 -0.1835 -0.5325
 4714SOL    HW125604   2.388   2.414  14.642  1.0163  0.3189  1.8536
 4714SOL    HW225605   2.410   2.495  14.532  0.2234 -0.0329 -0.5166
 4715SOL     OW25606   4.017   2.667   6.692 -0.0902 -0.3766  0.0121
 4715SOL    HW125607   4.101   2.683   6.736 -0.3912  0.7299  0.1906
 4715SOL    HW225608   4.055   2.649   6.606  0.2259  0.6345 -0.0626
 4716SOL     OW25609   1.856   1.937   8.353 -0.2632 -0.4361 -0.3688
 4716SOL    HW125610   1.870   1.875   8.425 -0.9433 -0.7785 -0.5275
 4716SOL    HW225611   1.944   1.975   8.347 -0.4295 -0.2678 -1.6446
 4717SOL     OW25612   3.097   0.545   8.796 -0.0198  0.2188  0.1838
 4717SOL    HW125613   3.163   0.576   8.857  0.5183 -1.5079  0.4872
 4717SOL    HW225614   3.069   0.631   8.763 -1.4613 -0.5358 -0.5932
 4718SOL     OW25615   0.858   2.055  10.137 -0.1921 -0.2096  0.0368
 4718SOL    HW125616   0.802   2.127  10.108  0.0580  0.1693  0.5153
 4718SOL    HW225617   0.927   2.111  10.172  1.8387 -2.2446 -0.6954
 4719SOL     OW25618   4.414   4.286   4.233  0.1628 -0.0477 -0.6991
 4719SOL    HW125619   4.468   4.237   4.171 -1.4043 -0.1411 -1.9721
 4719SOL    HW225620   4.457   4.371   4.225 -0.3751  0.0315 -2.6359
 4720SOL     OW25621   4.216   0.761   4.328  1.0882  0.2667  0.2326
 4720SOL    HW125622   4.245   0.783   4.416 -0.2299  3.0710 -0.0138
 4720SOL    HW225623   4.230   0.667   4.322  2.0379  0.3988  0.4465
 4721SOL     OW25624   0.002   4.275  11.578 -0.6904  0.4719  0.3688
 4721SOL    HW125625   4.690   4.336  11.515 -0.0825 -0.0811 -0.5281
 4721SOL    HW225626   0.045   4.203  11.532 -0.3637  0.0861  1.2709
 4722SOL     OW25627   0.909   3.459   5.842  0.1389  0.0085  0.5916
 4722SOL    HW125628   0.953   3.544   5.844 -1.3801  0.8684 -2.8754
 4722SOL    HW225629   0.943   3.407   5.915  1.7513 -0.2485 -0.3504
 4723SOL     OW25630   1.112   2.319   7.102 -0.0081  0.3677 -0.4458
 4723SOL    HW125631   1.156   2.244   7.063 -1.9522  0.7491 -3.4018
 4723SOL    HW225632   1.069   2.340   7.019 -0.8348 -0.6032 -0.2722
 4724SOL     OW25633   1.578   3.638  16.028 -0.3429 -0.2470  0.4116
 4724SOL    HW125634   1.503   3.657  15.971 -0.7091 -0.8775  0.6918
 4724SOL    HW225635   1.635   3.715  16.026  0.7835 -1.1298 -1.2209
 4725SOL     OW25636   0.478   2.330   8.105 -0.5046  0.2706  0.4514
 4725SOL    HW125637   0.415   2.276   8.155 -1.5905  0.0344 -1.1766
 4725SOL    HW225638   0.424   2.383   8.047  1.6316 -1.4485 -3.0700
 4726SOL     OW25639   2.966   2.564   9.162 -0.2412 -0.4108  0.4799
 4726SOL    HW125640   2.921   2.560   9.078  0.4446  3.0805 -0.0481
 4726SOL    HW225641   3.017   2.483   9.157  3.6500  2.1214 -0.7281
 4727SOL     OW25642   1.754   3.223   5.218  0.1668  0.0527 -0.2998
 4727SOL    HW125643   1.796   3.197   5.136  0.4791  0.5523 -0.2921
 4727SOL    HW225644   1.681   3.163   5.233  0.9105 -0.9949 -0.8896
 4728SOL     OW25645   1.712   1.591   8.215 -0.5961 -0.1759  0.3394
 4728SOL    HW125646   1.664   1.672   8.198 -2.0750 -0.7550  1.8225
 4728SOL    HW225647   1.705   1.553   8.128 -1.7208  2.3273 -0.6760
 4729SOL     OW25648   0.230   4.663   2.091  0.8037  0.2397  0.4068
 4729SOL    HW125649   0.176   0.017   2.098  0.9906  0.7711 -4.4909
 4729SOL    HW225650   0.180   4.626   2.019  1.1132  1.0725 -0.2291
 4730SOL     OW25651   3.872   3.186  13.057  0.1858 -0.1093  0.4137
 4730SOL    HW125652   3.942   3.212  13.118  1.4118 -0.1829 -0.9486
 4730SOL    HW225653   3.920   3.205  12.976 -0.3025  2.3466  0.7019
 4731SOL     OW25654   0.998   2.321   4.077  0.4141  0.1714 -0.0977
 4731SOL    HW125655   0.915   2.273   4.076  0.4789  0.0748 -0.6612
 4731SOL    HW225656   0.980   2.382   4.006  1.3386  1.2869  0.6191
 4732SOL     OW25657   2.895   0.640  17.567 -0.0264 -0.1218 -0.2875
 4732SOL    HW125658   2.826   0.575  17.578 -0.8495  0.5840 -1.3070
 4732SOL    HW225659   2.953   0.621  17.641  0.9564 -1.3891 -1.3693
 4733SOL     OW25660   3.133   1.557   8.365 -0.4031  0.8843 -0.3585
 4733SOL    HW125661   3.174   1.554   8.451 -0.4321 -2.0773 -0.4617
 4733SOL    HW225662   3.111   1.465   8.353 -1.8608  1.2377 -0.4556
 4734SOL     OW25663   1.747   1.162   1.081  0.2744 -0.4656  0.0421
 4734SOL    HW125664   1.757   1.253   1.051 -0.1929 -0.3032  0.3917
 4734SOL    HW225665   1.836   1.126   1.074  0.5572  0.2305  0.0818
 4735SOL     OW25666   2.332   3.961   7.093  0.5465  0.1468 -0.0163
 4735SOL    HW125667   2.364   4.050   7.080  2.9207 -0.8346 -0.8915
 4735SOL    HW225668   2.405   3.913   7.053 -0.1131 -1.1087  0.2785
 4736SOL     OW25669   2.630   0.329   0.449 -0.3114 -0.6220 -0.3607
 4736SOL    HW125670   2.650   0.323   0.543 -1.9650 -1.9604 -0.0868
 4736SOL    HW225671   2.703   0.386   0.424 -1.8245  1.9300  0.9844
 4737SOL     OW25672   0.070   0.276   7.126 -0.3530  0.3995  0.5482
 4737SOL    HW125673   0.138   0.286   7.193  0.3653  2.3824 -0.4678
 4737SOL    HW225674   0.009   0.343   7.157  1.1352  1.1613  1.8780
 4738SOL     OW25675   0.248   2.467   3.349 -0.3944 -0.2222  0.1106
 4738SOL    HW125676   0.225   2.473   3.441 -3.1504  0.6522 -0.6384
 4738SOL    HW225677   0.297   2.386   3.333  0.3010  0.1578  0.3059
 4739SOL     OW25678   4.717   4.427   6.319 -0.2101  0.1048  0.3720
 4739SOL    HW125679   4.634   4.389   6.348  0.8481 -1.5606  1.2102
 4739SOL    HW225680   4.698   4.520   6.310 -0.5244  0.2295  2.2364
 4740SOL     OW25681   2.877   4.119  11.523  0.3776  0.0697  0.4096
 4740SOL    HW125682   2.863   4.139  11.615 -0.3029 -1.1032  0.5652
 4740SOL    HW225683   2.809   4.053  11.506  0.3029  0.1541  0.3799
 4741SOL     OW25684   4.040   2.571   3.563 -0.1069 -0.0310 -0.2334
 4741SOL    HW125685   4.121   2.609   3.596  0.2659 -0.6542 -0.4390
 4741SOL    HW225686   4.061   2.478   3.566 -0.2527  0.0018  2.4736
 4742SOL     OW25687   3.822   1.438   5.452 -0.0569  0.0443 -0.1326
 4742SOL    HW125688   3.868   1.422   5.369  1.8504 -0.2529  0.9831
 4742SOL    HW225689   3.736   1.473   5.428  0.8024  1.2495 -1.4702
 4743SOL     OW25690   4.480   3.106  13.059  0.5892 -0.7035 -0.3726
 4743SOL    HW125691   4.428   3.064  13.128 -1.6567  0.7673 -1.1665
 4743SOL    HW225692   4.566   3.067  13.070  1.3381  0.5434 -1.7331
 4744SOL     OW25693   2.442   1.714   4.450 -0.2615 -0.5425 -0.3131
 4744SOL    HW125694   2.375   1.780   4.464  1.1935  0.8033  0.3276
 4744SOL    HW225695   2.524   1.764   4.446 -0.7442  0.3584  1.1517
 4745SOL     OW25696   0.453   2.042   5.564 -0.4992  0.0016  0.0558
 4745SOL    HW125697   0.435   1.979   5.634 -0.8260 -0.3570 -0.3505
 4745SOL    HW225698   0.380   2.020   5.506  1.1710 -1.6212 -1.4136
 4746SOL     OW25699   1.625   0.315  16.858 -0.2485 -0.5840  0.1607
 4746SOL    HW125700   1.689   0.384  16.838 -0.3509 -0.5499 -0.0485
 4746SOL    HW225701   1.597   0.347  16.944 -1.3803  0.9553 -0.7788
 4747SOL     OW25702   3.723   0.981   6.033 -0.0068  1.1040 -0.7447
 4747SOL    HW125703   3.658   0.913   6.019 -1.3158  1.7840  2.0753
 4747SOL    HW225704   3.709   1.041   5.960  0.0879  1.2882 -0.6099
 4748SOL     OW25705   2.909   2.946  12.456  0.0697 -0.2307  0.3025
 4748SOL    HW125706   2.815   2.965  12.450  0.0768 -1.1271 -2.5791
 4748SOL    HW225707   2.896   2.867  12.510 -1.3726 -0.1444  0.0848
 4749SOL     OW25708   0.540   1.782   7.882 -0.3924  0.0637 -0.2606
 4749SOL    HW125709   0.622   1.830   7.879 -0.8355  0.7527 -1.1764
 4749SOL    HW225710   0.476   1.853   7.882 -0.7744 -0.2807 -0.6578
 4750SOL     OW25711   4.567   1.560   3.475 -0.5731  0.1846  0.0991
 4750SOL    HW125712   4.620   1.480   3.475 -3.6138 -1.7963  3.4820
 4750SOL    HW225713   4.607   1.613   3.406  0.6855 -0.5167  0.2946
 4751SOL     OW25714   1.149   3.570  11.865  0.1525  0.3094 -0.1758
 4751SOL    HW125715   1.161   3.651  11.916  1.9058 -1.8278  2.8000
 4751SOL    HW225716   1.224   3.563  11.806  2.1433  0.4095  2.3337
 4752SOL     OW25717   1.517   1.286   0.104  0.7589  0.1552 -0.2108
 4752SOL    HW125718   1.455   1.353   0.133  1.5158  0.4052  0.8211
 4752SOL    HW225719   1.592   1.339   0.077  1.1271  0.9477  2.3619
 4753SOL     OW25720   4.439   1.204   1.116  0.2906 -0.4107  0.2324
 4753SOL    HW125721   4.363   1.260   1.133 -0.7116 -0.9186 -2.6550
 4753SOL    HW225722   4.471   1.195   1.206  0.3017 -2.4308  0.0222
 4754SOL     OW25723   3.771   3.064   4.607 -0.7931 -0.2944  0.0138
 4754SOL    HW125724   3.848   3.116   4.583 -0.8355 -0.7007 -1.0251
 4754SOL    HW225725   3.776   3.049   4.701 -0.4925  0.2413  0.0837
 4755SOL     OW25726   1.455   4.339   5.323 -0.2244  0.5521 -0.2804
 4755SOL    HW125727   1.437   4.303   5.409 -0.9560 -0.5163 -0.8796
 4755SOL    HW225728   1.533   4.292   5.291  0.9083  1.7653  0.6971
 4756SOL     OW25729   0.797   0.866  11.899 -0.1359  0.8317  0.0128
 4756SOL    HW125730   0.854   0.852  11.974 -1.9621 -0.4885  1.1695
 4756SOL    HW225731   0.807   0.795  11.835  1.2439  0.0107  1.1509
 4757SOL     OW25732   1.660   4.207   3.585  0.6918  0.4488  0.5460
 4757SOL    HW125733   1.744   4.197   3.630 -0.4159  0.0281  2.5271
 4757SOL    HW225734   1.599   4.167   3.648 -0.0162 -0.7544 -0.8808
 4758SOL     OW25735   3.125   2.831   4.111  0.3768 -0.1902  0.3791
 4758SOL    HW125736   3.123   2.755   4.169 -2.8895 -0.7738 -0.4987
 4758SOL    HW225737   3.061   2.805   4.045 -0.0012  0.4415  0.4899
 4759SOL     OW25738   0.264   1.689  16.167 -0.0613 -0.3734 -0.0779
 4759SOL    HW125739   0.211   1.741  16.106  0.0848 -0.8420 -0.5962
 4759SOL    HW225740   0.191   1.649  16.213 -0.9416  1.8297  0.4691
 4760SOL     OW25741   0.946   0.248  16.554  0.1984 -0.2660  0.1469
 4760SOL    HW125742   0.962   0.316  16.619  3.4867  0.0802 -1.0808
 4760SOL    HW225743   0.879   0.192  16.594 -1.4647  0.6478 -1.3154
 4761SOL     OW25744   4.506   1.161   5.949 -0.0893  0.4214  0.7330
 4761SOL    HW125745   4.561   1.169   6.027  0.4208  1.7315  0.2425
 4761SOL    HW225746   4.453   1.237   5.970  1.7776  1.2832  2.3136
 4762SOL     OW25747   4.397   1.868   4.991 -0.6452  0.3545 -0.5006
 4762SOL    HW125748   4.346   1.855   4.912 -0.7251  0.9382 -0.5458
 4762SOL    HW225749   4.385   1.780   5.027  0.7991  0.1451 -0.5108
 4763SOL     OW25750   2.990   0.218   1.974 -0.2175 -0.4621  0.4572
 4763SOL    HW125751   3.060   0.254   2.027 -1.3972 -0.7800  2.2165
 4763SOL    HW225752   2.987   0.128   2.008 -1.1332 -1.1453 -1.4066
 4764SOL     OW25753   2.584   0.731   3.853  0.5239 -0.2038 -0.2276
 4764SOL    HW125754   2.631   0.655   3.819  0.4499 -1.1740  1.8092
 4764SOL    HW225755   2.511   0.687   3.897  0.4464 -1.1083 -1.2637
 4765SOL     OW25756   1.957   1.051  12.709 -0.2365 -0.0161 -0.0354
 4765SOL    HW125757   2.051   1.066  12.722 -0.4128  1.0509 -0.0074
 4765SOL    HW225758   1.924   1.063  12.798  0.5453  0.4611  0.1877
 4766SOL     OW25759   1.382   0.824   5.249  0.0754  0.6985  0.2067
 4766SOL    HW125760   1.431   0.814   5.331  1.2143  1.6623 -0.3638
 4766SOL    HW225761   1.325   0.899   5.266 -1.7179 -0.7583  0.6568
 4767SOL     OW25762   2.782   0.385   1.899  0.0732  0.2422  0.0874
 4767SOL    HW125763   2.855   0.326   1.914 -0.1211 -0.1268 -0.4503
 4767SOL    HW225764   2.807   0.455   1.960 -1.0947 -1.4562  2.5181
 4768SOL     OW25765   3.552   1.786   6.910  0.1955 -0.1836 -0.1067
 4768SOL    HW125766   3.461   1.755   6.915  1.0496 -2.4982  0.9326
 4768SOL    HW225767   3.554   1.875   6.877 -1.4532  0.0746  0.5018
 4769SOL     OW25768   3.545   2.032   5.233 -0.1690  0.3028  0.0383
 4769SOL    HW125769   3.500   2.080   5.302  0.7106  2.2388 -0.7166
 4769SOL    HW225770   3.479   1.964   5.225 -0.1933  0.2171  1.0313
 4770SOL     OW25771   1.870   0.895   3.896 -0.4513 -0.1640  0.1500
 4770SOL    HW125772   1.788   0.845   3.901 -0.7415  0.1733 -1.1456
 4770SOL    HW225773   1.900   0.877   3.807 -2.3130 -1.4251 -0.2240
 4771SOL     OW25774   0.878   4.026   3.452  0.6730  0.9729  0.3208
 4771SOL    HW125775   0.839   3.939   3.445  1.1811  0.8031 -0.3876
 4771SOL    HW225776   0.836   4.071   3.526 -1.7074 -1.7977  0.6345
 4772SOL     OW25777   2.498   0.360   0.085  0.0125  0.1659  0.0953
 4772SOL    HW125778   2.469   0.307   0.159  1.7898 -2.7481 -1.3058
 4772SOL    HW225779   2.493   0.298   0.012 -1.5427 -0.3954  0.6794
 4773SOL     OW25780   1.835   1.372   1.699  0.1381 -0.4400  0.1061
 4773SOL    HW125781   1.848   1.404   1.610  1.1067 -1.4597 -0.1132
 4773SOL    HW225782   1.914   1.321   1.716  0.4596 -0.2901 -0.9325
 4774SOL     OW25783   1.309   2.704   9.768 -0.3055  0.4685 -0.2219
 4774SOL    HW125784   1.363   2.650   9.826 -0.2501  0.9257  0.1609
 4774SOL    HW225785   1.248   2.643   9.727  1.7538 -0.4106 -1.9665
 4775SOL     OW25786   0.407   1.010  16.804 -0.1590 -0.1333  0.1198
 4775SOL    HW125787   0.498   0.996  16.778 -0.7011 -4.1631  0.3239
 4775SOL    HW225788   0.405   1.105  16.807 -0.5491 -0.1229 -0.4161
 4776SOL     OW25789   4.374   0.786   6.397  0.0213  0.0100 -0.0612
 4776SOL    HW125790   4.282   0.789   6.425  0.5441 -0.8186  1.7292
 4776SOL    HW225791   4.405   0.718   6.456 -0.4223  0.6006  0.8449
 4777SOL     OW25792   1.157   2.983  11.833 -0.2517  0.3879 -0.5155
 4777SOL    HW125793   1.080   3.028  11.868 -0.3407  2.3950 -3.3177
 4777SOL    HW225794   1.127   2.993  11.743  2.1897 -0.7347 -1.4843
 4778SOL     OW25795   1.197   4.607  16.136 -0.8784  0.1574  0.1332
 4778SOL    HW125796   1.292   4.601  16.130 -0.8934  0.4748 -0.3969
 4778SOL    HW225797   1.164   4.518  16.120 -0.4386 -0.0946  0.6165
 4779SOL     OW25798   3.065   3.167  15.497 -0.1132  0.0748  0.6386
 4779SOL    HW125799   3.082   3.261  15.504  1.3203 -0.1433 -0.0238
 4779SOL    HW225800   2.996   3.163  15.564 -1.5017 -0.0164 -0.8068
 4780SOL     OW25801   2.032   3.894  16.705  0.4685 -0.9683 -0.0068
 4780SOL    HW125802   1.988   3.813  16.681 -1.2820 -0.5142  1.5971
 4780SOL    HW225803   2.117   3.864  16.738  0.7148  0.9208  1.0964
 4781SOL     OW25804   0.054   2.650   2.358 -0.2730  0.5011  0.0417
 4781SOL    HW125805   0.010   2.706   2.421  0.5463  0.1869  0.9015
 4781SOL    HW225806   4.720   2.669   2.286  0.0829  1.1458 -0.0813
 4782SOL     OW25807   0.026   3.716  16.313  0.0900 -0.0513  0.0009
 4782SOL    HW125808   0.031   3.800  16.358 -1.0466 -0.8520  1.6138
 4782SOL    HW225809   0.027   3.655  16.386  0.0322 -0.0459  0.0058
 4783SOL     OW25810   2.308   4.185   7.839 -0.0360 -0.2385  0.3947
 4783SOL    HW125811   2.215   4.167   7.850  0.2282 -1.1162  1.1491
 4783SOL    HW225812   2.335   4.216   7.926 -1.4380 -0.0198  0.7458
 4784SOL     OW25813   3.596   3.380  13.641 -0.1160  0.6794 -0.3274
 4784SOL    HW125814   3.578   3.291  13.671  0.0554  1.0353  0.8067
 4784SOL    HW225815   3.522   3.429  13.677  0.4013  2.3980 -1.5556
 4785SOL     OW25816   0.967   4.219   4.007 -0.0851 -0.7784  0.1034
 4785SOL    HW125817   0.976   4.305   4.050 -2.7635 -1.2963  1.6634
 4785SOL    HW225818   1.061   4.209   3.991  0.1217  0.7371  0.3184
 4786SOL     OW25819   1.546   0.240   1.992 -0.1251 -0.1584 -0.6495
 4786SOL    HW125820   1.480   0.172   2.007  2.2709 -2.4740 -0.4598
 4786SOL    HW225821   1.626   0.187   1.982  0.3113 -0.0414  2.0864
 4787SOL     OW25822   2.748   2.932  15.507 -0.4536 -0.3674  0.2275
 4787SOL    HW125823   2.763   3.019  15.542  0.8152  0.3097 -1.9874
 4787SOL    HW225824   2.656   2.929  15.481 -0.2107 -1.5834 -0.5167
 4788SOL     OW25825   1.242   4.144  12.954 -0.1748 -0.3207  0.8272
 4788SOL    HW125826   1.188   4.131  12.876 -1.7284 -0.0137  1.8501
 4788SOL    HW225827   1.311   4.082  12.931 -0.3909 -0.0577 -0.5031
 4789SOL     OW25828   3.559   2.309   3.452 -0.1464  0.2636 -0.7508
 4789SOL    HW125829   3.637   2.286   3.503 -1.3398 -1.0252  0.4838
 4789SOL    HW225830   3.559   2.226   3.404  2.3463 -0.2483  0.1336
 4790SOL     OW25831   2.139   4.401   6.187  0.1820  0.1524 -0.1121
 4790SOL    HW125832   2.071   4.466   6.206  1.0547  1.5013 -1.6509
 4790SOL    HW225833   2.088   4.326   6.156  1.5062 -1.7289  2.2683
 4791SOL     OW25834   1.806   3.254   6.173  0.5359  0.1406 -0.0883
 4791SOL    HW125835   1.745   3.324   6.196 -0.2573 -0.5489 -0.0884
 4791SOL    HW225836   1.810   3.246   6.078  0.2204 -2.2318  0.0774
 4792SOL     OW25837   0.107   3.235   3.133 -0.0711  0.4709  0.2190
 4792SOL    HW125838   0.052   3.212   3.058  0.4689 -0.8444  0.2272
 4792SOL    HW225839   0.078   3.163   3.189 -0.6997  0.3628 -0.2428
 4793SOL     OW25840   4.619   3.452   6.872  0.2432 -0.4205  0.1366
 4793SOL    HW125841   4.709   3.456   6.906 -1.5467  0.8561  4.7223
 4793SOL    HW225842   4.647   3.428   6.784  2.4052 -1.7138  1.1694
 4794SOL     OW25843   2.210   0.397   5.189  0.1898 -0.1950 -0.5519
 4794SOL    HW125844   2.290   0.351   5.163 -0.8463 -2.0968 -0.3333
 4794SOL    HW225845   2.160   0.333   5.239 -1.6251 -0.2190 -2.4139
 4795SOL     OW25846   2.825   3.268   8.447  0.2865 -0.2228  0.3696
 4795SOL    HW125847   2.794   3.303   8.363  1.8076  1.0598  0.3422
 4795SOL    HW225848   2.913   3.240   8.424  1.0042  0.9854  1.6956
 4796SOL     OW25849   2.893   4.654   9.513  0.2154 -0.4181 -0.1589
 4796SOL    HW125850   2.898   4.713   9.437 -0.6334 -0.8000 -0.5084
 4796SOL    HW225851   2.871   4.721   9.577  2.1794  0.0552  0.0348
 4797SOL     OW25852   2.304   3.615   3.204 -0.0509  0.4872  0.5661
 4797SOL    HW125853   2.367   3.601   3.275 -0.1064 -0.0394  0.5110
 4797SOL    HW225854   2.224   3.584   3.244  2.2874 -2.6382  2.7354
 4798SOL     OW25855   2.957   4.447  16.494 -0.5140  0.2108 -0.5479
 4798SOL    HW125856   2.957   4.493  16.410  1.8816  0.3217 -0.4735
 4798SOL    HW225857   2.918   4.364  16.465  0.0424 -0.4125  0.4888
 4799SOL     OW25858   1.111   1.644   1.050 -0.6774 -0.2680  0.7865
 4799SOL    HW125859   1.067   1.662   0.967 -0.8607  0.6552  1.0823
 4799SOL    HW225860   1.198   1.630   1.013 -1.1539  1.0561 -0.8310
 4800SOL     OW25861   1.707   3.139  11.328 -0.1015  0.1511  0.0456
 4800SOL    HW125862   1.697   3.064  11.270 -2.0552 -0.3403  1.0000
 4800SOL    HW225863   1.761   3.184  11.263  0.1213  0.7603  0.6386
 4801SOL     OW25864   4.484   3.251  11.235  0.7379 -0.4496  0.4514
 4801SOL    HW125865   4.534   3.176  11.204  1.3616  0.1523 -0.0329
 4801SOL    HW225866   4.496   3.250  11.330  0.4352  0.8722  0.5020
 4802SOL     OW25867   0.516   1.748   5.711 -0.0293 -0.2958 -0.2348
 4802SOL    HW125868   0.421   1.761   5.709 -0.0150 -0.2341 -0.4459
 4802SOL    HW225869   0.535   1.678   5.649 -3.6851 -1.0883 -0.4595
 4803SOL     OW25870   4.481   4.208   8.949  0.3630  0.2843 -0.3525
 4803SOL    HW125871   4.465   4.238   9.038  1.2449 -0.8242  0.1817
 4803SOL    HW225872   4.574   4.225   8.936  0.5554 -0.6542 -0.2202
 4804SOL     OW25873   2.399   0.524  16.995  0.6478  0.4163 -0.5881
 4804SOL    HW125874   2.381   0.553  17.085 -0.5200  1.2048 -1.0734
 4804SOL    HW225875   2.349   0.444  17.009  0.0287  0.7205 -1.0506
 4805SOL     OW25876   1.996   0.010   7.327  0.2711 -0.9287 -0.4280
 4805SOL    HW125877   1.963   4.671   7.265  0.2690 -0.5990 -0.7660
 4805SOL    HW225878   1.922   0.069   7.313  0.8525  0.0914  0.7911
 4806SOL     OW25879   2.587   3.470   8.165 -0.1684 -0.4779 -0.7558
 4806SOL    HW125880   2.610   3.404   8.099  1.3579 -3.0107  2.2780
 4806SOL    HW225881   2.668   3.483   8.215 -0.8562  0.6105  0.0453
 4807SOL     OW25882   0.190   3.800  13.550 -0.2682 -0.6935  0.2611
 4807SOL    HW125883   0.232   3.799  13.465  2.3095 -0.0903  1.5301
 4807SOL    HW225884   0.253   3.859  13.592  0.5016  0.8988 -3.1320
 4808SOL     OW25885   1.257   0.215   0.823  0.2503  0.6350  0.3773
 4808SOL    HW125886   1.240   0.270   0.900  0.7164  1.0470  0.1886
 4808SOL    HW225887   1.207   0.139   0.851  2.0442 -1.4537 -2.1017
 4809SOL     OW25888   1.925   1.868   3.683 -0.3284 -0.3336  0.0812
 4809SOL    HW125889   1.959   1.885   3.595 -1.3694 -1.3961 -0.5209
 4809SOL    HW225890   1.867   1.798   3.653 -0.6301  0.0607 -0.2507
 4810SOL     OW25891   3.259   0.414   6.779 -0.3821  0.0193  0.1716
 4810SOL    HW125892   3.342   0.388   6.738 -0.0029  1.5883 -0.0521
 4810SOL    HW225893   3.239   0.334   6.828  0.4584 -0.0529  0.3954
 4811SOL     OW25894   2.811   3.318   4.023  0.0043 -0.4597  0.3916
 4811SOL    HW125895   2.764   3.245   4.065 -0.3726  0.4813  1.5919
 4811SOL    HW225896   2.903   3.292   4.020 -0.0205 -0.3450 -1.3458
 4812SOL     OW25897   3.863   0.243   8.239  0.3079  0.4152 -0.4587
 4812SOL    HW125898   3.953   0.235   8.208 -0.3333 -3.4944 -1.2906
 4812SOL    HW225899   3.819   0.202   8.164 -1.5782 -2.0900  1.9913
 4813SOL     OW25900   4.416   3.065   4.344  0.3984 -0.4046  0.1250
 4813SOL    HW125901   4.361   3.101   4.274 -2.1870 -1.3713  1.6421
 4813SOL    HW225902   4.386   2.974   4.348 -0.2992 -0.1460  0.8037
 4814SOL     OW25903   0.754   3.465   8.695  0.0432 -0.1692 -0.2453
 4814SOL    HW125904   0.679   3.502   8.742 -0.6199 -1.5253 -0.2395
 4814SOL    HW225905   0.824   3.515   8.738  0.5255 -0.6617 -0.4623
 4815SOL     OW25906   3.585   4.335   7.942  0.0531 -0.0377  0.6954
 4815SOL    HW125907   3.509   4.285   7.971  0.0776  0.5128  1.6789
 4815SOL    HW225908   3.546   4.421   7.933  2.2519  0.8758 -0.2618
 4816SOL     OW25909   2.481   1.111   3.512 -0.1043  0.6372  0.1884
 4816SOL    HW125910   2.505   1.081   3.600  0.3210  0.2021 -0.0798
 4816SOL    HW225911   2.392   1.076   3.510  0.4831 -0.8562  0.5891
 4817SOL     OW25912   1.384   0.112   6.698  0.0182 -0.3045  0.0132
 4817SOL    HW125913   1.452   0.180   6.699  0.6214 -0.9123 -0.4505
 4817SOL    HW225914   1.306   0.162   6.725  0.7963  0.4548  0.8439
 4818SOL     OW25915   3.004   2.019   8.189  0.4327  0.5809 -0.5417
 4818SOL    HW125916   2.916   2.014   8.150  0.6573 -0.6861 -0.9112
 4818SOL    HW225917   3.066   2.026   8.116  2.3704  0.2387  1.0844
 4819SOL     OW25918   3.885   4.589   7.843 -0.4848 -1.0297 -0.0462
 4819SOL    HW125919   3.922   4.529   7.907  0.0719 -0.3081  0.3104
 4819SOL    HW225920   3.847   4.519   7.789 -1.4634  0.5941 -1.4753
 4820SOL     OW25921   2.816   3.428   6.101 -0.4195 -1.0142 -0.4107
 4820SOL    HW125922   2.865   3.510   6.108 -1.7854 -0.3765  1.7814
 4820SOL    HW225923   2.735   3.461   6.061 -1.2807  0.0372  2.1135
 4821SOL     OW25924   4.431   0.663   5.821  0.0690  0.3890 -0.5203
 4821SOL    HW125925   4.354   0.648   5.875  0.5852  1.1283  0.4094
 4821SOL    HW225926   4.463   0.747   5.853  1.6517 -0.3028 -0.2939
 4822SOL     OW25927   2.375   1.637   3.261 -0.3794  0.2769 -0.1609
 4822SOL    HW125928   2.442   1.607   3.200  1.8590  1.2026  1.8038
 4822SOL    HW225929   2.392   1.583   3.338 -0.0122  0.0165 -0.4242
 4823SOL     OW25930   1.907   0.252  13.978  0.2488 -0.2147  0.2649
 4823SOL    HW125931   1.970   0.296  14.034 -0.9208  2.1223 -0.2670
 4823SOL    HW225932   1.969   0.217  13.913 -0.0566 -2.1980  1.0277
 4824SOL     OW25933   0.360   4.171   3.664 -0.2893  0.6807  0.3378
 4824SOL    HW125934   0.420   4.098   3.679 -0.7106  0.1540 -0.5018
 4824SOL    HW225935   0.415   4.247   3.645 -0.5730  0.5476 -1.0181
 4825SOL     OW25936   3.331   2.220   8.067 -0.6346  0.1393 -0.2194
 4825SOL    HW125937   3.348   2.142   8.119 -2.5403  1.2596  2.0351
 4825SOL    HW225938   3.386   2.208   7.989 -2.4035 -3.1932 -0.9384
 4826SOL     OW25939   1.924   0.581  17.251 -0.7387 -0.3550 -0.0731
 4826SOL    HW125940   1.916   0.626  17.167 -1.0417 -0.3358 -0.0319
 4826SOL    HW225941   1.834   0.590  17.282 -0.6284 -1.8454  0.6810
 4827SOL     OW25942   3.186   4.128  15.796  0.1147 -0.5992  0.1327
 4827SOL    HW125943   3.161   4.104  15.885 -0.7161 -2.4277 -0.5965
 4827SOL    HW225944   3.270   4.083  15.793  0.3990 -0.1513  1.2422
 4828SOL     OW25945   3.514   2.544   2.579 -0.3315  0.4768 -0.4183
 4828SOL    HW125946   3.589   2.567   2.634 -0.1802 -3.2799  0.9291
 4828SOL    HW225947   3.505   2.452   2.600 -0.0674 -0.1583 -3.0931
 4829SOL     OW25948   1.817   3.274  11.115 -0.1875 -0.1390  0.0284
 4829SOL    HW125949   1.813   3.365  11.088  2.4882  0.1186  0.4722
 4829SOL    HW225950   1.840   3.221  11.039 -0.9892  1.5333 -1.3429
 4830SOL     OW25951   2.311   1.067   0.096 -0.0127 -0.2608  0.5303
 4830SOL    HW125952   2.288   1.074   0.188 -2.0799 -0.1815  0.0027
 4830SOL    HW225953   2.273   1.147   0.059  0.5684 -0.7582 -1.1318
 4831SOL     OW25954   2.755   1.662   4.085  0.4616  0.0151 -1.3055
 4831SOL    HW125955   2.686   1.708   4.133  1.6522  2.4651 -1.9052
 4831SOL    HW225956   2.706   1.593   4.041 -0.5089  0.0698 -0.3118
 4832SOL     OW25957   0.049   3.730   8.037 -0.1899 -0.2363  0.2156
 4832SOL    HW125958   0.107   3.710   7.963  1.0449  1.3609  0.7657
 4832SOL    HW225959   0.108   3.761   8.105 -1.1763  3.4768 -0.5895
 4833SOL     OW25960   4.055   1.440  13.054 -0.3061  0.0855 -0.0012
 4833SOL    HW125961   4.003   1.413  12.978  1.4302 -2.1889 -0.4161
 4833SOL    HW225962   4.015   1.517  13.093  4.4437  4.0711 -2.8924
 4834SOL     OW25963   0.566   2.676  10.143 -0.1336  0.3958  0.0957
 4834SOL    HW125964   0.589   2.586  10.164 -1.8243 -0.2100 -0.5762
 4834SOL    HW225965   0.544   2.702  10.232 -0.4943 -1.7360  0.6113
 4835SOL     OW25966   0.370   2.235  15.101 -0.0911  0.3504  0.5263
 4835SOL    HW125967   0.387   2.302  15.035  0.7278  0.0793  0.4622
 4835SOL    HW225968   0.347   2.296  15.171  2.4877  0.6587  1.0898
 4836SOL     OW25969   4.327   4.000  11.337 -0.2728  0.2758  0.1928
 4836SOL    HW125970   4.309   4.085  11.377  0.4085 -1.5700  4.4256
 4836SOL    HW225971   4.282   4.007  11.253 -1.2452 -0.8718  0.6207
 4837SOL     OW25972   2.924   0.036   8.472  0.1003 -0.3482 -0.0573
 4837SOL    HW125973   2.924   0.047   8.377  0.8820 -1.3743 -0.1803
 4837SOL    HW225974   2.963   4.673   8.479  1.6652  0.2633 -0.9906
 4838SOL     OW25975   2.741   3.692   6.342 -0.1239 -0.4928  0.2654
 4838SOL    HW125976   2.690   3.651   6.412  0.8605 -3.0755 -0.5426
 4838SOL    HW225977   2.730   3.783   6.372  0.6029 -0.7104  1.2188
 4839SOL     OW25978   2.606   0.303   8.566  0.0104 -0.1072  0.7452
 4839SOL    HW125979   2.512   0.305   8.586 -0.1364  2.1619 -0.1002
 4839SOL    HW225980   2.643   0.230   8.614 -0.4047  0.1020  1.3747
 4840SOL     OW25981   0.031   4.725  11.277  0.2918  0.7831  0.7674
 4840SOL    HW125982   0.050   0.010  11.184  0.1747 -1.7418  0.4534
 4840SOL    HW225983   0.117   4.701  11.311  0.6570 -0.1434 -0.8099
 4841SOL     OW25984   0.912   1.218  10.946 -0.4739 -0.7126 -0.5883
 4841SOL    HW125985   0.909   1.207  10.851 -0.0258  0.4311 -0.7372
 4841SOL    HW225986   1.005   1.198  10.959 -0.3098  0.8384  0.6165
 4842SOL     OW25987   0.733   0.040   0.872 -0.0306 -0.3097 -1.0022
 4842SOL    HW125988   0.708   0.068   0.960 -0.0697  0.6818 -1.3286
 4842SOL    HW225989   0.646   0.023   0.838 -0.4503  0.8441 -0.5226
 4843SOL     OW25990   3.755   4.295  15.672 -0.3605  0.4927 -0.0722
 4843SOL    HW125991   3.694   4.365  15.653 -0.6451  0.7082  1.6645
 4843SOL    HW225992   3.732   4.228  15.607 -1.2669  1.2284 -0.5028
 4844SOL     OW25993   1.462   3.462   5.496  0.0711 -0.2393 -0.1572
 4844SOL    HW125994   1.540   3.423   5.536  1.5980  1.8728 -1.0328
 4844SOL    HW225995   1.491   3.503   5.414  0.5426  0.9682  0.6094
 4845SOL     OW25996   0.926   1.515   1.410 -0.2728  0.2943 -0.6572
 4845SOL    HW125997   0.984   1.452   1.454 -0.1632  1.5262  0.9526
 4845SOL    HW225998   0.921   1.577   1.483  2.3055 -0.4243  0.1469
 4846SOL     OW25999   1.155   4.377   5.204  0.3288  0.4399  0.7308
 4846SOL    HW126000   1.129   4.395   5.295 -1.4695  0.1420  0.2677
 4846SOL    HW226001   1.090   4.312   5.176  1.1537  0.2875 -0.7981
 4847SOL     OW26002   0.172   2.424   8.550 -0.0750  0.0446  0.3187
 4847SOL    HW126003   0.229   2.463   8.618  0.7277 -0.3515 -0.1259
 4847SOL    HW226004   0.098   2.485   8.557 -0.4808 -0.6509  2.0394
 4848SOL     OW26005   4.267   2.073   8.824 -0.4672 -0.7394  0.2378
 4848SOL    HW126006   4.254   2.060   8.918  1.4328  1.1750  0.7614
 4848SOL    HW226007   4.358   2.102   8.825 -0.2942 -1.2182 -1.6856
 4849SOL     OW26008   2.261   3.060   2.886 -0.1875  0.6308 -0.2999
 4849SOL    HW126009   2.262   2.977   2.933  2.5200  0.6326 -0.3348
 4849SOL    HW226010   2.295   3.118   2.954  2.0680  0.4543 -1.2658
 4850SOL     OW26011   0.994   2.802   8.303  0.3991 -0.3840 -0.6302
 4850SOL    HW126012   0.961   2.743   8.236 -0.4596  0.9671 -1.3941
 4850SOL    HW226013   1.079   2.762   8.324  0.9407  0.7193 -0.7639
 4851SOL     OW26014   2.535   0.337   3.950  0.0021  0.1927 -0.3585
 4851SOL    HW126015   2.494   0.414   3.989  0.8779  0.4807 -0.0026
 4851SOL    HW226016   2.605   0.323   4.014 -0.5195  0.3574  0.2409
 4852SOL     OW26017   1.660   3.678   8.107 -0.3860  0.5438  0.6096
 4852SOL    HW126018   1.748   3.647   8.087 -0.4353  0.1200  1.0293
 4852SOL    HW226019   1.624   3.615   8.170  1.4676 -0.9852  0.1424
 4853SOL     OW26020   0.710   0.847   6.084  0.6705 -0.7850  0.2879
 4853SOL    HW126021   0.760   0.859   6.165  0.5930 -0.2793  0.2650
 4853SOL    HW226022   0.745   0.765   6.051  2.9155 -0.3032  1.4219
 4854SOL     OW26023   3.429   3.581   3.118  0.3184  0.7013 -0.1679
 4854SOL    HW126024   3.388   3.539   3.043  0.3328 -0.1501  0.3002
 4854SOL    HW226025   3.372   3.658   3.126  1.3926  1.8642 -3.8353
 4855SOL     OW26026   2.475   2.968  10.594  0.0780  0.0904 -0.0957
 4855SOL    HW126027   2.464   2.954  10.500  3.7916 -1.2681 -0.3284
 4855SOL    HW226028   2.559   2.923  10.604 -1.2810 -2.5132 -0.4454
 4856SOL     OW26029   0.368   3.799  14.035 -0.1966  0.4299  0.2071
 4856SOL    HW126030   0.384   3.757  14.120 -1.6312  0.4423  0.4923
 4856SOL    HW226031   0.304   3.738  13.998  1.1373 -1.0612  0.3581
 4857SOL     OW26032   3.314   2.582   9.009  0.2521 -0.1310  0.5037
 4857SOL    HW126033   3.394   2.551   9.052  0.9458 -0.0304 -0.7177
 4857SOL    HW226034   3.261   2.505   9.028  1.1224 -1.4220 -2.3082
 4858SOL     OW26035   3.123   3.136  12.395 -0.4572 -0.7647  0.2088
 4858SOL    HW126036   3.107   3.205  12.332  3.0116 -1.0123 -0.9337
 4858SOL    HW226037   3.041   3.085  12.395 -0.9890  0.0754  1.7908
 4859SOL     OW26038   4.013   1.245   0.481  0.0329 -0.0923 -0.2773
 4859SOL    HW126039   4.025   1.223   0.388  0.9067 -1.5003  0.1570
 4859SOL    HW226040   3.931   1.293   0.480  0.9982  1.5381 -1.5596
 4860SOL     OW26041   2.867   2.599  11.435  0.7923 -0.2398  0.1152
 4860SOL    HW126042   2.844   2.689  11.415 -2.5324 -0.9972  0.4832
 4860SOL    HW226043   2.821   2.581  11.517 -0.0394  0.5643 -0.1726
 4861SOL     OW26044   2.367   1.277  12.483 -0.4410 -0.3353  0.1203
 4861SOL    HW126045   2.380   1.188  12.514  1.6432  0.2945  1.0401
 4861SOL    HW226046   2.374   1.277  12.388 -1.4111  3.0955  0.0217
 4862SOL     OW26047   3.016   4.460   3.579 -0.3217  0.3952  0.4961
 4862SOL    HW126048   3.062   4.486   3.659 -0.1375 -1.1854  0.9025
 4862SOL    HW226049   3.050   4.372   3.565 -1.1923  0.0701  0.4562
 4863SOL     OW26050   4.099   2.709  10.103  0.2489  0.1463 -0.5154
 4863SOL    HW126051   4.092   2.645  10.175 -1.4995  0.1861 -0.6520
 4863SOL    HW226052   4.104   2.793  10.148 -1.0701 -0.4952  0.8552
 4864SOL     OW26053   2.247   0.586  17.243  0.0793 -0.1601 -0.0258
 4864SOL    HW126054   2.162   0.566  17.205  0.4041 -1.8074  0.0844
 4864SOL    HW226055   2.239   0.530  17.321 -0.4754  0.5060  0.3966
 4865SOL     OW26056   4.094   0.478   7.147  0.6116  0.2823  0.8202
 4865SOL    HW126057   4.137   0.562   7.162  0.1588  0.2777  2.1082
 4865SOL    HW226058   4.004   0.509   7.150  0.0914 -1.0530 -0.9649
 4866SOL     OW26059   3.030   2.278   6.215  1.0788 -0.0427  0.3843
 4866SOL    HW126060   3.105   2.218   6.217  0.5528 -0.6885  0.3518
 4866SOL    HW226061   2.996   2.263   6.303 -1.2432 -0.8650 -0.6505
 4867SOL     OW26062   0.714   3.831   2.034  0.1831  0.5628 -0.7596
 4867SOL    HW126063   0.657   3.768   2.078  0.9198 -0.0048 -0.6187
 4867SOL    HW226064   0.776   3.775   1.988 -0.8222 -1.9453  0.9554
 4868SOL     OW26065   3.300   4.102   7.748 -0.1712  0.3506  0.0947
 4868SOL    HW126066   3.229   4.164   7.759 -0.2878  0.1564  0.4433
 4868SOL    HW226067   3.347   4.118   7.830  0.7299 -2.9202  0.2512
 4869SOL     OW26068   3.292   0.079   2.382  0.8254 -0.0846  0.4621
 4869SOL    HW126069   3.239   0.003   2.357  1.4340 -0.8548  1.5105
 4869SOL    HW226070   3.332   0.103   2.298  0.1037 -0.7373 -0.0729
 4870SOL     OW26071   1.906   2.023  16.711  0.2052  0.1744 -0.6272
 4870SOL    HW126072   1.924   2.045  16.619 -0.5214  0.3505 -0.7320
 4870SOL    HW226073   1.819   1.982  16.710  0.9291 -1.3996 -0.1301
 4871SOL     OW26074   0.793   2.089   4.396  0.4167  0.0256 -0.1083
 4871SOL    HW126075   0.861   2.021   4.403 -1.6831 -2.3724 -2.7692
 4871SOL    HW226076   0.845   2.168   4.405 -0.5263  0.4859  1.2166
 4872SOL     OW26077   0.560   2.941  15.757  0.3860 -0.5255 -0.0126
 4872SOL    HW126078   0.564   2.872  15.823 -0.4534 -0.1334  0.4512
 4872SOL    HW226079   0.483   2.918  15.705 -0.9781  3.1833  0.3314
 4873SOL     OW26080   0.600   1.802   4.047 -0.3274 -0.2171  0.2792
 4873SOL    HW126081   0.592   1.750   4.127 -1.3869  0.6445  0.7367
 4873SOL    HW226082   0.647   1.878   4.078  0.0350 -0.4095  0.2022
 4874SOL     OW26083   4.444   2.356   5.465 -0.0555 -0.0463 -0.6567
 4874SOL    HW126084   4.426   2.450   5.458 -0.2036  0.0522  0.9412
 4874SOL    HW226085   4.539   2.368   5.463 -0.0520 -0.1938 -1.3672
 4875SOL     OW26086   2.129   3.236  10.799  0.1332 -0.2556 -0.0342
 4875SOL    HW126087   2.173   3.233  10.884 -0.5841  0.8122  0.3827
 4875SOL    HW226088   2.194   3.177  10.760 -1.4640 -1.8263 -0.3383
 4876SOL     OW26089   4.013   4.442   2.898 -0.1694 -0.1842 -0.0527
 4876SOL    HW126090   4.082   4.467   2.960  1.8521 -2.7595 -1.2275
 4876SOL    HW226091   3.956   4.519   2.893 -1.2010 -1.0542 -1.4581
 4877SOL     OW26092   1.871   4.647  10.227 -0.0258  0.4738 -0.7599
 4877SOL    HW126093   1.829   0.002  10.195 -0.1514  0.7192  0.0332
 4877SOL    HW226094   1.792   4.611  10.266 -1.2215  2.1483 -1.6364
 4878SOL     OW26095   3.945   2.593   1.305  0.6459 -0.2824  0.0164
 4878SOL    HW126096   3.960   2.640   1.223 -1.5489 -2.0432 -1.3928
 4878SOL    HW226097   4.017   2.530   1.298  0.6929 -0.0563 -1.6757
 4879SOL     OW26098   1.635   0.383   2.748 -0.0703  0.5704  0.2083
 4879SOL    HW126099   1.578   0.351   2.678  1.0702 -0.2397 -0.3347
 4879SOL    HW226100   1.698   0.425   2.689  0.7523 -2.2738 -0.9162
 4880SOL     OW26101   1.869   1.280   5.689 -0.2684 -0.3935  0.1918
 4880SOL    HW126102   1.922   1.303   5.612 -2.9429  1.5076 -1.0744
 4880SOL    HW226103   1.787   1.316   5.656 -0.4847  1.6586  2.9837
 4881SOL     OW26104   4.367   3.839   4.175  0.0890 -0.1392 -0.1590
 4881SOL    HW126105   4.451   3.793   4.175  0.2150  0.1007  0.3955
 4881SOL    HW226106   4.350   3.833   4.081 -0.1938  2.4450 -0.2659
 4882SOL     OW26107   4.001   1.016   8.162 -0.5667 -0.3821 -0.1716
 4882SOL    HW126108   4.064   0.952   8.131 -0.6592 -0.9315  0.7735
 4882SOL    HW226109   3.933   0.963   8.203 -0.7984 -1.1984 -1.6181
 4883SOL     OW26110   1.589   4.259   3.906 -0.2652 -0.5593  0.6407
 4883SOL    HW126111   1.588   4.212   3.990  1.6693 -4.1759 -1.3951
 4883SOL    HW226112   1.666   4.316   3.907 -2.5191  2.5168  0.2324
 4884SOL     OW26113   3.028   1.243   1.572  0.3718  0.1837 -0.5125
 4884SOL    HW126114   2.972   1.284   1.639  1.1723 -1.9488  1.4510
 4884SOL    HW226115   3.027   1.150   1.594 -1.2025  0.1539 -0.6783
 4885SOL     OW26116   3.235   0.539   4.282  0.0434  0.2525 -0.6192
 4885SOL    HW126117   3.145   0.567   4.264 -0.6845  0.6814  3.6366
 4885SOL    HW226118   3.262   0.596   4.355  0.8637 -0.1978 -0.5708
 4886SOL     OW26119   2.039   3.206   8.029 -0.0358 -0.4313  0.1309
 4886SOL    HW126120   2.030   3.300   8.010  1.0114 -0.4394 -0.3942
 4886SOL    HW226121   2.114   3.185   7.974  0.3876 -0.4582  0.7136
 4887SOL     OW26122   0.824   0.499  10.180 -0.2840  0.3192  0.1959
 4887SOL    HW126123   0.807   0.437  10.108  2.6857  0.0929 -0.2956
 4887SOL    HW226124   0.919   0.504  10.192 -0.2625 -3.7951  1.9107
 4888SOL     OW26125   2.431   0.118  12.723  0.2440 -0.1411 -0.3775
 4888SOL    HW126126   2.418   0.134  12.816  2.7718  1.0139 -0.2264
 4888SOL    HW226127   2.364   0.053  12.703 -1.4489  1.9168 -1.4504
 4889SOL     OW26128   1.077   0.504   0.468 -0.0192  0.6519 -0.0146
 4889SOL    HW126129   1.070   0.534   0.558 -2.2212  1.9927 -0.6392
 4889SOL    HW226130   1.160   0.456   0.460 -1.0244 -1.4245  2.1876
 4890SOL     OW26131   4.254   3.058  12.074 -0.7232  0.2378 -0.4108
 4890SOL    HW126132   4.331   3.115  12.085 -0.0673 -0.8150  0.3847
 4890SOL    HW226133   4.294   3.005  12.005  0.1786  1.1620 -0.6042
 4891SOL     OW26134   0.905   3.110  10.514  0.5491  0.7492 -0.5682
 4891SOL    HW126135   0.812   3.094  10.532  1.3741 -4.4188 -0.7704
 4891SOL    HW226136   0.941   3.155  10.590 -0.2407  0.0571  0.2186
 4892SOL     OW26137   3.333   0.992   6.284 -0.1133  0.4088 -0.2974
 4892SOL    HW126138   3.397   0.948   6.228  0.9870  2.3774 -0.5786
 4892SOL    HW226139   3.391   1.016   6.356 -0.6401  0.9662 -0.0629
 4893SOL     OW26140   0.746   1.336   8.417 -0.3021  0.2872  0.1939
 4893SOL    HW126141   0.691   1.414   8.432  0.6371  0.6775  1.6531
 4893SOL    HW226142   0.676   1.283   8.380  1.4594 -2.1831  0.4434
 4894SOL     OW26143   0.514   4.202   8.724 -0.3108  0.0515  0.1395
 4894SOL    HW126144   0.463   4.137   8.678  0.9452 -1.5675  1.0173
 4894SOL    HW226145   0.598   4.156   8.716 -0.0683  0.7754 -1.4176
 4895SOL     OW26146   2.493   3.461   4.110  0.2530 -0.1017 -0.6230
 4895SOL    HW126147   2.542   3.510   4.044 -1.4755 -2.8105 -3.9541
 4895SOL    HW226148   2.564   3.433   4.168  0.2744 -0.2121 -0.7021
 4896SOL     OW26149   3.713   4.667  15.083  0.4554 -0.0371 -0.0504
 4896SOL    HW126150   3.689   4.575  15.074  1.4588 -0.4799  1.7235
 4896SOL    HW226151   3.664   4.704  15.010 -0.1165  0.2976  0.5052
 4897SOL     OW26152   2.644   0.905   6.227  0.0719  0.2762  0.4330
 4897SOL    HW126153   2.694   0.889   6.147  0.7755 -0.2095  0.9726
 4897SOL    HW226154   2.690   0.982   6.261  0.8434 -0.2940  0.6762
 4898SOL     OW26155   4.162   4.610   7.218  0.5189 -0.2962 -0.3386
 4898SOL    HW126156   4.138   4.663   7.141  3.3079 -1.4236 -1.9856
 4898SOL    HW226157   4.093   4.642   7.276  0.4523  3.0325 -2.2672
 4899SOL     OW26158   1.240   4.206  16.943 -0.0936  0.3402  0.5598
 4899SOL    HW126159   1.225   4.137  16.878 -1.6276  0.8994  0.3168
 4899SOL    HW226160   1.285   4.270  16.888 -0.7743 -1.6590 -2.3610
 4900SOL     OW26161   3.828   2.507   6.444  0.1033 -0.3209  0.4171
 4900SOL    HW126162   3.829   2.591   6.489 -1.6530  0.9623 -1.9840
 4900SOL    HW226163   3.760   2.525   6.380 -0.9962 -3.6678  0.6178
 4901SOL     OW26164   3.538   2.226   2.336  0.4606  0.3573 -0.3609
 4901SOL    HW126165   3.618   2.221   2.283  1.5160  0.3657  1.2206
 4901SOL    HW226166   3.572   2.223   2.426  1.5890  1.7498 -0.7296
 4902SOL     OW26167   2.941   3.312  17.667 -0.5562  0.3293  0.5623
 4902SOL    HW126168   2.850   3.317  17.696 -1.0334  1.7103 -1.1378
 4902SOL    HW226169   2.932   3.219  17.644 -0.1900  0.5988 -0.7043
 4903SOL     OW26170   3.411   3.506   6.839 -0.6016  0.2052 -0.8006
 4903SOL    HW126171   3.394   3.547   6.923  1.1078  0.3248 -0.5136
 4903SOL    HW226172   3.451   3.585   6.803  1.0949 -1.2981 -2.2155
 4904SOL     OW26173   0.414   3.552   8.033 -0.1947 -0.3843 -0.6600
 4904SOL    HW126174   0.500   3.556   7.990 -0.1749  0.9989 -0.4948
 4904SOL    HW226175   0.431   3.518   8.121  2.5223 -0.9143 -1.3814
 4905SOL     OW26176   1.310   4.014   1.993 -0.0939  0.3745 -0.0076
 4905SOL    HW126177   1.349   3.998   1.908 -1.5364  0.1388 -0.6247
 4905SOL    HW226178   1.314   3.926   2.030  0.7602  0.2403 -0.4133
 4906SOL     OW26179   3.251   4.563  13.012 -0.3176 -0.1726  0.5904
 4906SOL    HW126180   3.324   4.553  12.950  0.5467  1.7881  1.2887
 4906SOL    HW226181   3.283   4.620  13.082 -0.6378  0.8979 -0.1318
 4907SOL     OW26182   3.973   0.361  11.660 -0.2560 -0.9777 -0.2850
 4907SOL    HW126183   3.971   0.350  11.565 -0.1856 -1.7375 -0.1974
 4907SOL    HW226184   3.912   0.297  11.697  0.0850 -0.9333  0.3667
 4908SOL     OW26185   0.872   0.419   1.798  0.0672  0.1289  0.1066
 4908SOL    HW126186   0.905   0.348   1.742  1.3835 -1.0518  2.3585
 4908SOL    HW226187   0.951   0.408   1.851  0.5802  0.1433 -0.6628
 4909SOL     OW26188   0.015   2.384   0.478 -0.0644 -0.1438 -0.0833
 4909SOL    HW126189   4.715   2.469   0.440 -1.6625  0.0037  1.2773
 4909SOL    HW226190   0.012   2.329   0.399 -0.8986  1.2256 -1.0137
 4910SOL     OW26191   4.159   0.641   3.826  0.4674  0.4903 -0.4768
 4910SOL    HW126192   4.125   0.552   3.821 -1.1969  1.1071  0.2262
 4910SOL    HW226193   4.101   0.694   3.771 -0.8523 -0.0550  0.4185
 4911SOL     OW26194   1.454   1.974   3.508 -0.1191 -0.2846 -0.2653
 4911SOL    HW126195   1.536   1.958   3.556 -0.3024 -1.4377 -0.3202
 4911SOL    HW226196   1.388   1.949   3.574  0.5388  0.2898  0.6118
 4912SOL     OW26197   4.236   1.414   2.931 -0.0841 -0.2686  0.0427
 4912SOL    HW126198   4.210   1.328   2.900 -0.9592  0.3090 -0.8199
 4912SOL    HW226199   4.239   1.457   2.846  0.7111 -2.4068 -1.0081
 4913SOL     OW26200   0.139   4.190   6.446  0.7136  0.3539  0.4281
 4913SOL    HW126201   0.135   4.275   6.401 -0.8649 -1.1970 -2.3980
 4913SOL    HW226202   0.223   4.158   6.415  0.6042  0.8429 -0.3773
 4914SOL     OW26203   2.829   2.019   8.402  0.4462 -0.1364  0.0156
 4914SOL    HW126204   2.896   1.950   8.405  1.1826  0.6473  1.8593
 4914SOL    HW226205   2.761   1.977   8.349  1.3511  1.0169 -2.0593
 4915SOL     OW26206   1.972   2.113   3.878  0.0932 -0.9849 -0.3090
 4915SOL    HW126207   1.978   2.060   3.798  2.5955 -1.5706  0.2967
 4915SOL    HW226208   2.009   2.053   3.942  3.4690 -0.2100 -1.5519
 4916SOL     OW26209   3.222   3.466  16.984  0.1230  0.2725 -0.6353
 4916SOL    HW126210   3.171   3.454  16.904  3.0781  1.1707 -2.6522
 4916SOL    HW226211   3.173   3.432  17.059  0.4933  0.2305 -0.4093
 4917SOL     OW26212   0.052   2.009   8.837  0.6418 -0.3531 -0.4205
 4917SOL    HW126213   0.097   2.032   8.755 -0.3094  1.4901 -0.4288
 4917SOL    HW226214   0.044   1.914   8.829 -0.6502 -0.1166 -2.0544
 4918SOL     OW26215   4.223   3.182   4.206  0.4277 -0.4076 -0.3022
 4918SOL    HW126216   4.227   3.278   4.203  0.6346 -0.3920  0.6705
 4918SOL    HW226217   4.173   3.161   4.285 -0.1272 -0.9507 -0.8004
 4919SOL     OW26218   2.796   3.360  13.370  0.4425 -0.1159  0.3509
 4919SOL    HW126219   2.719   3.348  13.315  1.8267 -0.7661 -1.4442
 4919SOL    HW226220   2.766   3.329  13.455 -1.3031 -1.1510 -0.6480
 4920SOL     OW26221   3.809   2.817   3.504  0.0100  0.0187 -0.1306
 4920SOL    HW126222   3.799   2.723   3.490 -1.3042 -0.1869  2.1975
 4920SOL    HW226223   3.891   2.840   3.461  1.1749 -0.3236  1.9229
 4921SOL     OW26224   0.859   2.450   7.483  0.6962 -0.1186  0.0307
 4921SOL    HW126225   0.927   2.458   7.416 -0.7962  1.1407 -1.3499
 4921SOL    HW226226   0.874   2.533   7.528 -1.1097 -0.9966  2.2513
 4922SOL     OW26227   0.599   2.790   9.716 -0.3262  0.2631  0.2375
 4922SOL    HW126228   0.597   2.886   9.721  0.7364  0.3025 -0.2476
 4922SOL    HW226229   0.524   2.764   9.769 -1.4465  4.1182  0.5596
 4923SOL     OW26230   1.314   4.129   6.166  0.3617  0.7043  0.7564
 4923SOL    HW126231   1.248   4.197   6.181  0.4072  0.6239  1.3142
 4923SOL    HW226232   1.306   4.077   6.246 -0.1494 -0.3835 -0.0136
 4924SOL     OW26233   3.173   0.902   4.114 -0.4552 -0.3888 -0.3613
 4924SOL    HW126234   3.081   0.930   4.112 -1.3385 -3.2143  0.0941
 4924SOL    HW226235   3.172   0.815   4.073  0.6704 -1.0366  0.9978
 4925SOL     OW26236   3.222   3.873  16.759 -0.3875  0.5182 -0.4395
 4925SOL    HW126237   3.268   3.910  16.834 -0.7016 -2.1819  1.0789
 4925SOL    HW226238   3.220   3.778  16.772 -0.2793  0.2184 -2.5991
 4926SOL     OW26239   2.934   0.895  15.444  0.3119 -0.4988  0.6346
 4926SOL    HW126240   2.983   0.947  15.381 -1.9203  0.2235 -0.5231
 4926SOL    HW226241   2.974   0.810  15.425 -1.6316 -0.9684 -1.4060
 4927SOL     OW26242   3.289   3.147   9.086 -0.2706 -0.3562  0.2882
 4927SOL    HW126243   3.349   3.201   9.137  0.9097 -1.4210  0.0047
 4927SOL    HW226244   3.206   3.158   9.133  0.1103  0.2380  0.8179
 4928SOL     OW26245   0.033   3.013   1.614  0.3488  0.6642 -0.7304
 4928SOL    HW126246   0.031   2.923   1.583  2.8386  0.0607  0.8346
 4928SOL    HW226247   4.675   3.016   1.662 -0.5234 -1.0375 -2.1077
 4929SOL     OW26248   1.512   1.388   0.600  0.7276 -0.5093 -0.3542
 4929SOL    HW126249   1.579   1.423   0.542  1.4472 -1.8336 -0.3247
 4929SOL    HW226250   1.456   1.465   0.614  0.4038 -0.5702 -1.3328
 4930SOL     OW26251   2.377   2.512   8.131  0.2962  0.5376  0.2958
 4930SOL    HW126252   2.402   2.604   8.119  0.9419  0.2899 -0.2059
 4930SOL    HW226253   2.445   2.473   8.077 -1.0643  1.7936 -2.3373
 4931SOL     OW26254   4.287   3.822   3.911  0.0969  0.2221 -0.2691
 4931SOL    HW126255   4.208   3.770   3.922 -0.1076  0.4566 -0.6349
 4931SOL    HW226256   4.307   3.799   3.821  2.1089 -1.2892  0.5567
 4932SOL     OW26257   4.304   0.126   7.796  0.0077 -0.2272 -0.4540
 4932SOL    HW126258   4.313   0.080   7.713  0.3554 -1.5083  0.2834
 4932SOL    HW226259   4.370   0.190   7.771 -0.1331 -0.0907 -0.4755
 4933SOL     OW26260   2.691   2.155   3.999 -0.0280 -0.4415 -0.2271
 4933SOL    HW126261   2.633   2.094   3.954 -1.8790  1.2984 -0.2080
 4933SOL    HW226262   2.683   2.233   3.945 -2.3376 -3.0495 -3.6323
 4934SOL     OW26263   3.078   2.363   4.541 -0.3778 -0.1699  0.5190
 4934SOL    HW126264   3.139   2.298   4.507 -0.6239 -0.2112  0.1530
 4934SOL    HW226265   3.133   2.429   4.583 -1.6444  1.8179 -0.9101
 4935SOL     OW26266   1.876   2.631   7.433 -0.0840 -0.4510 -0.0078
 4935SOL    HW126267   1.833   2.547   7.415  0.6886 -0.8486 -0.0433
 4935SOL    HW226268   1.858   2.652   7.525 -2.1280 -1.1350 -0.2550
 4936SOL     OW26269   4.224   1.432   6.864  0.2138  0.0938  0.3816
 4936SOL    HW126270   4.259   1.500   6.806 -2.1878 -0.1873 -1.3954
 4936SOL    HW226271   4.142   1.412   6.818 -0.1278  2.3405 -0.0181
 4937SOL     OW26272   0.337   3.684   9.787  0.4638  0.9190  0.1321
 4937SOL    HW126273   0.420   3.637   9.783 -1.6948 -2.7534 -0.8003
 4937SOL    HW226274   0.285   3.605   9.777  0.5603  0.9684 -0.8157
 4938SOL     OW26275   4.225   2.008   6.071 -0.1147  0.0189  0.3544
 4938SOL    HW126276   4.293   2.070   6.047  1.4507 -2.2581 -1.1082
 4938SOL    HW226277   4.199   2.035   6.159 -1.0014  0.1372  0.0516
 4939SOL     OW26278   4.525   1.056   6.586  0.7585  0.4844 -0.2241
 4939SOL    HW126279   4.536   1.150   6.600  5.2982  0.0474 -0.7360
 4939SOL    HW226280   4.489   1.043   6.499 -2.6450  0.2087  1.2281
 4940SOL     OW26281   1.598   4.230   3.206  0.2479  0.2350  0.1470
 4940SOL    HW126282   1.681   4.202   3.245 -0.2170  0.2359  1.1388
 4940SOL    HW226283   1.543   4.153   3.219 -0.2231  0.7046  0.9736
 4941SOL     OW26284   4.353   0.645  13.979  0.9773 -0.2918 -0.2350
 4941SOL    HW126285   4.395   0.707  13.919  1.9767 -1.4376 -0.7183
 4941SOL    HW226286   4.263   0.676  13.991  0.3367 -1.7615 -1.2710
 4942SOL     OW26287   3.925   4.559   5.521  0.0362  0.0963 -0.2659
 4942SOL    HW126288   3.995   4.564   5.455 -0.8384  0.9173 -1.1272
 4942SOL    HW226289   3.948   4.623   5.588  1.4923  0.0832 -0.7573
 4943SOL     OW26290   2.967   3.653   6.189 -0.2566  0.2868 -0.0467
 4943SOL    HW126291   2.888   3.657   6.243 -1.3077 -1.4198 -1.4744
 4943SOL    HW226292   3.028   3.702   6.245  2.5812 -4.4346  1.0838
 4944SOL     OW26293   4.452   1.638   9.266 -0.0693 -0.2559 -0.1581
 4944SOL    HW126294   4.423   1.546   9.264 -0.4086 -0.1658  0.5113
 4944SOL    HW226295   4.463   1.652   9.172 -4.3144 -1.4623 -0.8735
 4945SOL     OW26296   4.605   3.893   7.043  0.3484 -0.4291  0.3968
 4945SOL    HW126297   4.681   3.949   7.059  0.9779 -1.6776  1.8424
 4945SOL    HW226298   4.528   3.943   7.070  0.6225  0.2451 -0.0985
 4946SOL     OW26299   1.341   2.818   2.650 -0.0163 -0.0404  0.3102
 4946SOL    HW126300   1.290   2.859   2.580 -0.7654 -1.1661  0.1914
 4946SOL    HW226301   1.295   2.734   2.656  0.9027 -0.4222  1.8992
 4947SOL     OW26302   1.385   1.985   4.789  0.4675 -0.0637  0.2529
 4947SOL    HW126303   1.309   1.986   4.730  0.5171  1.4692  0.2118
 4947SOL    HW226304   1.409   1.892   4.787 -2.0912 -0.7522  0.6088
 4948SOL     OW26305   4.266   3.776   6.744  0.1050  0.5398 -0.2772
 4948SOL    HW126306   4.255   3.867   6.770 -0.0996  0.6323 -0.7018
 4948SOL    HW226307   4.287   3.741   6.831 -1.6965 -1.8711 -0.7956
 4949SOL     OW26308   3.892   2.985   6.636  0.0968  0.7380 -0.0769
 4949SOL    HW126309   3.971   2.939   6.663  0.7102  1.7073 -0.2527
 4949SOL    HW226310   3.934   3.064   6.602  3.4541 -0.9059  0.3106
 4950SOL     OW26311   0.484   2.355  10.193 -0.2985  0.8683 -0.9100
 4950SOL    HW126312   0.398   2.395  10.205 -0.1375  0.3057  2.1825
 4950SOL    HW226313   0.484   2.284  10.258 -1.8706  0.6476 -1.1572
 4951SOL     OW26314   4.340   0.359  13.360 -0.1778  0.1669 -0.4238
 4951SOL    HW126315   4.407   0.388  13.299 -0.0065  2.8766  1.0271
 4951SOL    HW226316   4.268   0.394  13.307 -0.6033  0.2061  0.1721
 4952SOL     OW26317   0.930   1.653   3.833  0.5565  0.2646  0.1190
 4952SOL    HW126318   0.932   1.748   3.843 -1.9923  0.4830 -1.4369
 4952SOL    HW226319   0.837   1.640   3.814  1.1014 -3.2487 -0.1934
 4953SOL     OW26320   4.681   0.304  13.471 -0.3204 -0.2546 -0.1138
 4953SOL    HW126321   0.032   0.295  13.528 -0.0691  1.6439 -0.1285
 4953SOL    HW226322   4.617   0.357  13.518  0.6045 -2.6567  3.8080
 4954SOL     OW26323   0.156   1.890  10.431  0.0184 -0.0296 -0.3097
 4954SOL    HW126324   0.212   1.962  10.402 -0.2572  0.5019  0.4780
 4954SOL    HW226325   0.069   1.928  10.443 -0.8638 -2.2080  0.1124
 4955SOL     OW26326   1.112   4.389   8.571  0.2381  0.2967  0.3021
 4955SOL    HW126327   1.125   4.460   8.633 -3.9518  1.1165  0.2525
 4955SOL    HW226328   1.097   4.310   8.623  0.2438 -1.3458 -2.1726
 4956SOL     OW26329   1.411   2.082   8.967  0.1058  0.5479 -0.1731
 4956SOL    HW126330   1.358   2.013   8.929 -0.6810  0.2558  1.4684
 4956SOL    HW226331   1.472   2.034   9.023  0.4735  2.4521  1.0593
 4957SOL     OW26332   0.746   0.861   7.213 -0.6188 -0.0854 -0.1299
 4957SOL    HW126333   0.681   0.929   7.201  1.3266  1.3321 -2.5791
 4957SOL    HW226334   0.738   0.810   7.133 -2.5251  0.7997 -0.4920
 4958SOL     OW26335   3.900   3.500   9.435 -0.3146  0.1095 -0.2071
 4958SOL    HW126336   3.966   3.454   9.487 -2.1422 -1.0265  1.0949
 4958SOL    HW226337   3.820   3.463   9.473 -1.0008  1.9397  0.1165
 4959SOL     OW26338   3.784   2.226   3.542 -0.4286  0.4805 -0.0664
 4959SOL    HW126339   3.875   2.254   3.553  0.1836 -0.4501 -2.9083
 4959SOL    HW226340   3.780   2.142   3.588 -1.5174  0.1651 -0.7491
 4960SOL     OW26341   2.093   1.280  14.191  0.2248 -0.3428 -0.3089
 4960SOL    HW126342   2.037   1.334  14.248  0.9663  1.4837 -1.3145
 4960SOL    HW226343   2.161   1.263  14.256 -1.4254 -0.2843  1.4338
 4961SOL     OW26344   1.367   1.728   0.902 -0.3724  0.1625 -0.3536
 4961SOL    HW126345   1.372   1.633   0.911  0.5181  0.2104 -0.3661
 4961SOL    HW226346   1.455   1.756   0.926  0.1028 -1.0678 -0.6606
 4962SOL     OW26347   0.878   3.335  10.932 -0.1466  0.2949  0.3435
 4962SOL    HW126348   0.792   3.304  10.903 -0.5302  0.9931  0.7136
 4962SOL    HW226349   0.859   3.345  11.025 -0.5425 -2.2450  0.5115
 4963SOL     OW26350   2.632   0.140   7.985  0.4406 -0.3157 -0.1435
 4963SOL    HW126351   2.575   0.190   8.044  1.9253 -2.0239  2.7345
 4963SOL    HW226352   2.615   0.182   7.900 -0.5578  0.6149  0.5115
 4964SOL     OW26353   2.588   3.404   4.452 -0.1698 -0.5584 -0.2703
 4964SOL    HW126354   2.652   3.396   4.381 -0.5116  0.0400 -0.6500
 4964SOL    HW226355   2.609   3.330   4.509  2.7499  1.2040  0.9175
 4965SOL     OW26356   0.435   4.685   1.395  0.2355  0.0696  0.6649
 4965SOL    HW126357   0.380   0.019   1.344 -1.2659 -0.0536  2.0945
 4965SOL    HW226358   0.505   4.658   1.336  0.5594  0.5203  0.8418
 4966SOL     OW26359   2.537   3.859   1.947  0.4266  0.1077  0.5974
 4966SOL    HW126360   2.566   3.945   1.976  0.5370  0.4201 -0.4316
 4966SOL    HW226361   2.529   3.805   2.026  0.7349  1.1381  1.3307
 4967SOL     OW26362   2.198   0.495   9.616 -0.1531  0.2028  0.2171
 4967SOL    HW126363   2.197   0.591   9.617 -0.4588  0.1954  0.6162
 4967SOL    HW226364   2.280   0.476   9.662 -0.0781  0.9513  0.3861
 4968SOL     OW26365   4.487   2.944   4.660 -0.1616  0.0101 -0.2576
 4968SOL    HW126366   4.520   2.855   4.651  0.0552  0.1811 -1.1927
 4968SOL    HW226367   4.394   2.929   4.642 -0.3764  0.8031  0.1626
 4969SOL     OW26368   3.167   2.049  11.468 -0.0972 -0.1718 -0.0920
 4969SOL    HW126369   3.252   2.055  11.511  0.0765  0.7918 -0.5897
 4969SOL    HW226370   3.137   2.139  11.478 -0.9798 -0.8548  3.6581
 4970SOL     OW26371   1.993   3.103   0.416 -0.1564  0.6352 -0.1447
 4970SOL    HW126372   1.906   3.085   0.380 -0.3839 -1.5732  1.4631
 4970SOL    HW226373   2.035   3.146   0.341  2.2733  1.3065  1.6490
 4971SOL     OW26374   0.150   0.065   8.333  0.1571  1.2579  0.3334
 4971SOL    HW126375   0.143   4.695   8.343  1.9920  1.0383 -0.6034
 4971SOL    HW226376   0.149   0.068   8.238 -2.8916 -0.2459  0.3203
 4972SOL     OW26377   3.711   2.120   9.277  0.1548  0.5288  0.6545
 4972SOL    HW126378   3.800   2.145   9.302  1.1451 -0.4198 -1.9182
 4972SOL    HW226379   3.731   2.037   9.233  1.0947  0.6294  0.8890
 4973SOL     OW26380   0.235   0.121   6.552  0.0955  0.2474  0.3092
 4973SOL    HW126381   0.191   0.132   6.636  2.5607  0.2817  1.5937
 4973SOL    HW226382   0.286   0.047   6.586  0.3951  0.2915 -0.0509
 4974SOL     OW26383   2.578   4.596   5.875  0.5708  0.7130 -0.4473
 4974SOL    HW126384   2.541   4.627   5.792  1.2692 -1.0819 -1.4420
 4974SOL    HW226385   2.666   4.632   5.877  0.3733  1.1405  0.3770
 4975SOL     OW26386   4.632   3.613   6.419 -0.1034  0.1038  0.0440
 4975SOL    HW126387   4.701   3.554   6.449  1.6854  1.9823 -0.3888
 4975SOL    HW226388   4.617   3.663   6.500 -0.3982  0.7589 -0.4198
 4976SOL     OW26389   3.788   0.091  10.124 -0.7821  0.4258  0.0572
 4976SOL    HW126390   3.794   4.721  10.123 -0.0067  0.4569  2.1063
 4976SOL    HW226391   3.826   0.110  10.210 -2.0547  0.1883  0.6642
 4977SOL     OW26392   1.631   3.403   6.395 -0.0245 -0.2604 -0.0275
 4977SOL    HW126393   1.661   3.368   6.478  0.5752  0.4076  0.0358
 4977SOL    HW226394   1.710   3.448   6.365  0.1773 -0.7371 -0.2100
 4978SOL     OW26395   3.134   1.924  12.032  0.4096 -0.1890  0.7293
 4978SOL    HW126396   3.131   1.973  11.950  1.5084 -1.2608  0.0539
 4978SOL    HW226397   3.057   1.963  12.072  0.7205  0.0235  1.1260
 4979SOL     OW26398   2.064   1.244  16.215 -0.0265 -0.0452 -0.2837
 4979SOL    HW126399   2.059   1.148  16.214  0.2799 -0.1039  2.9851
 4979SOL    HW226400   2.109   1.260  16.298 -0.4519  2.2136 -0.5053
 4980SOL     OW26401   4.331   1.203  16.842  0.8480 -0.1384  0.2190
 4980SOL    HW126402   4.351   1.278  16.898 -1.1706  0.5179  0.0534
 4980SOL    HW226403   4.339   1.246  16.757 -1.0379 -0.5569 -0.1534
 4981SOL     OW26404   4.016   4.548  14.316 -0.4737 -0.5237 -0.5046
 4981SOL    HW126405   4.011   4.614  14.385 -1.6401 -2.0496  0.8497
 4981SOL    HW226406   3.938   4.564  14.263 -0.0477  0.0004 -0.9854
 4982SOL     OW26407   4.213   2.910   7.062 -0.0371 -0.1401 -0.2837
 4982SOL    HW126408   4.150   2.981   7.049  0.5478  0.6493  1.2102
 4982SOL    HW226409   4.185   2.860   7.139 -1.6557  0.6356 -0.3695
 4983SOL     OW26410   3.965   0.887   7.783  0.0639 -0.0418  0.0322
 4983SOL    HW126411   4.016   0.932   7.715 -0.0150  3.1619  2.0942
 4983SOL    HW226412   3.964   0.966   7.837 -1.8947  0.2944 -0.5153
 4984SOL     OW26413   4.132   1.346   5.141 -0.3077 -0.9867  0.5762
 4984SOL    HW126414   4.205   1.307   5.190  1.2070  0.9359 -0.1546
 4984SOL    HW226415   4.081   1.271   5.112 -0.3362 -0.9020  0.4066
 4985SOL     OW26416   3.440   2.187  12.517  0.3987 -0.2588 -0.1715
 4985SOL    HW126417   3.437   2.218  12.607  0.5208 -0.4314 -0.1077
 4985SOL    HW226418   3.486   2.262  12.480 -0.4194 -0.8521 -2.3751
 4986SOL     OW26419   2.559   2.742   6.388  0.0970 -0.3271  0.2998
 4986SOL    HW126420   2.606   2.690   6.322 -2.1790  0.0604 -1.6417
 4986SOL    HW226421   2.604   2.690   6.454 -0.3506  1.4836  2.0095
 4987SOL     OW26422   3.862   2.024  10.376 -0.0827  0.3002 -0.2358
 4987SOL    HW126423   3.917   1.946  10.369  0.9862  1.1496 -1.3975
 4987SOL    HW226424   3.874   2.063  10.289  0.2710 -0.3162 -0.4631
 4988SOL     OW26425   0.476   3.086   2.600  0.9996 -0.2337 -0.0136
 4988SOL    HW126426   0.439   3.022   2.539 -0.5197  1.2972 -0.6805
 4988SOL    HW226427   0.546   3.120   2.544  1.0848  1.8801  1.3778
 4989SOL     OW26428   0.616   2.040  13.329 -0.3259 -0.1556  0.1492
 4989SOL    HW126429   0.592   2.047  13.421 -0.3402  2.7852 -0.0823
 4989SOL    HW226430   0.706   2.074  13.333  0.0760 -1.1852 -0.1706
 4990SOL     OW26431   1.517   0.975   1.849 -0.2169  0.0539  0.3511
 4990SOL    HW126432   1.506   1.004   1.939 -0.9193  0.4222  0.1482
 4990SOL    HW226433   1.571   1.046   1.813 -0.5613  0.6497  1.0108
 4991SOL     OW26434   0.818   0.557   6.553  0.6261 -0.7146  0.0710
 4991SOL    HW126435   0.800   0.492   6.485 -0.4682  2.2574 -2.4840
 4991SOL    HW226436   0.795   0.510   6.634  1.1370 -1.0852 -0.0015
 4992SOL     OW26437   4.692   4.339  15.639  0.3778  0.5975 -0.5186
 4992SOL    HW126438   0.031   4.394  15.594  1.7380 -1.6679 -1.2996
 4992SOL    HW226439   4.608   4.376  15.610  0.7312  1.9927  0.2316
 4993SOL     OW26440   1.493   1.204   3.643  0.9570 -0.2800 -0.1096
 4993SOL    HW126441   1.418   1.193   3.585  0.8498  0.3275 -0.0808
 4993SOL    HW226442   1.520   1.115   3.669 -0.6458 -1.0516 -1.0709
 4994SOL     OW26443   3.653   0.996  14.596  0.0071 -0.7805 -0.1324
 4994SOL    HW126444   3.585   1.018  14.532 -0.3795 -1.6648 -0.0179
 4994SOL    HW226445   3.606   0.932  14.649 -0.7366  1.1086  1.4946
 4995SOL     OW26446   2.865   1.727   7.317 -0.0374 -0.2118  0.2742
 4995SOL    HW126447   2.814   1.649   7.294 -0.1966 -0.3288  1.0231
 4995SOL    HW226448   2.794   1.773   7.362 -0.3588  1.1397 -1.6497
 4996SOL     OW26449   0.093   2.604   6.864 -0.0506 -0.0438 -0.0592
 4996SOL    HW126450   0.159   2.673   6.857  0.4673 -0.6643 -1.2219
 4996SOL    HW226451   0.116   2.603   6.957  1.0108 -1.3713 -0.3508
 4997SOL     OW26452   4.354   1.382   3.530  0.1122 -0.2407  0.7496
 4997SOL    HW126453   4.378   1.299   3.490 -0.6368 -0.8812  1.6351
 4997SOL    HW226454   4.422   1.442   3.499 -1.9076  1.4737 -0.4040
 4998SOL     OW26455   0.914   3.011   5.351  0.0638  0.1754  0.1655
 4998SOL    HW126456   0.985   3.021   5.287 -1.5460  1.0183 -1.4843
 4998SOL    HW226457   0.955   2.951   5.414  1.1911  0.5737 -0.1791
 4999SOL     OW26458   0.576   1.806   4.614 -0.3803 -0.1573  0.9910
 4999SOL    HW126459   0.582   1.735   4.678  2.9129  0.3614  1.2723
 4999SOL    HW226460   0.645   1.866   4.644 -0.6767 -0.6311  2.6239
 5000SOL     OW26461   4.710   3.142   5.120  0.1854 -0.1812 -0.4342
 5000SOL    HW126462   4.703   3.188   5.203 -0.7481 -2.8817  0.9801
 5000SOL    HW226463   4.617   3.147   5.100  0.0057 -1.4632  0.0591
 5001SOL     OW26464   3.674   2.197   5.573  0.4279  0.2727  0.1323
 5001SOL    HW126465   3.692   2.235   5.487  2.3450  0.1486  0.4812
 5001SOL    HW226466   3.702   2.268   5.631  0.2426 -0.4903  1.1560
 5002SOL     OW26467   1.525   3.932  13.983  0.1906 -0.6690  0.0738
 5002SOL    HW126468   1.450   3.906  13.929  0.9633 -0.1527 -1.2383
 5002SOL    HW226469   1.481   3.975  14.057  0.3546  0.0421 -0.2484
 5003SOL     OW26470   3.169   2.212   7.364 -0.5775  0.0475  0.3101
 5003SOL    HW126471   3.160   2.252   7.278 -1.6903  1.4588  1.0900
 5003SOL    HW226472   3.100   2.147   7.348 -0.1332 -0.5256  0.7252
 5004SOL     OW26473   1.875   3.520   1.119 -0.4482 -0.3452 -0.4476
 5004SOL    HW126474   1.869   3.441   1.174 -1.8768  0.0022 -0.1174
 5004SOL    HW226475   1.782   3.540   1.116 -0.1585  0.8409 -1.3273
 5005SOL     OW26476   2.097   2.094  15.451  0.0427  0.1704  0.0543
 5005SOL    HW126477   2.015   2.138  15.476 -1.8751 -2.3673 -1.6780
 5005SOL    HW226478   2.148   2.121  15.527  0.0896  0.4801 -0.0854
 5006SOL     OW26479   1.348   1.114   2.501  0.9881  0.3389 -0.3304
 5006SOL    HW126480   1.273   1.134   2.445  0.0625  1.6779  1.3507
 5006SOL    HW226481   1.333   1.188   2.560 -2.3563 -0.0950 -0.6257
 5007SOL     OW26482   2.479   2.417  13.283  0.0733  0.5872 -0.2411
 5007SOL    HW126483   2.386   2.434  13.273 -0.2422  0.0527  1.7970
 5007SOL    HW226484   2.496   2.440  13.374 -1.7659  0.9960 -0.0027
 5008SOL     OW26485   0.689   0.269   3.476 -0.0916 -0.4106 -0.0841
 5008SOL    HW126486   0.614   0.274   3.534 -0.5952  0.4204 -0.8112
 5008SOL    HW226487   0.756   0.327   3.512  0.2298 -0.5524 -0.4468
 5009SOL     OW26488   0.866   2.922   7.873 -0.2668 -0.1844  0.0310
 5009SOL    HW126489   0.888   2.973   7.951  2.3083  0.4872 -1.1444
 5009SOL    HW226490   0.939   2.936   7.814  0.0583 -1.7341  0.0574
 5010SOL     OW26491   4.281   2.074   5.109 -0.1354 -0.1066 -0.3538
 5010SOL    HW126492   4.324   1.999   5.068  0.0907  0.1840 -0.6467
 5010SOL    HW226493   4.317   2.073   5.198 -3.2423  0.0564  0.9146
 5011SOL     OW26494   2.025   2.397   6.913  0.3225 -0.1464  0.0479
 5011SOL    HW126495   1.943   2.416   6.959  1.3003  0.0235  1.7228
 5011SOL    HW226496   2.056   2.486   6.900 -2.9302  1.0195  0.1610
 5012SOL     OW26497   2.703   3.046   8.296 -0.2505 -0.6835 -0.4145
 5012SOL    HW126498   2.720   3.111   8.364  1.5381 -0.6873 -0.8650
 5012SOL    HW226499   2.688   2.961   8.338  0.6808 -0.7367 -0.1807
 5013SOL     OW26500   4.161   1.928   0.930 -0.4612  0.1943 -0.8859
 5013SOL    HW126501   4.175   1.840   0.966  1.2192  1.2972  1.1832
 5013SOL    HW226502   4.224   1.921   0.859  1.7444 -0.9745  1.1506
 5014SOL     OW26503   0.107   1.914   5.146 -0.1975  0.1016 -0.6916
 5014SOL    HW126504   0.050   1.983   5.111 -0.2908  0.3183 -0.1184
 5014SOL    HW226505   0.060   1.834   5.123 -0.5718  0.3126 -0.6564
 5015SOL     OW26506   4.025   3.034   5.530  0.5307 -0.1533 -0.6707
 5015SOL    HW126507   4.040   3.019   5.436 -2.0679 -2.4065 -0.7236
 5015SOL    HW226508   3.973   3.114   5.517  0.8541 -0.0468 -1.3080
 5016SOL     OW26509   0.526   0.977   8.135  0.0505 -0.2159  0.5423
 5016SOL    HW126510   0.507   1.000   8.044  0.4471 -2.9185 -0.2209
 5016SOL    HW226511   0.441   0.972   8.178 -0.5418  0.5188 -0.5424
 5017SOL     OW26512   0.438   3.691  14.288 -0.6287  0.3471  0.4111
 5017SOL    HW126513   0.517   3.637  14.283  0.1926  1.7988 -2.0981
 5017SOL    HW226514   0.417   3.676  14.380  1.6174 -1.8521  0.5513
 5018SOL     OW26515   0.944   2.663   7.603  0.0348 -0.1899  0.2375
 5018SOL    HW126516   0.939   2.758   7.593 -1.7321 -0.3179 -0.1970
 5018SOL    HW226517   1.011   2.658   7.671 -1.7011 -4.1701  1.6766
 5019SOL     OW26518   1.804   4.719   3.980  0.3472  0.8105 -0.0502
 5019SOL    HW126519   1.875   4.715   3.916  0.9441  0.0677  0.6571
 5019SOL    HW226520   1.727   0.004   3.924  0.6060 -1.2929 -0.8057
 5020SOL     OW26521   0.417   2.655   5.994  0.0745 -0.5094  0.1424
 5020SOL    HW126522   0.382   2.744   5.998  0.1010 -0.4172 -1.5810
 5020SOL    HW226523   0.486   2.652   6.060  0.0200  0.4956  0.2519
 5021SOL     OW26524   0.461   1.769  11.153 -0.2687 -0.1853  0.0492
 5021SOL    HW126525   0.424   1.822  11.083 -0.0952 -1.5329 -1.0464
 5021SOL    HW226526   0.415   1.803  11.230  0.0212  0.3486 -0.0135
 5022SOL     OW26527   2.680   1.651   5.303 -0.7035 -1.0408  0.4674
 5022SOL    HW126528   2.753   1.658   5.241 -1.9731 -0.0704 -0.9497
 5022SOL    HW226529   2.603   1.695   5.265  0.2136 -0.9329 -1.2950
 5023SOL     OW26530   1.909   3.478   2.074  0.0310 -0.7539  0.0083
 5023SOL    HW126531   1.942   3.465   1.985  1.0083 -0.1239  0.2787
 5023SOL    HW226532   1.826   3.440   2.045 -0.9577  1.3048  0.1415
 5024SOL     OW26533   1.992   3.179   8.519  0.9754  0.3721 -0.4084
 5024SOL    HW126534   1.959   3.129   8.444  3.6954  0.5527 -1.7211
 5024SOL    HW226535   2.034   3.252   8.473  1.2357 -0.1558 -1.0134
 5025SOL     OW26536   3.275   0.289   1.047 -0.1950 -0.6245 -0.4980
 5025SOL    HW126537   3.273   0.266   1.140 -0.5509 -2.9180 -1.0801
 5025SOL    HW226538   3.329   0.219   1.010  0.7413 -1.8033  3.1061
 5026SOL     OW26539   3.541   1.525   2.439 -0.0733  0.9433 -0.1199
 5026SOL    HW126540   3.545   1.499   2.347 -0.9037 -0.2218  0.1653
 5026SOL    HW226541   3.551   1.442   2.486  0.8206 -0.9389 -3.6745
 5027SOL     OW26542   0.185   0.628   1.974 -0.0523 -0.2971 -0.4087
 5027SOL    HW126543   0.245   0.703   1.980 -0.3386 -0.2029  1.3761
 5027SOL    HW226544   0.252   0.572   1.934 -0.8683  0.0531 -2.2557
 5028SOL     OW26545   1.678   1.824   4.288  0.3951  0.1611  0.4572
 5028SOL    HW126546   1.612   1.797   4.225 -0.4595 -0.4620  1.6297
 5028SOL    HW226547   1.673   1.751   4.349 -0.5793  1.0852  1.4907
 5029SOL     OW26548   4.710   4.426   7.024 -0.3936  0.2273 -0.2291
 5029SOL    HW126549   4.693   4.422   7.118 -2.9048  1.7933 -0.6360
 5029SOL    HW226550   4.717   4.517   6.998 -1.1857 -0.0515 -1.4397
 5030SOL     OW26551   2.096   4.077   0.837 -0.2003 -0.4484 -0.0903
 5030SOL    HW126552   2.156   4.148   0.858 -0.8056 -0.2422  0.9600
 5030SOL    HW226553   2.149   4.054   0.761 -0.3256 -3.2627  0.6653
 5031SOL     OW26554   0.880   0.023   8.789  0.1163  0.1039  0.0677
 5031SOL    HW126555   0.790   4.719   8.774  0.0309  1.2030 -1.4912
 5031SOL    HW226556   0.867   0.077   8.867  0.0512 -0.2839  0.3279
 5032SOL     OW26557   1.539   1.126   5.537  0.2980  0.0154 -0.0046
 5032SOL    HW126558   1.532   1.133   5.632  0.3706 -0.1157  0.0110
 5032SOL    HW226559   1.601   1.054   5.526 -0.8408 -1.3169  2.0997
 5033SOL     OW26560   0.010   3.255   3.918  0.1550  0.4584 -0.2888
 5033SOL    HW126561   0.083   3.206   3.882  0.8750  0.5685  1.0256
 5033SOL    HW226562   0.017   3.330   3.859  2.6274 -0.2748 -0.8916
 5034SOL     OW26563   0.917   4.109   6.237  0.4878  0.4901 -0.5620
 5034SOL    HW126564   0.836   4.131   6.191  0.7309 -0.4453 -1.4462
 5034SOL    HW226565   0.914   4.017   6.262  0.1300  0.9922  1.2023
 5035SOL     OW26566   4.640   4.370   8.617 -0.1516  0.3011 -0.4817
 5035SOL    HW126567   4.706   4.308   8.647 -0.5866  0.0389 -0.0571
 5035SOL    HW226568   4.627   4.424   8.695 -1.2751 -1.9745  0.9036
 5036SOL     OW26569   2.263   3.028   4.234 -0.1682 -0.1661  0.4869
 5036SOL    HW126570   2.220   3.056   4.315 -0.8196  0.7651 -0.1808
 5036SOL    HW226571   2.275   3.106   4.180 -2.3722 -0.5717 -0.5571
 5037SOL     OW26572   0.770   1.223   5.388  0.0607 -0.1214  0.0188
 5037SOL    HW126573   0.817   1.209   5.306  0.3935  0.7355  0.0537
 5037SOL    HW226574   0.797   1.310   5.419  0.6909 -0.5024  0.5184
 5038SOL     OW26575   0.968   2.486  14.924 -0.9073  0.8887  0.3585
 5038SOL    HW126576   1.026   2.452  14.856 -0.1352 -1.4094  2.1714
 5038SOL    HW226577   1.015   2.454  15.001 -1.4556  0.4588  0.5200
 5039SOL     OW26578   0.243   0.463   3.046 -0.7342 -0.4013 -0.3650
 5039SOL    HW126579   0.244   0.554   3.018  2.2778 -1.1169 -2.5553
 5039SOL    HW226580   0.299   0.428   2.977 -1.2270  1.4981 -1.7237
 5040SOL     OW26581   4.664   4.423   7.320 -0.5213  0.0172 -0.1774
 5040SOL    HW126582   4.615   4.345   7.347 -0.8891 -0.0240 -0.9600
 5040SOL    HW226583   4.609   4.493   7.353  0.8962  0.7358  0.6423
 5041SOL     OW26584   0.791   1.302   6.868 -0.5153  0.5590 -0.3547
 5041SOL    HW126585   0.764   1.241   6.937 -0.5975  0.6475 -0.3086
 5041SOL    HW226586   0.709   1.347   6.847 -0.4361  0.7703 -0.1978
 5042SOL     OW26587   3.918   3.369  15.195 -0.2460  0.3426 -0.8815
 5042SOL    HW126588   3.930   3.311  15.270  0.4100  1.4044 -0.1540
 5042SOL    HW226589   3.912   3.303  15.126  1.8573 -0.0017 -0.7562
 5043SOL     OW26590   3.583   2.262   9.933  0.1434 -0.0218 -0.1720
 5043SOL    HW126591   3.656   2.209   9.901 -0.5558 -1.1842  0.1813
 5043SOL    HW226592   3.633   2.343   9.944 -1.9492  1.1052  1.0060
 5044SOL     OW26593   1.257   0.731   6.442  0.4179  0.1375  0.7474
 5044SOL    HW126594   1.341   0.690   6.422 -0.0944 -0.1074 -0.9285
 5044SOL    HW226595   1.290   0.820   6.459 -1.4688  0.9856 -0.0386
 5045SOL     OW26596   4.644   2.746   5.987 -0.4925  0.2498 -0.7039
 5045SOL    HW126597   4.652   2.702   5.902 -0.0270 -1.0737  0.0197
 5045SOL    HW226598   4.549   2.739   5.998 -0.4258  3.0333  1.4599
 5046SOL     OW26599   4.284   3.349  15.255 -0.2108 -0.0177  0.6764
 5046SOL    HW126600   4.300   3.255  15.257  1.4857  0.2561  0.6786
 5046SOL    HW226601   4.232   3.357  15.175 -0.1812  1.0836  0.7598
 5047SOL     OW26602   3.598   3.828   3.052  0.1111 -0.5303  0.4138
 5047SOL    HW126603   3.512   3.810   3.090 -0.8927  1.1601 -1.0479
 5047SOL    HW226604   3.585   3.903   2.993  1.9342  0.3313  1.1061
 5048SOL     OW26605   1.256   0.710   3.371  0.2514  0.7051 -0.1337
 5048SOL    HW126606   1.320   0.659   3.321  2.2628  1.0442  2.0931
 5048SOL    HW226607   1.185   0.653   3.343  1.2590  0.1757 -1.6579
 5049SOL     OW26608   2.562   0.902   5.851  0.1479  0.2948  0.0080
 5049SOL    HW126609   2.503   0.906   5.926  0.3314 -2.7020  0.3156
 5049SOL    HW226610   2.646   0.888   5.893 -0.0980  0.7055  0.6299
 5050SOL     OW26611   4.234   3.225  17.280 -0.0782  0.7246  0.4176
 5050SOL    HW126612   4.147   3.262  17.297  0.6084  2.6692 -0.2389
 5050SOL    HW226613   4.270   3.243  17.366 -1.9346 -1.3371  1.6146
 5051SOL     OW26614   1.944   1.300   6.474 -0.0688 -0.0295 -0.1939
 5051SOL    HW126615   1.879   1.330   6.409 -1.6116  1.6262  2.0987
 5051SOL    HW226616   2.027   1.314   6.428 -0.5273  1.6453 -0.5112
 5052SOL     OW26617   1.462   3.199   4.785  0.0160 -0.0985 -0.1694
 5052SOL    HW126618   1.547   3.231   4.814  0.1853  0.2612 -1.0814
 5052SOL    HW226619   1.488   3.125   4.731  2.2192  2.3072 -2.3710
 5053SOL     OW26620   1.067   3.863   8.812  0.6566  0.1759  0.5859
 5053SOL    HW126621   1.158   3.854   8.840  1.1639  0.0067 -1.0913
 5053SOL    HW226622   1.017   3.860   8.893  2.0309 -3.5956  1.2860
 5054SOL     OW26623   1.816   4.574   5.832  0.3468  0.1953  0.1124
 5054SOL    HW126624   1.804   4.646   5.894  0.6090  1.1148 -0.8970
 5054SOL    HW226625   1.778   4.502   5.883  0.2399  0.8563  0.9692
 5055SOL     OW26626   3.733   1.250   6.655  0.2903 -0.0450  0.2969
 5055SOL    HW126627   3.657   1.247   6.714  1.3758  0.3968  1.7252
 5055SOL    HW226628   3.770   1.164   6.674  1.1453 -0.1514 -1.8313
 5056SOL     OW26629   1.965   3.707   2.650  0.3787  0.3165  0.2434
 5056SOL    HW126630   1.929   3.619   2.646 -0.7778  0.7058  1.9009
 5056SOL    HW226631   1.952   3.733   2.742  0.0723 -1.9774  0.8308
 5057SOL     OW26632   4.723   2.147  17.454  0.0914 -0.2986  0.0507
 5057SOL    HW126633   4.716   2.053  17.470 -0.4735  0.1254  2.3410
 5057SOL    HW226634   0.019   2.153  17.361 -1.7693 -0.2977 -0.3694
 5058SOL     OW26635   1.393   1.522   9.249  0.2948  0.6113 -0.1318
 5058SOL    HW126636   1.412   1.441   9.202 -2.2402 -1.8646  3.0428
 5058SOL    HW226637   1.323   1.492   9.307 -1.1692 -0.6463 -2.5543
 5059SOL     OW26638   0.937   0.603   4.954 -0.0842 -0.3075  0.0023
 5059SOL    HW126639   0.881   0.642   5.021  2.3228  0.5157  1.5590
 5059SOL    HW226640   1.012   0.659   4.975  1.5986 -1.6485 -2.2935
 5060SOL     OW26641   4.070   1.620   6.481  0.8521 -0.2168 -0.1630
 5060SOL    HW126642   4.025   1.580   6.406  0.5885 -0.5979  0.1964
 5060SOL    HW226643   4.097   1.705   6.447  0.3916  0.5532  1.4276
 5061SOL     OW26644   4.413   2.610   1.186 -0.1068 -0.3697 -0.3792
 5061SOL    HW126645   4.506   2.631   1.182  0.0014 -0.6865  0.5145
 5061SOL    HW226646   4.388   2.621   1.094 -2.3326  0.4264  0.3114
 5062SOL     OW26647   2.291   4.256   0.862 -0.6583 -0.2117 -0.6289
 5062SOL    HW126648   2.350   4.256   0.938  1.2445  0.0707 -2.0927
 5062SOL    HW226649   2.351   4.278   0.791  0.5178  1.2168  0.7939
 5063SOL     OW26650   1.397   0.657   8.936 -0.3154 -0.4255  0.0083
 5063SOL    HW126651   1.361   0.617   8.857  2.1332 -1.0760 -0.7685
 5063SOL    HW226652   1.416   0.587   8.998 -2.3911 -0.9038  0.1033
 5064SOL     OW26653   4.649   0.865  17.620 -0.1521  0.6108  0.5247
 5064SOL    HW126654   4.635   0.958  17.603 -1.6274  0.7933  2.7153
 5064SOL    HW226655   0.015   0.855  17.592 -1.0242 -0.8576 -1.7470
 5065SOL     OW26656   1.718   1.433   6.336 -0.1442 -0.0982 -0.2463
 5065SOL    HW126657   1.663   1.509   6.357  0.3996  0.1220  0.3962
 5065SOL    HW226658   1.672   1.398   6.261 -1.6174  0.4886  0.3874
 5066SOL     OW26659   0.342   3.551   4.942  0.4704 -0.6690 -0.0046
 5066SOL    HW126660   0.390   3.596   5.011 -0.5685  0.4703 -0.0355
 5066SOL    HW226661   0.405   3.548   4.870  1.5043 -0.1166  0.8810
 5067SOL     OW26662   3.168   0.140   5.778 -0.7488  0.1381  0.3897
 5067SOL    HW126663   3.246   0.119   5.727 -0.0446  1.9552  0.7327
 5067SOL    HW226664   3.170   0.236   5.778 -2.7705  0.1881 -0.5730
 5068SOL     OW26665   3.410   0.165   2.157 -0.2634  0.2253  0.7624
 5068SOL    HW126666   3.435   0.155   2.066  0.7504 -2.3439  1.3036
 5068SOL    HW226667   3.492   0.149   2.204  1.2068  5.1195 -0.2086
 5069SOL     OW26668   0.081   2.158   7.297  0.4958 -0.6592 -0.3392
 5069SOL    HW126669   0.118   2.086   7.348 -1.6796 -0.4126  1.6329
 5069SOL    HW226670   0.123   2.156   7.211  0.6481  1.3987 -0.3160
 5070SOL     OW26671   1.136   3.827   6.620 -0.2546 -0.5968  0.1233
 5070SOL    HW126672   1.110   3.798   6.533 -0.7223  0.4191 -0.0833
 5070SOL    HW226673   1.067   3.892   6.635  0.3046  0.2822 -1.0356
 5071SOL     OW26674   3.766   0.757   6.227  0.0068  0.6224  0.4341
 5071SOL    HW126675   3.720   0.826   6.180 -3.7835 -2.4694 -0.3222
 5071SOL    HW226676   3.859   0.774   6.209 -0.3965  0.8908 -1.3597
 5072SOL     OW26677   1.956   1.996   1.379 -0.3671 -0.1708  0.2344
 5072SOL    HW126678   1.938   1.952   1.296  0.7467 -1.0152  0.4443
 5072SOL    HW226679   1.976   1.916   1.427  2.0161  0.3649  0.1233
 5073SOL     OW26680   3.406   4.577  16.753 -0.1610 -0.4015  0.0975
 5073SOL    HW126681   3.499   4.579  16.778 -0.2223  3.3075  0.1533
 5073SOL    HW226682   3.384   4.670  16.764  0.2267 -0.2669 -0.2610
 5074SOL     OW26683   3.714   1.786   2.820 -0.5893  0.0499 -0.7322
 5074SOL    HW126684   3.689   1.818   2.733  0.8071  1.8301 -0.4638
 5074SOL    HW226685   3.806   1.775   2.798 -0.3580 -0.6814  0.5994
 5075SOL     OW26686   0.707   2.415  12.200  0.4679 -0.1128 -0.4265
 5075SOL    HW126687   0.789   2.424  12.151 -1.5560  3.2825 -3.1435
 5075SOL    HW226688   0.738   2.450  12.284 -0.9864  0.4110 -0.1121
 5076SOL     OW26689   1.181   3.432   3.993  0.0858 -0.1748 -0.5580
 5076SOL    HW126690   1.275   3.412   3.995  0.1937  0.3794 -0.0960
 5076SOL    HW226691   1.180   3.505   3.930 -0.3456  0.9375  0.7364
 5077SOL     OW26692   0.071   0.419   9.736  0.0846  0.1691  0.5176
 5077SOL    HW126693   0.045   0.495   9.789 -2.2284 -0.7097  0.6782
 5077SOL    HW226694   4.711   0.395   9.699  0.6358 -2.3993  0.9471
 5078SOL     OW26695   2.461   1.628  14.644  0.1915 -0.5367  0.1873
 5078SOL    HW126696   2.477   1.716  14.610 -0.4948 -0.1891  0.7498
 5078SOL    HW226697   2.396   1.597  14.580  0.2161 -0.8216  0.3015
 5079SOL     OW26698   2.800   1.533  14.966 -0.0489  0.9311  0.1095
 5079SOL    HW126699   2.725   1.547  15.024 -0.8071 -1.0992 -0.3937
 5079SOL    HW226700   2.768   1.545  14.877  0.4576 -2.1774 -0.4711
 5080SOL     OW26701   1.734   3.826   8.501 -0.4168  0.4923 -0.1399
 5080SOL    HW126702   1.751   3.734   8.521  1.2380  0.9925  0.8039
 5080SOL    HW226703   1.784   3.827   8.419 -0.4470 -0.9506 -0.1876
 5081SOL     OW26704   3.734   0.130   3.414 -0.2232  0.1925 -0.2981
 5081SOL    HW126705   3.702   0.056   3.363 -0.8800  0.6565 -0.5590
 5081SOL    HW226706   3.830   0.126   3.414 -0.2428  0.0573 -2.4562
 5082SOL     OW26707   0.995   0.945   0.599  0.2052  0.6544 -0.2457
 5082SOL    HW126708   1.051   0.894   0.657  0.9343  0.8359 -0.8015
 5082SOL    HW226709   0.968   1.024   0.645 -2.4132 -0.0909 -0.4853
 5083SOL     OW26710   1.293   3.478   7.232  0.3064  0.1037  0.0857
 5083SOL    HW126711   1.308   3.416   7.161  0.2153 -0.7325  0.7919
 5083SOL    HW226712   1.386   3.487   7.254 -0.1598  0.6673  1.8434
 5084SOL     OW26713   0.027   2.338   9.863  0.2462 -0.0039 -0.5851
 5084SOL    HW126714   0.059   2.249   9.881 -0.2503  0.5001  2.7297
 5084SOL    HW226715   4.686   2.352   9.931 -0.6756 -0.8086 -1.3027
 5085SOL     OW26716   0.849   2.282   2.346 -0.3036 -0.3622 -0.3358
 5085SOL    HW126717   0.853   2.192   2.312  1.0551 -0.7294  0.8100
 5085SOL    HW226718   0.784   2.322   2.289 -1.4231 -0.5984  0.7876
 5086SOL     OW26719   2.508   3.300  15.905  0.1717  0.0094 -0.3560
 5086SOL    HW126720   2.548   3.218  15.935  0.7112 -0.3177 -1.9917
 5086SOL    HW226721   2.537   3.356  15.978 -0.5127 -0.8617  0.5891
 5087SOL     OW26722   3.825   1.299   3.252 -0.1051  0.1966  0.8314
 5087SOL    HW126723   3.914   1.316   3.221  0.4311 -0.4486  2.0038
 5087SOL    HW226724   3.781   1.384   3.245  2.0533  1.2735  0.2113
 5088SOL     OW26725   1.026   1.535  11.426 -0.4152 -0.4389  0.0632
 5088SOL    HW126726   1.051   1.485  11.504 -0.3956  0.8605  0.8976
 5088SOL    HW226727   1.110   1.526  11.381 -1.7770 -2.2906 -2.0497
 5089SOL     OW26728   3.987   4.622   4.636  0.2366 -0.4415  0.2050
 5089SOL    HW126729   4.028   4.708   4.629 -2.0143  0.9404  4.2009
 5089SOL    HW226730   3.933   4.617   4.557 -0.7109 -1.4795  0.9255
 5090SOL     OW26731   0.705   1.976   6.405 -0.6016 -0.2709 -0.4176
 5090SOL    HW126732   0.731   1.927   6.327  0.5117  2.4168 -1.7100
 5090SOL    HW226733   0.717   1.910   6.474  2.0522  1.0907  0.4454
 5091SOL     OW26734   4.349   2.961  13.244  0.1964  0.1324 -0.2619
 5091SOL    HW126735   4.290   2.906  13.296  0.0566  0.7962  0.2859
 5091SOL    HW226736   4.396   2.997  13.320 -0.2720 -0.1346  0.1526
 5092SOL     OW26737   0.966   0.952  12.129  0.1410 -0.4734 -0.0519
 5092SOL    HW126738   0.956   1.039  12.090 -1.4633 -0.2256  0.8613
 5092SOL    HW226739   1.057   0.933  12.107 -0.0719  0.2310 -1.4914
 5093SOL     OW26740   3.993   3.365   3.708  0.7595  0.4753  0.0316
 5093SOL    HW126741   3.963   3.455   3.692 -0.3480 -0.1293 -1.3558
 5093SOL    HW226742   3.929   3.319   3.653 -0.5669  0.8356  1.2676
 5094SOL     OW26743   3.110   0.842   6.302 -0.4505 -0.2142  0.8993
 5094SOL    HW126744   3.182   0.886   6.257 -0.5796 -2.1841 -1.2334
 5094SOL    HW226745   3.167   0.768   6.322  1.3753  1.1057  0.5918
 5095SOL     OW26746   0.703   1.803  11.289 -0.0762 -0.3683 -0.2420
 5095SOL    HW126747   0.622   1.813  11.238 -0.5622  0.6704  0.7354
 5095SOL    HW226748   0.672   1.753  11.364  1.9209 -1.5402 -0.2143
 5096SOL     OW26749   3.463   1.855   1.785  0.4228 -0.2994 -0.0680
 5096SOL    HW126750   3.411   1.783   1.750  2.2523 -1.3884 -0.5222
 5096SOL    HW226751   3.417   1.918   1.729  0.4735  0.8869  1.2036
 5097SOL     OW26752   1.907   0.825   0.389  0.3511 -0.2761  0.3069
 5097SOL    HW126753   1.928   0.763   0.459 -4.0871 -1.7347  0.3520
 5097SOL    HW226754   1.863   0.765   0.329  0.1935 -0.1378  0.2826
 5098SOL     OW26755   2.170   2.288  12.652  0.2668  0.2198  0.3684
 5098SOL    HW126756   2.185   2.285  12.746  0.0297 -2.2398  0.3216
 5098SOL    HW226757   2.126   2.204  12.639  1.7620 -0.7170  1.2346
 5099SOL     OW26758   0.930   2.941   7.583 -0.4885  0.1165 -0.6131
 5099SOL    HW126759   1.006   2.997   7.566 -1.8335  2.2362  0.2405
 5099SOL    HW226760   0.867   3.004   7.619 -2.0000 -2.8333  1.9145
 5100SOL     OW26761   2.457   1.448   2.311  0.4840 -0.4684  0.4210
 5100SOL    HW126762   2.416   1.361   2.317 -0.9501 -0.0878 -3.9111
 5100SOL    HW226763   2.417   1.485   2.390 -0.9939  1.5456 -1.2635
 5101SOL     OW26764   2.764   1.251  16.691 -0.0601  0.3781 -0.1010
 5101SOL    HW126765   2.755   1.167  16.646  0.4004  0.5002 -0.4256
 5101SOL    HW226766   2.847   1.238  16.736 -0.2062 -1.0697 -0.2477
 5102SOL     OW26767   1.846   2.375   3.761  0.0279 -0.4161  0.1835
 5102SOL    HW126768   1.925   2.408   3.717 -0.0618 -1.4492 -0.7495
 5102SOL    HW226769   1.890   2.302   3.805 -0.1907  0.6257  2.1352
 5103SOL     OW26770   0.062   4.361  11.929 -0.0340  0.0152  0.3158
 5103SOL    HW126771   0.114   4.345  11.850 -2.8982  0.7588 -1.7144
 5103SOL    HW226772   0.132   4.387  11.990 -0.3394  0.7907  0.3338
 5104SOL     OW26773   1.226   1.814   9.326 -0.4896 -0.1926  0.1520
 5104SOL    HW126774   1.151   1.873   9.320 -0.3885 -0.3363 -2.4551
 5104SOL    HW226775   1.300   1.869   9.300  1.3161 -3.1797 -1.0048
 5105SOL     OW26776   3.460   0.435   3.604  0.2796 -0.1993  0.4955
 5105SOL    HW126777   3.449   0.347   3.570  1.7396 -0.1249 -0.1589
 5105SOL    HW226778   3.489   0.423   3.694  1.4282  1.0840  0.2899
 5106SOL     OW26779   3.619   3.036   6.360 -0.0777 -0.0802 -0.5169
 5106SOL    HW126780   3.570   3.045   6.442 -0.7764  0.9343 -1.0344
 5106SOL    HW226781   3.592   2.948   6.333  1.7298 -0.8029  0.0561
 5107SOL     OW26782   0.088   4.187   6.703 -0.0813 -0.4026 -0.1620
 5107SOL    HW126783   0.108   4.227   6.619 -0.4972 -0.5789 -0.3420
 5107SOL    HW226784   0.084   4.097   6.673  1.3391 -0.1673 -1.0466
 5108SOL     OW26785   0.504   0.904   2.858  0.4678  0.7621 -0.6515
 5108SOL    HW126786   0.481   0.815   2.884  0.9113 -0.3816 -4.1361
 5108SOL    HW226787   0.593   0.902   2.894  0.5963 -0.7937 -1.0768
 5109SOL     OW26788   2.680   3.156   4.574 -0.9433 -0.3216 -1.0840
 5109SOL    HW126789   2.627   3.085   4.538 -1.6402 -0.2526 -0.1809
 5109SOL    HW226790   2.652   3.155   4.665 -0.7318  4.0633 -0.9821
 5110SOL     OW26791   0.374   2.371   2.594 -0.4773  0.0667 -0.4923
 5110SOL    HW126792   0.352   2.414   2.677 -1.2161 -0.9004 -0.1862
 5110SOL    HW226793   0.447   2.318   2.625 -0.4934  1.2349  1.5116
 5111SOL     OW26794   2.483   0.078  17.124  0.2331  0.0955  0.2910
 5111SOL    HW126795   2.398   0.068  17.168  0.3447 -0.9007  0.2772
 5111SOL    HW226796   2.520   4.716  17.142  2.1056  0.9003  0.3007
 5112SOL     OW26797   4.466   1.309   0.399 -0.0681  0.6063  0.3142
 5112SOL    HW126798   4.454   1.379   0.335 -0.5083  0.6980  0.4956
 5112SOL    HW226799   4.383   1.318   0.446  0.3798 -1.0136  1.4233
 5113SOL     OW26800   1.906   2.308   8.222 -0.3942 -0.1861 -0.9915
 5113SOL    HW126801   1.892   2.393   8.264 -0.3659 -1.0565  0.7793
 5113SOL    HW226802   1.822   2.280   8.184 -1.4276 -0.0961  1.2259
 5114SOL     OW26803   4.609   0.689   2.982  0.0682  0.3387  0.0261
 5114SOL    HW126804   4.528   0.644   2.958  1.3452 -1.1952 -1.4400
 5114SOL    HW226805   4.571   0.776   2.997  0.1928  0.2105  1.0411
 5115SOL     OW26806   3.899   3.933   3.593 -0.7443  0.6070 -0.6698
 5115SOL    HW126807   3.820   3.955   3.641 -1.8676 -1.4648 -1.5753
 5115SOL    HW226808   3.941   3.871   3.653 -0.2477  0.0946 -1.5360
 5116SOL     OW26809   3.876   0.912   1.281  0.4016 -0.4338 -0.4307
 5116SOL    HW126810   3.927   0.896   1.361 -2.5017 -1.2510  1.2839
 5116SOL    HW226811   3.927   0.976   1.232  0.8542  1.3736  2.3591
 5117SOL     OW26812   4.397   0.857  13.836  0.0336 -0.0537 -0.2972
 5117SOL    HW126813   4.365   0.877  13.749  0.7002 -1.6097 -0.8979
 5117SOL    HW226814   4.454   0.933  13.849 -0.3590  0.3259 -0.8404
 5118SOL     OW26815   0.413   0.361  11.520  0.1689  0.2585 -0.9590
 5118SOL    HW126816   0.327   0.403  11.517  0.1525  0.5266  3.1770
 5118SOL    HW226817   0.465   0.441  11.528 -0.6374  0.7686 -0.8948
 5119SOL     OW26818   0.943   2.460  12.077  0.3502  0.0182 -0.4310
 5119SOL    HW126819   0.967   2.377  12.037 -0.9567 -0.8079  0.5147
 5119SOL    HW226820   0.902   2.506  12.003 -0.7489 -0.3532 -0.0489
 5120SOL     OW26821   4.133   2.866   9.388 -0.0985  0.0859 -0.2360
 5120SOL    HW126822   4.060   2.870   9.326  1.0966  0.9847 -1.5869
 5120SOL    HW226823   4.108   2.948   9.429 -0.1767  0.0628 -0.2374
 5121SOL     OW26824   3.165   1.654   5.304  0.5646 -0.7032  0.3232
 5121SOL    HW126825   3.153   1.561   5.322 -0.1918 -0.3664  1.5821
 5121SOL    HW226826   3.167   1.684   5.396 -2.0835  0.2180  0.0804
 5122SOL     OW26827   3.679   2.396   7.161  0.1473 -0.1135  0.2645
 5122SOL    HW126828   3.767   2.405   7.123  0.0729 -0.4241  0.0180
 5122SOL    HW226829   3.675   2.303   7.182  2.4980 -0.2300  0.2097
 5123SOL     OW26830   0.637   3.247  10.896 -0.0671  0.0227 -0.0881
 5123SOL    HW126831   0.577   3.282  10.830  2.3127 -0.3170 -2.4190
 5123SOL    HW226832   0.613   3.155  10.885  2.2374 -0.5906  0.1729
 5124SOL     OW26833   1.662   2.304   9.310 -0.5319  0.9501  0.0710
 5124SOL    HW126834   1.610   2.242   9.360  2.7124 -1.4478  0.4388
 5124SOL    HW226835   1.681   2.373   9.374  0.3567  0.6361  0.1329
 5125SOL     OW26836   1.116   4.088   5.338  0.5280  0.0259 -0.5058
 5125SOL    HW126837   1.074   4.143   5.404 -0.6467 -0.6670 -0.6660
 5125SOL    HW226838   1.053   4.096   5.266 -0.9814 -2.1270  0.5641
 5126SOL     OW26839   4.174   2.210   1.487  0.1397  0.3201  0.9317
 5126SOL    HW126840   4.173   2.303   1.463  1.0918 -0.0248 -0.4429
 5126SOL    HW226841   4.197   2.203   1.580  1.1048  2.0299  0.8381
 5127SOL     OW26842   0.821   0.591   1.539  0.1696 -0.0305 -0.1385
 5127SOL    HW126843   0.792   0.561   1.625 -2.8051  0.2658 -1.0348
 5127SOL    HW226844   0.912   0.617   1.549  0.4368 -0.6819 -0.9269
 5128SOL     OW26845   4.605   1.519  13.048  0.3473 -0.2688 -0.1483
 5128SOL    HW126846   4.693   1.541  13.077  0.6170 -2.1411  0.5001
 5128SOL    HW226847   4.574   1.608  13.062  0.4707 -0.9252  4.2531
 5129SOL     OW26848   3.635   2.220   5.923  0.1761 -0.1605  0.2171
 5129SOL    HW126849   3.691   2.285   5.881 -1.6849  1.2451 -0.0892
 5129SOL    HW226850   3.680   2.223   6.007  1.1915 -1.2347 -0.3002
 5130SOL     OW26851   2.307   3.862   1.813  0.2042 -0.2851  0.4843
 5130SOL    HW126852   2.386   3.850   1.865 -1.5563  1.5398  3.5411
 5130SOL    HW226853   2.248   3.801   1.858 -1.8191  2.0811  1.0413
 5131SOL     OW26854   0.901   3.155   9.840  0.4033 -0.0083 -0.2015
 5131SOL    HW126855   0.901   3.250   9.849  0.3852  0.1062 -1.3831
 5131SOL    HW226856   0.923   3.146   9.747  0.6473 -0.2059 -0.1240
 5132SOL     OW26857   1.056   2.787   5.902  0.0132 -0.2111  0.1105
 5132SOL    HW126858   1.139   2.830   5.883  0.3929 -1.4711 -1.1057
 5132SOL    HW226859   1.079   2.756   5.990 -0.2849 -1.1688 -0.1457
 5133SOL     OW26860   2.726   4.219  15.809  0.0390 -0.0918  0.2211
 5133SOL    HW126861   2.701   4.288  15.748 -4.4668 -1.9689 -0.0544
 5133SOL    HW226862   2.803   4.253  15.855  0.1389 -0.8692  0.6261
 5134SOL     OW26863   2.848   3.870   5.555 -0.7434 -0.5609  0.2183
 5134SOL    HW126864   2.940   3.842   5.547  0.2018  2.6173  0.0165
 5134SOL    HW226865   2.862   3.947   5.611 -0.9230  0.0493 -0.5782
 5135SOL     OW26866   3.440   4.666   3.845 -0.0973  0.1141  0.3080
 5135SOL    HW126867   3.395   4.640   3.765  1.0205  2.9879 -1.2447
 5135SOL    HW226868   3.365   4.681   3.903 -1.2666 -0.4522 -1.0611
 5136SOL     OW26869   3.337   1.930   6.715 -0.1817 -0.1381  0.6722
 5136SOL    HW126870   3.274   1.917   6.644  0.6714 -1.9138  0.2415
 5136SOL    HW226871   3.420   1.903   6.676 -1.8240 -3.4459 -0.5265
 5137SOL     OW26872   0.628   0.634   3.970 -0.5799 -0.2202 -0.0398
 5137SOL    HW126873   0.598   0.700   4.033 -2.0309 -1.5068  0.6187
 5137SOL    HW226874   0.626   0.558   4.030 -0.5845  0.9045  1.3898
 5138SOL     OW26875   2.761   0.112   0.681 -0.2023  0.4632  0.2585
 5138SOL    HW126876   2.831   0.118   0.746  0.6030  2.0644 -0.7753
 5138SOL    HW226877   2.715   0.194   0.697 -0.4796  0.1908  0.8572
 5139SOL     OW26878   2.175   4.308  10.047  0.2401 -0.1874 -0.2830
 5139SOL    HW126879   2.088   4.316  10.084  0.9379  1.0973  1.0849
 5139SOL    HW226880   2.181   4.213  10.051  2.7515  0.0281  1.2510
 5140SOL     OW26881   0.540   1.474   6.468 -0.3594 -0.1704 -0.5672
 5140SOL    HW126882   0.517   1.382   6.450 -0.9245 -0.4396  1.6028
 5140SOL    HW226883   0.601   1.493   6.397  3.1146 -1.9580  1.9997
 5141SOL     OW26884   0.322   3.416   9.525  0.1754 -0.0338  0.8175
 5141SOL    HW126885   0.268   3.494   9.528  0.2106  0.0567 -0.6022
 5141SOL    HW226886   0.317   3.377   9.612 -0.3264  1.8023  1.6129
 5142SOL     OW26887   4.543   2.071   8.015  0.2522 -0.2935 -0.2783
 5142SOL    HW126888   4.554   2.063   7.920 -1.0721 -0.6698 -0.4032
 5142SOL    HW226889   4.598   2.149   8.027 -1.3351  0.3804  2.6154
 5143SOL     OW26890   0.850   1.136   5.732  0.1857 -0.6826 -0.3006
 5143SOL    HW126891   0.769   1.127   5.781 -0.2326  1.6764 -0.5423
 5143SOL    HW226892   0.835   1.129   5.638  0.5939  0.1560 -0.4263
 5144SOL     OW26893   3.603   2.729  14.582  0.5280 -0.2608  0.5006
 5144SOL    HW126894   3.548   2.802  14.612  0.0591  0.6215 -2.5576
 5144SOL    HW226895   3.668   2.761  14.520  0.6702 -0.1768  0.6932
 5145SOL     OW26896   4.544   3.458   2.637  0.1303  0.2826  0.0360
 5145SOL    HW126897   4.508   3.469   2.726 -2.0821  1.3508 -0.9911
 5145SOL    HW226898   4.466   3.458   2.582 -1.7376  0.6257  2.6382
 5146SOL     OW26899   0.863   4.559   9.134  0.0631 -0.5150  0.1245
 5146SOL    HW126900   0.837   4.645   9.100 -2.0911 -1.0760  0.3738
 5146SOL    HW226901   0.956   4.562   9.112  0.2988 -0.7985  1.1071
 5147SOL     OW26902   2.508   0.386  17.245 -0.1578 -0.3432 -0.2705
 5147SOL    HW126903   2.468   0.340  17.171 -0.6412 -1.1249  0.4735
 5147SOL    HW226904   2.553   0.314  17.290 -0.2364 -0.3315 -0.1721
 5148SOL     OW26905   3.411   0.845   9.635  0.0465  0.0241  0.2660
 5148SOL    HW126906   3.473   0.781   9.669 -0.4742  0.8368  2.7819
 5148SOL    HW226907   3.389   0.812   9.548  1.6293 -0.3397  0.0084
 5149SOL     OW26908   4.550   0.921   5.837  0.0331 -0.4129  0.2941
 5149SOL    HW126909   4.572   0.956   5.750 -0.7617  4.1687  1.9443
 5149SOL    HW226910   4.523   0.999   5.886  0.9489 -0.0842  0.2697
 5150SOL     OW26911   3.580   3.642   8.856 -0.7415 -0.5783  0.4169
 5150SOL    HW126912   3.508   3.633   8.919 -0.4415  0.6250  0.9315
 5150SOL    HW226913   3.618   3.722   8.892 -0.8211 -0.6784  0.7205
 5151SOL     OW26914   0.979   2.989   6.782 -0.1152 -0.7939  0.0317
 5151SOL    HW126915   1.045   3.034   6.729 -1.3417 -0.6593 -1.3535
 5151SOL    HW226916   1.044   2.943   6.835 -1.7846 -2.4495  0.6300
 5152SOL     OW26917   2.766   1.643  11.848  0.0055  0.2539 -0.4146
 5152SOL    HW126918   2.749   1.698  11.925  0.2944 -0.0408 -0.1370
 5152SOL    HW226919   2.747   1.555  11.883 -0.6001 -0.7880 -3.4180
 5153SOL     OW26920   1.516   1.641   3.014  0.2589 -0.1186 -0.2801
 5153SOL    HW126921   1.591   1.696   3.039  2.0900 -2.5445 -0.3862
 5153SOL    HW226922   1.442   1.696   3.038 -0.2031 -0.4574 -0.9428
 5154SOL     OW26923   0.046   1.707   6.921 -0.0082  0.3361  0.5507
 5154SOL    HW126924   4.686   1.663   6.928  1.1151 -1.9641 -0.3481
 5154SOL    HW226925   0.013   1.796   6.931 -2.3520 -0.2492 -1.9236
 5155SOL     OW26926   2.250   2.341   7.059  0.1606  0.1113  0.4422
 5155SOL    HW126927   2.157   2.355   7.040  0.1672  0.7679  0.8923
 5155SOL    HW226928   2.277   2.258   7.021  1.3353  0.9693 -0.6145
 5156SOL     OW26929   1.657   3.338   4.405 -0.2386 -0.2167 -0.2436
 5156SOL    HW126930   1.630   3.428   4.425 -0.5499 -0.4375  0.3033
 5156SOL    HW226931   1.751   3.359   4.409 -0.6381  1.5813 -0.2315
 5157SOL     OW26932   0.623   0.335   8.531  0.4921 -0.2508  0.5144
 5157SOL    HW126933   0.701   0.384   8.554  0.1077  0.5160  0.2072
 5157SOL    HW226934   0.580   0.389   8.465 -1.5973  0.2109  2.2489
 5158SOL     OW26935   3.333   3.649   7.400  0.1749  0.3633 -0.4781
 5158SOL    HW126936   3.273   3.597   7.454 -0.1568  1.7796  0.5169
 5158SOL    HW226937   3.413   3.596   7.401 -0.0479  0.0489  0.8145
 5159SOL     OW26938   1.821   2.630   6.365 -0.0389  0.4071 -0.1918
 5159SOL    HW126939   1.909   2.630   6.402 -1.0013  0.7697  2.0477
 5159SOL    HW226940   1.835   2.689   6.290 -2.0041  0.8720 -0.1769
 5160SOL     OW26941   4.193   0.561  11.692 -0.4653  0.3291 -0.4162
 5160SOL    HW126942   4.240   0.567  11.608  0.1319  0.1223 -0.0968
 5160SOL    HW226943   4.144   0.480  11.676  1.4410 -0.7988 -0.5491
 5161SOL     OW26944   2.854   0.093  15.208  0.5049  0.4808  0.1679
 5161SOL    HW126945   2.775   0.043  15.226 -0.8317  2.5579  0.0664
 5161SOL    HW226946   2.860   0.152  15.283  0.0906 -0.6472  1.0840
 5162SOL     OW26947   3.737   4.019  13.396  0.4224 -0.4951 -0.3624
 5162SOL    HW126948   3.756   4.107  13.428 -1.4588 -0.1959 -0.0638
 5162SOL    HW226949   3.679   4.026  13.320 -0.9742  0.0033  0.7623
 5163SOL     OW26950   3.708   3.381  13.380  0.8308 -0.4304  0.0788
 5163SOL    HW126951   3.681   3.363  13.470  1.1292  1.2091  0.4804
 5163SOL    HW226952   3.670   3.467  13.366  3.0885  0.7257  1.2405
 5164SOL     OW26953   0.195   2.133   5.798  0.0931 -0.6365  0.0656
 5164SOL    HW126954   0.270   2.192   5.799  1.2716 -2.1283 -2.0124
 5164SOL    HW226955   0.146   2.172   5.871 -1.2662 -0.3848 -0.9601
 5165SOL     OW26956   2.506   4.714   7.602  0.1646 -0.5393  0.3585
 5165SOL    HW126957   2.556   0.056   7.649 -0.9968 -0.2580  1.1938
 5165SOL    HW226958   2.422   0.004   7.646  0.2810 -0.3213  0.5039
 5166SOL     OW26959   1.297   4.569  13.203 -0.1168 -0.2226  0.4987
 5166SOL    HW126960   1.293   4.607  13.290  0.1956 -0.2846  0.5392
 5166SOL    HW226961   1.223   4.617  13.164 -0.8249 -3.2578 -1.9379
 5167SOL     OW26962   1.099   0.289   8.023 -0.1432 -0.2500  0.2050
 5167SOL    HW126963   1.087   0.384   8.020  0.3178 -0.1348  2.8359
 5167SOL    HW226964   1.029   0.264   8.084 -2.1787 -0.9645 -2.4135
 5168SOL     OW26965   3.110   4.039  12.553  0.0262  0.5388  0.0184
 5168SOL    HW126966   3.193   4.085  12.567  0.0360  0.9375 -1.3377
 5168SOL    HW226967   3.135   3.960  12.505 -2.2858 -0.2177  0.0721
 5169SOL     OW26968   1.913   3.819  12.276 -0.2663 -0.0863 -0.2573
 5169SOL    HW126969   1.938   3.745  12.331  1.1448  0.9221  0.4444
 5169SOL    HW226970   1.990   3.843  12.225 -0.2247  0.1863 -0.0687
 5170SOL     OW26971   1.465   4.684   2.699 -0.6101  0.5994 -0.5656
 5170SOL    HW126972   1.499   4.684   2.609 -0.5155  0.6179 -0.5300
 5170SOL    HW226973   1.371   4.700   2.694 -0.4988  0.7851 -2.0303
 5171SOL     OW26974   4.334   1.109   4.489  0.5200 -0.0051  0.3811
 5171SOL    HW126975   4.384   1.126   4.569  0.2984  0.1894  0.4790
 5171SOL    HW226976   4.400   1.065   4.436 -0.2156 -0.0078 -0.5180
 5172SOL     OW26977   1.746   4.095   7.951  0.3209  0.3946 -0.1446
 5172SOL    HW126978   1.759   4.189   7.966 -0.2069  0.5454 -0.6354
 5172SOL    HW226979   1.789   4.054   8.026 -0.8610 -0.9298 -0.1782
 5173SOL     OW26980   1.236   4.451   1.179 -0.0296 -0.2020  0.2711
 5173SOL    HW126981   1.232   4.357   1.166 -2.8087 -0.3782  2.4789
 5173SOL    HW226982   1.282   4.460   1.262 -0.9012  1.9497  0.5405
 5174SOL     OW26983   3.802   2.544   6.830  0.3513  0.2504 -0.0432
 5174SOL    HW126984   3.797   2.468   6.772 -0.6321  0.3697 -0.1054
 5174SOL    HW226985   3.884   2.576   6.792 -0.6524  1.2835 -1.2992
 5175SOL     OW26986   1.005   3.238   7.290 -0.5232 -0.5205  0.2258
 5175SOL    HW126987   1.068   3.192   7.345 -0.4573 -2.0340 -1.1154
 5175SOL    HW226988   0.920   3.212   7.327  0.7446 -3.4041  1.1008
 5176SOL     OW26989   4.110   3.122   9.495 -0.0220 -0.1220  0.1686
 5176SOL    HW126990   4.110   3.187   9.425 -0.0835  0.3112  0.5755
 5176SOL    HW226991   4.105   3.169   9.578 -1.5218  1.8169 -1.0344
 5177SOL     OW26992   1.322   4.611   6.580 -0.4984 -0.1913  0.4088
 5177SOL    HW126993   1.342   4.691   6.628 -0.4662  0.4062 -0.6077
 5177SOL    HW226994   1.250   4.581   6.635  0.1814  0.7582  1.8123
 5178SOL     OW26995   4.097   1.329   1.101 -0.2368  0.1213  0.2021
 5178SOL    HW126996   4.094   1.283   1.017  1.3187  0.5548 -0.0964
 5178SOL    HW226997   4.015   1.299   1.140 -1.1241  0.2750 -1.5058
 5179SOL     OW26998   2.511   3.120   6.107 -0.0843  0.6748 -0.0897
 5179SOL    HW126999   2.499   3.193   6.046  0.5858  0.2863 -0.6927
 5179SOL    HW227000   2.456   3.054   6.066 -0.7563  0.9306  0.4157
 5180SOL     OW27001   0.154   3.221   4.921  0.0853  0.1025  0.4671
 5180SOL    HW127002   0.081   3.224   4.860 -0.0365  2.0477  0.6990
 5180SOL    HW227003   0.127   3.178   5.001 -0.8757  0.6334  0.4227
 5181SOL     OW27004   3.347   3.413   6.281 -0.4965  0.2838  0.1794
 5181SOL    HW127005   3.433   3.426   6.320 -0.6600 -0.6858  0.8511
 5181SOL    HW227006   3.342   3.478   6.211 -1.6089  1.2623  1.1683
 5182SOL     OW27007   2.369   0.894  17.606  0.5291  0.3848 -0.8902
 5182SOL    HW127008   2.361   0.952  17.681 -0.0035 -0.9307  0.0800
 5182SOL    HW227009   2.455   0.852  17.610  0.5151  0.6116  1.3154
 5183SOL     OW27010   0.668   3.729  16.109 -0.4391 -0.2349 -0.3385
 5183SOL    HW127011   0.667   3.760  16.018 -1.6933  1.4120  0.2383
 5183SOL    HW227012   0.575   3.736  16.129  0.4505  3.6670  2.4137
 5184SOL     OW27013   4.105   1.147  15.928  0.3154  0.1681 -0.3229
 5184SOL    HW127014   4.127   1.085  15.998  0.5531  1.6425  0.8994
 5184SOL    HW227015   4.010   1.132  15.929  0.1579  1.3862  1.4987
 5185SOL     OW27016   3.215   2.291   5.078 -0.0305 -0.4085  0.3689
 5185SOL    HW127017   3.177   2.239   5.150  0.6730 -0.5714  0.6223
 5185SOL    HW227018   3.206   2.226   5.008 -0.8000 -0.4933  0.5451
 5186SOL     OW27019   3.827   4.577  14.072  0.0307 -0.0203  0.2779
 5186SOL    HW127020   3.741   4.608  14.043 -0.5160 -0.2685  1.5818
 5186SOL    HW227021   3.874   4.564  13.990  0.1131 -0.9092  0.4675
 5187SOL     OW27022   3.195   1.199   6.199  0.1657  0.0148  0.1080
 5187SOL    HW127023   3.156   1.219   6.284 -0.8985  0.6491 -0.5320
 5187SOL    HW227024   3.244   1.119   6.218  0.4870  0.3585  0.7624
 5188SOL     OW27025   2.039   1.599   8.869 -0.4824 -0.3179 -1.2410
 5188SOL    HW127026   1.955   1.646   8.867 -0.9203 -1.0572 -0.0034
 5188SOL    HW227027   2.092   1.642   8.802  1.8361 -0.2412  0.6562
 5189SOL     OW27028   1.496   3.606  11.982 -0.7462 -0.0750 -0.1765
 5189SOL    HW127029   1.493   3.511  11.996 -1.6382  0.0809  0.7226
 5189SOL    HW227030   1.458   3.612  11.894 -1.1169  3.6416  0.2502
 5190SOL     OW27031   2.117   2.290   8.667 -0.6091  0.3750 -0.1455
 5190SOL    HW127032   2.158   2.329   8.589  0.8470  0.2197  0.5504
 5190SOL    HW227033   2.171   2.327   8.736 -0.9105  0.0646  0.2543
 5191SOL     OW27034   3.415   3.113   8.861 -0.5445  0.1668  0.1966
 5191SOL    HW127035   3.401   3.125   8.955  1.3622 -0.2952  0.5537
 5191SOL    HW227036   3.358   3.038   8.845  0.9248 -0.5429 -1.6060
 5192SOL     OW27037   2.138   4.386   1.910  0.5692 -0.4568 -0.0157
 5192SOL    HW127038   2.181   4.463   1.872  1.8714  0.4821  3.3719
 5192SOL    HW227039   2.213   4.338   1.945  0.9184  1.1093  1.3936
 5193SOL     OW27040   3.281   4.302   6.723 -0.0827  0.4910  0.8960
 5193SOL    HW127041   3.376   4.303   6.739  0.2663 -2.2217 -1.0133
 5193SOL    HW227042   3.263   4.395   6.734  1.2689  0.9027 -0.3109
 5194SOL     OW27043   4.017   2.874   7.837 -0.4627  0.1839 -0.1143
 5194SOL    HW127044   4.034   2.802   7.897  1.1698  0.7789  0.1251
 5194SOL    HW227045   4.097   2.924   7.851  0.3210 -0.5236 -2.1414
 5195SOL     OW27046   0.409   3.868   7.589  0.0142  0.3671  0.6088
 5195SOL    HW127047   0.380   3.863   7.497 -1.8376  0.1757  1.2091
 5195SOL    HW227048   0.445   3.781   7.608 -2.8220 -0.7346  0.7945
 5196SOL     OW27049   2.904   3.979   6.556  0.1252  0.1127  0.5299
 5196SOL    HW127050   2.981   4.009   6.507  0.4118  1.9919  2.1267
 5196SOL    HW227051   2.831   4.027   6.517 -0.5557 -0.5646  0.9969
 5197SOL     OW27052   2.773   2.329   8.381  0.0512 -0.9888  0.1569
 5197SOL    HW127053   2.867   2.320   8.364  0.6112  3.3687  1.1618
 5197SOL    HW227054   2.748   2.236   8.386  0.6237 -1.1694 -0.2757
 5198SOL     OW27055   2.856   2.970  13.853 -0.2407  0.2156  0.3511
 5198SOL    HW127056   2.828   2.995  13.765  0.1400  0.8344  0.4050
 5198SOL    HW227057   2.772   2.949  13.894 -0.1426  0.6732  0.7929
 5199SOL     OW27058   0.534   0.721  12.085  0.5001  0.0057 -0.2545
 5199SOL    HW127059   0.502   0.646  12.136  0.9130  0.1148  0.1620
 5199SOL    HW227060   0.455   0.747  12.037  0.8760  2.5076  0.4806
 5200SOL     OW27061   2.183   4.210   6.917 -0.2541 -0.2328 -0.1366
 5200SOL    HW127062   2.210   4.192   6.827  1.2257  1.1783  0.0266
 5200SOL    HW227063   2.089   4.226   6.908 -0.2225  0.3893  0.6068
 5201SOL     OW27064   4.613   3.314  12.097  0.8807 -0.1396  0.2773
 5201SOL    HW127065   4.573   3.227  12.103  1.6376 -0.4627  0.6954
 5201SOL    HW227066   4.545   3.368  12.137  0.2607  0.3871 -1.4876
 5202SOL     OW27067   2.835   2.036   3.724 -0.1855  0.3015  0.0536
 5202SOL    HW127068   2.773   1.981   3.772  1.9472 -1.9905  0.1851
 5202SOL    HW227069   2.775   2.084   3.667  2.4909  2.5264 -0.8413
 5203SOL     OW27070   2.097   4.169   6.491 -0.1224 -0.6022  0.2195
 5203SOL    HW127071   2.091   4.265   6.487 -1.6471 -0.6020  2.7474
 5203SOL    HW227072   2.183   4.154   6.531 -0.0911 -2.7182 -0.6270
 5204SOL     OW27073   0.254   1.621   6.733  0.0295 -0.4363  0.4438
 5204SOL    HW127074   0.214   1.663   6.809  0.5609  2.1390 -0.6927
 5204SOL    HW227075   0.322   1.681   6.701 -1.2308  0.9908  0.4278
 5205SOL     OW27076   2.649   2.992  12.471 -0.0799 -0.1663 -0.0281
 5205SOL    HW127077   2.574   3.007  12.527  1.5423  0.4521  1.9894
 5205SOL    HW227078   2.611   2.944  12.396  0.4245  1.6593 -1.4479
 5206SOL     OW27079   1.874   0.956  11.700  0.2465 -0.2967  0.1301
 5206SOL    HW127080   1.891   0.903  11.778  1.0370  0.6848  0.6161
 5206SOL    HW227081   1.792   0.989  11.736 -0.6214 -0.1158 -1.9683
 5207SOL     OW27082   4.113   0.716  14.807  0.0542 -0.4765  0.6450
 5207SOL    HW127083   4.094   0.774  14.734  0.0809  1.3803  2.0986
 5207SOL    HW227084   4.035   0.731  14.861  0.3407 -0.7352  1.1336
 5208SOL     OW27085   3.803   1.125   6.221  0.2239  0.3201 -0.0580
 5208SOL    HW127086   3.758   1.079   6.150  0.8881  0.2912 -0.4565
 5208SOL    HW227087   3.872   1.170   6.172  0.5277 -0.3153 -0.2217
 5209SOL     OW27088   3.662   3.299   4.304 -0.3195 -0.5954  0.2948
 5209SOL    HW127089   3.626   3.247   4.232  0.3701  1.2795 -1.4049
 5209SOL    HW227090   3.730   3.347   4.258 -1.6528 -1.0376 -2.1465
 5210SOL     OW27091   1.777   3.809   5.463  0.6511 -0.4522  0.1930
 5210SOL    HW127092   1.793   3.746   5.533 -0.0296 -0.3908  0.3972
 5210SOL    HW227093   1.683   3.801   5.449  0.3581  2.2163  0.6236
 5211SOL     OW27094   2.622   4.607  10.067  0.3202  0.7326 -0.6539
 5211SOL    HW127095   2.644   4.655   9.988  0.6216  1.1079 -0.3365
 5211SOL    HW227096   2.526   4.609  10.061  0.1100 -2.8451  0.9252
 5212SOL     OW27097   1.035   1.197   2.857 -0.4227  0.6008  0.5124
 5212SOL    HW127098   0.945   1.224   2.874 -0.6666 -0.1374  0.4127
 5212SOL    HW227099   1.027   1.104   2.879  1.8274 -0.3981 -2.8065
 5213SOL     OW27100   0.698   4.028  13.372 -0.4021  0.2136 -0.4669
 5213SOL    HW127101   0.737   4.093  13.430  0.3134 -0.0344 -0.6766
 5213SOL    HW227102   0.770   3.972  13.347 -2.5944 -0.8961 -4.3258
 5214SOL     OW27103   1.804   1.700   8.898 -0.3027  0.1526 -0.3735
 5214SOL    HW127104   1.779   1.770   8.837  0.4784 -1.6860 -2.7832
 5214SOL    HW227105   1.718   1.694   8.940 -0.4658  1.4843 -0.5013
 5215SOL     OW27106   4.026   0.568   1.104  0.0701  0.0726  0.5547
 5215SOL    HW127107   4.076   0.486   1.109  0.4863  0.2095 -1.2123
 5215SOL    HW227108   3.950   0.538   1.153  0.8253 -0.3213  1.4820
 5216SOL     OW27109   1.436   1.079  17.620 -0.3155 -0.0117  0.1669
 5216SOL    HW127110   1.383   1.029  17.682 -1.2728 -1.9040 -2.1806
 5216SOL    HW227111   1.463   1.150  17.678  2.9811 -0.7136 -0.4960
 5217SOL     OW27112   1.803   0.955  17.179 -0.2856 -0.0838 -0.1412
 5217SOL    HW127113   1.796   0.982  17.271  1.9607  1.5118 -0.4522
 5217SOL    HW227114   1.721   0.906  17.174 -2.6971  3.8296  0.4200
 5218SOL     OW27115   2.694   3.881  15.089 -0.5366 -0.3838 -0.4702
 5218SOL    HW127116   2.648   3.905  15.169  0.9734 -1.6446  0.7742
 5218SOL    HW227117   2.627   3.829  15.044 -1.9439  0.5685  0.5207
 5219SOL     OW27118   3.773   4.117   7.360  0.0874  0.1224 -0.1131
 5219SOL    HW127119   3.758   4.210   7.342  2.0850  0.3437 -0.5840
 5219SOL    HW227120   3.687   4.081   7.340  0.1912 -0.4114  0.4124
 5220SOL     OW27121   2.962   3.056  17.582 -0.0302  0.1873 -0.2737
 5220SOL    HW127122   3.051   3.026  17.565 -0.1892  0.5143 -1.6564
 5220SOL    HW227123   2.927   2.972  17.611 -1.8174  1.6067  1.6491
 5221SOL     OW27124   0.175   4.549  17.186  0.0851  0.1358 -0.2441
 5221SOL    HW127125   0.184   4.490  17.261 -0.4821  0.0703 -0.2238
 5221SOL    HW227126   0.106   4.608  17.218 -0.0326 -1.7926  3.1368
 5222SOL     OW27127   4.129   0.941   6.697  0.9474  0.1424  0.0826
 5222SOL    HW127128   4.130   0.898   6.782 -0.8081  0.6684  0.3732
 5222SOL    HW227129   4.205   0.998   6.707  0.9785  0.4026 -1.6841
 5223SOL     OW27130   3.257   1.572   9.156  0.6057  0.0193  0.6262
 5223SOL    HW127131   3.223   1.578   9.067  1.5610  0.3995  0.2909
 5223SOL    HW227132   3.334   1.628   9.158  1.2480 -0.8496 -0.2407
 5224SOL     OW27133   3.608   3.069   1.816 -0.4435  0.3540 -0.0822
 5224SOL    HW127134   3.660   3.007   1.766  0.9797  1.2818  0.2552
 5224SOL    HW227135   3.549   3.094   1.744 -1.4831 -1.2835  0.2025
 5225SOL     OW27136   4.631   3.084   5.660 -0.3840 -0.5943  0.1266
 5225SOL    HW127137   4.714   3.052   5.696 -0.3647  0.4233  0.9610
 5225SOL    HW227138   4.630   3.036   5.577 -2.7284  1.7860 -1.2329
 5226SOL     OW27139   4.369   1.052   0.150  0.2704 -0.0685 -0.3033
 5226SOL    HW127140   4.323   1.062   0.067 -1.8973  1.5376  1.1061
 5226SOL    HW227141   4.420   0.972   0.141  0.5746  0.1019 -0.1108
 5227SOL     OW27142   0.617   4.648  12.958 -0.4547 -0.3793 -0.2120
 5227SOL    HW127143   0.652   4.631  13.045 -1.4111  0.1654  0.2712
 5227SOL    HW227144   0.625   0.018  12.959 -0.3459 -0.3886 -0.2023
 5228SOL     OW27145   0.228   4.167  16.336  0.6806  0.1795 -0.1153
 5228SOL    HW127146   0.199   4.249  16.296  0.2440 -0.8678 -1.9749
 5228SOL    HW227147   0.303   4.202  16.384 -0.4244  3.1721 -0.6137
 5229SOL     OW27148   0.362   0.070  13.686 -0.1017  0.1454 -0.2851
 5229SOL    HW127149   0.358   4.704  13.714 -0.0812  0.0727 -0.5200
 5229SOL    HW227150   0.285   0.112  13.724 -0.9028 -1.3449 -0.2487
 5230SOL     OW27151   1.633   2.212   4.552 -0.1108  0.1977  0.6548
 5230SOL    HW127152   1.539   2.231   4.547  0.2066  2.0427  1.9507
 5230SOL    HW227153   1.665   2.264   4.478  0.9951 -2.4518 -0.7192
 5231SOL     OW27154   1.391   2.809   4.610  0.0799 -0.0342  0.1520
 5231SOL    HW127155   1.339   2.838   4.535  0.2199  0.9310  0.4281
 5231SOL    HW227156   1.323   2.772   4.665  0.9040  1.5752  2.2609
 5232SOL     OW27157   1.951   1.402  11.645 -0.5480 -0.5188 -0.0878
 5232SOL    HW127158   1.999   1.341  11.701  0.7214 -0.0046 -0.6072
 5232SOL    HW227159   1.899   1.341  11.593 -1.0883 -2.0172  2.1954
 5233SOL     OW27160   4.439   1.378  17.010  0.3882 -0.7984  0.0916
 5233SOL    HW127161   4.429   1.378  17.106  2.5562  0.6129  0.3422
 5233SOL    HW227162   4.458   1.472  17.006  2.0159 -0.9716  3.1178
 5234SOL     OW27163   2.978   4.017   7.532 -0.3906 -0.1835  0.2108
 5234SOL    HW127164   2.929   3.935   7.539  2.4476 -1.8700  0.3200
 5234SOL    HW227165   3.055   4.003   7.587 -0.5949  0.7365  0.7287
 5235SOL     OW27166   2.777   2.584  15.194  0.0295  0.6379  0.5783
 5235SOL    HW127167   2.747   2.548  15.111  1.0996  2.4355 -0.5890
 5235SOL    HW227168   2.698   2.630  15.220 -0.3984  0.9255 -1.2439
 5236SOL     OW27169   1.885   2.008  12.141 -0.5744 -0.5575  0.2400
 5236SOL    HW127170   1.947   2.011  12.214 -0.5051 -1.0537  0.2013
 5236SOL    HW227171   1.934   1.952  12.080  0.6949 -1.1494  1.8224
 5237SOL     OW27172   3.843   3.051   9.574  0.0573  0.4335  0.2402
 5237SOL    HW127173   3.914   3.022   9.631  1.0698 -0.2922 -1.4241
 5237SOL    HW227174   3.863   3.142   9.550  0.8479  1.1001  3.3848
 5238SOL     OW27175   4.493   0.149   2.202  0.4208  0.4484 -0.2963
 5238SOL    HW127176   4.423   0.169   2.140  0.3052 -1.3673 -0.7500
 5238SOL    HW227177   4.555   0.106   2.143  0.3523  2.7356 -2.0127
 5239SOL     OW27178   2.490   4.497   3.299 -0.3972  0.8824 -0.4951
 5239SOL    HW127179   2.445   4.444   3.364 -1.3328  0.0392 -1.8179
 5239SOL    HW227180   2.538   4.561   3.352 -1.0948  0.9730  0.0205
 5240SOL     OW27181   3.092   2.101  13.247 -0.0963  0.0304 -0.5717
 5240SOL    HW127182   3.109   2.052  13.167  1.2336  0.3692 -0.4999
 5240SOL    HW227183   3.173   2.088  13.297 -0.7237  0.4471  0.5571
 5241SOL     OW27184   2.545   1.837   4.190  0.1844 -0.0936  0.4763
 5241SOL    HW127185   2.463   1.826   4.238  0.8444 -0.3389  1.5429
 5241SOL    HW227186   2.513   1.846   4.100 -2.4759 -0.2640  1.3991
 5242SOL     OW27187   3.712   4.091   3.276  0.0842 -0.5235 -0.2406
 5242SOL    HW127188   3.631   4.141   3.267  1.2620  1.8727  2.3743
 5242SOL    HW227189   3.778   4.137   3.224  1.9322 -1.1081  1.5956
 5243SOL     OW27190   0.660   3.101   8.063  0.5013  0.2315 -0.0797
 5243SOL    HW127191   0.634   3.138   8.147 -1.0690 -3.2246  0.9512
 5243SOL    HW227192   0.658   3.009   8.086 -4.4315 -0.0655 -1.6164
 5244SOL     OW27193   3.674   0.715   7.386 -0.4680  0.7054 -0.2350
 5244SOL    HW127194   3.582   0.733   7.403 -1.0150 -1.3651 -1.0098
 5244SOL    HW227195   3.714   0.796   7.418 -1.2273  1.8191 -2.1338
 5245SOL     OW27196   2.641   1.085  11.260 -0.0253  0.3730 -0.0442
 5245SOL    HW127197   2.731   1.063  11.282  0.7207  1.7184 -1.7376
 5245SOL    HW227198   2.653   1.158  11.200 -1.6330 -0.4894 -1.4229
 5246SOL     OW27199   3.296   1.424  12.082 -0.6327 -0.5037 -0.2236
 5246SOL    HW127200   3.231   1.480  12.040  0.5229  3.5851  3.5703
 5246SOL    HW227201   3.298   1.468  12.167 -3.5320 -1.6489  0.4281
 5247SOL     OW27202   2.727   4.300  10.610 -0.2363 -0.6584 -0.0271
 5247SOL    HW127203   2.682   4.273  10.690 -1.5788  1.1936 -0.1603
 5247SOL    HW227204   2.755   4.211  10.591 -3.0503 -1.6503  0.4706
 5248SOL     OW27205   3.077   3.830   5.290 -0.7028  0.2000  0.0844
 5248SOL    HW127206   2.997   3.883   5.290  0.2168  1.5921 -0.5085
 5248SOL    HW227207   3.054   3.801   5.202 -0.2900  0.4913 -0.1183
 5249SOL     OW27208   3.939   0.516   6.600  0.5536  0.4503  0.2308
 5249SOL    HW127209   3.932   0.443   6.539  1.5900 -0.0261  0.6841
 5249SOL    HW227210   4.017   0.491   6.649  1.7584  0.8289 -1.4983
 5250SOL     OW27211   0.501   0.550  15.738  0.4337 -0.3132 -0.3221
 5250SOL    HW127212   0.564   0.479  15.723  1.9060  1.0530 -0.6152
 5250SOL    HW227213   0.441   0.509  15.800  1.2837  1.3234  1.5945
 5251SOL     OW27214   1.861   2.034  11.357  0.0736 -0.1456  0.3204
 5251SOL    HW127215   1.844   1.943  11.379  1.5130 -0.7064 -0.8952
 5251SOL    HW227216   1.939   2.021  11.303  1.4226 -2.2053  2.7440
 5252SOL     OW27217   4.381   3.771  10.955  0.3183  0.2463 -0.2010
 5252SOL    HW127218   4.455   3.775  11.015  0.1835  0.4259 -0.0484
 5252SOL    HW227219   4.308   3.749  11.012  0.5866 -1.9226 -0.6787
 5253SOL     OW27220   3.469   4.370   2.918 -0.6726 -0.0651  0.6407
 5253SOL    HW127221   3.560   4.343   2.933 -0.0678  0.9296 -1.2408
 5253SOL    HW227222   3.460   4.444   2.978  1.1513  1.3051 -0.7710
 5254SOL     OW27223   3.007   1.224   6.639  0.4380  0.0236 -0.3928
 5254SOL    HW127224   3.029   1.271   6.559  1.0148  3.0366  1.5283
 5254SOL    HW227225   3.079   1.161   6.632  0.2449 -0.3109  0.6816
 5255SOL     OW27226   3.576   1.791   4.776  0.1120  0.0756 -0.2875
 5255SOL    HW127227   3.661   1.757   4.747 -1.4737 -1.5155 -3.0025
 5255SOL    HW227228   3.601   1.883   4.776  3.6940 -0.8547  1.0686
 5256SOL     OW27229   1.880   3.449   2.609 -0.3229  0.2112  0.3804
 5256SOL    HW127230   1.945   3.445   2.679  0.0494  1.7849  0.1242
 5256SOL    HW227231   1.934   3.423   2.534  0.5709 -1.1992  1.4938
 5257SOL     OW27232   2.366   2.074   3.053 -0.2983  0.3030  0.5715
 5257SOL    HW127233   2.389   2.008   3.118  0.0071  0.1102  0.2666
 5257SOL    HW227234   2.453   2.093   3.017 -1.0065 -0.0610 -1.3431
 5258SOL     OW27235   0.112   4.183  13.452 -0.5340 -0.1623 -0.2116
 5258SOL    HW127236   0.060   4.260  13.431 -0.6027 -0.0780  0.2637
 5258SOL    HW227237   0.195   4.229  13.440 -0.3676 -0.0540  1.2913
 5259SOL     OW27238   3.040   1.246   8.038  0.6675  0.1344  0.2458
 5259SOL    HW127239   3.099   1.290   8.100  0.2894  0.7179  0.1917
 5259SOL    HW227240   2.999   1.187   8.101 -2.5603  0.6335 -1.4458
 5260SOL     OW27241   3.228   1.694   5.600  0.2775  0.2179  0.4251
 5260SOL    HW127242   3.249   1.784   5.576  2.7772  0.0056  1.8674
 5260SOL    HW227243   3.316   1.674   5.630  1.1567  0.3420 -2.0309
 5261SOL     OW27244   2.799   1.630   3.112 -0.8037  0.3844  0.6890
 5261SOL    HW127245   2.872   1.668   3.160 -0.7052 -0.4357  1.1816
 5261SOL    HW227246   2.809   1.668   3.024  2.3970  0.5353  1.1405
 5262SOL     OW27247   3.915   4.628   3.189  0.3252  0.3715 -0.2306
 5262SOL    HW127248   3.934   4.644   3.282  2.1308 -0.1694 -0.5186
 5262SOL    HW227249   3.968   4.549   3.181  0.2363  0.2715  0.1379
 5263SOL     OW27250   0.775   3.889   5.262 -0.5078 -0.2448 -0.0235
 5263SOL    HW127251   0.849   3.939   5.227 -0.9534  1.1247  0.9866
 5263SOL    HW227252   0.696   3.904   5.210 -0.4163 -1.3038 -0.4645
 5264SOL     OW27253   2.424   0.516   1.393 -0.1815 -0.4899  0.5229
 5264SOL    HW127254   2.456   0.546   1.308  0.5849  3.1888  2.0881
 5264SOL    HW227255   2.487   0.445   1.401  0.1238 -0.4302 -1.5095
 5265SOL     OW27256   0.718   0.492   5.706  0.0420 -0.3224 -0.1076
 5265SOL    HW127257   0.687   0.581   5.723  0.2106  0.1365 -2.1457
 5265SOL    HW227258   0.797   0.510   5.655 -0.6903  1.3396 -0.6657
 5266SOL     OW27259   2.047   0.352   7.773  0.3436  0.1279 -0.3245
 5266SOL    HW127260   2.003   0.434   7.751  0.9901  0.0412 -1.9991
 5266SOL    HW227261   2.069   0.322   7.685 -1.5062  0.3006 -0.8622
 5267SOL     OW27262   0.671   2.370   5.904 -0.2003  0.5446  0.2019
 5267SOL    HW127263   0.767   2.376   5.909 -0.2044  1.2070 -0.5564
 5267SOL    HW227264   0.661   2.424   5.826 -1.1559  0.6209  0.3829
 5268SOL     OW27265   0.976   1.861   6.514 -0.5431  0.7629  0.0791
 5268SOL    HW127266   1.050   1.843   6.572 -0.0407  0.8824 -0.5191
 5268SOL    HW227267   1.026   1.850   6.433 -2.6827 -3.3028 -0.6690
 5269SOL     OW27268   1.048   3.320  11.781 -0.5821 -0.0301  0.3490
 5269SOL    HW127269   1.068   3.339  11.689  0.7165 -0.6383  0.5043
 5269SOL    HW227270   1.072   3.395  11.836  0.8789 -2.4760  3.0389
 5270SOL     OW27271   2.932   2.573   7.453 -0.5855  0.1455  0.3245
 5270SOL    HW127272   3.012   2.576   7.401  0.3845 -0.2433  1.7734
 5270SOL    HW227273   2.980   2.598   7.532  0.8216  0.1725 -0.5499
 5271SOL     OW27274   2.623   1.988   1.715 -0.1637 -0.1036  0.2798
 5271SOL    HW127275   2.562   1.920   1.742  0.8993 -1.6292 -1.1500
 5271SOL    HW227276   2.692   1.923   1.704  0.4093  0.5753 -0.1400
 5272SOL     OW27277   3.690   2.709   5.942  0.3668 -0.5796  0.0117
 5272SOL    HW127278   3.678   2.802   5.924  1.3371 -0.3037  0.8475
 5272SOL    HW227279   3.768   2.679   5.895 -1.4859 -2.5194 -1.8780
 5273SOL     OW27280   0.241   4.591   6.923 -0.1850 -0.7042  0.8889
 5273SOL    HW127281   0.271   4.580   7.013 -1.3234 -1.2367  1.2053
 5273SOL    HW227282   0.194   4.674   6.931  0.5789 -0.0069 -1.8478
 5274SOL     OW27283   4.678   1.151   2.136 -0.1286  0.0756 -0.1433
 5274SOL    HW127284   0.048   1.163   2.128 -0.0525 -0.3869  0.0865
 5274SOL    HW227285   4.664   1.156   2.230  1.0010  2.6289 -0.0999
 5275SOL     OW27286   3.218   3.973   4.026 -0.9365 -0.1662 -0.4104
 5275SOL    HW127287   3.149   4.004   3.967  0.5661 -1.7429 -3.0023
 5275SOL    HW227288   3.267   3.910   3.973  0.9724 -0.1825  1.3962
 5276SOL     OW27289   2.573   0.078   6.135 -0.0706  0.2412 -0.0166
 5276SOL    HW127290   2.635   0.066   6.063  3.0604 -2.9265  3.1687
 5276SOL    HW227291   2.565   4.714   6.169 -0.5766 -0.0218 -0.8201
 5277SOL     OW27292   4.660   3.860   3.503  0.2317 -0.1651 -0.0709
 5277SOL    HW127293   4.707   3.907   3.433  0.9491 -0.7814 -0.0035
 5277SOL    HW227294   4.572   3.878   3.470  0.6314  1.2502 -0.3638
 5278SOL     OW27295   3.225   4.687   4.042  0.3951  0.2303 -0.2405
 5278SOL    HW127296   3.145   4.660   3.997 -0.1472 -2.0964  2.0348
 5278SOL    HW227297   3.246   4.618   4.106 -2.2363  0.9573  1.4052
 5279SOL     OW27298   2.189   1.516   5.088 -0.3429  0.1585  0.1225
 5279SOL    HW127299   2.268   1.462   5.087  0.4177  1.2445  3.2916
 5279SOL    HW227300   2.193   1.555   5.001 -2.3431 -1.2955 -0.6388
 5280SOL     OW27301   2.710   0.262   5.079 -0.0586 -0.0904 -0.4346
 5280SOL    HW127302   2.790   0.302   5.113 -2.1895  1.4405  2.7523
 5280SOL    HW227303   2.711   0.309   4.996  1.9173 -0.8093 -0.8058
 5281SOL     OW27304   0.133   0.650  10.603 -0.5260 -0.2510  0.0747
 5281SOL    HW127305   0.087   0.572  10.634 -2.5248  0.6191 -0.7430
 5281SOL    HW227306   0.110   0.649  10.510  1.6396 -2.7881 -0.4359
 5282SOL     OW27307   0.244   2.051   5.368 -0.1628  0.0178  0.2800
 5282SOL    HW127308   0.204   1.985   5.311  0.0466 -0.7446  1.0177
 5282SOL    HW227309   0.309   2.090   5.311 -0.2627  0.9523  0.8085
 5283SOL     OW27310   4.723   1.938   9.169  0.2393  0.1919 -0.2692
 5283SOL    HW127311   0.038   1.863   9.124  2.5037  0.3291  1.4844
 5283SOL    HW227312   0.048   2.017   9.147  1.1584 -0.2958  0.0453
 5284SOL     OW27313   2.060   3.949   3.896 -0.4603 -0.4803 -0.2467
 5284SOL    HW127314   2.155   3.956   3.886 -0.7745  1.2777 -1.8497
 5284SOL    HW227315   2.049   3.901   3.978  1.4746  0.4574  0.5614
 5285SOL     OW27316   1.788   1.150   1.896 -0.1113 -0.4762 -0.5791
 5285SOL    HW127317   1.772   1.092   1.971 -1.8212  0.0918 -0.4925
 5285SOL    HW227318   1.879   1.172   1.913 -0.8544  1.1501  1.3960
 5286SOL     OW27319   1.426   4.311   3.452 -0.6880 -0.2902  0.0492
 5286SOL    HW127320   1.495   4.252   3.481 -1.4882 -0.2131  2.1267
 5286SOL    HW227321   1.443   4.393   3.499 -0.0555 -0.9954  1.0542
 5287SOL     OW27322   3.371   0.254   7.391  0.3290  0.2994 -0.2878
 5287SOL    HW127323   3.423   0.183   7.353  2.6051  2.2903 -0.8745
 5287SOL    HW227324   3.373   0.320   7.322  0.9190 -1.0782 -1.5942
 5288SOL     OW27325   0.755   0.181  14.882  0.3295 -0.2384 -0.0222
 5288SOL    HW127326   0.839   0.156  14.921  0.0964  0.3092  0.8396
 5288SOL    HW227327   0.770   0.272  14.856 -2.3905 -0.4993 -2.5312
 5289SOL     OW27328   3.160   0.111   3.543 -0.2024  0.0864 -0.2870
 5289SOL    HW127329   3.182   0.177   3.610  0.1292 -0.5646  0.2457
 5289SOL    HW227330   3.194   0.144   3.460 -0.8181  3.2991  0.7052
 5290SOL     OW27331   2.608   4.058   7.356  0.3054 -0.1582  0.1225
 5290SOL    HW127332   2.634   3.967   7.338  2.8875  0.6344 -0.1375
 5290SOL    HW227333   2.658   4.073   7.437  0.1122 -0.6940  0.3404
 5291SOL     OW27334   3.524   1.548   5.830  0.0055 -1.3577 -0.4324
 5291SOL    HW127335   3.498   1.621   5.772 -0.2274 -0.3447  0.9386
 5291SOL    HW227336   3.570   1.483   5.778 -0.3140 -2.4993  0.7186
 5292SOL     OW27337   4.194   1.323   4.025  0.0746  0.5898  0.3324
 5292SOL    HW127338   4.279   1.279   4.023  1.1695  2.7707 -0.1281
 5292SOL    HW227339   4.182   1.344   3.933  1.9882  1.2258  0.2332
 5293SOL     OW27340   1.439   4.426   4.197  0.6809  0.6148  0.5762
 5293SOL    HW127341   1.504   4.379   4.251  0.3783 -1.4359 -0.8486
 5293SOL    HW227342   1.423   4.486   4.270 -1.2500 -0.2844  0.8943
 5294SOL     OW27343   1.801   2.664   2.802 -0.5156 -0.0683 -0.3045
 5294SOL    HW127344   1.711   2.637   2.784 -1.1576 -0.5620  3.6300
 5294SOL    HW227345   1.851   2.612   2.739 -1.4751  1.3515 -2.1961
 5295SOL     OW27346   1.106   1.215   5.284  0.4745 -0.0324 -0.6042
 5295SOL    HW127347   1.180   1.156   5.296  0.0197 -0.4945 -0.1233
 5295SOL    HW227348   1.038   1.150   5.270  0.2159 -0.1003  0.9453
 5296SOL     OW27349   0.021   0.351  11.739 -0.1909 -0.7791 -0.3476
 5296SOL    HW127350   4.720   0.427  11.686 -0.2987 -0.2938  0.3964
 5296SOL    HW227351   0.071   0.298  11.677  3.4894 -1.1970  2.9218
 5297SOL     OW27352   0.634   2.832   8.152  0.1926 -0.4953 -0.4903
 5297SOL    HW127353   0.576   2.815   8.226  1.3472  1.7601  0.9253
 5297SOL    HW227354   0.638   2.741   8.122 -1.8615 -0.7456 -0.0085
 5298SOL     OW27355   0.307   3.555   3.919 -0.2359  0.2894 -0.0418
 5298SOL    HW127356   0.354   3.556   3.836  1.4676 -0.7997  0.9181
 5298SOL    HW227357   0.235   3.612   3.890 -1.7092 -2.6261 -2.0980
 5299SOL     OW27358   3.389   4.176   8.034 -0.4868 -0.7303 -0.2596
 5299SOL    HW127359   3.366   4.083   8.038 -2.1883 -0.4641 -4.3269
 5299SOL    HW227360   3.408   4.192   8.127 -0.0341 -1.0113 -0.3062
 5300SOL     OW27361   2.615   3.160   2.293 -0.0866  0.8454 -0.4139
 5300SOL    HW127362   2.523   3.163   2.320 -0.5257  1.3058 -1.9830
 5300SOL    HW227363   2.624   3.249   2.258 -0.4089  1.4311  0.9643
 5301SOL     OW27364   4.299   2.072   1.242 -0.3586 -0.3299 -0.2323
 5301SOL    HW127365   4.391   2.053   1.226 -0.0701  1.6710 -0.9631
 5301SOL    HW227366   4.296   2.167   1.228 -1.5277 -0.4639 -0.8448
 5302SOL     OW27367   3.290   3.810  12.771  0.4182 -0.1076 -0.1560
 5302SOL    HW127368   3.267   3.894  12.812  0.6004 -0.5099  0.7565
 5302SOL    HW227369   3.321   3.749  12.838  3.2199  0.3884 -0.9801
 5303SOL     OW27370   3.437   0.786   2.528  0.7421 -0.1401 -0.3829
 5303SOL    HW127371   3.412   0.798   2.620 -1.7120 -2.3330 -0.7752
 5303SOL    HW227372   3.480   0.871   2.518  2.5647 -1.1412 -0.9708
 5304SOL     OW27373   4.577   2.911   6.285  0.3882 -0.3801  0.1521
 5304SOL    HW127374   4.512   2.882   6.221  0.8632 -1.4865  0.1717
 5304SOL    HW227375   4.607   2.982   6.229  0.0947  0.8419  1.5531
 5305SOL     OW27376   4.119   4.444   3.169  0.1513  0.6511 -0.5940
 5305SOL    HW127377   4.166   4.490   3.239 -0.8545  1.5639 -0.5236
 5305SOL    HW227378   4.119   4.353   3.198 -2.2184  0.5275 -0.9690
 5306SOL     OW27379   1.070   0.022  13.134  0.2447  0.1752 -0.2514
 5306SOL    HW127380   1.048   0.082  13.205  0.6619 -1.5548  1.3326
 5306SOL    HW227381   1.093   0.089  13.070  3.3747 -0.0748  0.6067
 5307SOL     OW27382   3.583   2.794   2.806 -0.5096 -0.3981 -0.1976
 5307SOL    HW127383   3.578   2.888   2.825  1.3878 -0.4534  0.6714
 5307SOL    HW227384   3.611   2.803   2.715 -2.0767  2.9602 -0.3438
 5308SOL     OW27385   0.037   0.087  13.000 -0.5195 -0.8796  0.7338
 5308SOL    HW127386   0.064   0.000  12.970  0.3968 -0.1627 -0.5688
 5308SOL    HW227387   0.118   0.135  12.981  0.1545 -1.7296  1.4581
 5309SOL     OW27388   3.609   2.290   2.625  0.0498  0.1472  0.4072
 5309SOL    HW127389   3.537   2.273   2.686 -1.4150  2.7877 -0.5942
 5309SOL    HW227390   3.657   2.208   2.637 -1.7799 -0.9869 -0.1218
 5310SOL     OW27391   2.956   1.319  15.668  0.8771 -0.0114  0.2865
 5310SOL    HW127392   2.883   1.352  15.721  0.5887 -1.4895  0.8011
 5310SOL    HW227393   3.031   1.362  15.709  0.6623 -0.7423  1.4622
 5311SOL     OW27394   2.722   1.907   7.869  0.0589  0.4637  0.0049
 5311SOL    HW127395   2.638   1.947   7.845 -0.5616 -0.8545 -0.0373
 5311SOL    HW227396   2.776   1.913   7.791 -0.0039  0.0160 -0.0738
 5312SOL     OW27397   0.021   2.968  15.989  0.3280  0.5561  0.2986
 5312SOL    HW127398   0.111   2.983  15.959  0.8589 -0.3734  1.4417
 5312SOL    HW227399   4.701   3.051  15.976 -1.7645 -0.4583  1.0013
 5313SOL     OW27400   0.583   2.873   3.027  0.4055  0.2047  0.4596
 5313SOL    HW127401   0.566   2.834   2.941 -1.2346  1.8835  0.0192
 5313SOL    HW227402   0.564   2.965   3.006 -0.7978  0.1159  1.1712
 5314SOL     OW27403   3.172   3.817   7.245  0.0596  0.1027 -0.1334
 5314SOL    HW127404   3.196   3.910   7.239  0.0224  0.0516 -0.9718
 5314SOL    HW227405   3.216   3.784   7.324 -0.3215  2.2776  0.9974
 5315SOL     OW27406   3.935   2.465   7.850 -0.2138 -0.0312 -0.2823
 5315SOL    HW127407   3.936   2.374   7.880 -0.7001 -0.2708 -1.0079
 5315SOL    HW227408   3.954   2.451   7.757 -0.0965  1.3876 -0.4688
 5316SOL     OW27409   2.007   4.076  10.412 -0.3205 -0.1153 -0.2327
 5316SOL    HW127410   2.036   4.143  10.474 -0.0971 -0.9316  0.5529
 5316SOL    HW227411   1.920   4.106  10.388 -0.5168 -0.5236 -0.0361
 5317SOL     OW27412   0.051   1.613   8.209 -0.1030 -0.0997  0.0133
 5317SOL    HW127413   0.082   1.651   8.127 -0.5783  0.4392  0.0817
 5317SOL    HW227414   4.695   1.663   8.212 -0.0704 -0.2044  2.3654
 5318SOL     OW27415   2.456   1.201   7.887 -0.1942 -0.7872  0.1391
 5318SOL    HW127416   2.393   1.129   7.879  1.4821 -1.9735 -2.1041
 5318SOL    HW227417   2.525   1.173   7.947  0.2755  2.8442  1.2835
 5319SOL     OW27418   1.261   1.295   5.982 -0.7520  0.5008  0.3358
 5319SOL    HW127419   1.222   1.370   5.937 -1.7620  0.2430  0.7874
 5319SOL    HW227420   1.198   1.228   5.958  0.0635  0.4386 -1.6394
 5320SOL     OW27421   4.403   4.276   9.202  0.3661  0.8118 -0.0922
 5320SOL    HW127422   4.312   4.276   9.232  0.4103  0.0138  0.0406
 5320SOL    HW227423   4.441   4.214   9.265 -2.1121  1.6095  2.1737
 5321SOL     OW27424   2.547   3.602   9.195 -0.5350 -0.6400 -0.3056
 5321SOL    HW127425   2.499   3.655   9.259  1.2130  0.2593  0.2479
 5321SOL    HW227426   2.486   3.614   9.122  0.7300  0.2922 -1.2053
 5322SOL     OW27427   0.229   0.970  10.079 -0.3971  0.2897 -0.0891
 5322SOL    HW127428   0.276   0.887  10.091 -1.7692 -0.6410 -1.1552
 5322SOL    HW227429   0.153   0.951  10.135  0.2447  3.2429  1.7996
 5323SOL     OW27430   3.217   2.265   2.985 -0.6343  0.4209  0.0314
 5323SOL    HW127431   3.218   2.324   3.060  0.9311 -0.1515  0.4606
 5323SOL    HW227432   3.234   2.185   3.034  0.8427  0.4802 -0.3818
 5324SOL     OW27433   2.132   3.330   0.546 -0.1741  0.0814  0.5473
 5324SOL    HW127434   2.216   3.290   0.523  0.2339  1.4592 -0.3591
 5324SOL    HW227435   2.074   3.253   0.552  0.0739 -0.0986  0.6379
 5325SOL     OW27436   1.425   2.317   7.350 -0.4240 -0.2553  0.1089
 5325SOL    HW127437   1.467   2.231   7.355  1.1909  0.3355 -3.7033
 5325SOL    HW227438   1.438   2.341   7.259  0.3817  1.1228  0.5872
 5326SOL     OW27439   0.378   0.836   7.346 -0.6703 -0.1467  0.4738
 5326SOL    HW127440   0.352   0.812   7.257 -0.5840  0.1600  0.3643
 5326SOL    HW227441   0.317   0.905   7.374  1.3569  0.6716  2.8742
 5327SOL     OW27442   0.189   0.350   6.402  0.5085  0.0427 -0.3727
 5327SOL    HW127443   0.139   0.401   6.465  1.2052 -2.4693  2.2096
 5327SOL    HW227444   0.211   0.286   6.469  1.1851  0.0573 -0.5839
 5328SOL     OW27445   2.970   3.369   7.169 -0.8434 -0.3119 -0.0376
 5328SOL    HW127446   2.919   3.447   7.192  0.3639  0.2817  0.5942
 5328SOL    HW227447   2.944   3.369   7.077 -0.7180 -1.7711 -0.0688
 5329SOL     OW27448   4.122   4.397   8.984 -0.2512 -0.0851 -0.1750
 5329SOL    HW127449   4.099   4.308   9.010 -1.2265 -0.1962 -1.3748
 5329SOL    HW227450   4.171   4.381   8.903  1.0342  0.4632  0.5010
 5330SOL     OW27451   1.055   3.026   2.796  0.0731  0.3221 -0.4749
 5330SOL    HW127452   0.959   3.029   2.799  0.0334  0.6399 -1.9648
 5330SOL    HW227453   1.071   3.011   2.703 -0.3461 -0.2377 -0.4586
 5331SOL     OW27454   4.635   1.259   7.929 -0.1279  0.3933 -0.1050
 5331SOL    HW127455   4.721   1.292   7.952 -1.8002  3.9529  1.0644
 5331SOL    HW227456   4.604   1.262   8.019  0.1430  0.8937 -0.0286
 5332SOL     OW27457   4.477   2.664   8.376  0.6292 -0.2165  0.3885
 5332SOL    HW127458   4.489   2.740   8.433  0.9493  0.8830 -1.1438
 5332SOL    HW227459   4.385   2.639   8.382  0.3782  0.2039 -1.4684
 5333SOL     OW27460   0.909   2.525  12.454  0.5151  0.0650 -0.2832
 5333SOL    HW127461   0.940   2.565  12.372  3.5532  0.1826  0.9298
 5333SOL    HW227462   0.882   2.609  12.492  0.4336  0.4661 -1.2339
 5334SOL     OW27463   3.181   4.595  15.643  0.1450 -0.0717  0.1095
 5334SOL    HW127464   3.194   4.608  15.737 -0.8321  1.2540  0.0567
 5334SOL    HW227465   3.203   4.502  15.638 -1.2907 -0.2877 -2.2143
 5335SOL     OW27466   4.690   4.158   7.978  0.0363  0.0748 -0.2333
 5335SOL    HW127467   4.656   4.074   7.946 -0.8775  0.1443  0.5342
 5335SOL    HW227468   4.644   4.170   8.062 -0.0902 -0.2592 -0.2528
 5336SOL     OW27469   1.441   0.379   1.675 -0.6132  0.6962  0.0019
 5336SOL    HW127470   1.406   0.293   1.651 -2.6791  1.1202  1.4897
 5336SOL    HW227471   1.529   0.348   1.698 -0.9140 -0.7656 -0.8524
 5337SOL     OW27472   2.346   4.261  16.501  0.4170  0.3352  0.3033
 5337SOL    HW127473   2.394   4.189  16.460 -1.1189  0.7358 -2.2020
 5337SOL    HW227474   2.254   4.244  16.485  0.2254  0.5586  1.1711
 5338SOL     OW27475   0.457   3.905  13.441  0.0107 -0.1541 -0.7411
 5338SOL    HW127476   0.537   3.947  13.409 -0.0587 -0.5874 -1.4819
 5338SOL    HW227477   0.490   3.874  13.524  0.0495  0.1739 -0.6330
 5339SOL     OW27478   1.886   0.142   7.879 -0.4862 -0.3510 -0.1946
 5339SOL    HW127479   1.944   0.206   7.838 -0.3068  0.3654  1.1709
 5339SOL    HW227480   1.809   0.174   7.833 -0.0953  2.1564  0.9296
 5340SOL     OW27481   0.663   1.619   5.103  0.0437 -0.1033 -0.1116
 5340SOL    HW127482   0.691   1.534   5.070 -0.2040  0.0697 -0.7608
 5340SOL    HW227483   0.585   1.600   5.155 -1.4230  0.5449 -2.0760
 5341SOL     OW27484   0.496   0.807   1.230  0.2949 -0.1963 -0.1406
 5341SOL    HW127485   0.493   0.750   1.307  4.6935 -1.4653 -0.8983
 5341SOL    HW227486   0.571   0.862   1.252 -0.8152  1.2291  0.1122
 5342SOL     OW27487   3.831   2.005   4.251 -0.2742  0.3837 -0.3046
 5342SOL    HW127488   3.806   1.913   4.245 -0.0199  0.3664 -1.0862
 5342SOL    HW227489   3.765   2.038   4.312 -0.3749 -0.7016  0.1779
 5343SOL     OW27490   4.074   1.611   8.473  0.0609 -0.4544  0.2225
 5343SOL    HW127491   4.000   1.575   8.424  0.0528 -1.3794  0.8985
 5343SOL    HW227492   4.024   1.664   8.535  3.1021  0.2619  2.0551
 5344SOL     OW27493   3.156   3.578   2.505  0.6065  0.0639 -0.2869
 5344SOL    HW127494   3.080   3.635   2.499  1.5062  1.3765  0.7402
 5344SOL    HW227495   3.135   3.508   2.444 -4.7033 -0.2772  1.9275
 5345SOL     OW27496   1.969   0.078   1.411  0.1663 -0.7147 -0.4276
 5345SOL    HW127497   1.905   0.138   1.372  1.5690 -0.6173 -2.5639
 5345SOL    HW227498   1.923   4.722   1.389  1.1186 -1.9873  2.2375
 5346SOL     OW27499   0.169   3.796   2.380 -0.5999 -0.5122 -0.2350
 5346SOL    HW127500   0.141   3.712   2.417 -0.4218 -0.0581  0.9199
 5346SOL    HW227501   0.188   3.842   2.462 -1.9730 -0.2374 -0.0808
 5347SOL     OW27502   1.263   3.624   8.005  0.4292  0.4047 -0.0009
 5347SOL    HW127503   1.315   3.655   8.080  0.4869  0.2821  0.0104
 5347SOL    HW227504   1.286   3.683   7.933 -1.3172 -0.6869 -1.4393
 5348SOL     OW27505   1.235   1.321   3.022 -0.3675  0.1775  0.1083
 5348SOL    HW127506   1.293   1.353   2.954 -0.4971 -1.1577 -0.6183
 5348SOL    HW227507   1.171   1.271   2.971 -1.0414 -1.5390  2.6393
 5349SOL     OW27508   2.513   1.949  14.852  0.5955 -0.2871  0.0567
 5349SOL    HW127509   2.596   1.950  14.803  0.6007 -1.5264  0.0278
 5349SOL    HW227510   2.451   1.914  14.787 -0.0651  0.4296  0.3075
 5350SOL     OW27511   1.569   2.409   5.538 -0.1086 -0.0402 -0.2798
 5350SOL    HW127512   1.612   2.449   5.613 -0.1174 -1.9709  0.7625
 5350SOL    HW227513   1.501   2.474   5.524  1.0991  1.0028 -1.3787
 5351SOL     OW27514   1.053   0.925   2.445 -0.1285 -0.0631 -0.0148
 5351SOL    HW127515   1.136   0.894   2.479 -0.1634 -1.5608 -1.2953
 5351SOL    HW227516   1.082   0.988   2.378 -0.3714  1.9735  1.7886
 5352SOL     OW27517   0.479   1.989   1.587 -0.3465 -0.2983  0.2602
 5352SOL    HW127518   0.507   1.930   1.657  1.7328 -0.1700 -0.4494
 5352SOL    HW227519   0.551   1.987   1.523 -0.5066  0.3907  0.0604
 5353SOL     OW27520   1.779   3.565   8.588 -0.0034  0.3906 -0.7157
 5353SOL    HW127521   1.743   3.544   8.675  1.9768 -1.6978 -0.3923
 5353SOL    HW227522   1.774   3.475   8.556 -2.4501  0.6119 -0.9487
 5354SOL     OW27523   0.047   0.945   3.437  0.1211  0.1064 -0.0956
 5354SOL    HW127524   4.716   0.884   3.388  0.1920 -0.4734  0.5421
 5354SOL    HW227525   0.135   0.914   3.417  0.6212 -0.6207  3.1298
 5355SOL     OW27526   4.643   0.703   7.541  0.2787  0.2777  0.6724
 5355SOL    HW127527   4.637   0.720   7.634 -2.1188 -1.4248  0.8366
 5355SOL    HW227528   4.604   0.615   7.544 -1.3078  0.9033 -1.4056
 5356SOL     OW27529   3.962   0.852  15.129 -0.0026 -0.3176  0.2077
 5356SOL    HW127530   3.867   0.864  15.135  0.2640  0.1298  3.9472
 5356SOL    HW227531   3.987   0.906  15.054  0.8669 -1.9316 -0.6638
 5357SOL     OW27532   0.515   3.111   4.674  0.0397  0.5933  0.0257
 5357SOL    HW127533   0.436   3.058   4.683  0.8734 -0.6245  0.1171
 5357SOL    HW227534   0.543   3.092   4.585  1.3080  0.8068  0.3824
 5358SOL     OW27535   4.550   2.143   0.517  0.1266  0.1754 -0.1874
 5358SOL    HW127536   4.596   2.206   0.571 -0.9441  0.5339  0.3024
 5358SOL    HW227537   4.459   2.143   0.548  0.7124 -1.2976  1.5127
 5359SOL     OW27538   4.219   1.322   8.699  0.7825 -0.1196  0.3495
 5359SOL    HW127539   4.188   1.367   8.620  1.4359  1.9333  1.2384
 5359SOL    HW227540   4.211   1.229   8.678  1.6080  0.3317 -2.0102
 5360SOL     OW27541   3.406   1.834   9.201 -0.2409  0.7836  0.0265
 5360SOL    HW127542   3.486   1.846   9.150  1.3916  1.5417  2.7163
 5360SOL    HW227543   3.445   1.802   9.283 -0.8636  1.5109  0.6125
 5361SOL     OW27544   2.928   0.197   3.901 -0.0451 -0.2910 -0.2363
 5361SOL    HW127545   2.932   0.115   3.950 -3.2960 -1.2798 -1.6383
 5361SOL    HW227546   2.862   0.182   3.834  1.8774  0.1608 -2.2451
 5362SOL     OW27547   2.488   3.812   7.826 -0.2529  0.7150  0.5907
 5362SOL    HW127548   2.407   3.825   7.874 -0.2829 -1.3840  1.1217
 5362SOL    HW227549   2.470   3.810   7.732  0.8098  1.1060  0.3798
 5363SOL     OW27550   3.294   4.613   1.152  0.0156  0.6051 -0.4258
 5363SOL    HW127551   3.278   4.625   1.246  0.2212  1.2562 -0.4722
 5363SOL    HW227552   3.286   4.518   1.145 -0.2647  0.6024 -0.0926
 5364SOL     OW27553   0.335   4.447  12.039 -0.1389 -0.5809  0.2501
 5364SOL    HW127554   0.346   4.512  12.108 -0.9960 -0.5505  0.3558
 5364SOL    HW227555   0.411   4.461  11.982  0.9107  0.8303  1.9523
 5365SOL     OW27556   1.458   3.753   3.456 -0.1897 -0.3037  0.1233
 5365SOL    HW127557   1.363   3.744   3.449 -0.4848  2.3504  0.8866
 5365SOL    HW227558   1.463   3.756   3.552  1.4988 -1.6367  0.0881
 5366SOL     OW27559   3.257   1.148   3.241 -0.2474  0.3284 -0.0300
 5366SOL    HW127560   3.237   1.183   3.154  1.6054 -0.7902 -0.9215
 5366SOL    HW227561   3.222   1.059   3.248  0.5610  0.0952  1.1193
 5367SOL     OW27562   0.023   2.625   8.606 -0.3608 -0.1306  0.0352
 5367SOL    HW127563   4.661   2.659   8.588 -0.4154  0.2237  0.9485
 5367SOL    HW227564   0.023   2.641   8.700  1.0037 -0.3772  0.0797
 5368SOL     OW27565   3.793   0.134   8.555  0.2287 -0.0576  0.4162
 5368SOL    HW127566   3.820   0.044   8.536 -1.0675 -0.4440  0.4220
 5368SOL    HW227567   3.728   0.139   8.484  0.4064 -0.2155  0.2412
 5369SOL     OW27568   1.911   1.931   0.678  0.1787 -0.2519  0.2461
 5369SOL    HW127569   1.994   1.962   0.643  0.2211 -0.3365  0.2722
 5369SOL    HW227570   1.914   1.953   0.771 -0.7469  1.1559 -0.0656
 5370SOL     OW27571   2.647   3.732  13.344  0.4843 -0.4396 -0.2270
 5370SOL    HW127572   2.710   3.803  13.351 -2.7147  2.0862  2.6317
 5370SOL    HW227573   2.670   3.694  13.429 -3.0353  1.4700  1.5657
 5371SOL     OW27574   4.671   1.263  14.929  0.7426 -0.0346 -0.0269
 5371SOL    HW127575   0.040   1.255  14.913  0.6621  1.1825 -1.1384
 5371SOL    HW227576   4.675   1.299  15.017  0.1411  0.2870 -0.1304
 5372SOL     OW27577   0.366   3.826   8.030 -0.4005 -0.2125  0.1795
 5372SOL    HW127578   0.357   3.731   8.016  0.2228 -0.1854 -0.4115
 5372SOL    HW227579   0.310   3.839   8.107 -1.4373  0.7523 -0.7393
 5373SOL     OW27580   0.675   3.093   7.695 -0.3198  0.2563 -0.5564
 5373SOL    HW127581   0.689   3.100   7.790  2.4865 -0.9751 -0.8769
 5373SOL    HW227582   0.730   3.166   7.666 -0.8031  2.6002  4.3452
 5374SOL     OW27583   1.967   1.496   7.229  0.2375  0.7091 -0.2159
 5374SOL    HW127584   1.983   1.497   7.323  0.6882 -4.8876 -0.1931
 5374SOL    HW227585   2.056   1.512   7.199 -0.2467  1.6344 -1.1749
 5375SOL     OW27586   3.864   1.423  15.039 -0.1368 -0.6729 -0.0096
 5375SOL    HW127587   3.899   1.465  15.117  3.3571 -1.0706 -1.3976
 5375SOL    HW227588   3.836   1.499  14.987 -0.4807 -1.0605 -0.3989
 5376SOL     OW27589   3.324   2.285   0.755 -0.2346 -0.3681 -0.0657
 5376SOL    HW127590   3.289   2.258   0.840  1.4104 -1.5463  0.2481
 5376SOL    HW227591   3.294   2.217   0.695  0.7763 -1.4201  0.6169
 5377SOL     OW27592   2.117   2.792   3.633 -0.3763 -0.2989  0.7427
 5377SOL    HW127593   2.093   2.884   3.627 -0.8243 -0.4296  0.5240
 5377SOL    HW227594   2.030   2.764   3.603 -0.0172 -0.9565  0.3052
 5378SOL     OW27595   1.758   1.409   2.042 -0.5172 -0.6747 -0.4514
 5378SOL    HW127596   1.834   1.463   2.022 -0.0816 -2.1224 -2.6717
 5378SOL    HW227597   1.797   1.326   2.016  0.6615  0.1918 -1.3940
 5379SOL     OW27598   0.690   2.824  14.738  0.5277  0.4369  0.4411
 5379SOL    HW127599   0.678   2.908  14.782  1.8652  1.7543 -1.6807
 5379SOL    HW227600   0.735   2.861  14.661 -2.1407 -1.0800 -1.8233
 5380SOL     OW27601   3.507   4.656  17.047  0.2845 -0.2280 -0.3405
 5380SOL    HW127602   3.435   4.608  17.004  0.3205 -1.1832  0.6716
 5380SOL    HW227603   3.527   4.602  17.123 -0.4356  0.9854  0.7116
 5381SOL     OW27604   2.637   0.921   4.041 -0.2229  0.0332 -0.2421
 5381SOL    HW127605   2.546   0.929   4.067 -0.4467  2.0941 -1.6674
 5381SOL    HW227606   2.622   0.877   3.958 -1.6440 -1.8288  0.9819
 5382SOL     OW27607   2.161   2.422  17.321 -0.2827 -0.3380 -0.0874
 5382SOL    HW127608   2.125   2.394  17.237 -0.7866 -1.6257  0.5548
 5382SOL    HW227609   2.099   2.494  17.337 -1.3287 -1.4991  1.0874
 5383SOL     OW27610   3.648   0.092   2.753  0.0805  0.1176 -0.2973
 5383SOL    HW127611   3.599   0.137   2.684 -1.3233 -0.4171  0.3315
 5383SOL    HW227612   3.650   0.004   2.715  0.8278  1.3319 -3.0650
 5384SOL     OW27613   3.179   3.435  10.221 -0.5239 -0.0303  0.3811
 5384SOL    HW127614   3.136   3.498  10.279  0.6228  1.4975 -0.4243
 5384SOL    HW227615   3.213   3.370  10.282  0.2269 -0.0078 -0.0144
 5385SOL     OW27616   4.460   3.063  17.248  0.2806  0.2281 -0.3568
 5385SOL    HW127617   4.412   3.146  17.247 -0.8934 -0.4540  0.2573
 5385SOL    HW227618   4.493   3.070  17.338 -1.2636  1.1955  0.1268
 5386SOL     OW27619   3.274   2.314   2.372 -0.0107 -0.0822 -0.2800
 5386SOL    HW127620   3.259   2.407   2.356 -0.4020 -0.4352 -1.9711
 5386SOL    HW227621   3.358   2.292   2.330  0.4283  0.1505  0.4888
 5387SOL     OW27622   4.067   0.262   9.353 -0.2992 -0.7272  0.2062
 5387SOL    HW127623   4.124   0.339   9.360 -0.6158 -0.6514  2.0033
 5387SOL    HW227624   4.002   0.300   9.295 -0.3890 -0.2870  0.5966
 5388SOL     OW27625   2.248   2.359   8.908 -0.3590 -0.2001 -0.1109
 5388SOL    HW127626   2.167   2.359   8.959 -0.7380 -0.1585 -0.7184
 5388SOL    HW227627   2.297   2.284   8.942 -2.1977 -1.3462 -0.0110
 5389SOL     OW27628   2.592   1.299   5.978  0.4705  0.7344 -0.5685
 5389SOL    HW127629   2.518   1.304   6.039  1.6061  0.7228  0.8008
 5389SOL    HW227630   2.659   1.256   6.030 -2.2112 -0.3593  2.0393
 5390SOL     OW27631   1.206   4.516   4.530 -0.1744 -0.1253  0.1916
 5390SOL    HW127632   1.251   4.486   4.609  0.9201  0.0653 -0.3581
 5390SOL    HW227633   1.284   4.543   4.482  0.0104 -1.0645 -0.0509
 5391SOL     OW27634   0.511   4.199   4.290  0.2892 -0.1364 -0.1723
 5391SOL    HW127635   0.606   4.194   4.278  0.3221  1.9218 -0.8036
 5391SOL    HW227636   0.496   4.286   4.327 -1.6324 -0.1127 -0.9661
 5392SOL     OW27637   2.443   4.597  15.396 -0.1130  0.2708  0.0838
 5392SOL    HW127638   2.429   4.502  15.397 -0.9000  0.3839 -0.2672
 5392SOL    HW227639   2.355   4.626  15.422  0.5485  1.9356  0.4466
 5393SOL     OW27640   2.980   2.306   0.243 -0.0530 -0.1104 -0.2286
 5393SOL    HW127641   3.038   2.321   0.318 -1.3582  0.6740  0.6227
 5393SOL    HW227642   2.895   2.284   0.282 -0.2796  2.3373  0.6302
 5394SOL     OW27643   1.324   0.649   4.159  0.5066  0.0002  0.1937
 5394SOL    HW127644   1.359   0.585   4.096 -0.6616 -0.7204  0.2743
 5394SOL    HW227645   1.373   0.729   4.144  1.7374 -0.5633  1.1683
 5395SOL     OW27646   4.008   3.901   6.401  0.4931  0.6420  0.9632
 5395SOL    HW127647   3.975   3.811   6.411  1.1089  0.3943  0.7691
 5395SOL    HW227648   4.013   3.908   6.306 -2.1616 -0.1887  0.7638
 5396SOL     OW27649   2.729   1.087  17.303  0.3229  0.3042 -0.3219
 5396SOL    HW127650   2.824   1.085  17.312  0.0373  1.6545  2.9004
 5396SOL    HW227651   2.718   0.998  17.268  0.8092  0.4879 -0.9460
 5397SOL     OW27652   3.969   3.685  15.287 -0.2422  0.0493  0.2559
 5397SOL    HW127653   3.977   3.781  15.281  3.2932 -0.3165 -0.7191
 5397SOL    HW227654   3.889   3.686  15.339 -0.9571  0.4171 -0.8398
 5398SOL     OW27655   0.697   0.015   2.648  0.7009 -0.2317  0.0483
 5398SOL    HW127656   0.671   0.105   2.666  1.5188  0.1083 -0.4585
 5398SOL    HW227657   0.700   0.017   2.552  0.0901 -2.4315 -0.0195
 5399SOL     OW27658   2.639   4.598   6.375  0.2640 -0.3316  0.4195
 5399SOL    HW127659   2.682   4.518   6.344 -0.4903  0.0317 -1.5872
 5399SOL    HW227660   2.555   4.568   6.411  0.0024 -1.0282 -0.7800
 5400SOL     OW27661   4.279   2.301  17.032  0.4867 -0.2491 -0.1920
 5400SOL    HW127662   4.206   2.338  17.082  1.7630  1.1642  0.6049
 5400SOL    HW227663   4.239   2.217  17.009  0.5243 -0.2094 -0.4000
 5401SOL     OW27664   4.020   4.042  13.227 -0.7746  0.3212 -0.5661
 5401SOL    HW127665   3.992   4.079  13.311  0.4239 -1.2650  0.5253
 5401SOL    HW227666   4.114   4.029  13.229 -0.8663 -0.5397 -2.9091
 5402SOL     OW27667   1.452   0.258  13.122  0.5924 -0.3308  0.3875
 5402SOL    HW127668   1.379   0.218  13.074  0.3160  1.1700 -0.4401
 5402SOL    HW227669   1.505   0.284  13.047 -0.2028  1.9452  0.6215
 5403SOL     OW27670   3.315   1.903   7.566 -0.2397  0.3318  0.0704
 5403SOL    HW127671   3.288   1.912   7.475 -0.4216  0.6195  0.1512
 5403SOL    HW227672   3.407   1.882   7.549 -0.4305 -1.0910  0.8299
 5404SOL     OW27673   0.575   0.654  11.780  0.1762 -0.0163 -0.8350
 5404SOL    HW127674   0.561   0.704  11.860 -2.7677 -0.5998 -1.0020
 5404SOL    HW227675   0.666   0.671  11.758  0.3293  1.0228  0.5942
 5405SOL     OW27676   0.958   1.356  11.726  0.3610 -0.1418  0.6139
 5405SOL    HW127677   0.880   1.408  11.704 -0.0279  0.2686  2.9626
 5405SOL    HW227678   0.925   1.268  11.741 -0.9739  0.6565  2.4510
 5406SOL     OW27679   4.635   4.276  10.297  0.0734  0.0581  0.2784
 5406SOL    HW127680   4.543   4.261  10.274  0.3770 -0.5750 -0.5322
 5406SOL    HW227681   4.652   4.201  10.354 -1.7828 -1.4598 -1.1252
 5407SOL     OW27682   0.583   1.365  16.644  0.3306 -0.1611 -0.2457
 5407SOL    HW127683   0.496   1.324  16.634  0.9012 -1.1079 -1.3371
 5407SOL    HW227684   0.603   1.377  16.551  0.5661  0.3207 -0.1322
 5408SOL     OW27685   2.786   4.212  11.761 -0.2678  0.1886 -0.0676
 5408SOL    HW127686   2.847   4.278  11.793 -0.2759  0.1050  0.1211
 5408SOL    HW227687   2.705   4.262  11.772  1.0340  2.3527 -0.2727
 5409SOL     OW27688   0.473   0.274   3.668  0.3145 -0.2612  0.9995
 5409SOL    HW127689   0.422   0.340   3.716  1.5227  0.3210  1.4855
 5409SOL    HW227690   0.408   0.230   3.613 -1.6727  1.6709  1.7933
 5410SOL     OW27691   2.101   3.466  17.483 -0.3863 -0.8324 -0.0935
 5410SOL    HW127692   2.014   3.427  17.490 -1.7335  2.3662  0.7145
 5410SOL    HW227693   2.079   3.558  17.492 -2.0428 -1.3796  1.4114
 5411SOL     OW27694   1.694   2.999  13.522  0.1263 -0.6291  0.5481
 5411SOL    HW127695   1.730   2.925  13.473 -1.1560 -1.3663  0.7345
 5411SOL    HW227696   1.702   3.075  13.465  0.5758  0.6779  2.3652
 5412SOL     OW27697   2.130   2.641   2.700 -0.4662 -0.2565  0.0010
 5412SOL    HW127698   2.041   2.620   2.673 -0.4101  1.2298 -1.3504
 5412SOL    HW227699   2.188   2.579   2.655 -0.7046 -0.5214  0.0642
 5413SOL     OW27700   0.786   3.365  12.548  0.4544  0.3010  0.3988
 5413SOL    HW127701   0.746   3.442  12.508  1.8690  1.0092  0.3841
 5413SOL    HW227702   0.790   3.310  12.470 -1.1917  0.1176  0.4399
 5414SOL     OW27703   2.452   1.485  17.076 -0.4848 -0.0358 -0.4734
 5414SOL    HW127704   2.445   1.431  17.154 -0.1053 -2.5629 -2.1940
 5414SOL    HW227705   2.479   1.415  17.017  0.0008 -0.1845 -0.0809
 5415SOL     OW27706   4.167   0.732   7.399  0.3124 -0.1823 -0.0263
 5415SOL    HW127707   4.106   0.806   7.391 -2.0967 -2.2296 -0.2436
 5415SOL    HW227708   4.188   0.716   7.307  1.0262  2.3531 -0.3257
 5416SOL     OW27709   0.634   3.492   2.378 -0.2962  0.0329  0.0160
 5416SOL    HW127710   0.572   3.427   2.410  0.0708 -1.3161 -1.9934
 5416SOL    HW227711   0.685   3.489   2.459  0.1315  0.7002 -0.2238
 5417SOL     OW27712   2.061   0.271   4.916  0.4215 -0.1277 -0.2306
 5417SOL    HW127713   2.059   0.208   4.989 -2.1882  1.2417  0.8844
 5417SOL    HW227714   2.155   0.279   4.897 -0.1942  3.3016 -1.8337
 5418SOL     OW27715   4.210   3.832   8.709 -0.0492 -0.0273 -0.1371
 5418SOL    HW127716   4.263   3.791   8.641  1.2708  1.5893 -0.0875
 5418SOL    HW227717   4.135   3.773   8.716 -0.3527  0.3575 -0.1472
 5419SOL     OW27718   2.392   3.045   7.093  0.0737  0.4885  0.1947
 5419SOL    HW127719   2.342   3.003   7.163 -0.2627  0.3874 -0.1023
 5419SOL    HW227720   2.469   2.988   7.098  0.1131  0.4925 -0.4185
 5420SOL     OW27721   3.320   0.553   0.410 -0.4074 -0.3408  0.3816
 5420SOL    HW127722   3.264   0.519   0.480 -0.4466  1.9743  1.5068
 5420SOL    HW227723   3.291   0.644   0.416 -0.7935 -0.4925  0.8832
 5421SOL     OW27724   4.210   2.631  12.518 -0.4052  0.6150  0.2721
 5421SOL    HW127725   4.211   2.603  12.610 -1.0734 -0.8702 -0.1682
 5421SOL    HW227726   4.119   2.611  12.494 -0.0927 -0.8725  0.3534
 5422SOL     OW27727   0.828   2.045   2.202 -0.5429  0.1299  0.1402
 5422SOL    HW127728   0.793   1.972   2.254 -0.2946 -0.9728 -1.2360
 5422SOL    HW227729   0.922   2.036   2.214 -0.8673 -1.6347  1.5510
 5423SOL     OW27730   3.627   3.688   7.160  0.0545  0.0442  0.3386
 5423SOL    HW127731   3.564   3.698   7.088  1.5052  0.6550 -0.8466
 5423SOL    HW227732   3.662   3.603   7.134 -0.0293 -0.0631  0.5790
 5424SOL     OW27733   2.441   1.903  10.260 -0.0974 -0.7281 -0.3979
 5424SOL    HW127734   2.462   1.813  10.283  0.8618 -0.7485 -1.3939
 5424SOL    HW227735   2.523   1.952  10.266  0.6399 -1.5994 -3.3459
 5425SOL     OW27736   1.741   2.580   3.095  0.5993  1.0018  0.5814
 5425SOL    HW127737   1.772   2.609   3.180 -0.1309  0.3413  1.0720
 5425SOL    HW227738   1.826   2.549   3.064 -0.0350 -1.7622  1.5518
 5426SOL     OW27739   1.502   2.839  10.675 -0.2711 -0.2069  0.1512
 5426SOL    HW127740   1.557   2.835  10.597  0.2245  0.2602  0.4784
 5426SOL    HW227741   1.566   2.830  10.745  0.6015 -0.1154 -0.6270
 5427SOL     OW27742   3.952   0.761   3.412  0.1099 -0.3679  0.6310
 5427SOL    HW127743   3.993   0.770   3.497 -0.0321  1.5045  0.4902
 5427SOL    HW227744   3.861   0.784   3.433  0.3724 -0.9126  2.3279
 5428SOL     OW27745   2.754   0.617   5.586 -0.7934  0.0848  0.3582
 5428SOL    HW127746   2.729   0.706   5.611 -0.0524  0.6230 -0.8280
 5428SOL    HW227747   2.673   0.583   5.548  0.2591  0.8127 -2.5613
 5429SOL     OW27748   1.958   4.421   4.064 -0.1301 -0.0302  0.0795
 5429SOL    HW127749   1.869   4.407   4.096 -0.2406 -1.0587 -0.6873
 5429SOL    HW227750   2.011   4.396   4.141 -2.2766 -2.6039  0.7232
 5430SOL     OW27751   0.650   0.503   5.436  0.6700 -0.0378 -1.0553
 5430SOL    HW127752   0.632   0.516   5.529  0.0832  1.0546 -1.3264
 5430SOL    HW227753   0.738   0.466   5.444 -0.2429 -2.0504 -0.2034
 5431SOL     OW27754   3.619   2.715   4.583  0.2970 -0.3812 -0.2343
 5431SOL    HW127755   3.538   2.666   4.567 -0.1291  0.3005 -0.1843
 5431SOL    HW227756   3.677   2.649   4.547  1.1701 -0.1850  0.8056
 5432SOL     OW27757   0.714   2.399   1.394 -0.3702  0.0553 -0.8731
 5432SOL    HW127758   0.649   2.469   1.388  0.8033  1.0521 -1.7602
 5432SOL    HW227759   0.761   2.395   1.311  0.1647  0.4675 -0.5866
 5433SOL     OW27760   3.716   4.210   1.066 -0.3941  0.3767 -0.6585
 5433SOL    HW127761   3.711   4.152   1.142 -1.0503  1.4085  0.0869
 5433SOL    HW227762   3.720   4.149   0.992 -0.1524 -0.8230  0.3505
 5434SOL     OW27763   4.332   1.556   6.547  0.4441  0.1992  0.3383
 5434SOL    HW127764   4.241   1.576   6.568  0.5288  0.3891  0.5250
 5434SOL    HW227765   4.319   1.577   6.455 -1.7941  0.2917  0.6680
 5435SOL     OW27766   2.370   2.085   7.181  0.5283  0.1132 -0.2528
 5435SOL    HW127767   2.430   2.028   7.134 -0.9861 -2.4195  0.9126
 5435SOL    HW227768   2.427   2.147   7.227  1.6375 -1.0501 -0.0766
 5436SOL     OW27769   3.261   1.883   7.276  0.1906  0.2798  0.3822
 5436SOL    HW127770   3.302   1.963   7.245 -0.6324  0.7945  0.6036
 5436SOL    HW227771   3.174   1.919   7.292  0.6238  0.7483  1.6862
 5437SOL     OW27772   0.761   0.103   6.597 -0.2947  0.2972  0.2591
 5437SOL    HW127773   0.811   0.056   6.530  0.6955 -1.0280  1.9487
 5437SOL    HW227774   0.674   0.107   6.556 -0.9361  0.6245  1.6387
 5438SOL     OW27775   4.124   0.023   6.799 -0.0515 -0.3286 -0.4153
 5438SOL    HW127776   4.162   0.068   6.723 -0.7592  1.2376  0.1465
 5438SOL    HW227777   4.156   0.076   6.872  0.6317 -1.2826 -0.0325
 5439SOL     OW27778   4.308   3.739  14.108 -0.3856 -0.5300  0.2672
 5439SOL    HW127779   4.341   3.819  14.067 -1.6879  0.6290  1.4996
 5439SOL    HW227780   4.388   3.687  14.102  0.3746  0.9149 -2.1363
 5440SOL     OW27781   4.693   0.569   1.385 -0.1619 -0.1687  0.2359
 5440SOL    HW127782   0.020   0.489   1.395 -1.1731 -0.8052  0.3261
 5440SOL    HW227783   4.666   0.537   1.299  0.4897 -0.2246  0.0447
 5441SOL     OW27784   2.649   0.999   3.324 -0.3245  0.5061  0.0554
 5441SOL    HW127785   2.711   0.992   3.396  0.6164  0.1439 -0.7875
 5441SOL    HW227786   2.574   1.044   3.362  0.7449  1.9091  0.5131
 5442SOL     OW27787   3.000   2.256   1.832  0.0799  0.2838  0.8829
 5442SOL    HW127788   3.039   2.321   1.891 -3.0296  0.4851  2.7148
 5442SOL    HW227789   3.079   2.201   1.838 -0.8218 -0.7620  3.4764
 5443SOL     OW27790   2.184   1.763   5.880  0.1449 -0.1035  0.0111
 5443SOL    HW127791   2.226   1.758   5.966  1.5460  0.7909 -0.6328
 5443SOL    HW227792   2.246   1.802   5.818 -2.1508  1.9686 -0.9974
 5444SOL     OW27793   2.972   1.453   2.236  0.4148  0.0327 -0.0203
 5444SOL    HW127794   3.035   1.383   2.254  0.5701  0.8356  2.5270
 5444SOL    HW227795   3.017   1.502   2.167  0.1203 -1.2369 -1.1068
 5445SOL     OW27796   1.281   0.773   3.622 -0.5702 -0.6173 -0.3790
 5445SOL    HW127797   1.232   0.705   3.666  0.4007  0.9590  3.1770
 5445SOL    HW227798   1.267   0.755   3.530 -0.3475 -2.3831 -0.0639
 5446SOL     OW27799   2.495   3.868   6.898 -0.3921 -0.2144  0.5754
 5446SOL    HW127800   2.540   3.809   6.958 -1.8888  1.2320  3.1349
 5446SOL    HW227801   2.531   3.849   6.811 -1.6651  1.3635 -0.3063
 5447SOL     OW27802   4.310   0.699  11.897  0.0656  0.2333 -0.5503
 5447SOL    HW127803   4.265   0.657  11.823  0.1500 -0.4784 -0.2005
 5447SOL    HW227804   4.253   0.669  11.967  1.7669  0.3604  0.8990
 5448SOL     OW27805   0.980   4.475   2.960  0.3184 -0.2616  0.6683
 5448SOL    HW127806   0.996   4.495   3.053  0.9681  0.2694  0.4436
 5448SOL    HW227807   0.891   4.441   2.968 -0.6098  2.3964  1.7444
 5449SOL     OW27808   0.948   2.890  16.051  0.0871 -0.4602 -0.3490
 5449SOL    HW127809   0.913   2.898  15.963  0.4702 -0.7234 -0.5240
 5449SOL    HW227810   0.933   2.796  16.064  0.8863 -0.4729  0.4764
 5450SOL     OW27811   1.056   0.009  16.423  0.6804 -0.9674  0.2352
 5450SOL    HW127812   1.054   0.021  16.328  0.0528 -1.2982  0.2109
 5450SOL    HW227813   1.036   0.099  16.449 -2.3939 -1.5406 -0.1332
 5451SOL     OW27814   2.802   1.874   5.716  0.0290 -0.3884 -0.5874
 5451SOL    HW127815   2.762   1.848   5.799 -0.0597 -0.0888 -0.5367
 5451SOL    HW227816   2.725   1.874   5.658 -1.1046  0.7464  0.9227
 5452SOL     OW27817   3.803   3.731   4.266  0.4553  0.4096 -0.5249
 5452SOL    HW127818   3.766   3.786   4.198 -0.9544  0.1775  0.0501
 5452SOL    HW227819   3.890   3.770   4.270  1.7414 -2.7875  2.9442
 5453SOL     OW27820   2.484   3.439   8.813 -0.5770  0.3413 -0.0084
 5453SOL    HW127821   2.534   3.502   8.761  0.4615 -0.3777  0.1089
 5453SOL    HW227822   2.448   3.500   8.877 -1.4533  1.8287 -1.9279
 5454SOL     OW27823   0.813   1.428   3.284  0.1254 -0.1115 -0.2672
 5454SOL    HW127824   0.810   1.519   3.256 -0.5390  0.0670  0.3721
 5454SOL    HW227825   0.804   1.445   3.378 -1.7581  1.6053 -0.7730
 5455SOL     OW27826   0.394   1.439   2.925  0.0102 -0.3515 -0.3892
 5455SOL    HW127827   0.451   1.516   2.933  2.4375 -2.0512 -1.0895
 5455SOL    HW227828   0.463   1.376   2.902  0.7234  0.1938  0.2470
 5456SOL     OW27829   0.451   3.985  16.834  0.2316  0.5714 -0.3084
 5456SOL    HW127830   0.477   4.054  16.895  2.4376 -0.6191  0.0997
 5456SOL    HW227831   0.367   4.018  16.804  0.6835  2.9374  0.9949
 5457SOL     OW27832   3.957   1.007   1.020  0.0169  0.1082 -0.8797
 5457SOL    HW127833   4.037   0.956   1.007  0.6108  0.7385  0.3536
 5457SOL    HW227834   3.944   1.039   0.931  2.1680  1.6753 -0.6179
 5458SOL     OW27835   2.806   0.548   2.265  0.3489 -0.2090 -0.6547
 5458SOL    HW127836   2.850   0.498   2.196  0.3137 -0.1261 -0.7368
 5458SOL    HW227837   2.802   0.486   2.338  1.2320  0.7375  0.2009
 5459SOL     OW27838   4.635   4.715   2.793  0.1008  0.4379 -0.3004
 5459SOL    HW127839   4.648   4.635   2.742  0.4340  0.2681  0.0495
 5459SOL    HW227840   4.542   0.010   2.778  0.0713  0.0719 -0.5948
 5460SOL     OW27841   3.628   1.786   4.141 -0.0925  0.8260  0.2718
 5460SOL    HW127842   3.616   1.779   4.046  0.5045  0.1403  0.2470
 5460SOL    HW227843   3.542   1.772   4.180 -0.8952 -1.4180 -2.3036
 5461SOL     OW27844   2.889   2.125  15.782 -0.1514 -0.2734 -0.3188
 5461SOL    HW127845   2.853   2.161  15.701 -0.3962 -0.0341 -0.1023
 5461SOL    HW227846   2.822   2.157  15.842  0.0549  1.9611 -1.2916
 5462SOL     OW27847   4.571   1.754   3.695 -0.2006  0.0821 -0.5803
 5462SOL    HW127848   4.537   1.691   3.632  0.0386 -0.7647  0.1419
 5462SOL    HW227849   4.635   1.708   3.749  0.1218 -1.8674 -2.6609
 5463SOL     OW27850   1.085   1.468   8.387 -0.0173 -0.2949  0.2621
 5463SOL    HW127851   1.082   1.405   8.459  1.4413  0.9301  1.4052
 5463SOL    HW227852   1.172   1.500   8.411 -0.0280  0.3444 -0.5425
 5464SOL     OW27853   3.055   2.855   4.410  0.0247  0.2838  0.6381
 5464SOL    HW127854   2.997   2.918   4.367  0.3791  0.4787  0.4498
 5464SOL    HW227855   3.019   2.858   4.499 -1.7194  1.1321 -0.1039
 5465SOL     OW27856   3.147   2.573   2.330  0.1255 -0.0547 -0.3453
 5465SOL    HW127857   3.094   2.614   2.262  1.8603  1.5882 -0.6880
 5465SOL    HW227858   3.193   2.650   2.363  1.8180 -2.1417  2.1968
 5466SOL     OW27859   1.301   0.957   7.814  0.1758  0.3516  0.2492
 5466SOL    HW127860   1.224   0.959   7.870 -0.6262 -1.7904 -0.7720
 5466SOL    HW227861   1.268   0.997   7.734 -1.7119 -0.9525  0.3666
 5467SOL     OW27862   1.068   1.062   4.282  0.0621 -0.7817  0.5455
 5467SOL    HW127863   1.148   1.070   4.231  0.2816  0.2525  1.0549
 5467SOL    HW227864   1.012   1.032   4.210 -1.9280  2.6236  0.6180
 5468SOL     OW27865   4.398   3.163   7.075  0.5330 -0.4074  0.1861
 5468SOL    HW127866   4.313   3.121   7.087  0.2344 -0.2023 -1.2416
 5468SOL    HW227867   4.371   3.230   7.013 -1.0808 -1.6968 -0.5112
 5469SOL     OW27868   2.721   2.746   2.108 -0.5790  0.5066 -0.0659
 5469SOL    HW127869   2.705   2.833   2.070 -1.0075  0.4775  0.0464
 5469SOL    HW227870   2.678   2.699   2.037  0.1962  0.7120 -0.6653
 5470SOL     OW27871   0.053   3.128   4.370 -1.3588 -0.9156  0.4017
 5470SOL    HW127872   4.717   3.189   4.412 -0.4569  1.2864 -1.4710
 5470SOL    HW227873   0.089   3.174   4.294 -1.5865 -0.2641  0.6846
 5471SOL     OW27874   2.541   0.185   4.700  0.1119  0.3718  0.4022
 5471SOL    HW127875   2.601   0.255   4.728  1.1608  0.4984 -2.1285
 5471SOL    HW227876   2.606   0.120   4.675 -1.3942 -0.2055 -2.0102
 5472SOL     OW27877   0.657   4.682   6.107 -0.0616  0.0659  0.1240
 5472SOL    HW127878   0.692   4.637   6.030 -1.8608 -0.9329 -0.0991
 5472SOL    HW227879   0.639   4.611   6.168 -3.1036  1.1207  0.4290
 5473SOL     OW27880   0.183   0.884   5.415  0.0051 -0.2595 -0.3059
 5473SOL    HW127881   0.213   0.950   5.477  1.7089 -0.0793 -1.3122
 5473SOL    HW227882   0.093   0.866   5.442 -0.0853 -0.1872 -0.5573
 5474SOL     OW27883   3.257   2.117   3.465  0.2424  0.6042 -0.2514
 5474SOL    HW127884   3.165   2.096   3.452 -0.1697  1.4532  1.3310
 5474SOL    HW227885   3.274   2.070   3.546 -0.3224  2.9051  1.1852
 5475SOL     OW27886   2.091   2.150   1.093 -0.1115 -0.7478  0.6338
 5475SOL    HW127887   2.074   2.233   1.138 -1.8968  0.4982 -2.2999
 5475SOL    HW227888   2.184   2.168   1.076 -0.7651  1.8962 -0.2331
 5476SOL     OW27889   4.430   2.703  14.424  0.0780 -0.1565 -0.4611
 5476SOL    HW127890   4.515   2.666  14.400 -0.3041  0.0620 -2.1586
 5476SOL    HW227891   4.399   2.633  14.481 -0.7587  0.5145 -0.0907
 5477SOL     OW27892   2.025   3.178   9.507 -0.2201 -0.3296 -0.7038
 5477SOL    HW127893   1.956   3.193   9.442 -0.2523  2.5942  0.0109
 5477SOL    HW227894   1.977   3.179   9.589  0.1864  0.3322 -0.4764
 5478SOL     OW27895   2.617   3.741   8.675  0.7421 -1.0120  0.2798
 5478SOL    HW127896   2.543   3.801   8.677  0.9336 -0.7189 -0.8470
 5478SOL    HW227897   2.675   3.801   8.627  0.3217  0.3397  1.4624
 5479SOL     OW27898   0.096   4.309   6.055 -0.3078 -0.2218 -0.2239
 5479SOL    HW127899   0.059   4.246   5.993 -2.5060  2.0411 -1.1573
 5479SOL    HW227900   0.015   4.334   6.098 -0.7057 -0.2664 -0.9555
 5480SOL     OW27901   1.099   3.898   4.369  0.2994 -0.5488 -0.5846
 5480SOL    HW127902   1.129   3.880   4.280  2.4640  1.5424 -0.2826
 5480SOL    HW227903   1.106   3.809   4.404 -0.6915 -0.3125  0.2292
 5481SOL     OW27904   2.216   3.708   4.441  0.3058  0.1698 -0.1286
 5481SOL    HW127905   2.295   3.673   4.482 -0.1757 -1.4058 -0.5265
 5481SOL    HW227906   2.238   3.800   4.433  1.3355 -0.2635 -2.0878
 5482SOL     OW27907   4.456   4.022   5.610  0.2097  0.9497 -0.0634
 5482SOL    HW127908   4.534   4.019   5.555 -0.5933  1.5758 -1.2263
 5482SOL    HW227909   4.390   3.977   5.558  0.6253 -0.2427  0.4517
 5483SOL     OW27910   1.080   4.274  13.288  0.3348  0.0537  0.4180
 5483SOL    HW127911   1.160   4.319  13.316  0.0435  0.5908  0.3774
 5483SOL    HW227912   1.056   4.334  13.218  2.4130  2.2955  1.6362
 5484SOL     OW27913   4.538   3.927   8.711  0.2799 -0.1850  0.5912
 5484SOL    HW127914   4.602   3.873   8.759  0.9956 -1.2213 -1.5252
 5484SOL    HW227915   4.522   3.997   8.774  2.1818 -0.4963  1.4413
 5485SOL     OW27916   1.896   1.004  12.975 -0.1909  0.5363  0.3833
 5485SOL    HW127917   1.989   1.004  12.997 -0.2979  1.8263  0.8416
 5485SOL    HW227918   1.876   0.919  13.016 -0.1169  1.2370  1.8804
 5486SOL     OW27919   1.215   4.294   0.800  0.4302 -0.6532  0.6246
 5486SOL    HW127920   1.185   4.205   0.823  1.4041 -1.4177 -1.1173
 5486SOL    HW227921   1.128   4.334   0.795 -0.9551 -3.6359  0.4844
 5487SOL     OW27922   1.191   1.413   1.950 -0.3991  0.3485 -0.0119
 5487SOL    HW127923   1.231   1.412   1.863  1.1379 -2.2736  0.6996
 5487SOL    HW227924   1.147   1.328   1.943  0.2798 -0.0637  0.6205
 5488SOL     OW27925   3.646   0.386   1.017 -0.1325 -0.4175  0.3224
 5488SOL    HW127926   3.615   0.312   1.071  2.1133 -0.2754  1.7959
 5488SOL    HW227927   3.704   0.344   0.954  0.1069  0.1638  0.1574
 5489SOL     OW27928   4.366   4.601   8.347 -0.6533  0.1452 -0.1268
 5489SOL    HW127929   4.326   4.528   8.299  0.9827  0.1471 -1.5451
 5489SOL    HW227930   4.454   4.564   8.359 -1.1040 -0.2677  1.9356
 5490SOL     OW27931   1.428   4.544   9.799  0.6624  0.3055  0.1245
 5490SOL    HW127932   1.337   4.516   9.795  0.6261  0.1672  2.0967
 5490SOL    HW227933   1.473   4.470   9.758 -0.9250 -0.2788 -0.5539
 5491SOL     OW27934   2.177   3.873   7.704 -0.2919  0.2421  0.7324
 5491SOL    HW127935   2.141   3.955   7.739 -0.8102  0.8539 -1.2273
 5491SOL    HW227936   2.164   3.879   7.609 -1.6071 -1.3283  0.8269
 5492SOL     OW27937   1.493   3.451  11.413  0.0035  0.0509 -0.4165
 5492SOL    HW127938   1.412   3.437  11.365 -0.2059 -1.5236  0.3837
 5492SOL    HW227939   1.512   3.540  11.383  1.3428 -0.3357 -0.7280
 5493SOL     OW27940   4.292   3.928   1.052 -0.0487 -0.4734  0.0562
 5493SOL    HW127941   4.240   4.006   1.072  1.1114 -0.4200  2.7925
 5493SOL    HW227942   4.357   3.973   0.998 -1.1247  0.4413 -0.4730
 5494SOL     OW27943   4.592   3.079  16.903 -0.1339  0.1748 -0.3015
 5494SOL    HW127944   4.660   3.011  16.909  2.6065  2.9773  0.4689
 5494SOL    HW227945   4.543   3.073  16.985  0.6381 -1.6060  0.0278
 5495SOL     OW27946   4.132   3.109  12.629 -0.1485  0.1621  0.3356
 5495SOL    HW127947   4.216   3.119  12.673  0.5821  0.7128 -1.1921
 5495SOL    HW227948   4.155   3.038  12.569  1.2273  0.4292  0.5476
 5496SOL     OW27949   1.722   1.886   5.691 -0.0241 -0.0358 -0.3921
 5496SOL    HW127950   1.635   1.846   5.680  0.8407 -2.5197  1.8535
 5496SOL    HW227951   1.778   1.809   5.695  1.2200  0.8973  0.3117
 5497SOL     OW27952   0.718   1.226   3.646 -0.2844  0.0788  0.0296
 5497SOL    HW127953   0.640   1.175   3.665 -1.2878  1.0183 -1.5261
 5497SOL    HW227954   0.788   1.164   3.667 -1.0141 -0.2157  1.5633
 5498SOL     OW27955   4.321   2.960   3.838  1.1482 -0.7631  0.0670
 5498SOL    HW127956   4.246   2.954   3.897  0.7644  4.3941  0.1033
 5498SOL    HW227957   4.366   3.041   3.862 -0.5063 -0.4028  1.8819
 5499SOL     OW27958   4.153   2.470  11.735  0.3200  0.0548  0.5048
 5499SOL    HW127959   4.070   2.434  11.765  1.2312 -0.4562  2.4474
 5499SOL    HW227960   4.209   2.452  11.811  0.0638  0.7569  0.8597
 5500SOL     OW27961   0.436   2.045   7.875 -0.5509 -0.0576 -0.2666
 5500SOL    HW127962   0.456   2.136   7.855 -1.1650  0.5094  1.6570
 5500SOL    HW227963   0.499   2.032   7.946  0.7636  2.7455 -0.9213
 5501SOL     OW27964   0.148   4.659   9.647  0.2126  0.1132 -0.0936
 5501SOL    HW127965   0.205   4.721   9.692 -1.7380  1.8397 -0.0026
 5501SOL    HW227966   0.194   4.610   9.578 -2.5345 -1.6843 -0.6261
 5502SOL     OW27967   4.237   2.665   3.981  0.1429  0.3560 -0.0668
 5502SOL    HW127968   4.281   2.626   3.905 -2.1358 -1.4311 -0.4868
 5502SOL    HW227969   4.308   2.697   4.037 -0.1744  1.9325 -0.5719
 5503SOL     OW27970   1.457   1.929   6.647  0.0467 -0.5540  0.6556
 5503SOL    HW127971   1.482   1.910   6.557 -1.2255  2.3022 -0.3194
 5503SOL    HW227972   1.367   1.962   6.649  0.1301 -0.2231 -1.6281
 5504SOL     OW27973   0.690   2.369   6.826 -0.4060  0.1016 -0.4267
 5504SOL    HW127974   0.678   2.300   6.760 -0.2264  0.5671 -0.9543
 5504SOL    HW227975   0.622   2.354   6.891 -0.0038 -1.2516 -0.3101
 5505SOL     OW27976   1.196   4.170   1.107  0.2403 -0.4505  0.2293
 5505SOL    HW127977   1.263   4.117   1.065  1.3897  0.6128  0.7338
 5505SOL    HW227978   1.115   4.132   1.072  0.3717  0.1735 -0.7344
 5506SOL     OW27979   2.178   1.507   4.115  0.1149  0.0459 -0.2105
 5506SOL    HW127980   2.152   1.419   4.144 -2.7420 -0.1718 -3.4285
 5506SOL    HW227981   2.240   1.534   4.183 -0.8970  0.3397  0.6005
 5507SOL     OW27982   4.427   0.894   5.293  0.4152 -0.0194 -0.4484
 5507SOL    HW127983   4.343   0.863   5.258  0.1690 -0.5137  0.5898
 5507SOL    HW227984   4.430   0.853   5.379 -1.2333 -0.5947 -0.6733
 5508SOL     OW27985   1.275   2.800  10.074 -0.1118 -0.4578 -0.2643
 5508SOL    HW127986   1.246   2.812   9.983  2.4045 -0.0131 -0.9966
 5508SOL    HW227987   1.269   2.706  10.086 -3.6818 -0.1727  0.3456
 5509SOL     OW27988   2.274   4.563   0.740 -0.0099 -0.2065 -0.2285
 5509SOL    HW127989   2.352   4.508   0.734 -0.7529 -0.8555 -3.7801
 5509SOL    HW227990   2.287   4.622   0.665 -0.1626 -0.1041 -0.1751
 5510SOL     OW27991   4.526   0.227  11.795 -0.0678 -0.2510 -0.1673
 5510SOL    HW127992   4.570   0.170  11.732  0.5843  0.0571  0.0062
 5510SOL    HW227993   4.589   0.298  11.809  0.6105 -0.6529 -1.1603
 5511SOL     OW27994   0.576   4.236   6.408 -0.1445 -0.2452  0.1744
 5511SOL    HW127995   0.507   4.183   6.370 -1.1400  0.6029  0.8047
 5511SOL    HW227996   0.536   4.256   6.492 -1.6743  1.5785 -0.9914
 5512SOL     OW27997   4.042   1.099   0.230  0.2023  0.1106  0.3030
 5512SOL    HW127998   3.979   1.127   0.163  3.1846 -0.2457 -2.6232
 5512SOL    HW227999   4.119   1.079   0.178  0.8437  2.3798  0.3817
 5513SOL     OW28000   1.608   1.967   9.822  0.0802 -0.1733 -0.4582
 5513SOL    HW128001   1.648   1.962   9.909 -1.5738  0.8475  0.3778
 5513SOL    HW228002   1.659   1.897   9.782 -0.5907 -0.5195 -0.7052
 5514SOL     OW28003   2.919   4.452  14.433 -0.5188 -0.2904 -0.3496
 5514SOL    HW128004   2.836   4.404  14.434  0.1630 -1.4771  0.1877
 5514SOL    HW228005   2.925   4.474  14.340 -2.3766  0.6585 -0.2525
 5515SOL     OW28006   2.588   3.125   2.645  0.0443 -0.5648  0.8968
 5515SOL    HW128007   2.567   3.085   2.729 -0.4418  1.0541  1.5491
 5515SOL    HW228008   2.661   3.071   2.613 -1.3718 -1.2317 -1.1889
 5516SOL     OW28009   0.145   3.935   6.661  0.0798 -0.6152 -0.7127
 5516SOL    HW128010   0.137   3.844   6.689  0.8482 -0.8807 -1.3585
 5516SOL    HW228011   0.233   3.959   6.691 -0.2717  1.1464 -1.0560
 5517SOL     OW28012   3.497   4.627   7.932  0.3003  0.8857 -0.3007
 5517SOL    HW128013   3.411   4.642   7.972 -0.1654  0.5129 -1.1612
 5517SOL    HW228014   3.496   4.681   7.853 -0.5038 -0.6047 -1.2963
 5518SOL     OW28015   2.400   0.584  17.646 -0.2842  0.0401  0.0969
 5518SOL    HW128016   2.440   0.510  17.692 -0.2795  0.3366  0.5646
 5518SOL    HW228017   2.481   0.625  17.618  0.1148  1.1701  2.9646
 5519SOL     OW28018   4.526   3.714  10.724  0.0728 -0.6310 -0.2339
 5519SOL    HW128019   4.575   3.794  10.708 -0.4040 -0.3347 -0.2226
 5519SOL    HW228020   4.482   3.742  10.805  1.1282 -0.2274  0.1977
 5520SOL     OW28021   0.660   4.008   7.994  0.1191 -0.2326 -0.0445
 5520SOL    HW128022   0.705   4.092   7.994 -0.1897 -0.0688  1.5075
 5520SOL    HW228023   0.641   4.001   7.900 -0.9472 -2.5756  0.3299
 5521SOL     OW28024   1.291   4.156  10.451  0.1306 -0.1735  0.8201
 5521SOL    HW128025   1.257   4.241  10.422 -0.7728 -0.5434  0.8194
 5521SOL    HW228026   1.321   4.171  10.541 -0.3293 -1.9147  1.2626
 5522SOL     OW28027   4.172   3.310   6.090 -0.5141  0.1001  0.0982
 5522SOL    HW128028   4.163   3.404   6.105 -0.2972 -0.2205  2.1858
 5522SOL    HW228029   4.208   3.312   6.001  0.2891 -2.2137  0.3851
 5523SOL     OW28030   3.564   3.506   6.416  0.1551  0.3429  0.4776
 5523SOL    HW128031   3.650   3.491   6.377 -0.8866  0.2419 -1.7747
 5523SOL    HW228032   3.563   3.602   6.416 -0.4448  0.3363  1.8822
 5524SOL     OW28033   3.179   1.420   7.834  0.0603 -0.7261 -0.8437
 5524SOL    HW128034   3.187   1.448   7.743  0.1546  1.8780 -0.0475
 5524SOL    HW228035   3.153   1.494   7.889 -0.3818  0.2639 -2.3991
 5525SOL     OW28036   3.834   1.699   4.721 -0.3202 -0.1199  0.5334
 5525SOL    HW128037   3.889   1.706   4.799  0.5634  0.3900 -0.1220
 5525SOL    HW228038   3.805   1.610   4.738 -1.1662  0.2582  1.0560
 5526SOL     OW28039   2.091   3.427   8.854  0.3977 -0.1508  0.1078
 5526SOL    HW128040   2.149   3.418   8.779  0.0931  3.4276 -0.5578
 5526SOL    HW228041   2.027   3.357   8.840 -1.6522  1.6987  0.1742
 5527SOL     OW28042   0.446   3.137   9.630  0.7603 -0.2367  0.3761
 5527SOL    HW128043   0.492   3.130   9.714  1.1941 -2.6829 -0.0696
 5527SOL    HW228044   0.508   3.166   9.562 -0.0372  0.8061  0.0873
 5528SOL     OW28045   0.319   3.847  11.438  0.2638  0.0641  0.3976
 5528SOL    HW128046   0.388   3.813  11.496  1.1203  2.0171  0.5438
 5528SOL    HW228047   0.243   3.797  11.468  0.5623 -0.3844  0.4006
 5529SOL     OW28048   2.628   2.265   3.183 -0.1963  0.4756  0.1912
 5529SOL    HW128049   2.590   2.350   3.160 -2.2608 -0.4354  0.2431
 5529SOL    HW228050   2.712   2.287   3.221  0.2974  1.0636 -1.2363
 5530SOL     OW28051   3.614   0.251  12.204  0.0117  0.3103 -0.0155
 5530SOL    HW128052   3.644   0.164  12.179 -1.0000 -0.3785  1.1603
 5530SOL    HW228053   3.683   0.310  12.174 -1.2213  1.3105 -0.8929
 5531SOL     OW28054   0.180   1.934   7.866 -0.4874  0.2783  0.0722
 5531SOL    HW128055   0.264   1.980   7.869 -0.7786  0.7400  1.0556
 5531SOL    HW228056   0.125   2.006   7.897  1.7448  1.6495  0.8857
 5532SOL     OW28057   3.041   4.370   6.492 -0.0252 -0.1780 -0.2558
 5532SOL    HW128058   3.096   4.332   6.423 -2.6843 -1.0675 -1.8980
 5532SOL    HW228059   3.101   4.369   6.566  0.0823 -1.3943 -0.3521
 5533SOL     OW28060   0.572   2.578  10.403 -0.5645  0.1563  0.5656
 5533SOL    HW128061   0.530   2.507  10.451 -0.9438 -1.1390 -1.6830
 5533SOL    HW228062   0.651   2.582  10.456  0.4291 -1.7397 -0.7739
 5534SOL     OW28063   4.587   2.753  15.444  0.1238  0.2578 -0.2210
 5534SOL    HW128064   4.494   2.754  15.425  0.1364 -0.0983 -0.3148
 5534SOL    HW228065   4.593   2.807  15.523  0.5390 -0.2500  0.0992
 5535SOL     OW28066   0.825   1.202   7.571 -0.0045  0.0665 -0.0739
 5535SOL    HW128067   0.871   1.226   7.490  0.3215  0.0121  0.0948
 5535SOL    HW228068   0.902   1.219   7.624 -0.5871  1.8035  0.2247
 5536SOL     OW28069   0.563   0.507   6.821 -0.6031 -0.6474  0.0317
 5536SOL    HW128070   0.643   0.472   6.783 -1.5423 -2.0947 -0.6086
 5536SOL    HW228071   0.598   0.580   6.873 -1.3234  0.5172 -1.1070
 5537SOL     OW28072   3.730   4.266   7.711 -0.1910  0.4602  0.2919
 5537SOL    HW128073   3.667   4.193   7.709  0.8624 -0.4610  1.0249
 5537SOL    HW228074   3.678   4.310   7.779  0.7809  0.6687  0.8915
 5538SOL     OW28075   4.298   3.926   5.429 -0.2825  0.2434 -0.2811
 5538SOL    HW128076   4.341   3.904   5.346 -1.3070  0.7937 -0.9556
 5538SOL    HW228077   4.254   4.009   5.412  0.5679  0.8294  0.3808
 5539SOL     OW28078   2.953   0.161   5.520 -0.0137 -0.2283  0.1394
 5539SOL    HW128079   3.036   0.185   5.478  0.9043 -1.2947  1.3387
 5539SOL    HW228080   2.893   0.195   5.454  0.5317  2.1831  0.8920
 5540SOL     OW28081   1.727   3.871   1.744  0.0463 -0.2619 -0.5192
 5540SOL    HW128082   1.813   3.861   1.785 -1.0662 -1.1885  1.6166
 5540SOL    HW228083   1.672   3.845   1.818  0.4333 -0.1700 -0.1998
 5541SOL     OW28084   3.612   2.875   7.023  0.0431 -0.2436  0.3125
 5541SOL    HW128085   3.556   2.947   7.052  1.1377  0.2708  1.1374
 5541SOL    HW228086   3.662   2.911   6.951  1.2501 -1.7585  0.3980
 5542SOL     OW28087   2.715   2.897   2.393 -0.3271 -0.2621  0.2754
 5542SOL    HW128088   2.768   2.864   2.321  2.6260  0.5681  2.0961
 5542SOL    HW228089   2.689   2.985   2.368 -2.5968 -0.8962  0.3919
 5543SOL     OW28090   3.414   4.640  13.669  0.4927  0.4179  0.3623
 5543SOL    HW128091   3.406   4.662  13.761 -0.0284 -2.1165  0.9223
 5543SOL    HW228092   3.490   4.692  13.641  0.1974  0.4574 -0.3707
 5544SOL     OW28093   0.520   3.109   2.878 -0.2762 -0.2632 -0.1431
 5544SOL    HW128094   0.505   3.103   2.783 -3.3417 -0.1586  0.3554
 5544SOL    HW228095   0.447   3.156   2.917 -0.9928  0.2779 -2.1538
 5545SOL     OW28096   0.314   3.283   2.963 -0.3981  0.5456  0.0591
 5545SOL    HW128097   0.290   3.298   2.871  1.1331  1.0441 -0.2581
 5545SOL    HW228098   0.229   3.250   2.992 -0.1885  0.1683  0.2490
 5546SOL     OW28099   0.971   0.375   5.888  0.0914 -0.0164  0.0373
 5546SOL    HW128100   1.066   0.366   5.881  0.1358 -0.5955  1.2961
 5546SOL    HW228101   0.951   0.324   5.810 -0.0473 -1.3800  0.9675
 5547SOL     OW28102   0.514   2.169   8.596  0.2512  0.1117 -0.1606
 5547SOL    HW128103   0.555   2.131   8.674  0.2763  0.3861 -0.0395
 5547SOL    HW228104   0.570   2.140   8.524 -1.9789 -2.6208 -0.7988
 5548SOL     OW28105   1.259   0.877  12.342  0.2672  0.3468 -0.4359
 5548SOL    HW128106   1.216   0.859  12.258 -0.4538 -3.3464  0.7158
 5548SOL    HW228107   1.213   0.816  12.400 -0.1111  1.7718  0.7526
 5549SOL     OW28108   2.374   0.973   4.088  0.0850 -0.3512  0.2504
 5549SOL    HW128109   2.349   1.011   4.172  1.2686  0.0290  0.4396
 5549SOL    HW228110   2.291   0.963   4.041  0.6840  0.3556 -0.9729
 5550SOL     OW28111   4.136   0.300   0.977  0.5328  0.4889 -0.3490
 5550SOL    HW128112   4.059   0.340   0.935  0.2430 -1.1186 -1.3173
 5550SOL    HW228113   4.201   0.362   0.945 -0.5558  0.9107 -1.7283
 5551SOL     OW28114   0.811   0.630   9.076 -0.8697  0.4445 -0.5074
 5551SOL    HW128115   0.735   0.679   9.107  0.1251 -0.1664  2.8563
 5551SOL    HW228116   0.805   0.548   9.124 -0.7120  0.4155 -0.5358
 5552SOL     OW28117   0.305   4.040  13.233  0.1786 -0.4308  0.4103
 5552SOL    HW128118   0.380   4.094  13.211  0.5856 -1.5183 -0.8756
 5552SOL    HW228119   0.297   4.048  13.328  0.0806  1.5226  0.2275
 5553SOL     OW28120   2.891   4.033   4.225  0.3381  0.1600 -0.4655
 5553SOL    HW128121   2.921   3.947   4.198 -1.0841  0.3780 -2.7449
 5553SOL    HW228122   2.796   4.028   4.240  0.9760 -3.6935  2.1936
 5554SOL     OW28123   1.883   1.249   4.396 -0.0066 -0.2480 -0.5220
 5554SOL    HW128124   1.962   1.211   4.435  0.3849  1.4299  0.3049
 5554SOL    HW228125   1.817   1.201   4.446  0.5635 -0.6704 -0.1735
 5555SOL     OW28126   2.317   1.146   9.283  0.3573 -0.1541 -0.2536
 5555SOL    HW128127   2.330   1.205   9.357 -2.2500  1.7681 -1.3505
 5555SOL    HW228128   2.344   1.202   9.210  0.3814  1.1971  0.8046
 5556SOL     OW28129   1.963   0.276   8.467  0.9797  0.1081 -0.0847
 5556SOL    HW128130   1.943   0.311   8.554 -1.0795  1.0916 -0.9542
 5556SOL    HW228131   1.942   0.355   8.417  0.0719 -1.2406 -1.8215
 5557SOL     OW28132   3.516   3.738   8.603 -0.0934 -0.1373 -0.4647
 5557SOL    HW128133   3.531   3.703   8.691  0.0174  0.6226 -0.1826
 5557SOL    HW228134   3.421   3.727   8.604 -0.3059  1.4279 -2.8445
 5558SOL     OW28135   0.445   0.939   4.469 -0.4552  0.0169 -0.0161
 5558SOL    HW128136   0.487   0.862   4.507 -0.0394  0.9372  1.3466
 5558SOL    HW228137   0.414   0.989   4.544  0.7141 -0.6089  0.8883
 5559SOL     OW28138   4.213   1.383   3.743 -0.3252 -0.4418  0.1233
 5559SOL    HW128139   4.279   1.399   3.676 -0.5888  1.7977  0.4012
 5559SOL    HW228140   4.136   1.355   3.692 -0.7744 -0.9495  1.0841
 5560SOL     OW28141   1.318   2.620   5.154  0.4115 -0.0126 -0.1015
 5560SOL    HW128142   1.289   2.705   5.188  1.1851  0.8124 -1.5438
 5560SOL    HW228143   1.256   2.564   5.201  3.2305 -1.3651  2.0610
 5561SOL     OW28144   3.448   4.087  14.969 -0.1739 -0.1095 -0.3159
 5561SOL    HW128145   3.478   4.015  15.024  0.3140 -1.9401 -3.0313
 5561SOL    HW228146   3.358   4.095  15.002 -0.4290  2.8321 -1.6940
 5562SOL     OW28147   3.376   2.679   4.015  0.3844  0.3918  0.3504
 5562SOL    HW128148   3.286   2.648   4.003 -0.1995  0.3330  5.0755
 5562SOL    HW228149   3.415   2.595   4.039 -2.5422 -1.3781 -1.0410
 5563SOL     OW28150   1.133   0.537   6.859  0.0059 -0.7799  0.4264
 5563SOL    HW128151   1.112   0.534   6.766  0.3300 -0.2606  0.3345
 5563SOL    HW228152   1.193   0.612   6.858  0.8215 -1.4479 -1.7663
 5564SOL     OW28153   2.215   1.610  17.001 -0.1776  0.6136 -0.1495
 5564SOL    HW128154   2.295   1.562  17.024 -0.5088  0.1484  0.0189
 5564SOL    HW228155   2.189   1.566  16.920  1.5173 -1.6083  0.5015
 5565SOL     OW28156   4.693   1.667   5.081 -0.3762  0.4690 -0.3122
 5565SOL    HW128157   0.019   1.589   5.104  1.1220  1.4993 -0.1804
 5565SOL    HW228158   4.618   1.679   5.140 -1.0093  0.6619 -1.1553
 5566SOL     OW28159   1.221   0.306   3.675  0.9092 -0.1271  0.5506
 5566SOL    HW128160   1.282   0.253   3.726  2.1199 -1.6418 -2.4638
 5566SOL    HW228161   1.159   0.237   3.651  1.0334  0.3199 -1.0125
 5567SOL     OW28162   3.488   2.499   0.737 -0.1398  0.0698 -0.1970
 5567SOL    HW128163   3.461   2.511   0.828 -0.4229  2.8569 -0.6288
 5567SOL    HW228164   3.446   2.416   0.715  0.2166 -0.2361  0.2797
 5568SOL     OW28165   4.014   2.492   9.101 -0.4002 -0.1978 -0.2401
 5568SOL    HW128166   4.034   2.571   9.050  0.3834  2.0176  3.5140
 5568SOL    HW228167   3.935   2.509   9.153  0.3322 -1.6323  1.3299
 5569SOL     OW28168   0.101   2.057   2.824 -0.6555 -0.1929  0.1679
 5569SOL    HW128169   0.066   2.140   2.791 -0.3897 -0.9257 -1.9025
 5569SOL    HW228170   0.042   1.990   2.792 -3.4678  2.7209 -0.7259
 5570SOL     OW28171   3.242   1.497   2.455  0.7374  0.3288 -0.4832
 5570SOL    HW128172   3.245   1.454   2.369 -0.3109  1.1873 -0.9530
 5570SOL    HW228173   3.235   1.591   2.435  0.1556  1.0787  3.3764
 5571SOL     OW28174   1.932   0.613  12.129  0.8337  0.4440 -0.7116
 5571SOL    HW128175   1.897   0.525  12.145 -1.2388  1.6198  1.0954
 5571SOL    HW228176   1.996   0.618  12.201 -0.8331  1.7638  0.6568
 5572SOL     OW28177   1.673   0.274  12.964  0.6370  0.3313 -0.0602
 5572SOL    HW128178   1.742   0.326  13.007 -0.5730  2.4081 -0.6336
 5572SOL    HW228179   1.717   0.190  12.952  0.1356 -0.2546  2.1339
 5573SOL     OW28180   2.492   1.749   0.879 -0.1652 -0.3676 -0.3424
 5573SOL    HW128181   2.560   1.699   0.924  1.3043  1.0521 -0.9648
 5573SOL    HW228182   2.452   1.793   0.954  2.8836  1.0725  0.4840
 5574SOL     OW28183   0.846   2.841   1.341  0.5537 -0.1384 -0.1918
 5574SOL    HW128184   0.883   2.846   1.429  0.3522  3.8202 -0.3145
 5574SOL    HW228185   0.771   2.794   1.376  0.7584 -0.1510  0.2296
 5575SOL     OW28186   0.086   3.678  14.944  0.0173  0.4040  0.2723
 5575SOL    HW128187   0.165   3.641  14.905  0.0438 -1.3933  2.0068
 5575SOL    HW228188   0.092   3.641  15.032 -1.5581  2.3748  1.1976
 5576SOL     OW28189   3.438   3.102   1.595  0.6244  0.6087 -0.3245
 5576SOL    HW128190   3.394   3.187   1.596  0.5350  0.5494  1.9268
 5576SOL    HW228191   3.497   3.106   1.520  0.9055 -1.2456 -0.2134
 5577SOL     OW28192   0.541   1.055   7.871 -0.0599  0.0560  0.1351
 5577SOL    HW128193   0.505   0.990   7.811 -0.3436  2.1449 -1.9485
 5577SOL    HW228194   0.466   1.114   7.864 -0.4049 -0.7252 -2.6787
 5578SOL     OW28195   2.222   3.792   1.555 -0.4237 -0.1630 -0.5654
 5578SOL    HW128196   2.243   3.819   1.645 -2.2583 -1.5593  0.2981
 5578SOL    HW228197   2.311   3.780   1.522 -1.0410 -1.0580 -1.9175
 5579SOL     OW28198   3.068   0.849  10.978  0.0386  0.0284  0.1727
 5579SOL    HW128199   3.039   0.826  11.066  1.0911  2.2537  1.0842
 5579SOL    HW228200   3.150   0.887  11.007  1.1822 -2.5302  0.3343
 5580SOL     OW28201   4.403   3.365  10.674 -0.0401 -0.1061  0.3038
 5580SOL    HW128202   4.328   3.325  10.718  0.0985  2.4300  2.8387
 5580SOL    HW228203   4.475   3.318  10.715  1.0744 -0.3592 -1.9360
 5581SOL     OW28204   2.211   1.762   8.205  0.2124  0.1220  0.2698
 5581SOL    HW128205   2.253   1.678   8.227 -0.2645 -0.7541 -2.1551
 5581SOL    HW228206   2.117   1.745   8.214  0.3508 -0.6444  0.3145
 5582SOL     OW28207   0.354   4.016   8.565  0.8326 -0.2437  0.4254
 5582SOL    HW128208   0.266   3.992   8.593  1.5574 -2.3597  0.8325
 5582SOL    HW228209   0.322   4.069   8.491  0.0777  0.0305  0.9504
 5583SOL     OW28210   3.091   4.463   3.851  0.0242  0.3505 -0.1507
 5583SOL    HW128211   3.175   4.420   3.835  0.2548  0.5731  0.4501
 5583SOL    HW228212   3.056   4.390   3.902  0.9010 -1.1895 -1.7707
 5584SOL     OW28213   3.829   3.792  15.494  0.0315 -0.4951  0.0827
 5584SOL    HW128214   3.756   3.817  15.438 -0.6280 -0.3782  0.9901
 5584SOL    HW228215   3.791   3.803  15.581  1.6798  2.7161  0.4144
 5585SOL     OW28216   2.124   3.653   9.259  0.0012 -0.2705  0.4146
 5585SOL    HW128217   2.219   3.666   9.265  0.0469 -1.0371  1.4537
 5585SOL    HW228218   2.093   3.743   9.248 -0.2307 -0.7373 -2.5614
 5586SOL     OW28219   0.490   1.184   6.467 -1.1629 -0.3213 -0.0714
 5586SOL    HW128220   0.520   1.099   6.435  1.5641 -0.0650  1.7639
 5586SOL    HW228221   0.475   1.154   6.557 -0.5622  0.3034  0.2433
 5587SOL     OW28222   2.896   4.679   2.515 -0.1528 -0.7227  0.2615
 5587SOL    HW128223   2.841   4.625   2.571  0.2264  1.2650  2.5513
 5587SOL    HW228224   2.901   0.034   2.567  2.6441 -1.2601  0.8666
 5588SOL     OW28225   3.020   1.814   7.062  0.2053 -0.0748 -0.1217
 5588SOL    HW128226   2.957   1.763   7.113  0.6671  0.5700  1.1064
 5588SOL    HW228227   3.023   1.885   7.127 -2.0929  0.2817 -0.3978
 5589SOL     OW28228   3.013   1.737   5.850 -0.4704 -0.1106  0.0044
 5589SOL    HW128229   2.979   1.647   5.856  0.3631 -0.3141  1.5579
 5589SOL    HW228230   2.943   1.769   5.793  1.1486  0.5561 -1.6252
 5590SOL     OW28231   3.826   1.428   6.441 -0.3769  0.4854  0.0518
 5590SOL    HW128232   3.779   1.369   6.500 -1.1416  0.5101 -0.5307
 5590SOL    HW228233   3.896   1.366   6.421 -1.0659 -0.4275  0.4331
 5591SOL     OW28234   1.754   3.028   4.017  0.4366  0.2161  0.0270
 5591SOL    HW128235   1.772   3.081   3.939  1.5056  0.1141  0.2085
 5591SOL    HW228236   1.819   3.063   4.077 -0.4127  2.0186 -0.1038
 5592SOL     OW28237   4.283   0.775   0.785 -0.4198  0.4448  0.5054
 5592SOL    HW128238   4.270   0.703   0.723  0.5271  0.5409  0.2065
 5592SOL    HW228239   4.355   0.820   0.741  0.0692  0.2828  1.1452
 5593SOL     OW28240   1.755   0.743   7.479  0.2471  0.4507  0.4740
 5593SOL    HW128241   1.762   0.684   7.404 -1.1655  2.7503 -1.4686
 5593SOL    HW228242   1.849   0.744   7.498  0.3941  0.9855 -0.3280
 5594SOL     OW28243   3.903   2.247  13.126  0.0776  0.1671  0.0145
 5594SOL    HW128244   3.900   2.160  13.165  2.0103  0.6898  1.3445
 5594SOL    HW228245   3.900   2.219  13.035 -1.4848 -1.9538  0.7027
 5595SOL     OW28246   3.866   4.250   5.418 -0.1857  0.0085  0.5087
 5595SOL    HW128247   3.785   4.231   5.371 -0.3663  1.2936  0.3019
 5595SOL    HW228248   3.849   4.341   5.443  0.0564  0.4050 -0.7560
 5596SOL     OW28249   0.830   2.434   9.678  0.2367 -0.1682  0.5874
 5596SOL    HW128250   0.748   2.454   9.632 -0.1930  0.6404  1.6958
 5596SOL    HW228251   0.855   2.344   9.655 -1.0862 -0.6151  0.9048
 5597SOL     OW28252   2.913   0.942   4.110 -0.7288  0.4486  0.4308
 5597SOL    HW128253   2.877   0.854   4.119 -1.8161  0.6772 -1.6333
 5597SOL    HW228254   2.847   0.977   4.049 -2.4731  1.7049  3.0126
 5598SOL     OW28255   0.182   4.361   2.475 -0.5238  0.0520  0.4772
 5598SOL    HW128256   0.200   4.450   2.445  0.3594 -0.0639  0.6780
 5598SOL    HW228257   0.135   4.329   2.397 -2.2938 -0.6961  1.8631
 5599SOL     OW28258   3.923   4.232   4.342 -0.2217  0.0047  0.1497
 5599SOL    HW128259   3.914   4.299   4.274  2.4582  2.9871  2.7205
 5599SOL    HW228260   4.013   4.201   4.339 -0.3781 -0.3345 -0.9028
 5600SOL     OW28261   1.592   3.875  14.776  1.1276  0.7386 -0.1944
 5600SOL    HW128262   1.584   3.839  14.687  0.7484  1.9895 -0.6623
 5600SOL    HW228263   1.595   3.794  14.827 -0.0928 -0.2226 -1.6469
 5601SOL     OW28264   0.778   3.026   2.765 -0.5332 -0.1093  0.4407
 5601SOL    HW128265   0.769   3.090   2.695 -1.5785 -1.5071 -0.7049
 5601SOL    HW228266   0.734   3.067   2.839  0.3070  0.0483  0.8529
 5602SOL     OW28267   4.475   3.676   9.037  0.0095 -0.0151 -0.2310
 5602SOL    HW128268   4.514   3.602   8.991 -0.8202  0.6571 -2.0180
 5602SOL    HW228269   4.538   3.746   9.018  0.3548 -0.0526  0.7807
 5603SOL     OW28270   3.818   1.511   8.366  0.0007 -0.7707  0.0115
 5603SOL    HW128271   3.790   1.423   8.339  2.7816 -2.0634  1.2831
 5603SOL    HW228272   3.735   1.551   8.390  0.4812  0.0189  0.3707
 5604SOL     OW28273   2.098   2.897   7.024  0.3485  0.3104  0.2620
 5604SOL    HW128274   2.083   2.803   7.019 -1.2225  0.4964  1.3096
 5604SOL    HW228275   2.171   2.900   7.086  1.9894  0.1972 -1.6664
 5605SOL     OW28276   1.873   3.292   6.860  0.8513  0.9449 -0.0187
 5605SOL    HW128277   1.867   3.387   6.868  0.9030  0.9408  0.0817
 5605SOL    HW228278   1.960   3.296   6.821  0.5974 -2.6772 -0.9273
 5606SOL     OW28279   2.621   3.862   4.046 -0.2707  0.5052  0.8304
 5606SOL    HW128280   2.696   3.824   4.091  1.5014  0.4368 -2.1756
 5606SOL    HW228281   2.549   3.811   4.085 -0.4762  0.0453 -0.1596
 5607SOL     OW28282   3.741   0.907   7.548 -0.5290  0.1779 -0.1213
 5607SOL    HW128283   3.750   1.001   7.537 -0.6032  0.2281  0.2357
 5607SOL    HW228284   3.770   0.895   7.638 -2.7728  0.5354  0.6520
 5608SOL     OW28285   2.063   4.473   9.454  0.2724  0.3547  0.7710
 5608SOL    HW128286   1.983   4.470   9.507  0.2657  1.1014  0.7999
 5608SOL    HW228287   2.072   4.566   9.435  0.3012  0.0496 -0.6948
 5609SOL     OW28288   3.115   2.391   7.955  0.4230  0.6809  0.6117
 5609SOL    HW128289   3.193   2.416   8.005  0.4570  1.1700  0.3222
 5609SOL    HW228290   3.114   2.296   7.952 -0.4738  0.7857 -2.0181
 5610SOL     OW28291   3.488   3.627   8.356 -0.1654  0.0789  0.4654
 5610SOL    HW128292   3.558   3.652   8.296 -0.2365  0.5754  0.5867
 5610SOL    HW228293   3.510   3.672   8.438 -0.9540 -1.2774  1.4218
 5611SOL     OW28294   2.144   0.800   8.798  0.2995 -0.4951  0.3151
 5611SOL    HW128295   2.061   0.798   8.750 -0.6164 -4.7345  2.0885
 5611SOL    HW228296   2.124   0.733   8.863  2.8228  0.6755  2.2584
 5612SOL     OW28297   0.964   2.353   6.861 -0.3252 -0.3079  0.1406
 5612SOL    HW128298   1.001   2.353   6.773  0.1007  1.0304  0.3184
 5612SOL    HW228299   0.872   2.343   6.837 -0.3142  0.9118 -0.3918
 5613SOL     OW28300   2.165   4.247   9.325 -0.1874 -0.3858  0.2210
 5613SOL    HW128301   2.234   4.252   9.391  0.0522 -0.5807 -0.0137
 5613SOL    HW228302   2.107   4.302   9.378 -0.1667  0.4008 -0.5559
 5614SOL     OW28303   1.368   3.598   3.775 -0.2505  0.6005  0.0932
 5614SOL    HW128304   1.442   3.659   3.788  1.4892 -0.8879 -2.8931
 5614SOL    HW228305   1.295   3.660   3.782 -1.5049 -0.9445  0.6375
 5615SOL     OW28306   2.943   2.237   5.445 -0.8441 -0.0884 -0.4180
 5615SOL    HW128307   2.955   2.142   5.454  0.1017 -0.0352 -1.2372
 5615SOL    HW228308   2.872   2.246   5.381 -0.3290 -0.0475 -0.9748
 5616SOL     OW28309   1.198   0.236   2.938 -0.2743  0.1622 -0.1810
 5616SOL    HW128310   1.265   0.193   2.992 -0.4820 -0.3823 -0.3535
 5616SOL    HW228311   1.157   0.286   3.009  0.3384  1.0540 -0.4622
 5617SOL     OW28312   3.851   4.576   3.568 -0.0637  0.4940 -0.2100
 5617SOL    HW128313   3.904   4.506   3.532 -2.6132 -1.9730  0.8399
 5617SOL    HW228314   3.920   4.643   3.571 -2.4545  2.9414  0.2460
 5618SOL     OW28315   1.161   3.940  12.483 -0.1810  0.4728  0.1578
 5618SOL    HW128316   1.131   3.950  12.574 -3.1437 -0.3050 -0.7511
 5618SOL    HW228317   1.229   4.007  12.472 -1.2308  1.4904 -0.1118
 5619SOL     OW28318   0.003   4.448   3.607 -0.0630  0.2765 -0.8700
 5619SOL    HW128319   0.029   4.357   3.591 -1.3888 -0.3075  0.2069
 5619SOL    HW228320   0.008   4.477   3.516  2.2850 -1.3888 -1.2737
 5620SOL     OW28321   1.553   4.211   0.559  0.6396  0.3262  0.0904
 5620SOL    HW128322   1.512   4.258   0.632 -0.3528 -0.3848 -0.0140
 5620SOL    HW228323   1.632   4.264   0.553 -0.2077  1.5977  0.2987
 5621SOL     OW28324   4.166   2.206   3.796  0.5059  0.2128  0.1730
 5621SOL    HW128325   4.198   2.221   3.885  0.0136  0.4188  0.3159
 5621SOL    HW228326   4.074   2.182   3.810  0.7283 -0.4479  0.5467
 5622SOL     OW28327   0.260   2.430   0.786 -0.1041  0.3179 -0.0949
 5622SOL    HW128328   0.345   2.446   0.826 -0.4523  1.5550  0.1640
 5622SOL    HW228329   0.256   2.345   0.829  0.3600 -0.9115 -2.4633
 5623SOL     OW28330   2.125   0.754   3.250 -0.1721 -0.3893  0.2716
 5623SOL    HW128331   2.059   0.808   3.206 -1.0641 -0.4012  1.6086
 5623SOL    HW228332   2.186   0.729   3.180  0.3610  1.9449 -0.0943
 5624SOL     OW28333   2.820   2.443   5.757 -0.0117  0.2887 -0.0198
 5624SOL    HW128334   2.812   2.538   5.757  0.1727  0.3037 -1.9390
 5624SOL    HW228335   2.859   2.424   5.842 -1.5894 -0.5610  0.5161
 5625SOL     OW28336   1.921   2.686   4.945 -0.3276 -0.4408 -0.0652
 5625SOL    HW128337   1.868   2.766   4.950 -0.7367 -0.7292  0.3199
 5625SOL    HW228338   1.866   2.629   4.999  0.6940 -0.0856  1.3634
 5626SOL     OW28339   0.955   1.755   2.726 -0.3656  0.0499  0.0140
 5626SOL    HW128340   0.898   1.827   2.701  1.4985  1.2086 -0.9731
 5626SOL    HW228341   1.013   1.795   2.791 -1.1459 -0.1443  0.8322
 5627SOL     OW28342   2.739   2.937  13.619 -0.4113 -0.2262 -0.0451
 5627SOL    HW128343   2.759   2.857  13.570 -1.4693 -0.5623  0.0831
 5627SOL    HW228344   2.645   2.935  13.606 -0.5736 -2.4952  1.5717
 5628SOL     OW28345   3.479   4.049  12.293 -0.1546  0.5321 -0.2647
 5628SOL    HW128346   3.395   4.007  12.276 -0.5590  1.3618 -0.3057
 5628SOL    HW228347   3.506   4.013  12.377  0.6260  1.4072 -0.1436
 5629SOL     OW28348   3.713   2.955   2.122 -0.5969 -0.2398  0.3227
 5629SOL    HW128349   3.798   2.987   2.092 -1.4948 -0.3583 -2.3303
 5629SOL    HW228350   3.744   2.869   2.148 -0.7313  0.5785  3.1788
 5630SOL     OW28351   1.089   0.700  14.893  0.3514  0.2502 -0.7723
 5630SOL    HW128352   1.128   0.675  14.977 -0.9911 -2.1268 -0.8734
 5630SOL    HW228353   1.011   0.646  14.902  1.1098 -0.2183  3.1000
 5631SOL     OW28354   3.791   4.399   4.657 -0.6730  0.4081 -0.2860
 5631SOL    HW128355   3.828   4.336   4.719 -3.0652 -1.5066 -0.7909
 5631SOL    HW228356   3.869   4.413   4.603  0.3762  0.1191  1.1347
 5632SOL     OW28357   1.475   2.233   2.288 -0.2124 -0.1016  0.4394
 5632SOL    HW128358   1.409   2.167   2.264  0.7539 -0.0577 -2.3741
 5632SOL    HW228359   1.468   2.293   2.214  1.5847 -0.7264 -0.2342
 5633SOL     OW28360   1.181   3.770   3.837 -0.1084 -0.2538 -0.2704
 5633SOL    HW128361   1.246   3.840   3.832  0.1053 -0.4703 -0.5009
 5633SOL    HW228362   1.103   3.818   3.810 -0.9225 -0.1736  2.1681
 5634SOL     OW28363   2.891   1.455   1.769 -0.5375  0.4834 -0.2508
 5634SOL    HW128364   2.816   1.486   1.718 -0.8681  0.6923  0.3515
 5634SOL    HW228365   2.862   1.474   1.859  1.2870 -2.5845  0.9796
 5635SOL     OW28366   1.840   1.054   2.436  0.2901  0.1018  0.1519
 5635SOL    HW128367   1.790   1.128   2.471 -0.9942 -1.4720  1.5934
 5635SOL    HW228368   1.928   1.093   2.435  0.5038 -0.4404 -2.5900
 5636SOL     OW28369   4.036   3.766   2.212 -0.3269  0.2745 -0.5285
 5636SOL    HW128370   3.947   3.733   2.202 -0.6125  0.7927  0.2858
 5636SOL    HW228371   4.093   3.693   2.236 -1.9965 -0.4047  1.3617
 5637SOL     OW28372   2.328   0.183   2.958 -0.1284  0.5875  0.4281
 5637SOL    HW128373   2.248   0.204   3.007  1.9471  2.8999  2.7949
 5637SOL    HW228374   2.323   0.087   2.966  1.6291  0.4418 -0.3488
 5638SOL     OW28375   1.481   1.326   6.161  0.6072  0.0684 -0.1970
 5638SOL    HW128376   1.534   1.344   6.084  1.0079  0.5800  0.1951
 5638SOL    HW228377   1.395   1.319   6.119  0.0123 -0.3368  1.0837
 5639SOL     OW28378   4.338   4.286  10.261 -0.7707  0.5725  0.1543
 5639SOL    HW128379   4.295   4.295  10.346  0.2328 -1.5672  0.8926
 5639SOL    HW228380   4.281   4.216  10.230  1.9845 -2.5981  2.2479
 5640SOL     OW28381   3.137   3.497  13.013  0.3269  0.5839  0.2834
 5640SOL    HW128382   3.202   3.568  13.011  0.6342  0.3067  0.3695
 5640SOL    HW228383   3.198   3.437  12.970 -0.6848  0.9174 -1.5963
 5641SOL     OW28384   1.605   1.030   0.900  0.1391  0.4490 -0.4814
 5641SOL    HW128385   1.630   1.079   0.821  0.5857 -1.4831 -1.5546
 5641SOL    HW228386   1.660   1.070   0.967  0.2847 -0.4931 -0.0399
 5642SOL     OW28387   3.484   3.059  13.374 -0.5413  0.1757  0.8020
 5642SOL    HW128388   3.466   3.146  13.409 -0.6537 -0.2653  1.8428
 5642SOL    HW228389   3.547   3.025  13.438 -0.5691 -2.4692 -0.5728
 5643SOL     OW28390   0.264   2.637   5.368  0.1552 -0.3208  0.3614
 5643SOL    HW128391   0.333   2.609   5.428  1.3099 -1.3932 -1.4570
 5643SOL    HW228392   0.214   2.558   5.346  0.3332  0.0957 -1.5322
 5644SOL     OW28393   0.065   2.951   4.099  0.0241 -0.5249 -0.4319
 5644SOL    HW128394   4.699   2.923   4.086  0.5093 -1.5504 -1.6496
 5644SOL    HW228395   0.108   2.889   4.040  1.0222 -0.4062  0.1718
 5645SOL     OW28396   4.122   3.516  15.744  0.1213 -0.3590  0.2853
 5645SOL    HW128397   4.138   3.423  15.726 -1.7106 -0.7542  0.6112
 5645SOL    HW228398   4.188   3.559  15.690 -1.3724 -0.0989 -1.3421
 5646SOL     OW28399   3.215   0.328   7.890 -0.4233 -0.1851 -0.6221
 5646SOL    HW128400   3.262   0.303   7.810 -0.2849 -0.3025 -0.5044
 5646SOL    HW228401   3.291   0.316   7.947 -0.9730 -2.7467 -0.4157
 5647SOL     OW28402   0.876   0.164   6.174  0.1845  0.0250  0.4040
 5647SOL    HW128403   0.940   0.109   6.130 -0.5608  0.3600 -1.1022
 5647SOL    HW228404   0.798   0.110   6.161 -0.4164  1.1484 -0.6767
 5648SOL     OW28405   2.284   0.821   8.352  0.0474 -0.1750  0.2459
 5648SOL    HW128406   2.265   0.875   8.276 -2.0314 -0.8115  0.3021
 5648SOL    HW228407   2.283   0.883   8.425  0.3497  1.4615 -1.1700
 5649SOL     OW28408   2.090   3.882   7.165  0.5354 -0.1860  0.2565
 5649SOL    HW128409   2.033   3.912   7.094  0.4018 -3.5734 -1.0860
 5649SOL    HW228410   2.178   3.887   7.128 -0.3288  1.5684 -1.5767
 5650SOL     OW28411   0.993   2.622   6.231 -0.0569 -0.1019 -0.5784
 5650SOL    HW128412   1.049   2.570   6.289 -0.8145  0.7593  0.9303
 5650SOL    HW228413   0.935   2.668   6.291  1.5218  0.2788  0.6500
 5651SOL     OW28414   2.911   2.989   8.640  0.2023 -0.5872  0.1233
 5651SOL    HW128415   2.871   2.939   8.569 -0.5309 -1.7294  1.3565
 5651SOL    HW228416   2.892   2.939   8.719  1.1229 -0.3871  0.4715
 5652SOL     OW28417   3.386   1.364   7.313 -0.1013 -0.1293  0.2098
 5652SOL    HW128418   3.466   1.405   7.279  1.2256 -0.8618  2.4926
 5652SOL    HW228419   3.323   1.437   7.309  0.8232  0.6361 -0.6957
 5653SOL     OW28420   0.792   3.985   8.424  0.3949  0.5752 -0.0540
 5653SOL    HW128421   0.741   3.986   8.343 -1.1943 -1.8257  0.9071
 5653SOL    HW228422   0.824   4.074   8.428  0.2112  0.5765  1.7702
 5654SOL     OW28423   2.123   4.510   5.472  0.0831 -0.4434 -0.1722
 5654SOL    HW128424   2.124   4.565   5.550 -0.4521 -1.2515  0.4024
 5654SOL    HW228425   2.157   4.577   5.413 -1.6907 -0.0446 -0.7681
 5655SOL     OW28426   0.843   2.655   2.162  0.4955  0.9743  0.1890
 5655SOL    HW128427   0.785   2.713   2.111 -1.3886 -1.3924 -0.3709
 5655SOL    HW228428   0.853   2.595   2.088 -0.0325  1.0592  0.0437
 5656SOL     OW28429   0.483   1.337   5.357  0.0587 -0.2289 -0.2480
 5656SOL    HW128430   0.575   1.319   5.337  0.2470 -1.8815  2.0442
 5656SOL    HW228431   0.474   1.424   5.319 -2.5636 -0.0155  0.8554
 5657SOL     OW28432   2.596   3.964  14.151  0.0133 -0.4024  0.1634
 5657SOL    HW128433   2.645   3.930  14.077 -0.3967  1.1431 -0.8209
 5657SOL    HW228434   2.661   3.952  14.221  0.8079  1.6537 -0.2058
 5658SOL     OW28435   2.838   2.438   4.250 -0.0669 -0.7846 -0.4677
 5658SOL    HW128436   2.784   2.502   4.295  0.6584 -0.5006  0.0074
 5658SOL    HW228437   2.811   2.453   4.159 -0.0396 -1.3864 -0.5796
 5659SOL     OW28438   1.926   4.290  10.147  0.2244 -0.2209 -0.2777
 5659SOL    HW128439   1.852   4.333  10.103 -0.9481 -1.6525  0.2942
 5659SOL    HW228440   1.883   4.258  10.227 -1.1201 -1.5057 -1.5087
 5660SOL     OW28441   3.120   3.395   3.468  0.3191  0.9145  0.0672
 5660SOL    HW128442   3.125   3.311   3.514  0.0842  0.9468  0.1543
 5660SOL    HW228443   3.186   3.396   3.399 -0.8840 -1.7304 -1.1407
 5661SOL     OW28444   2.081   4.574  10.479  0.2158 -0.0154  0.0208
 5661SOL    HW128445   2.065   4.569  10.385  0.9298 -2.2763  0.0043
 5661SOL    HW228446   1.997   4.609  10.507  0.3027  0.0226  0.2398
 5662SOL     OW28447   1.889   4.356   7.742  0.1974  0.3915 -0.2571
 5662SOL    HW128448   1.949   4.431   7.742  2.1466 -1.1514  3.4490
 5662SOL    HW228449   1.843   4.372   7.825 -1.2781 -0.8062 -0.8544
 5663SOL     OW28450   3.274   1.459   8.608 -0.1626  0.0937 -0.0814
 5663SOL    HW128451   3.212   1.487   8.675 -1.3781 -2.8180 -0.0171
 5663SOL    HW228452   3.331   1.403   8.662 -1.0627  1.3160  2.1301
 5664SOL     OW28453   0.389   3.451   3.193  0.6880 -0.1155  0.1577
 5664SOL    HW128454   0.429   3.526   3.148  1.0784 -1.6104 -1.9792
 5664SOL    HW228455   0.369   3.391   3.121  0.5195 -1.7018  1.5134
 5665SOL     OW28456   2.515   2.128  12.252 -0.5703 -0.3076 -0.0842
 5665SOL    HW128457   2.610   2.119  12.245 -0.4668  0.4233  0.3091
 5665SOL    HW228458   2.488   2.038  12.271 -1.2281 -0.5652 -2.2956
 5666SOL     OW28459   3.692   1.842   5.819 -0.5663  0.5516  1.0729
 5666SOL    HW128460   3.720   1.794   5.741  2.5096 -0.2367  2.6328
 5666SOL    HW228461   3.631   1.909   5.788 -0.2503  0.6520  0.6650
 5667SOL     OW28462   4.352   3.374   2.459 -0.4484  0.0697  0.1974
 5667SOL    HW128463   4.382   3.316   2.388  1.1032  1.1535 -0.0275
 5667SOL    HW228464   4.257   3.370   2.464 -0.4215  0.6736  1.1715
 5668SOL     OW28465   4.459   1.948   6.432  0.8958  0.1081  0.1960
 5668SOL    HW128466   4.462   1.901   6.349 -1.3223  0.4935 -0.0948
 5668SOL    HW228467   4.426   2.035   6.413 -1.6046 -0.3804  2.2502
 5669SOL     OW28468   0.464   2.779   0.873  0.4241  0.1359 -0.2196
 5669SOL    HW128469   0.547   2.737   0.893 -0.0123  0.8226  3.0344
 5669SOL    HW228470   0.481   2.804   0.783 -0.8415 -0.3171 -0.5844
 5670SOL     OW28471   3.952   3.520   5.116 -0.0105 -0.9807  0.0280
 5670SOL    HW128472   3.949   3.587   5.047  1.8963  0.7904  1.6698
 5670SOL    HW228473   3.936   3.435   5.075 -0.5203 -0.3458 -1.0846
 5671SOL     OW28474   2.011   1.086   3.538  0.3015 -0.4051  0.1559
 5671SOL    HW128475   2.037   1.158   3.481 -0.4439 -0.2454  0.0173
 5671SOL    HW228476   1.918   1.103   3.553  0.6297  0.0010  1.7485
 5672SOL     OW28477   1.287   2.046   3.310 -0.0575  0.4535 -0.4728
 5672SOL    HW128478   1.346   2.023   3.382 -0.5797  3.4886  0.9285
 5672SOL    HW228479   1.236   2.117   3.349 -2.1105 -0.8738 -0.7521
 5673SOL     OW28480   2.337   1.108   2.646 -0.2524  0.6032 -0.4140
 5673SOL    HW128481   2.372   1.027   2.609  0.4419  1.4754 -1.6617
 5673SOL    HW228482   2.255   1.076   2.682  0.6839 -0.8281  0.4273
 5674SOL     OW28483   4.272   4.483  14.498  0.0233  0.5722 -0.1607
 5674SOL    HW128484   4.358   4.488  14.538  0.2041  2.5479 -0.7928
 5674SOL    HW228485   4.224   4.535  14.562 -0.4826  0.3923 -0.3845
 5675SOL     OW28486   3.206   2.279  11.651 -0.4449  0.1057  0.0849
 5675SOL    HW128487   3.266   2.315  11.585 -0.5593  0.1370 -0.0024
 5675SOL    HW228488   3.148   2.355  11.658 -0.7997 -0.4301  2.9306
 5676SOL     OW28489   0.968   3.243   9.214  0.0367 -0.1133  0.2757
 5676SOL    HW128490   1.044   3.293   9.182  0.6533 -1.6007 -0.5500
 5676SOL    HW228491   0.977   3.257   9.309  1.3535  2.2240 -0.1858
 5677SOL     OW28492   0.928   0.187  17.236  0.4891  0.0614  0.0593
 5677SOL    HW128493   0.865   0.117  17.217 -1.2627  1.6769 -0.0052
 5677SOL    HW228494   1.003   0.146  17.282 -1.4410 -1.8546  1.5262
 5678SOL     OW28495   4.495   4.312   9.965  0.6348  0.2526  0.0910
 5678SOL    HW128496   4.451   4.315  10.051  2.9692  1.8344  1.2475
 5678SOL    HW228497   4.424   4.320   9.902 -0.1480  1.8557  1.1511
 5679SOL     OW28498   0.776   3.293   7.894 -0.3236  0.2280 -0.4769
 5679SOL    HW128499   0.771   3.374   7.944  0.2628  1.2738 -2.1063
 5679SOL    HW228500   0.751   3.223   7.954  0.8302 -0.8574 -1.2547
 5680SOL     OW28501   3.991   1.538   5.930 -0.2366 -0.2775 -0.4611
 5680SOL    HW128502   3.970   1.505   5.843  2.3670 -1.1575 -0.7663
 5680SOL    HW228503   4.066   1.596   5.916  0.4690 -1.3692 -1.2012
 5681SOL     OW28504   3.317   0.416  14.529  0.5083 -0.9214 -0.3021
 5681SOL    HW128505   3.392   0.377  14.575  1.1606 -0.4945 -1.0189
 5681SOL    HW228506   3.347   0.506  14.527 -0.1142 -0.7442 -1.3192
 5682SOL     OW28507   1.363   2.289  15.295  0.0742 -0.3568  0.0271
 5682SOL    HW128508   1.400   2.215  15.343 -1.0660  1.1698  3.2334
 5682SOL    HW228509   1.279   2.296  15.339  0.6963 -2.1479  1.4518
 5683SOL     OW28510   0.689   0.308   3.847  0.5905  0.2444  0.2240
 5683SOL    HW128511   0.673   0.233   3.903 -0.4987 -1.5082 -2.4553
 5683SOL    HW228512   0.607   0.307   3.798 -0.0766  0.2166  1.3524
 5684SOL     OW28513   4.571   2.618   5.202  0.3866  0.2280 -0.4448
 5684SOL    HW128514   4.575   2.681   5.130 -1.5222  0.7101 -0.1092
 5684SOL    HW228515   4.484   2.580   5.201 -0.0609  1.2574  0.1928
 5685SOL     OW28516   4.636   0.094  11.588 -0.2263 -0.3607  0.2172
 5685SOL    HW128517   4.695   0.027  11.622  1.8198  1.7133  0.6805
 5685SOL    HW228518   4.696   0.142  11.531 -0.5409  2.3326  2.1506
 5686SOL     OW28519   4.442   1.229  15.832  0.8119  0.0470  0.1729
 5686SOL    HW128520   4.516   1.250  15.775 -1.1263  1.6311 -1.7429
 5686SOL    HW228521   4.416   1.319  15.853  0.7677  0.3157 -1.0822
 5687SOL     OW28522   3.484   0.381   7.973  0.6123 -1.1011  0.1800
 5687SOL    HW128523   3.568   0.378   7.927  1.7264 -0.3825  2.1602
 5687SOL    HW228524   3.486   0.476   7.986  0.6009 -0.9303 -1.0127
 5688SOL     OW28525   4.265   3.721  16.746 -0.2968 -0.4258 -1.0017
 5688SOL    HW128526   4.255   3.669  16.666 -1.6786  0.5439 -1.4620
 5688SOL    HW228527   4.274   3.806  16.704 -0.6063  0.1326  0.0829
 5689SOL     OW28528   3.364   4.538   5.653 -0.1587  0.5602  0.7808
 5689SOL    HW128529   3.384   4.619   5.700 -0.2008  0.2351  1.3590
 5689SOL    HW228530   3.417   4.480   5.708 -0.0838  0.2346  0.3597
 5690SOL     OW28531   2.367   1.889   9.515  0.4328  0.2827  0.0699
 5690SOL    HW128532   2.459   1.910   9.496  0.2117  0.7905 -0.4458
 5690SOL    HW228533   2.359   1.959   9.580  1.0151  0.2697  0.1614
 5691SOL     OW28534   4.090   0.725   6.936  0.4357  0.3914 -0.0522
 5691SOL    HW128535   4.063   0.633   6.942 -0.6248  0.6854 -0.2930
 5691SOL    HW228536   4.007   0.774   6.940 -0.4375 -1.1490  0.8066
 5692SOL     OW28537   4.059   4.010  12.836  0.3173  0.2328  0.1662
 5692SOL    HW128538   4.134   4.068  12.842 -0.4555  1.0538  1.7767
 5692SOL    HW228539   3.989   4.074  12.852 -0.9573 -0.7069 -1.5664
 5693SOL     OW28540   2.784   4.522   8.833 -0.0150 -0.1907  0.2849
 5693SOL    HW128541   2.872   4.547   8.860  0.2980  0.3927 -1.2933
 5693SOL    HW228542   2.810   4.479   8.752  0.4392 -1.2406  0.9873
 5694SOL     OW28543   2.139   0.090  11.986 -0.3798  0.1457  0.3109
 5694SOL    HW128544   2.196   0.094  12.062 -1.5554  0.6221  1.1759
 5694SOL    HW228545   2.114   4.724  11.997  0.6763 -0.2706 -0.8448
 5695SOL     OW28546   3.833   2.170  13.827  0.2107 -0.1544  0.2361
 5695SOL    HW128547   3.824   2.245  13.768 -0.2100 -1.7628 -1.7672
 5695SOL    HW228548   3.766   2.107  13.798  0.4673 -1.0587  1.6028
 5696SOL     OW28549   3.634   2.564   8.556 -0.1427  0.2516  0.4812
 5696SOL    HW128550   3.701   2.555   8.488 -0.3487 -1.0023  0.4285
 5696SOL    HW228551   3.675   2.537   8.638 -0.8650  1.4781  1.2374
 5697SOL     OW28552   0.062   2.683   7.784  0.6908  0.0874  0.1061
 5697SOL    HW128553   0.023   2.598   7.761  1.7477 -0.5173  0.5438
 5697SOL    HW228554   0.144   2.648   7.749  1.8079  1.4107  1.3952
 5698SOL     OW28555   0.140   3.061   9.043  0.5315  0.2885  0.0426
 5698SOL    HW128556   0.118   3.137   9.097  0.4752  2.6324 -3.2665
 5698SOL    HW228557   0.235   3.051   9.053  0.4576 -1.0556 -0.5639
 5699SOL     OW28558   4.222   0.405   1.437  0.2842 -0.3396 -0.2046
 5699SOL    HW128559   4.235   0.331   1.378  1.5008 -1.1647  1.0768
 5699SOL    HW228560   4.127   0.413   1.445  0.3114 -1.0480  0.7858
 5700SOL     OW28561   3.746   0.382   7.874 -0.0082 -0.3195  0.1288
 5700SOL    HW128562   3.816   0.363   7.937  0.7302  1.0572 -0.2660
 5700SOL    HW228563   3.763   0.308   7.816  0.5773  0.4468 -0.6736
 5701SOL     OW28564   1.802   4.413   3.408 -0.0102  0.2259  0.1893
 5701SOL    HW128565   1.821   4.331   3.451 -0.2347  0.1796  0.2022
 5701SOL    HW228566   1.873   4.419   3.344 -0.6473 -0.6586 -0.6035
 5702SOL     OW28567   1.482   1.440   8.795 -0.1628 -0.7798 -0.2683
 5702SOL    HW128568   1.487   1.409   8.886 -0.5637  1.0533  0.3825
 5702SOL    HW228569   1.559   1.397   8.759  0.2873  0.9635 -1.3524
 5703SOL     OW28570   2.561   4.034  15.266 -0.3222  0.4903  0.4113
 5703SOL    HW128571   2.597   4.069  15.347  1.8742 -0.7738 -0.0222
 5703SOL    HW228572   2.478   4.077  15.245 -0.0208  1.2856  0.8404
 5704SOL     OW28573   2.955   1.614   4.582 -0.2591 -0.6736  0.0170
 5704SOL    HW128574   2.948   1.635   4.488 -0.4244  0.2263  0.2319
 5704SOL    HW228575   2.887   1.673   4.616  1.1580  2.5176 -2.6309
 5705SOL     OW28576   3.810   1.935   3.297 -0.4205  0.2803 -0.1514
 5705SOL    HW128577   3.768   1.917   3.213  0.8543  0.0883 -0.7440
 5705SOL    HW228578   3.743   1.983   3.344 -2.0218 -0.7704 -1.3688
 5706SOL     OW28579   2.701   4.303   7.194  0.0645  0.4276 -0.1167
 5706SOL    HW128580   2.769   4.290   7.260  1.4114  0.6950 -1.4551
 5706SOL    HW228581   2.708   4.220   7.146 -0.8756  1.3506 -1.8541
 5707SOL     OW28582   2.010   3.683   7.852 -0.2652 -0.0217  0.3142
 5707SOL    HW128583   2.071   3.741   7.806 -0.7636  0.4336  0.2283
 5707SOL    HW228584   2.012   3.616   7.784 -0.8459  0.8165 -0.5257
 5708SOL     OW28585   3.423   2.345  11.835 -0.0032 -0.0289  0.6667
 5708SOL    HW128586   3.383   2.289  11.769  2.1735  0.9280 -1.4469
 5708SOL    HW228587   3.361   2.355  11.908 -0.2763 -0.1559  0.4501
 5709SOL     OW28588   0.144   2.191   7.909  0.4409  0.4031  0.4249
 5709SOL    HW128589   0.187   2.265   7.866  2.4521  0.1551  1.9971
 5709SOL    HW228590   0.070   2.239   7.946  1.0675  0.2286  1.8859
 5710SOL     OW28591   2.424   0.754  15.930  0.3314 -0.0652  0.2492
 5710SOL    HW128592   2.430   0.846  15.954  1.4759 -0.6462  2.2668
 5710SOL    HW228593   2.388   0.754  15.841  2.6282 -3.3028 -0.6637
 5711SOL     OW28594   1.768   1.770  11.358  0.3364 -0.3969 -0.1356
 5711SOL    HW128595   1.692   1.785  11.414 -1.3122  0.8062 -2.7005
 5711SOL    HW228596   1.733   1.811  11.280 -1.3920  0.8859  1.3354
 5712SOL     OW28597   3.018   4.664   2.047  0.2045  0.1740 -0.0780
 5712SOL    HW128598   3.022   4.700   2.136 -1.1803  0.4004 -0.1045
 5712SOL    HW228599   2.952   4.596   2.065 -1.2552  1.5806 -0.0914
 5713SOL     OW28600   1.023   0.667   2.958  0.1074  0.6261 -0.4776
 5713SOL    HW128601   0.955   0.624   2.905  2.7504 -1.8286 -1.8551
 5713SOL    HW228602   1.097   0.607   2.955 -0.0852  0.3440  0.2708
 5714SOL     OW28603   3.521   0.334  15.113  0.4494 -0.5177  0.4106
 5714SOL    HW128604   3.613   0.323  15.088 -0.6417 -2.6423 -2.5931
 5714SOL    HW228605   3.532   0.424  15.145 -0.7518 -0.5972  1.0493
 5715SOL     OW28606   3.569   2.931   4.191  0.0431 -0.0415  0.5119
 5715SOL    HW128607   3.600   2.971   4.272  0.1267  0.7472  0.0905
 5715SOL    HW228608   3.645   2.951   4.135  1.6952 -0.7807  2.4761
 5716SOL     OW28609   0.907   3.462  11.430  0.0094 -0.1702  0.8341
 5716SOL    HW128610   0.992   3.451  11.472  0.9455 -0.5433 -1.1203
 5716SOL    HW228611   0.863   3.457  11.515 -2.0210 -1.6175 -0.2830
 5717SOL     OW28612   0.723   4.648  13.753  0.4885  0.0206 -0.0215
 5717SOL    HW128613   0.721   0.017  13.769  0.6244  0.3237 -1.7106
 5717SOL    HW228614   0.651   4.617  13.807  1.7503 -0.0956  1.6186
 5718SOL     OW28615   2.187   2.757  15.354  0.0185  0.4781 -0.6028
 5718SOL    HW128616   2.120   2.714  15.300 -1.0582  0.1110  1.0298
 5718SOL    HW228617   2.134   2.797  15.423 -2.2198 -2.8869 -0.3647
 5719SOL     OW28618   4.118   0.263  10.319 -0.5069 -0.1133  0.1382
 5719SOL    HW128619   4.146   0.263  10.410  1.5255 -0.3521 -0.4677
 5719SOL    HW228620   4.035   0.217  10.330 -0.5268  0.2389  1.4053
 5720SOL     OW28621   2.822   3.833  17.310  0.9997 -0.6186 -0.5332
 5720SOL    HW128622   2.729   3.850  17.322  1.2314 -0.7804  1.4587
 5720SOL    HW228623   2.828   3.764  17.244 -1.1013 -0.1481 -1.1978
 5721SOL     OW28624   2.709   0.214  11.765 -0.1356  0.5562 -0.0324
 5721SOL    HW128625   2.678   0.234  11.677  0.5537  2.7529  0.2217
 5721SOL    HW228626   2.649   0.270  11.813 -1.4271  0.4955 -1.5727
 5722SOL     OW28627   2.684   0.009  12.861  0.3677  0.6819  0.0500
 5722SOL    HW128628   2.778   4.714  12.856  0.1487 -0.1642 -0.6873
 5722SOL    HW228629   2.670   0.059  12.781 -0.0689  2.1817  1.0782
 5723SOL     OW28630   2.670   4.721   8.625  0.1746  0.5936  0.1257
 5723SOL    HW128631   2.730   4.666   8.675 -0.4019  0.3308  0.5377
 5723SOL    HW228632   2.721   4.724   8.544  2.3693  1.6078  1.5760
 5724SOL     OW28633   2.581   1.246  14.572 -0.5342 -0.0459  0.0241
 5724SOL    HW128634   2.537   1.310  14.516  0.1666  1.1189  0.8049
 5724SOL    HW228635   2.671   1.279  14.566  0.0487 -1.5882  0.4593
 5725SOL     OW28636   3.337   1.578  11.268 -0.4992 -0.5457 -0.2132
 5725SOL    HW128637   3.266   1.580  11.333  1.0687  1.3510  1.4374
 5725SOL    HW228638   3.300   1.505  11.217 -1.2144  0.5066 -1.1817
 5726SOL     OW28639   1.222   0.860   1.738 -0.2741 -0.0902  0.0524
 5726SOL    HW128640   1.303   0.812   1.719  0.9523  1.8342  0.3848
 5726SOL    HW228641   1.244   0.884   1.829 -1.6466 -1.1699  0.6721
 5727SOL     OW28642   1.357   3.644   8.321  0.2023  0.4008 -0.3119
 5727SOL    HW128643   1.281   3.612   8.370  0.3656  1.1147  0.4100
 5727SOL    HW228644   1.426   3.580   8.336  0.1879  0.6812  0.9019
 5728SOL     OW28645   3.277   0.105   1.655 -0.0129 -0.2590 -0.2541
 5728SOL    HW128646   3.187   0.075   1.666 -0.6207  1.8912  0.6366
 5728SOL    HW228647   3.273   0.188   1.702 -0.3751 -0.1604 -0.4594
 5729SOL     OW28648   2.078   0.262   9.042  0.2508 -0.7737 -0.0525
 5729SOL    HW128649   2.132   0.253   9.120  0.0360  1.8287  0.3975
 5729SOL    HW228650   2.138   0.313   8.988  0.3277  0.0146  0.7721
 5730SOL     OW28651   2.090   1.466   9.275  0.0760 -0.1498 -0.4916
 5730SOL    HW128652   2.112   1.545   9.226 -0.7469  0.3599 -0.0579
 5730SOL    HW228653   2.182   1.444   9.286  0.1635  0.0262 -0.8786
 5731SOL     OW28654   3.908   4.612   8.480 -0.1292 -0.1980  0.4546
 5731SOL    HW128655   3.969   4.568   8.421 -0.9974 -3.0148  1.6571
 5731SOL    HW228656   3.977   4.636   8.542  0.0688  2.8915 -0.9536
 5732SOL     OW28657   0.115   4.054   4.579 -0.0177 -0.2288 -0.3495
 5732SOL    HW128658   0.187   4.105   4.541  0.4368 -0.9042 -0.3953
 5732SOL    HW228659   0.164   4.002   4.643  2.4568  0.2927 -1.7994
 5733SOL     OW28660   3.424   0.756   7.492 -0.2245 -0.0167 -0.9540
 5733SOL    HW128661   3.338   0.781   7.459  0.4131  2.0727 -1.0241
 5733SOL    HW228662   3.417   0.799   7.577  2.4645 -2.2133  0.3748
 5734SOL     OW28663   1.435   3.264   1.264  0.3831 -0.4952  0.4817
 5734SOL    HW128664   1.465   3.350   1.293 -0.0623  0.0751 -0.7235
 5734SOL    HW228665   1.348   3.287   1.232  0.8252  0.3356 -0.1201
 5735SOL     OW28666   4.489   1.604   0.757 -0.1102 -0.6418  0.1367
 5735SOL    HW128667   4.507   1.602   0.851  0.6642  0.1125 -0.0032
 5735SOL    HW228668   4.531   1.524   0.728  0.4344 -0.1044 -0.5481
 5736SOL     OW28669   0.003   2.257   1.393  0.2035 -0.3248  0.0724
 5736SOL    HW128670   4.635   2.236   1.404  0.3884 -0.4893  1.2919
 5736SOL    HW228671   0.002   2.287   1.302  0.0369 -1.3886 -0.2789
 5737SOL     OW28672   3.975   0.440   3.350  0.6593 -0.3093 -0.2685
 5737SOL    HW128673   4.047   0.385   3.318  0.4762 -0.7767  0.1255
 5737SOL    HW228674   4.016   0.524   3.331  0.3512 -0.3667 -1.1905
 5738SOL     OW28675   1.857   4.644   2.717 -0.2383  0.1696 -0.5483
 5738SOL    HW128676   1.922   4.581   2.687 -0.8139 -0.1077 -1.2326
 5738SOL    HW228677   1.815   4.597   2.790  0.9266  0.8281  0.5393
 5739SOL     OW28678   1.296   1.160   3.470 -0.2170  0.6585 -0.0516
 5739SOL    HW128679   1.231   1.091   3.452  1.1124 -0.4380 -0.6815
 5739SOL    HW228680   1.328   1.187   3.384  1.0612 -0.3179  0.1197
 5740SOL     OW28681   3.257   3.139   3.305  0.0379 -0.2500  0.1003
 5740SOL    HW128682   3.314   3.135   3.381 -2.6127 -1.2842  2.0476
 5740SOL    HW228683   3.294   3.216   3.262  0.0765 -1.0860 -1.3829
 5741SOL     OW28684   3.710   0.129   4.549  0.4362  0.1467  0.4593
 5741SOL    HW128685   3.741   0.138   4.639 -2.4090 -2.6341  1.6912
 5741SOL    HW228686   3.616   0.132   4.562  0.8673  0.6629  3.5989
 5742SOL     OW28687   3.507   0.408   0.558  0.0392  0.4002  0.1633
 5742SOL    HW128688   3.500   0.448   0.644 -1.5854 -0.9464  0.6468
 5742SOL    HW228689   3.445   0.464   0.511  1.3607  1.4235 -0.3484
 5743SOL     OW28690   2.796   4.498  16.015 -0.3112 -0.8036  0.0405
 5743SOL    HW128691   2.727   4.558  15.986  1.1304  0.3854 -0.9445
 5743SOL    HW228692   2.817   4.457  15.932  0.3530  0.1195 -0.2421
 5744SOL     OW28693   4.067   3.703   3.967 -0.2213  0.0197 -0.6324
 5744SOL    HW128694   3.987   3.754   3.954  0.4321  0.8424 -1.4625
 5744SOL    HW228695   4.080   3.726   4.059  1.4087 -1.9920 -0.3669
 5745SOL     OW28696   1.627   3.920   4.273  0.0687  0.2313 -0.2476
 5745SOL    HW128697   1.613   3.838   4.227  0.1352  0.6272 -0.9665
 5745SOL    HW228698   1.596   3.889   4.358 -1.7656  1.5561 -0.4335
 5746SOL     OW28699   1.349   3.776  10.425  0.2288 -0.3355 -0.4851
 5746SOL    HW128700   1.299   3.834  10.482 -2.0114 -3.6376  0.8813
 5746SOL    HW228701   1.335   3.824  10.344 -0.3785  1.2391  0.5363
 5747SOL     OW28702   4.580   0.902   6.222 -0.1969 -0.2354 -0.1147
 5747SOL    HW128703   4.496   0.883   6.263  1.0580 -2.8056  1.2863
 5747SOL    HW228704   4.593   0.992   6.252 -1.9637  0.0594 -0.2384
 5748SOL     OW28705   2.597   1.170   3.847  0.0249 -0.3017 -0.4921
 5748SOL    HW128706   2.685   1.167   3.811  0.2107  1.7350 -0.2461
 5748SOL    HW228707   2.609   1.108   3.919  0.4760 -1.0250 -1.1997
 5749SOL     OW28708   2.143   0.143  14.597 -0.4366  0.5164 -0.0603
 5749SOL    HW128709   2.138   0.139  14.501  0.2019  1.6971 -0.1453
 5749SOL    HW228710   2.223   0.093  14.616  0.3124  2.3609  1.5920
 5750SOL     OW28711   1.073   0.603   0.716 -0.2968  0.1638 -0.1982
 5750SOL    HW128712   1.110   0.676   0.765  0.7039 -2.8069  3.4386
 5750SOL    HW228713   0.984   0.606   0.751 -0.0948 -4.1149  0.6328
 5751SOL     OW28714   4.706   2.395   3.867  0.2058  0.2680  0.1772
 5751SOL    HW128715   4.690   2.341   3.945 -0.0074 -2.1801 -1.5548
 5751SOL    HW228716   0.049   2.451   3.903  0.8552 -0.0100 -0.6341
 5752SOL     OW28717   2.822   3.160  15.623  0.3190 -0.3305  0.6733
 5752SOL    HW128718   2.789   3.250  15.617 -0.5489 -0.7778 -1.0442
 5752SOL    HW228719   2.787   3.124  15.705  0.4335 -0.2462  0.7600
 5753SOL     OW28720   3.449   0.290   1.338 -0.1665  0.5986 -0.0484
 5753SOL    HW128721   3.480   0.221   1.280  0.3771  2.0709 -1.5243
 5753SOL    HW228722   3.527   0.334   1.373 -1.2336  1.3079  1.4657
 5754SOL     OW28723   0.270   1.163   3.870  0.4313 -0.3412  0.1228
 5754SOL    HW128724   0.225   1.197   3.948  0.4993  0.7841 -0.3287
 5754SOL    HW228725   0.266   1.238   3.810 -1.4789 -0.5105  0.0322
 5755SOL     OW28726   0.566   4.040   6.027 -0.9754  0.2184  0.1513
 5755SOL    HW128727   0.593   4.021   6.117  0.2027  2.2422  0.2111
 5755SOL    HW228728   0.568   3.952   5.990  1.5494  0.6116 -0.6247
 5756SOL     OW28729   1.045   0.831   6.750 -0.6644 -0.0130 -0.9141
 5756SOL    HW128730   1.138   0.812   6.736 -0.4895 -0.1397  0.3922
 5756SOL    HW228731   1.033   0.916   6.708 -0.5510  1.4002  1.8762
 5757SOL     OW28732   3.237   1.367   3.997  0.3303 -0.3693 -0.0069
 5757SOL    HW128733   3.203   1.365   4.086 -2.7740 -1.7814 -1.2487
 5757SOL    HW228734   3.238   1.274   3.978 -0.6701 -0.2991 -0.3774
 5758SOL     OW28735   4.606   3.017  11.192 -0.3909 -0.5928  0.2751
 5758SOL    HW128736   4.548   2.985  11.122 -0.3895  2.2735 -1.0307
 5758SOL    HW228737   4.689   2.975  11.171  1.2767  1.7023  2.3116
 5759SOL     OW28738   2.265   0.998   7.920  0.0627 -0.1276 -0.2095
 5759SOL    HW128739   2.196   1.032   7.864  0.2917 -3.1672 -2.3254
 5759SOL    HW228740   2.271   0.908   7.887 -1.2659 -0.2365 -0.1350
 5760SOL     OW28741   3.282   0.287   3.336  0.1520  0.2803  0.7385
 5760SOL    HW128742   3.360   0.288   3.392  1.5559 -0.8053 -1.1955
 5760SOL    HW228743   3.315   0.341   3.263 -0.0726 -1.6924 -0.8162
 5761SOL     OW28744   1.689   4.275   0.960  0.4489  0.0277  0.5065
 5761SOL    HW128745   1.670   4.182   0.953 -2.7005  0.8043 -1.1286
 5761SOL    HW228746   1.604   4.301   0.925  0.1300 -0.2056  1.0932
 5762SOL     OW28747   0.149   3.065  14.173  0.3817  0.6958 -0.4413
 5762SOL    HW128748   0.188   3.146  14.206 -2.5802  1.1921  1.8444
 5762SOL    HW228749   0.149   3.078  14.078  2.5287 -1.6690 -0.7697
 5763SOL     OW28750   1.552   0.623   6.458  0.4222  0.6701  0.4258
 5763SOL    HW128751   1.625   0.666   6.414  0.6089  1.7290  1.7736
 5763SOL    HW228752   1.572   0.638   6.550  3.4857 -2.3276  0.2251
 5764SOL     OW28753   3.421   1.944   2.997 -0.2540  0.0914  0.1351
 5764SOL    HW128754   3.360   1.967   3.068  0.8793  0.8829  0.8486
 5764SOL    HW228755   3.417   1.851   2.979  1.9295  0.0168  0.0570
 5765SOL     OW28756   1.907   1.981   4.315  0.4187 -0.2026  0.1096
 5765SOL    HW128757   1.942   1.893   4.303  2.4302  0.6131  0.0439
 5765SOL    HW228758   1.815   1.970   4.291  0.6893 -4.0648  0.7416
 5766SOL     OW28759   4.594   1.897   1.476  0.7203  0.7275 -0.6340
 5766SOL    HW128760   4.605   1.962   1.545 -0.9903  1.0289 -0.6390
 5766SOL    HW228761   4.500   1.878   1.480  1.2656 -1.2340  2.6340
 5767SOL     OW28762   0.390   3.834  12.503 -0.1803 -0.0072 -0.3709
 5767SOL    HW128763   0.388   3.859  12.411 -3.0953  0.6834 -0.1098
 5767SOL    HW228764   0.410   3.916  12.550 -0.7697  0.1953 -0.4738
 5768SOL     OW28765   0.756   2.378   1.105  0.1067  0.3233  0.2272
 5768SOL    HW128766   0.806   2.424   1.038 -1.0318  0.5857 -0.4430
 5768SOL    HW228767   0.729   2.302   1.053 -2.7327  1.1415  0.4900
 5769SOL     OW28768   0.767   4.472   3.372  0.3072  0.1316  0.4668
 5769SOL    HW128769   0.797   4.536   3.307  0.7435 -0.2998  0.2411
 5769SOL    HW228770   0.853   4.468   3.414  0.2687  1.4954  0.6881
 5770SOL     OW28771   3.273   2.444  13.733 -0.3095 -0.2625 -0.1413
 5770SOL    HW128772   3.260   2.420  13.642 -1.6979  0.0890 -0.0501
 5770SOL    HW228773   3.236   2.370  13.782  1.1510 -0.7433  0.2225
 5771SOL     OW28774   3.344   2.434   2.010 -0.4940 -0.6372  0.2319
 5771SOL    HW128775   3.389   2.366   2.060 -0.9066 -1.2972 -0.2977
 5771SOL    HW228776   3.391   2.430   1.927 -0.8912  0.5212 -0.0486
 5772SOL     OW28777   1.960   1.278   5.951  0.1252  0.1359  0.6907
 5772SOL    HW128778   1.993   1.188   5.948  0.6236  0.4432 -2.0631
 5772SOL    HW228779   1.948   1.306   5.861  0.8013 -0.7090  0.3344
 5773SOL     OW28780   2.554   2.359   3.808 -0.1907  0.3878 -0.2108
 5773SOL    HW128781   2.521   2.352   3.719 -1.0830  0.4807  0.1136
 5773SOL    HW228782   2.470   2.339   3.850  0.6780 -0.9542  0.9080
 5774SOL     OW28783   3.434   0.968   7.937  0.2356 -0.1040 -0.8460
 5774SOL    HW128784   3.529   0.978   7.936  0.1045  1.2675  0.5696
 5774SOL    HW228785   3.408   1.058   7.953  0.0270 -0.5605  1.3269
 5775SOL     OW28786   1.016   3.026   4.946  0.1081  0.8583 -0.3053
 5775SOL    HW128787   0.967   3.099   4.984  0.2538  1.0473 -0.4781
 5775SOL    HW228788   0.987   2.949   4.996  0.5400  0.3203 -0.8784
 5776SOL     OW28789   1.095   4.577   8.769  0.5754  0.2794 -0.1069
 5776SOL    HW128790   1.018   4.630   8.789 -2.5291 -3.2559 -2.7585
 5776SOL    HW228791   1.128   4.555   8.856 -2.7652 -1.0679  0.8256
 5777SOL     OW28792   1.992   3.168   8.808 -0.4501  0.0834 -0.2245
 5777SOL    HW128793   1.998   3.164   8.712 -0.6716  0.2222 -0.2436
 5777SOL    HW228794   2.009   3.077   8.831  2.8838  0.6895 -0.2617
 5778SOL     OW28795   1.315   4.174  15.318 -0.0504  0.3561  0.2104
 5778SOL    HW128796   1.369   4.099  15.294 -0.7388  0.4132 -1.4825
 5778SOL    HW228797   1.277   4.194  15.232 -0.4590 -0.9235  0.0812
 5779SOL     OW28798   3.622   0.674   8.211  0.3093  0.7830  0.2616
 5779SOL    HW128799   3.533   0.652   8.238  0.3572 -0.3277 -0.5055
 5779SOL    HW228800   3.674   0.599   8.237 -0.9113 -0.6827 -1.5453
 5780SOL     OW28801   2.336   3.301  16.140 -0.1791 -0.3620  0.3217
 5780SOL    HW128802   2.422   3.268  16.165 -0.1090  0.2144  0.8303
 5780SOL    HW228803   2.327   3.279  16.047 -2.3750  0.2528  0.3943
 5781SOL     OW28804   2.232   0.005  15.090 -0.4201 -0.4510  0.3332
 5781SOL    HW128805   2.165   4.715  15.023 -1.6571 -0.9195  1.6604
 5781SOL    HW228806   2.305   4.686  15.046  1.1724  0.0799  2.4502
 5782SOL     OW28807   3.723   4.582  13.773 -0.2898  0.6605  0.2603
 5782SOL    HW128808   3.675   4.594  13.855  0.2459  0.1389  0.6555
 5782SOL    HW228809   3.683   4.644  13.713 -1.3723 -0.9156 -0.6246
 5783SOL     OW28810   3.113   2.695   3.194  0.3277  0.2248 -0.1863
 5783SOL    HW128811   3.055   2.687   3.118  0.2486  4.0355 -0.5703
 5783SOL    HW228812   3.078   2.625   3.249 -0.8354  2.4584  1.9143
 5784SOL     OW28813   3.957   4.577   8.194  0.4197  0.1980  0.1919
 5784SOL    HW128814   3.863   4.567   8.209  0.7473 -1.8223  1.0186
 5784SOL    HW228815   3.963   4.519   8.118 -0.3084  2.0263 -1.2426
 5785SOL     OW28816   1.220   3.835   5.631  0.3067  0.1517  0.9681
 5785SOL    HW128817   1.179   3.906   5.682 -2.7503 -0.2037 -0.9988
 5785SOL    HW228818   1.280   3.898   5.589 -0.7673  0.1837 -0.5163
 5786SOL     OW28819   2.503   0.111   6.886 -0.3104 -0.3752 -0.0627
 5786SOL    HW128820   2.535   0.132   6.798 -2.8508 -1.7588 -1.3015
 5786SOL    HW228821   2.430   0.059   6.852  1.0656 -1.3617 -1.5297
 5787SOL     OW28822   4.666   4.443   5.762  0.0658 -0.3158  0.5558
 5787SOL    HW128823   4.719   4.497   5.703 -0.5678  0.7899  1.0009
 5787SOL    HW228824   4.647   4.507   5.831 -0.3212 -1.7856  1.8210
 5788SOL     OW28825   2.229   1.629   4.848  0.2114  0.1352 -0.5243
 5788SOL    HW128826   2.239   1.610   4.755 -0.1033 -2.4430 -0.0256
 5788SOL    HW228827   2.198   1.720   4.847  0.4958  0.2095 -1.9933
 5789SOL     OW28828   1.686   0.506   4.272 -0.5534 -0.5436  0.0605
 5789SOL    HW128829   1.751   0.500   4.202 -1.3942 -3.1051 -0.5006
 5789SOL    HW228830   1.605   0.467   4.238  1.6531 -3.3304 -2.0168
 5790SOL     OW28831   4.278   3.558  17.184  0.2238  0.3040  0.0734
 5790SOL    HW128832   4.195   3.532  17.224  0.7748 -1.6114 -0.0418
 5790SOL    HW228833   4.248   3.619  17.117 -3.1589 -0.9025  0.5183
 5791SOL     OW28834   0.572   3.770   5.955 -0.4603 -0.5971 -0.2897
 5791SOL    HW128835   0.488   3.731   5.930 -0.8366  0.9684 -1.4719
 5791SOL    HW228836   0.629   3.693   5.951 -0.2891 -0.4217 -1.2483
 5792SOL     OW28837   1.427   3.349   3.214  0.3592 -0.7608 -0.3083
 5792SOL    HW128838   1.381   3.432   3.227  1.1148 -0.1997 -1.2228
 5792SOL    HW228839   1.411   3.306   3.298  0.4722 -1.2810 -0.5518
 5793SOL     OW28840   1.636   3.635   7.042 -0.2214 -0.0457 -0.0983
 5793SOL    HW128841   1.645   3.721   7.084 -1.8902  0.3387 -0.5296
 5793SOL    HW228842   1.577   3.656   6.970 -0.9425  0.3806  0.6205
 5794SOL     OW28843   1.132   3.786   8.564 -0.7637  0.2400  0.0868
 5794SOL    HW128844   1.064   3.736   8.518 -0.5261 -1.5079  1.6102
 5794SOL    HW228845   1.090   3.812   8.645  3.4607  2.9764  1.3483
 5795SOL     OW28846   4.140   3.320   3.084 -0.0667 -0.3134  0.2266
 5795SOL    HW128847   4.141   3.272   3.001 -0.3313  0.4533 -0.2183
 5795SOL    HW228848   4.205   3.387   3.060  0.7403 -1.0966  0.2349
 5796SOL     OW28849   1.573   1.067   0.263  0.0644  0.0084 -0.2722
 5796SOL    HW128850   1.488   1.034   0.293  1.5904 -2.7884  0.9465
 5796SOL    HW228851   1.547   1.150   0.222  0.1325  0.9177  1.5509
 5797SOL     OW28852   3.547   0.359   9.908 -0.2769 -0.0909  0.1960
 5797SOL    HW128853   3.565   0.411   9.987  2.1698 -0.1105 -0.3681
 5797SOL    HW228854   3.525   0.276   9.951 -0.0078 -0.0847  0.3410
 5798SOL     OW28855   3.818   3.886   8.863  0.3933  0.9033 -0.2852
 5798SOL    HW128856   3.876   3.866   8.937 -0.5417 -0.3745  0.1063
 5798SOL    HW228857   3.876   3.839   8.804 -0.6391  0.0409 -0.6120
 5799SOL     OW28858   4.701   2.718  16.922 -0.1084  0.7092  0.5037
 5799SOL    HW128859   4.669   2.663  16.993 -2.2839  2.3675  0.7944
 5799SOL    HW228860   4.633   2.705  16.855  0.2679  0.6973  0.1200
 5800SOL     OW28861   1.606   2.711  15.717 -0.1833  0.2198 -0.3137
 5800SOL    HW128862   1.565   2.633  15.679 -0.2357 -0.6516  1.5215
 5800SOL    HW228863   1.696   2.695  15.689  1.2269  0.5064  4.0515
 5801SOL     OW28864   4.445   4.380  14.285  0.2071  0.2634 -0.1837
 5801SOL    HW128865   4.473   4.364  14.194 -0.7350 -0.4006 -0.3612
 5801SOL    HW228866   4.536   4.401  14.306  0.3373  1.3386 -1.7498
 5802SOL     OW28867   2.112   3.296   6.465 -0.1298  0.5566  0.4270
 5802SOL    HW128868   2.129   3.201   6.469 -0.0877  0.4845 -1.5882
 5802SOL    HW228869   2.017   3.288   6.458 -0.0962  0.0594  0.5162
 5803SOL     OW28870   1.822   3.288   3.156 -0.3073  0.6223 -0.0893
 5803SOL    HW128871   1.775   3.219   3.108  1.2768 -0.4768 -0.0628
 5803SOL    HW228872   1.894   3.292   3.093 -1.1079  1.8188 -0.9126
 5804SOL     OW28873   0.062   0.217  16.395  0.5207  0.7443  0.1392
 5804SOL    HW128874   0.101   0.281  16.454  0.2183  1.0896 -0.0396
 5804SOL    HW228875   0.097   0.135  16.431 -1.1335 -0.1816 -0.3881
 5805SOL     OW28876   1.604   2.872   4.756 -0.0374 -0.3066 -0.1873
 5805SOL    HW128877   1.546   2.882   4.681 -2.1524  1.9542  1.7599
 5805SOL    HW228878   1.545   2.821   4.811 -1.6470  1.3973 -0.3376
 5806SOL     OW28879   0.577   0.204   6.101 -0.8683 -0.0153  0.2837
 5806SOL    HW128880   0.602   0.114   6.077  1.8576  1.3703 -2.0237
 5806SOL    HW228881   0.600   0.253   6.022  3.0649 -0.8047  0.9358
 5807SOL     OW28882   3.885   4.635   2.635 -0.2427 -0.5298 -0.1893
 5807SOL    HW128883   3.887   4.677   2.721 -0.5110  2.7239 -1.7811
 5807SOL    HW228884   3.920   4.707   2.584 -2.1810  1.3693  1.1867
 5808SOL     OW28885   3.972   3.514   5.565  0.2174  0.2845 -0.0748
 5808SOL    HW128886   3.899   3.567   5.533 -0.4116 -0.5529 -0.0244
 5808SOL    HW228887   4.015   3.570   5.630  1.1834 -1.8800  1.1689
 5809SOL     OW28888   3.329   1.487  17.246 -0.8198  0.3456  0.3342
 5809SOL    HW128889   3.287   1.402  17.253 -0.4048  0.0734 -0.5303
 5809SOL    HW228890   3.393   1.474  17.315 -2.4769  2.1560  2.2323
 5810SOL     OW28891   3.280   4.405  13.311 -0.1048 -0.0210 -0.1493
 5810SOL    HW128892   3.318   4.447  13.234 -0.4646  0.1852 -0.2139
 5810SOL    HW228893   3.300   4.313  13.295 -2.2858 -0.2122 -1.6506
 5811SOL     OW28894   0.961   2.987   6.175  0.3885  0.0140  0.4462
 5811SOL    HW128895   1.031   3.044   6.146 -0.8014  0.4966 -1.4549
 5811SOL    HW228896   0.994   2.957   6.260 -2.2838 -0.0179  1.4961
 5812SOL     OW28897   3.630   4.553   6.303 -0.1578  0.3692 -0.1530
 5812SOL    HW128898   3.700   4.538   6.367  0.1768 -1.6883 -1.0128
 5812SOL    HW228899   3.635   4.476   6.247 -1.6547  0.4746 -0.4322
 5813SOL     OW28900   1.137   2.999  15.817  0.0683 -0.7420  0.0797
 5813SOL    HW128901   1.074   2.936  15.852  0.9800 -1.1499  0.9743
 5813SOL    HW228902   1.201   2.929  15.798  0.5379 -0.6124  1.1650
 5814SOL     OW28903   1.792   0.209   7.432  0.7059 -0.2305 -0.1295
 5814SOL    HW128904   1.782   0.278   7.498 -0.3713 -0.7566  0.2779
 5814SOL    HW228905   1.747   0.133   7.471 -0.0198 -1.3696 -3.1987
 5815SOL     OW28906   4.414   0.382   4.991  0.3804  0.2645 -0.3944
 5815SOL    HW128907   4.404   0.287   4.985  0.4280  0.1963  0.5972
 5815SOL    HW228908   4.441   0.405   4.902  2.6595  1.0199  0.4853
 5816SOL     OW28909   4.622   3.197  10.886 -0.2384  0.1746  0.3040
 5816SOL    HW128910   4.602   3.112  10.925 -0.0036 -0.2031 -0.4053
 5816SOL    HW228911   4.654   3.239  10.965  1.2507  0.3100 -0.3664
 5817SOL     OW28912   0.432   1.712  15.891  0.6406 -0.1717  0.0157
 5817SOL    HW128913   0.340   1.689  15.874  0.5114 -0.1924  0.7392
 5817SOL    HW228914   0.438   1.716  15.986  1.4526 -1.2282  0.0107
 5818SOL     OW28915   0.467   0.408  10.078  0.0562  0.3016  0.2440
 5818SOL    HW128916   0.524   0.331  10.076 -1.0929 -0.6185  2.6072
 5818SOL    HW228917   0.439   0.389  10.168 -1.1807 -0.2158 -0.2544
 5819SOL     OW28918   3.759   1.285   5.015  0.0722 -0.2179 -0.1863
 5819SOL    HW128919   3.795   1.255   4.931 -1.7329 -2.7015 -0.0949
 5819SOL    HW228920   3.739   1.378   5.011 -1.5497 -0.5885 -0.7621
 5820SOL     OW28921   0.808   3.466   3.973  0.0772  0.4351  0.1725
 5820SOL    HW128922   0.855   3.441   4.053  0.9418  0.7317 -0.2517
 5820SOL    HW228923   0.793   3.552   4.012 -2.9483  0.5200 -1.1559
 5821SOL     OW28924   2.800   2.994  10.512  0.0515  0.2031 -0.6729
 5821SOL    HW128925   2.784   2.905  10.482  1.2003 -0.9780  2.2156
 5821SOL    HW228926   2.821   3.040  10.431  0.4259  1.1584 -0.0449
 5822SOL     OW28927   2.120   4.363   3.568 -0.5742 -0.1429  0.5807
 5822SOL    HW128928   2.086   4.449   3.547  1.4635  0.4715 -0.2003
 5822SOL    HW228929   2.116   4.357   3.664  1.8871  2.8483  0.8721
 5823SOL     OW28930   3.021   0.218   9.122  0.1027  0.2543  0.1312
 5823SOL    HW128931   3.001   0.126   9.137  0.6785 -0.0336 -0.8753
 5823SOL    HW228932   2.953   0.240   9.057  0.0443 -0.4885 -0.0553
 5824SOL     OW28933   0.312   2.486  15.249 -0.3703  0.0245 -0.4185
 5824SOL    HW128934   0.361   2.528  15.319  0.5410 -0.0749 -0.9958
 5824SOL    HW228935   0.230   2.536  15.252 -0.4186 -0.2370  2.5532
 5825SOL     OW28936   1.338   0.439   3.216  0.5110 -0.5327 -0.1894
 5825SOL    HW128937   1.387   0.494   3.155 -0.5470  0.5149 -0.1003
 5825SOL    HW228938   1.372   0.353   3.191  0.7722  0.0836 -1.9180
 5826SOL     OW28939   2.378   4.511   6.487  0.4770  0.2903 -0.3267
 5826SOL    HW128940   2.335   4.488   6.569 -0.2854  1.9608 -0.2582
 5826SOL    HW228941   2.358   4.437   6.430  1.0093 -1.6133  1.9616
 5827SOL     OW28942   1.000   4.580   3.233  0.1572 -0.2509  0.5014
 5827SOL    HW128943   0.993   4.675   3.221  1.3761  0.0328  2.0276
 5827SOL    HW228944   1.062   4.565   3.304  1.3544 -2.5531 -1.0368
 5828SOL     OW28945   1.979   0.639   3.468 -0.3748 -0.1062 -0.7870
 5828SOL    HW128946   1.950   0.698   3.399  1.5749  0.3151 -1.2524
 5828SOL    HW228947   2.058   0.609   3.422  2.1476  2.9186  1.5767
 5829SOL     OW28948   3.235   1.787   6.018 -0.4144  0.3902  0.6171
 5829SOL    HW128949   3.244   1.692   6.018  0.2249  0.4309 -3.9244
 5829SOL    HW228950   3.169   1.795   5.950 -0.0230  0.4752  0.2457
 5830SOL     OW28951   0.231   1.302   3.247 -0.6493 -0.6209  0.0714
 5830SOL    HW128952   0.276   1.367   3.300  0.8591 -1.0447 -0.6819
 5830SOL    HW228953   0.282   1.224   3.270 -1.1145 -1.0181 -0.2216
 5831SOL     OW28954   3.018   4.696   9.206 -0.0259  0.2092  0.1610
 5831SOL    HW128955   3.113   4.684   9.211 -0.3265 -1.6255  1.4558
 5831SOL    HW228956   2.984   4.606   9.208  0.1502  0.1880  2.6101
 5832SOL     OW28957   1.993   1.897   3.418  0.0927 -0.3798 -0.9605
 5832SOL    HW128958   2.051   1.927   3.349 -0.2761 -2.0503 -2.0002
 5832SOL    HW228959   1.907   1.879   3.379 -0.2431 -0.6554 -0.0956
 5833SOL     OW28960   3.927   2.454   7.072 -0.1657  0.8307 -0.3044
 5833SOL    HW128961   3.891   2.483   6.988  0.3031  0.5371 -0.6086
 5833SOL    HW228962   4.018   2.484   7.072  0.9135 -2.3601 -1.5814
 5834SOL     OW28963   1.865   0.178   8.172  0.2675  0.0155 -0.1090
 5834SOL    HW128964   1.927   0.251   8.170  0.4830 -0.1640 -0.0035
 5834SOL    HW228965   1.862   0.156   8.079 -1.1119  1.4885 -0.4080
 5835SOL     OW28966   4.628   0.615   0.584  0.0777 -0.0139  0.2650
 5835SOL    HW128967   4.596   0.555   0.518 -2.0623  0.3840  0.9396
 5835SOL    HW228968   4.626   0.555   0.659  0.2663 -1.0856 -0.5955
 5836SOL     OW28969   2.810   1.417  14.549 -0.3776 -0.7257 -0.0141
 5836SOL    HW128970   2.896   1.381  14.568  1.4061  3.6518  0.2013
 5836SOL    HW228971   2.822   1.420  14.454  0.4266 -2.0111  0.0636
 5837SOL     OW28972   0.339   0.674   3.442 -0.0123 -0.1013 -0.4310
 5837SOL    HW128973   0.342   0.759   3.486 -0.2592 -0.4948  0.3436
 5837SOL    HW228974   0.270   0.628   3.489  0.1198  1.8757  1.6746
 5838SOL     OW28975   0.149   2.506  13.541  0.0431  0.5058 -0.0726
 5838SOL    HW128976   0.187   2.574  13.597  3.4321  0.3464 -2.2100
 5838SOL    HW228977   0.142   2.549  13.457 -1.3221  1.1648  0.3846
 5839SOL     OW28978   0.667   2.896   6.503 -0.4725  0.0198  0.1518
 5839SOL    HW128979   0.635   2.935   6.422  2.0231 -0.8721 -1.2840
 5839SOL    HW228980   0.665   2.971   6.562  0.7353  1.1997 -1.2937
 5840SOL     OW28981   2.419   1.743   3.937  0.0270 -0.1790 -0.7789
 5840SOL    HW128982   2.347   1.802   3.919  1.0438  1.1691 -0.4338
 5840SOL    HW228983   2.388   1.653   3.923  2.2008 -0.8222 -1.5068
 5841SOL     OW28984   4.240   3.615   0.637 -0.5458  0.0986  0.1057
 5841SOL    HW128985   4.173   3.603   0.705 -0.5867  1.6613  0.3389
 5841SOL    HW228986   4.182   3.652   0.570 -0.1365 -1.9840 -1.3835
 5842SOL     OW28987   4.078   2.464   2.827 -0.5818 -0.0320  0.2866
 5842SOL    HW128988   4.115   2.514   2.899  1.6807  1.2027 -1.7598
 5842SOL    HW228989   4.096   2.373   2.853  0.3660 -0.4217 -1.7353
 5843SOL     OW28990   3.523   1.521   2.883 -0.6467  0.4417  0.1050
 5843SOL    HW128991   3.525   1.559   2.971  1.3054 -0.2214  0.3559
 5843SOL    HW228992   3.525   1.598   2.827 -1.6957  0.6111  0.2970
 5844SOL     OW28993   0.645   2.832   2.053  0.5760 -0.0913  0.3535
 5844SOL    HW128994   0.550   2.822   2.059  0.3219  1.4164 -1.0196
 5844SOL    HW228995   0.658   2.913   2.103 -1.1051  0.5765 -0.2895
 5845SOL     OW28996   3.921   4.168   8.102 -0.0229 -0.6680 -0.4919
 5845SOL    HW128997   3.994   4.114   8.133  0.1278 -0.2877 -0.1869
 5845SOL    HW228998   3.858   4.160   8.173 -0.1187  0.5113 -0.4384
 5846SOL     OW28999   4.111   2.823   0.833  0.3731  0.9321 -0.4683
 5846SOL    HW129000   4.049   2.793   0.900 -0.8235  0.6335 -1.7153
 5846SOL    HW229001   4.049   2.859   0.770  0.5936  2.7519  0.3529
 5847SOL     OW29002   1.616   1.364   3.195  0.3799  0.1181 -0.3067
 5847SOL    HW129003   1.609   1.447   3.242  2.0907 -0.7351  1.4738
 5847SOL    HW229004   1.659   1.395   3.115 -1.0744 -1.5728 -1.7456
 5848SOL     OW29005   4.361   2.055   3.959  0.1103  0.2228  0.1119
 5848SOL    HW129006   4.393   2.058   3.869  0.6580  0.1357  0.3043
 5848SOL    HW229007   4.300   1.982   3.945  0.1048 -0.0151  1.4342
 5849SOL     OW29008   4.208   0.667   5.979 -0.1227  0.1206 -0.4309
 5849SOL    HW129009   4.185   0.714   6.059  0.4355  1.6983 -1.1979
 5849SOL    HW229010   4.124   0.626   5.960 -0.8850 -0.2828  3.8436
 5850SOL     OW29011   4.086   0.132   9.914 -0.1511  0.0274  0.2507
 5850SOL    HW129012   4.018   0.181   9.869  0.3544  2.4069  2.1038
 5850SOL    HW229013   4.119   0.197   9.976 -1.7218 -0.4285  1.5692
 5851SOL     OW29014   2.008   2.306   7.578 -0.1838 -0.0552 -0.5067
 5851SOL    HW129015   1.919   2.292   7.609  0.1033 -2.1620 -0.5886
 5851SOL    HW229016   2.034   2.357   7.654 -0.1775 -1.4358  0.4275
 5852SOL     OW29017   3.158   4.230  15.299  0.2666 -0.3048 -0.0367
 5852SOL    HW129018   3.158   4.326  15.300  0.9703 -0.3147  0.8860
 5852SOL    HW229019   3.159   4.208  15.206  1.5787 -0.9505  0.1238
 5853SOL     OW29020   1.234   1.445   8.130  0.2804 -0.0125 -0.3261
 5853SOL    HW129021   1.161   1.435   8.190  1.5005 -0.1104  1.1561
 5853SOL    HW229022   1.310   1.455   8.188 -1.0479  0.7939  1.2743
 5854SOL     OW29023   0.711   1.661   8.108 -0.2319 -0.5943  0.0603
 5854SOL    HW129024   0.688   1.744   8.065 -0.8851 -0.6212  0.3659
 5854SOL    HW229025   0.622   1.634   8.129  0.4681 -0.7756  2.7799
 5855SOL     OW29026   2.505   2.789   2.593 -0.4186 -0.0923 -0.0307
 5855SOL    HW129027   2.430   2.836   2.557  1.5528  0.4764 -3.4238
 5855SOL    HW229028   2.501   2.706   2.545  0.1348  1.1300 -2.2082
 5856SOL     OW29029   3.924   2.858  12.696 -0.1721  0.1103 -0.3977
 5856SOL    HW129030   3.945   2.834  12.606 -0.3907 -0.0438 -0.4077
 5856SOL    HW229031   3.941   2.953  12.696 -0.2327  0.1094  1.6239
 5857SOL     OW29032   4.085   1.411   7.653  0.1783 -0.0710  0.0250
 5857SOL    HW129033   4.018   1.344   7.641 -0.0282 -0.2053  1.9877
 5857SOL    HW229034   4.156   1.365   7.607  1.2348  1.1242  0.4678
 5858SOL     OW29035   4.707   4.075   2.833  0.0563 -0.0451 -0.7918
 5858SOL    HW129036   0.055   4.090   2.892  0.8711 -0.6883 -1.6447
 5858SOL    HW229037   4.646   4.147   2.853  0.8069  0.1505  0.7275
 5859SOL     OW29038   2.138   3.509   5.186 -0.6695 -0.3605  0.4172
 5859SOL    HW129039   2.208   3.526   5.250  0.1721  0.0442 -0.6177
 5859SOL    HW229040   2.061   3.479   5.235  1.4696 -2.7793  2.2811
 5860SOL     OW29041   1.021   2.180   9.412  0.6946  0.2418  0.4705
 5860SOL    HW129042   1.042   2.125   9.337  1.1878  0.2924  0.5737
 5860SOL    HW229043   1.040   2.132   9.493 -1.0792 -0.4187  0.5047
 5861SOL     OW29044   4.513   2.978   0.979 -0.3695  0.1952 -0.0933
 5861SOL    HW129045   4.452   3.032   1.030 -0.0690  0.3560  0.0962
 5861SOL    HW229046   4.448   2.911   0.956 -1.3803  1.0866  0.1400
 5862SOL     OW29047   2.434   4.664   9.784  0.6704  0.1196 -0.0524
 5862SOL    HW129048   2.405   0.018   9.829 -3.0646 -1.0910 -0.2955
 5862SOL    HW229049   2.528   4.673   9.771  0.6403 -0.0625 -0.4173
 5863SOL     OW29050   1.123   3.452   4.260 -0.1034  0.5196  0.1821
 5863SOL    HW129051   1.074   3.370   4.271 -0.3655  0.4456 -1.5075
 5863SOL    HW229052   1.160   3.439   4.173 -1.4502  1.2984 -0.5009
 5864SOL     OW29053   2.496   4.687  15.645  0.3230  0.0020  0.2553
 5864SOL    HW129054   2.404   4.690  15.672 -0.2519 -0.7626 -1.6434
 5864SOL    HW229055   2.481   4.677  15.551  1.0984  0.4256  0.0836
 5865SOL     OW29056   1.329   0.145   1.631  0.3750  0.1055 -0.5968
 5865SOL    HW129057   1.330   0.051   1.645  1.4280  0.1267 -0.5444
 5865SOL    HW229058   1.268   0.169   1.700 -0.3569  0.8713 -1.5050
 5866SOL     OW29059   0.562   1.609   4.292 -0.3879 -0.6884 -0.2803
 5866SOL    HW129060   0.493   1.661   4.333 -0.7962  0.8481 -2.8973
 5866SOL    HW229061   0.624   1.587   4.361 -0.1444  0.1345 -0.2289
 5867SOL     OW29062   1.722   0.110   3.313 -0.5921 -0.2615  0.3623
 5867SOL    HW129063   1.657   0.040   3.313 -1.6405  0.7187  0.1174
 5867SOL    HW229064   1.779   0.089   3.239 -0.7126 -0.2858  0.2769
 5868SOL     OW29065   4.160   0.201  10.577  0.5593 -0.1012  0.2370
 5868SOL    HW129066   4.156   0.249  10.660  2.2626 -0.1729  0.3555
 5868SOL    HW229067   4.136   0.116  10.613  1.7110  0.0809  1.4385
 5869SOL     OW29068   2.206   2.395   8.292 -0.5154 -0.1607 -0.4188
 5869SOL    HW129069   2.192   2.310   8.252  0.6979 -0.6128  0.1227
 5869SOL    HW229070   2.251   2.447   8.226 -0.3712 -0.3013 -0.4301
 5870SOL     OW29071   0.390   0.847   4.825  0.4196 -0.0693 -0.1380
 5870SOL    HW129072   0.424   0.774   4.876  0.6343 -1.2579 -1.9981
 5870SOL    HW229073   0.360   0.905   4.895 -0.1864 -1.2030  0.5430
 5871SOL     OW29074   0.253   1.917   1.281  0.2550  0.0626 -0.4174
 5871SOL    HW129075   0.297   1.919   1.366 -0.4359 -3.1644  0.0453
 5871SOL    HW229076   0.183   1.856   1.307  1.7173 -1.7786 -0.8241
 5872SOL     OW29077   2.796   2.342   7.407 -0.3148 -0.0622  0.0264
 5872SOL    HW129078   2.751   2.417   7.369 -1.5025  0.4249  2.4449
 5872SOL    HW229079   2.874   2.388   7.435 -1.4449  1.7336  0.2009
 5873SOL     OW29080   2.934   0.438  16.641  0.0390 -0.1633 -0.5790
 5873SOL    HW129081   2.839   0.439  16.631 -0.0529 -1.2870  0.2357
 5873SOL    HW229082   2.955   0.525  16.674 -3.5511  0.3260  0.4244
 5874SOL     OW29083   3.084   3.819   4.913  0.1310 -0.4006 -0.0270
 5874SOL    HW129084   3.136   3.825   4.833 -0.9629 -0.7132 -0.7559
 5874SOL    HW229085   3.115   3.738   4.953 -0.5732 -0.3251  0.6710
 5875SOL     OW29086   3.785   0.304   2.477 -0.0256 -0.1307 -0.4727
 5875SOL    HW129087   3.689   0.295   2.475 -0.0032 -0.4534 -0.0778
 5875SOL    HW229088   3.807   0.347   2.395  2.9406 -0.2107  0.3034
 5876SOL     OW29089   0.669   0.413   4.166  0.0575 -0.6807 -0.4861
 5876SOL    HW129090   0.714   0.337   4.202  2.7075  0.8076 -0.6845
 5876SOL    HW229091   0.578   0.384   4.157 -0.7104  0.9906  2.0654
 5877SOL     OW29092   4.010   0.401   3.783  0.3614 -0.1340  0.3341
 5877SOL    HW129093   3.960   0.356   3.715  1.3315 -0.3146 -0.2692
 5877SOL    HW229094   3.989   0.355   3.865 -2.6832 -0.1493 -0.4431
 5878SOL     OW29095   4.165   4.497   1.874  0.0692  0.0649  0.3976
 5878SOL    HW129096   4.165   4.543   1.958  3.2392  0.2280  0.3256
 5878SOL    HW229097   4.103   4.429   1.903  1.1945 -0.4259  1.6520
 5879SOL     OW29098   1.856   0.028   0.026  0.2572  0.2263  0.4292
 5879SOL    HW129099   1.910   0.101   0.059  1.1151 -0.4776  0.5811
 5879SOL    HW229100   1.844   0.036  17.633 -1.3303  0.6035  0.6621
 5880SOL     OW29101   0.836   3.392   2.780  0.1495  0.1221  0.2379
 5880SOL    HW129102   0.899   3.400   2.708  0.3852 -1.1937  0.2997
 5880SOL    HW229103   0.757   3.431   2.742 -0.5107 -0.3948  1.1062
 5881SOL     OW29104   3.739   2.754   6.589 -0.2406 -0.3033 -0.2126
 5881SOL    HW129105   3.792   2.717   6.660 -1.4981 -1.3976  0.1727
 5881SOL    HW229106   3.767   2.845   6.587 -0.6874 -0.1963 -1.4902
 5882SOL     OW29107   2.549   2.673   9.262  0.0054 -0.1298  0.1384
 5882SOL    HW129108   2.501   2.746   9.301 -1.5883 -0.5523 -1.0148
 5882SOL    HW229109   2.625   2.717   9.223 -0.7866 -1.0791 -2.4720
 5883SOL     OW29110   3.863   1.152   5.562 -0.7858 -0.0935  0.4256
 5883SOL    HW129111   3.859   1.238   5.521 -0.4875 -1.4091 -2.4562
 5883SOL    HW229112   3.878   1.081   5.498  0.8952 -0.0729  0.8065
 5884SOL     OW29113   0.943   4.581   2.656 -0.1172 -0.5983  0.3348
 5884SOL    HW129114   0.924   4.536   2.574 -0.1103 -0.6208  0.3455
 5884SOL    HW229115   0.895   4.663   2.647  0.1216 -0.5868 -0.8874
 5885SOL     OW29116   3.603   4.499   3.613 -0.0261  0.1735 -0.2778
 5885SOL    HW129117   3.690   4.522   3.580  1.0789 -2.0421  1.0828
 5885SOL    HW229118   3.600   4.548   3.695  2.6895  2.7862 -1.7494
 5886SOL     OW29119   2.874   1.239  14.039 -0.3624  0.0500 -0.0829
 5886SOL    HW129120   2.782   1.213  14.040 -1.2577  3.2030  1.2561
 5886SOL    HW229121   2.917   1.160  14.071 -1.2003 -1.1022 -1.8562
 5887SOL     OW29122   2.833   3.143  10.748  0.1288  0.1653 -0.1109
 5887SOL    HW129123   2.928   3.153  10.744  0.2328 -1.6001 -1.8806
 5887SOL    HW229124   2.821   3.104  10.661  0.8100 -1.0132  0.3404
 5888SOL     OW29125   1.515   3.732   6.207 -0.2830 -0.4102  0.3120
 5888SOL    HW129126   1.436   3.780   6.230  0.6824  1.0510  0.5492
 5888SOL    HW229127   1.583   3.785   6.248 -1.1305  0.9951 -0.0816
 5889SOL     OW29128   0.907   4.532  13.580 -0.1517  0.2748 -0.1371
 5889SOL    HW129129   0.855   4.556  13.656  0.2246 -1.5854  0.7110
 5889SOL    HW229130   0.919   4.619  13.541 -2.2751  0.0946 -1.1687
 5890SOL     OW29131   2.160   3.524  13.434  0.3508  0.1729 -0.4360
 5890SOL    HW129132   2.080   3.559  13.395  0.2214 -0.2954 -0.5922
 5890SOL    HW229133   2.144   3.551  13.525  2.0575 -3.7134  1.0101
 5891SOL     OW29134   1.787   0.100   4.860 -0.4676  0.0393  0.0489
 5891SOL    HW129135   1.846   0.170   4.830 -0.8371  0.5971  0.6362
 5891SOL    HW229136   1.850   0.028   4.850 -0.2013  0.1493  1.0242
 5892SOL     OW29137   4.392   0.434  10.813  0.0387  0.0043 -0.1313
 5892SOL    HW129138   4.447   0.414  10.889 -0.3182  0.8857  0.3624
 5892SOL    HW229139   4.467   0.463  10.763  0.9466  1.2822  1.9627
 5893SOL     OW29140   3.708   0.399   2.720  0.2775 -0.3746 -1.0480
 5893SOL    HW129141   3.741   0.331   2.662  0.8457 -0.7497 -0.2759
 5893SOL    HW229142   3.674   0.459   2.653 -1.0266 -0.8003 -0.7547
 5894SOL     OW29143   2.896   3.671   4.513  0.4286 -0.2863  0.0923
 5894SOL    HW129144   2.938   3.622   4.442 -0.9937 -2.1603  0.5344
 5894SOL    HW229145   2.970   3.674   4.573 -0.8288 -1.5024  1.7231
 5895SOL     OW29146   2.743   1.261  17.090 -0.1433  0.3773 -0.5957
 5895SOL    HW129147   2.738   1.215  17.174 -2.1820  2.6565  0.5080
 5895SOL    HW229148   2.724   1.184  17.036  2.0358 -0.2873 -0.4296
 5896SOL     OW29149   0.853   4.635  16.821  0.4595  0.3347 -0.1305
 5896SOL    HW129150   0.853   4.578  16.898  0.3797 -0.6294 -0.8502
 5896SOL    HW229151   0.862   4.720  16.865 -0.8276 -0.5478  1.8418
 5897SOL     OW29152   4.155   3.757   2.951  0.2949  0.0880  0.0448
 5897SOL    HW129153   4.066   3.780   2.976  0.5321  1.7010 -0.6541
 5897SOL    HW229154   4.196   3.810   3.020 -0.8301  1.1909 -0.1453
 5898SOL     OW29155   3.991   0.472   4.483  0.3661 -0.0139 -0.9310
 5898SOL    HW129156   3.951   0.558   4.499  2.9821  0.8355  0.8758
 5898SOL    HW229157   4.064   0.464   4.543 -1.0137 -1.5677  0.5437
 5899SOL     OW29158   2.858   2.231  13.848 -0.9059 -0.7486  0.1871
 5899SOL    HW129159   2.937   2.279  13.825 -1.4657 -0.2690 -0.7526
 5899SOL    HW229160   2.883   2.140  13.836  0.5915 -0.2491 -0.4996
 5900SOL     OW29161   0.159   2.450   3.618 -0.9086 -0.7223  0.0108
 5900SOL    HW129162   0.114   2.529   3.649 -0.6862 -0.0227 -1.4028
 5900SOL    HW229163   0.116   2.375   3.658  0.4736 -0.1311  2.6257
 5901SOL     OW29164   2.244   2.909   7.269 -0.3684  0.7365  0.0060
 5901SOL    HW129165   2.273   2.831   7.316 -1.5176  0.0026 -0.5094
 5901SOL    HW229166   2.190   2.950   7.337 -0.8902  0.5861 -0.3180
 5902SOL     OW29167   1.260   0.025   1.961  0.2208 -0.4570  0.1507
 5902SOL    HW129168   1.175   0.025   1.917  0.4048 -0.0971 -0.2029
 5902SOL    HW229169   1.239   0.057   2.049 -0.2428  1.3118 -0.6087
 5903SOL     OW29170   2.796   1.559  17.295 -0.0445  0.3800 -1.0655
 5903SOL    HW129171   2.743   1.595  17.366 -1.1143 -1.3903 -0.9674
 5903SOL    HW229172   2.873   1.523  17.340 -0.2467  1.7729  0.3882
 5904SOL     OW29173   2.890   2.040  16.534  0.0082  0.5859  0.0285
 5904SOL    HW129174   2.823   1.989  16.580 -1.2258 -0.3967 -2.8261
 5904SOL    HW229175   2.832   2.108  16.500 -0.3742 -0.8532 -2.1560
 5905SOL     OW29176   4.281   0.339  16.122  0.3129  0.0856 -0.3707
 5905SOL    HW129177   4.236   0.404  16.176 -1.1393 -1.0817 -0.2011
 5905SOL    HW229178   4.278   0.390  16.041  0.5585  0.6774 -0.0150
 5906SOL     OW29179   4.247   3.990  16.966 -0.3464 -0.3550 -0.5827
 5906SOL    HW129180   4.197   4.065  16.996  0.6155 -0.7314  1.9211
 5906SOL    HW229181   4.268   4.020  16.877 -2.1818 -1.2965 -1.3345
 5907SOL     OW29182   4.436   3.852   6.377 -0.1428 -0.2124 -0.0207
 5907SOL    HW129183   4.470   3.813   6.457 -1.0875 -1.2553 -0.1239
 5907SOL    HW229184   4.520   3.892   6.354  0.4618 -2.1034 -1.0852
 5908SOL     OW29185   2.932   0.225   8.683  0.0244 -0.0383 -0.1319
 5908SOL    HW129186   2.917   0.155   8.619  0.5053  0.2249 -0.5370
 5908SOL    HW229187   3.026   0.245   8.679 -0.4455  2.0710 -0.6672
 5909SOL     OW29188   2.493   0.406   7.081  1.0277 -0.1291  0.9257
 5909SOL    HW129189   2.422   0.454   7.124  1.2124  1.3327 -0.3923
 5909SOL    HW229190   2.448   0.322   7.087  1.4880 -0.4111  0.3982
 5910SOL     OW29191   2.196   3.530  16.207 -0.1920  0.4353 -0.4443
 5910SOL    HW129192   2.195   3.515  16.301 -0.1933 -2.1882 -0.8710
 5910SOL    HW229193   2.228   3.443  16.182  2.0881  1.5282 -1.2743
 5911SOL     OW29194   1.363   1.295   4.690 -0.0672 -0.1872  0.0063
 5911SOL    HW129195   1.351   1.251   4.774  0.3274 -2.0379 -0.9155
 5911SOL    HW229196   1.288   1.256   4.645 -0.3944  0.1899  0.2289
 5912SOL     OW29197   4.396   0.856   7.524  0.5281  0.1088  0.3804
 5912SOL    HW129198   4.366   0.802   7.451 -0.3506  1.1853 -0.0473
 5912SOL    HW229199   4.488   0.833   7.537  0.8720  1.1656 -0.0879
 5913SOL     OW29200   2.973   0.489   3.869  0.2416  0.0518  0.1635
 5913SOL    HW129201   2.950   0.399   3.893  1.8344 -0.7945 -1.4793
 5913SOL    HW229202   2.999   0.471   3.779  1.0144  3.3586 -0.2441
 5914SOL     OW29203   0.205   2.273   2.395 -0.0631  0.1295  0.1458
 5914SOL    HW129204   0.273   2.281   2.462  1.7843  0.7475 -1.7783
 5914SOL    HW229205   0.149   2.219   2.449  1.6910  0.1021  1.9621
 5915SOL     OW29206   3.864   2.119   8.202  0.8076  0.2395 -0.4242
 5915SOL    HW129207   3.951   2.091   8.231  0.4421 -0.8168 -0.3673
 5915SOL    HW229208   3.819   2.115   8.286  1.1737  0.2819 -0.2254
 5916SOL     OW29209   2.884   1.393   5.228  0.2244  0.4155  0.7766
 5916SOL    HW129210   2.948   1.345   5.281 -0.5765  0.3600  1.7039
 5916SOL    HW229211   2.801   1.355   5.256  0.2062  0.6686  1.0607
 5917SOL     OW29212   3.741   2.471   2.161 -0.5429  0.1394  0.1825
 5917SOL    HW129213   3.653   2.490   2.194  0.1050 -0.1114  2.0699
 5917SOL    HW229214   3.780   2.556   2.180 -1.6775  1.2428 -2.4255
 5918SOL     OW29215   1.391   2.993  10.236  0.2390  0.3813 -0.0205
 5918SOL    HW129216   1.373   2.935  10.162 -1.6137 -0.7762  1.3242
 5918SOL    HW229217   1.417   2.929  10.302  2.3066  2.3952  1.1363
 5919SOL     OW29218   1.451   4.093   4.129 -0.4679 -0.0844 -0.2241
 5919SOL    HW129219   1.511   4.024   4.157 -2.0512 -0.5646  1.9988
 5919SOL    HW229220   1.433   4.142   4.209 -1.2240 -0.5903 -0.0861
 5920SOL     OW29221   2.983   2.675   2.117  0.0612 -0.2942 -0.8063
 5920SOL    HW129222   2.888   2.683   2.105 -0.0866  3.3112  2.7203
 5920SOL    HW229223   3.013   2.762   2.091 -1.2378  0.7994  1.2696
 5921SOL     OW29224   2.805   0.966   7.312  0.0904  0.3875  0.2427
 5921SOL    HW129225   2.733   1.025   7.333  0.7562  0.7717  1.4809
 5921SOL    HW229226   2.851   1.014   7.244 -1.5810 -0.1070 -1.2244
 5922SOL     OW29227   4.442   3.054   7.374 -0.7200 -0.2681 -0.3104
 5922SOL    HW129228   4.477   3.078   7.288  1.0096  1.9438  0.9994
 5922SOL    HW229229   4.477   2.968   7.397 -3.1066 -1.4401 -1.0590
 5923SOL     OW29230   0.078   1.616  14.049  0.0490 -0.5852  0.5046
 5923SOL    HW129231   0.085   1.666  13.967 -0.1634 -0.7018  0.4142
 5923SOL    HW229232   0.146   1.553  14.024  3.1298  2.5074  1.1516
 5924SOL     OW29233   2.186   3.817  16.212 -0.8391 -0.3854 -0.3624
 5924SOL    HW129234   2.261   3.823  16.271 -0.4726  2.6797 -1.1617
 5924SOL    HW229235   2.176   3.722  16.211  1.6240 -0.6841  1.9182
 5925SOL     OW29236   4.292   0.639   1.302 -0.2951 -0.0815 -0.0204
 5925SOL    HW129237   4.209   0.641   1.254 -0.3678  1.5370  0.1856
 5925SOL    HW229238   4.296   0.556   1.349  0.0286  0.3710  0.7545
 5926SOL     OW29239   1.704   2.272   4.811 -0.5075 -0.2949  0.1433
 5926SOL    HW129240   1.680   2.222   4.732 -0.3671  0.8521 -0.6312
 5926SOL    HW229241   1.694   2.365   4.790 -1.7592 -0.2652  0.8674
 5927SOL     OW29242   2.898   2.352  15.257  0.6816  0.5902 -0.1181
 5927SOL    HW129243   2.930   2.328  15.344  0.2576 -4.4339 -1.3234
 5927SOL    HW229244   2.853   2.437  15.260  0.0372  0.2679 -0.4678
 5928SOL     OW29245   1.210   2.118   7.588  0.1819  0.0597 -0.2677
 5928SOL    HW129246   1.276   2.187   7.579 -1.5544  1.7854  0.2496
 5928SOL    HW229247   1.168   2.136   7.504 -1.5466 -1.0308  0.3501
 5929SOL     OW29248   1.107   1.950  10.799 -0.1461  0.2596  0.7450
 5929SOL    HW129249   1.195   1.986  10.789 -0.4035  0.8570  0.6318
 5929SOL    HW229250   1.135   1.873  10.849 -1.3031  1.2297  2.8806
 5930SOL     OW29251   4.018   1.970   7.987 -0.6402 -0.1204  0.4376
 5930SOL    HW129252   4.100   1.982   8.034 -0.4365  1.3057 -0.2563
 5930SOL    HW229253   3.964   1.939   8.059 -1.5982  0.5709  0.0127
 5931SOL     OW29254   0.358   4.145   7.429 -0.2308 -0.2341 -0.0864
 5931SOL    HW129255   0.300   4.071   7.415 -1.4784  0.7370 -0.1303
 5931SOL    HW229256   0.409   4.140   7.348 -1.1618 -0.3166 -0.6740
 5932SOL     OW29257   2.837   0.733   8.388  0.5234 -0.7791  0.4908
 5932SOL    HW129258   2.805   0.669   8.451 -0.9561 -1.6445 -1.1576
 5932SOL    HW229259   2.757   0.746   8.335 -0.5101  0.3180  2.3194
 5933SOL     OW29260   1.009   0.053   0.286 -0.4029  0.2493  0.5315
 5933SOL    HW129261   1.051   0.049   0.372 -0.6157 -0.1350  0.6175
 5933SOL    HW229262   0.916   0.045   0.306 -0.1129 -1.9363  1.0061
 5934SOL     OW29263   4.308   0.529  15.900 -0.0191 -0.3444 -0.0253
 5934SOL    HW129264   4.375   0.588  15.866 -1.2406  1.1441  0.1551
 5934SOL    HW229265   4.233   0.586  15.917 -1.3796 -1.6243 -1.7778
 5935SOL     OW29266   0.083   0.481   6.613 -0.4756  0.2894 -0.3222
 5935SOL    HW129267   0.031   0.555   6.584 -2.2378 -0.3592  1.1202
 5935SOL    HW229268   0.134   0.507   6.690 -0.3593  2.3332 -1.1024
 5936SOL     OW29269   0.013   3.189   1.373  0.1330 -0.2282  0.0213
 5936SOL    HW129270   0.051   3.113   1.329  0.7745  1.1126 -1.7708
 5936SOL    HW229271   4.725   3.164   1.464 -2.6154  1.2858  0.0690
 5937SOL     OW29272   0.634   3.167  14.533 -0.0008 -0.0746 -0.4028
 5937SOL    HW129273   0.558   3.113  14.551 -0.4719  0.4853 -0.7104
 5937SOL    HW229274   0.699   3.098  14.541 -0.6452 -0.5463  0.7091
 5938SOL     OW29275   2.639   0.110   3.171 -0.0728 -0.1639  0.2687
 5938SOL    HW129276   2.726   0.092   3.207 -0.4722 -2.5579  0.0423
 5938SOL    HW229277   2.659   0.077   3.083 -1.0718  1.7827 -0.6742
 5939SOL     OW29278   1.532   2.308   6.860  0.3784  0.3176  0.1054
 5939SOL    HW129279   1.589   2.251   6.809  1.0125  2.3788 -1.5173
 5939SOL    HW229280   1.512   2.374   6.793 -0.2223  0.3618  0.3260
 5940SOL     OW29281   1.042   3.777   7.299  0.4847 -0.6353 -0.1250
 5940SOL    HW129282   0.952   3.784   7.331  1.0124  0.7130  1.0551
 5940SOL    HW229283   1.057   3.689   7.334 -0.1128 -0.0140  1.6620
 5941SOL     OW29284   3.051   4.660   1.733 -0.4071 -0.0509 -0.1522
 5941SOL    HW129285   3.102   4.579   1.723 -0.5492  0.0148 -1.4088
 5941SOL    HW229286   3.032   4.657   1.827 -1.6541  0.6002 -0.3775
 5942SOL     OW29287   3.337   3.858  15.427  0.0005  0.1962  0.4343
 5942SOL    HW129288   3.423   3.824  15.451  0.1505 -0.0447 -0.4541
 5942SOL    HW229289   3.365   3.947  15.446  0.5920  0.7431 -2.9885
 5943SOL     OW29290   1.206   4.490   3.745 -0.1192  0.0875  0.5546
 5943SOL    HW129291   1.248   4.495   3.831 -1.9928  1.6130  1.3905
 5943SOL    HW229292   1.278   4.512   3.685  1.2409  0.3993  2.2993
 5944SOL     OW29293   4.381   2.769   9.241 -0.6524 -0.0393  0.1212
 5944SOL    HW129294   4.302   2.818   9.265  0.0828 -0.1269  2.6808
 5944SOL    HW229295   4.446   2.801   9.304 -1.3296  0.6242  0.4853
 5945SOL     OW29296   3.830   1.806   1.549 -0.3759 -0.2516 -0.2629
 5945SOL    HW129297   3.883   1.875   1.509 -1.0797 -0.4452 -1.5526
 5945SOL    HW229298   3.747   1.848   1.526 -0.3448 -0.2069 -0.2927
 5946SOL     OW29299   4.054   1.261   8.277 -0.1789 -0.5026 -0.3583
 5946SOL    HW129300   3.996   1.261   8.353 -3.3117  2.0547 -2.7408
 5946SOL    HW229301   4.021   1.184   8.231 -2.0510 -0.7822  1.4432
 5947SOL     OW29302   1.324   2.553   1.693 -0.0397 -0.4242 -0.4115
 5947SOL    HW129303   1.254   2.545   1.629 -0.3394  0.6805 -0.2182
 5947SOL    HW229304   1.284   2.622   1.746 -0.0969 -1.0504  0.3508
 5948SOL     OW29305   2.924   3.895   8.981  0.2198 -0.1166  0.2841
 5948SOL    HW129306   3.010   3.857   8.998  0.4447  0.1229 -0.3166
 5948SOL    HW229307   2.899   3.906   9.073 -0.1253  0.2747  0.1434
 5949SOL     OW29308   2.317   0.344   2.576  0.1018  0.0452 -0.0335
 5949SOL    HW129309   2.266   0.295   2.512 -0.9001  0.3705  0.5123
 5949SOL    HW229310   2.364   0.402   2.516  0.9379 -1.5682 -0.9326
 5950SOL     OW29311   2.558   1.268  11.570 -0.5734 -0.1665  0.4112
 5950SOL    HW129312   2.534   1.179  11.544  0.5581 -0.7997  1.5279
 5950SOL    HW229313   2.626   1.298  11.509 -0.7812  0.3447  0.4305
 5951SOL     OW29314   3.262   2.049  16.349  0.3405  0.2076 -0.3315
 5951SOL    HW129315   3.288   2.112  16.416 -2.1397  0.4823  0.3605
 5951SOL    HW229316   3.290   1.972  16.398  1.1785  0.1990 -0.8170
 5952SOL     OW29317   3.223   3.874   8.319 -1.0102 -0.3084  0.1927
 5952SOL    HW129318   3.243   3.793   8.272  0.2718  0.7001 -0.9853
 5952SOL    HW229319   3.252   3.937   8.254  2.5310 -2.7228 -0.5443
 5953SOL     OW29320   0.792   0.604  17.572 -0.4763  0.4909  0.0997
 5953SOL    HW129321   0.805   0.559  17.488 -0.8841  0.9814 -0.2276
 5953SOL    HW229322   0.881   0.628  17.598 -0.2278  0.3418 -0.6196
 5954SOL     OW29323   2.670   0.188   9.398 -0.1043 -0.1324 -0.0529
 5954SOL    HW129324   2.588   0.236   9.388 -0.7891 -1.1983  0.4219
 5954SOL    HW229325   2.716   0.255   9.449 -0.6985  0.8070 -0.7572
 5955SOL     OW29326   2.611   4.124   5.246 -0.2943  0.1978  0.2669
 5955SOL    HW129327   2.584   4.206   5.286 -1.0081  0.3025 -0.4370
 5955SOL    HW229328   2.700   4.155   5.228  0.2009 -0.4933  1.4584
 5956SOL     OW29329   4.451   1.403   5.229  0.0513  0.3357 -0.2265
 5956SOL    HW129330   4.544   1.403   5.208 -0.0042 -1.4098 -0.4591
 5956SOL    HW229331   4.428   1.310   5.222  0.0959  0.5494 -3.0339
 5957SOL     OW29332   4.517   3.179   8.545 -0.3842 -0.2877  0.2840
 5957SOL    HW129333   4.523   3.196   8.451 -1.1659  0.2827  0.3448
 5957SOL    HW229334   4.487   3.264   8.576 -1.6581 -0.8877  0.6823
 5958SOL     OW29335   1.566   3.556   7.758  0.1095  0.6529 -0.1048
 5958SOL    HW129336   1.500   3.615   7.795 -0.6721 -1.1851  1.4468
 5958SOL    HW229337   1.645   3.606   7.778 -0.9896  2.0629  0.7538
 5959SOL     OW29338   2.339   3.553   8.165 -0.4317  0.0484 -0.4224
 5959SOL    HW129339   2.434   3.556   8.156 -0.5712 -0.4108 -2.0050
 5959SOL    HW229340   2.337   3.529   8.257  0.6022 -0.6857 -0.6022
 5960SOL     OW29341   3.760   3.037  10.416 -0.5821  0.0406  0.1388
 5960SOL    HW129342   3.730   3.039  10.507  0.5697  1.7707  0.4892
 5960SOL    HW229343   3.704   2.970  10.377 -0.4858  0.4094 -0.6415
 5961SOL     OW29344   0.385   2.015   2.821  0.3617 -0.3045  0.1751
 5961SOL    HW129345   0.410   1.923   2.823  1.0279 -0.1465 -0.4087
 5961SOL    HW229346   0.292   2.005   2.839  0.2433 -1.9628 -1.3055
 5962SOL     OW29347   0.610   1.894   5.165  0.0928  0.2483  0.4187
 5962SOL    HW129348   0.618   1.801   5.146  0.6368  0.2043  0.8664
 5962SOL    HW229349   0.671   1.903   5.238  2.6441  0.3233 -1.6956
 5963SOL     OW29350   1.618   4.559  17.050  0.3403 -0.1189 -0.0851
 5963SOL    HW129351   1.608   4.651  17.075  0.5091 -0.7591  2.3661
 5963SOL    HW229352   1.569   4.516  17.120  1.0465 -1.9193 -0.6965
 5964SOL     OW29353   3.174   3.279   6.097 -0.1185  0.2855  0.2610
 5964SOL    HW129354   3.133   3.214   6.154 -1.2115  0.8230  0.0887
 5964SOL    HW229355   3.263   3.275   6.131 -0.1667  0.6299  0.4292
 5965SOL     OW29356   1.305   2.365   3.552  0.5328  0.2699 -0.2603
 5965SOL    HW129357   1.272   2.431   3.613  0.4829  1.2773 -1.3636
 5965SOL    HW229358   1.248   2.290   3.565  0.3344  0.7412  1.5090
 5966SOL     OW29359   0.804   1.512   6.660 -0.3053 -0.3610  0.3990
 5966SOL    HW129360   0.798   1.590   6.714 -2.2207 -0.9903  1.0870
 5966SOL    HW229361   0.714   1.483   6.645  0.0773 -1.4834  0.2064
 5967SOL     OW29362   2.738   4.350   9.776 -0.2335  0.1993  0.3353
 5967SOL    HW129363   2.643   4.361   9.777 -0.3979 -1.0579 -0.6588
 5967SOL    HW229364   2.752   4.320   9.866  1.4923  1.3073  0.4327
 5968SOL     OW29365   0.406   3.996   6.625  0.9888 -0.3328 -0.5005
 5968SOL    HW129366   0.411   4.015   6.532 -2.0711 -0.5891 -0.7370
 5968SOL    HW229367   0.437   4.075   6.668 -0.5600  0.6690 -1.2191
 5969SOL     OW29368   2.159   4.461   3.106 -0.0861  0.0051 -0.1511
 5969SOL    HW129369   2.230   4.401   3.130 -0.3150  0.6771  2.1886
 5969SOL    HW229370   2.090   4.443   3.170  0.2776 -0.5533  0.0896
 5970SOL     OW29371   4.155   2.474  15.474 -0.1010  0.0510 -0.3324
 5970SOL    HW129372   4.094   2.447  15.405  0.0774 -0.5919 -0.2443
 5970SOL    HW229373   4.209   2.397  15.458  2.8591  2.1070 -0.1773
 5971SOL     OW29374   1.152   0.802   6.152 -0.3977 -0.0175  0.2669
 5971SOL    HW129375   1.081   0.863   6.171  0.3117  1.2031 -1.0618
 5971SOL    HW229376   1.174   0.779   6.242 -0.2652 -1.8664 -0.2355
 5972SOL     OW29377   0.218   4.426   4.512  0.4200 -0.3584  0.3544
 5972SOL    HW129378   0.203   4.349   4.457  1.3356 -2.6133  3.2664
 5972SOL    HW229379   0.163   4.483   4.458 -0.9875 -0.6492  1.4541
 5973SOL     OW29380   0.843   3.298   3.468  0.3688 -0.3037  0.6032
 5973SOL    HW129381   0.837   3.345   3.386 -1.0193 -0.9036  0.3728
 5973SOL    HW229382   0.847   3.207   3.438 -0.5542 -0.2538  0.3474
 5974SOL     OW29383   3.483   4.491  12.892  0.3820  0.2670 -0.4425
 5974SOL    HW129384   3.488   4.406  12.848 -2.3446 -0.0883 -0.0326
 5974SOL    HW229385   3.576   4.508  12.904  0.6469 -0.2827 -1.6568
 5975SOL     OW29386   2.388   2.915   2.156  0.2047 -0.0359  0.6050
 5975SOL    HW129387   2.411   2.950   2.242 -0.0472 -0.9724  1.0617
 5975SOL    HW229388   2.317   2.858   2.185 -2.3082  1.9044 -1.7893
 5976SOL     OW29389   0.020   1.958   0.471 -0.1479  0.5538 -0.7138
 5976SOL    HW129390   0.007   1.893   0.540  0.3373  0.5431 -0.6282
 5976SOL    HW229391   4.668   2.012   0.485  0.8562  1.9533 -0.5829
 5977SOL     OW29392   3.953   3.920   7.248  0.2804  0.5137  0.4176
 5977SOL    HW129393   3.917   4.009   7.246  0.4322  0.6405  3.4293
 5977SOL    HW229394   3.905   3.879   7.319  0.4911  1.1255  0.9084
 5978SOL     OW29395   0.891   2.488   0.887 -0.1636  0.2498  0.2240
 5978SOL    HW129396   0.984   2.484   0.864  0.0839 -0.0365  1.2593
 5978SOL    HW229397   0.860   2.415   0.833  1.1323 -1.1030  1.3213
 5979SOL     OW29398   3.620   4.028   8.970  0.2998 -0.0308  0.0429
 5979SOL    HW129399   3.692   4.088   8.988  1.5411 -1.3957 -0.3814
 5979SOL    HW229400   3.674   3.957   8.936 -1.0499 -1.3511  0.6199
 5980SOL     OW29401   1.227   2.484   8.084  0.4663  0.0043 -0.1932
 5980SOL    HW129402   1.158   2.526   8.033  0.8983  0.9005 -0.0505
 5980SOL    HW229403   1.295   2.467   8.019  2.1754  1.4210  1.1964
 5981SOL     OW29404   2.441   2.050   8.102  0.8253 -0.1784 -0.5189
 5981SOL    HW129405   2.453   2.027   8.194  0.6515  1.4472 -0.0942
 5981SOL    HW229406   2.368   1.993   8.077  0.5467 -0.2346  0.4180
 5982SOL     OW29407   0.391   3.810  10.130 -0.3973 -0.2689  0.4601
 5982SOL    HW129408   0.345   3.877  10.078  0.1081 -0.7973 -0.6707
 5982SOL    HW229409   0.323   3.742  10.126 -1.8740  1.1863  0.7464
 5983SOL     OW29410   4.010   2.032   2.030 -0.0853  0.0809  0.1321
 5983SOL    HW129411   4.066   1.955   2.039  1.7738  1.1893 -1.6996
 5983SOL    HW229412   3.938   2.006   1.972  1.7665 -0.4091 -1.9655
 5984SOL     OW29413   2.151   3.281  16.363 -0.4167 -0.3901  0.2183
 5984SOL    HW129414   2.223   3.251  16.309 -0.3525  1.0211 -0.4673
 5984SOL    HW229415   2.074   3.267  16.308  0.5787 -3.1086 -0.4495
 5985SOL     OW29416   0.769   3.784   3.470  0.4801  0.9716  0.2244
 5985SOL    HW129417   0.828   3.741   3.408 -0.4303 -0.2355  0.1841
 5985SOL    HW229418   0.780   3.740   3.554 -0.4779  0.6108  0.1717
 5986SOL     OW29419   2.608   1.656   1.385 -1.0294  0.4571 -0.1527
 5986SOL    HW129420   2.539   1.628   1.324 -2.5783  2.0777  0.8626
 5986SOL    HW229421   2.558   1.729   1.422  0.9292  1.7899 -0.1415
 5987SOL     OW29422   0.502   2.834  10.731  0.2407 -0.3270  0.7386
 5987SOL    HW129423   0.570   2.846  10.797 -0.2889  0.5300  1.1341
 5987SOL    HW229424   0.530   2.753  10.688  0.5708 -0.7071  1.6759
 5988SOL     OW29425   4.681   0.874   5.193 -0.1007 -0.1059 -0.2539
 5988SOL    HW129426   4.599   0.894   5.239  0.6279  1.8167  0.2128
 5988SOL    HW229427   4.706   0.793   5.238 -0.5796  0.0458  0.2875
 5989SOL     OW29428   2.505   1.473   7.212 -0.1607 -0.1810  0.4482
 5989SOL    HW129429   2.568   1.436   7.273  1.3040  3.9905  1.4673
 5989SOL    HW229430   2.449   1.500   7.285  2.7037  0.9860  2.1784
 5990SOL     OW29431   3.049   3.185   9.217  0.1592 -0.1418 -0.0892
 5990SOL    HW129432   2.988   3.126   9.173 -0.9669  1.9683 -1.3662
 5990SOL    HW229433   3.019   3.190   9.308  0.9738 -1.7082  0.2601
 5991SOL     OW29434   4.427   2.479  10.346 -0.1447 -0.4710  0.2936
 5991SOL    HW129435   4.365   2.460  10.274 -0.1987  0.3546  0.1262
 5991SOL    HW229436   4.400   2.412  10.408 -1.2552 -0.1395  0.1793
 5992SOL     OW29437   2.326   3.728   6.403 -0.2101  0.1200  0.2048
 5992SOL    HW129438   2.330   3.742   6.308  1.5825 -0.0653  0.2383
 5992SOL    HW229439   2.319   3.634   6.418  1.7553 -0.2214 -0.9512
 5993SOL     OW29440   1.757   3.963   6.663  0.3576 -0.1022  0.1409
 5993SOL    HW129441   1.715   3.877   6.655 -0.5234  0.3967 -0.6380
 5993SOL    HW229442   1.846   3.944   6.634 -0.1564  0.0847 -1.5842
 5994SOL     OW29443   4.061   3.836   6.096  0.0091 -0.1308  0.0679
 5994SOL    HW129444   3.980   3.823   6.045 -0.4230 -0.3839  0.8218
 5994SOL    HW229445   4.124   3.868   6.031  1.3700 -2.1564  0.3902
 5995SOL     OW29446   2.962   1.434   4.954  0.5172  0.5175  0.0986
 5995SOL    HW129447   2.955   1.343   4.925 -0.1889  0.3370  0.8676
 5995SOL    HW229448   2.946   1.421   5.047  0.0710  1.0370  0.0918
 5996SOL     OW29449   1.620   1.088   2.935 -0.6018  0.1128 -0.0741
 5996SOL    HW129450   1.704   1.073   2.893  0.5587  1.6842  1.7272
 5996SOL    HW229451   1.635   1.133   3.017 -0.4568  1.4691 -0.8426
 5997SOL     OW29452   1.389   3.139   6.937  0.6844  0.9059 -0.4714
 5997SOL    HW129453   1.437   3.219   6.959  0.4842  0.7055  0.7022
 5997SOL    HW229454   1.318   3.150   7.001 -0.7129  3.0594 -2.3996
 5998SOL     OW29455   0.889   2.342  12.870  0.0672 -0.0433  0.1873
 5998SOL    HW129456   0.866   2.299  12.788 -1.0232  0.5451  0.1845
 5998SOL    HW229457   0.828   2.302  12.932  0.4329 -1.4183 -0.3361
 5999SOL     OW29458   2.485   4.387   9.839 -0.3164  0.0965  0.1348
 5999SOL    HW129459   2.456   4.474   9.813 -0.2609  0.7873  2.4388
 5999SOL    HW229460   2.531   4.408   9.920  1.6915 -0.3254 -0.8835
 6000SOL     OW29461   2.631   1.135  13.227 -0.1215 -0.4443  1.1690
 6000SOL    HW129462   2.647   1.045  13.254  0.2340 -1.2320 -1.7138
 6000SOL    HW229463   2.705   1.145  13.168 -1.6566 -3.5795 -1.2902
 6001SOL     OW29464   2.135   4.710   9.743  0.4109  0.3186  0.0336
 6001SOL    HW129465   2.206   4.647   9.735 -0.8544 -1.0864 -0.0957
 6001SOL    HW229466   2.050   4.671   9.763 -0.5973  2.6022  0.2818
 6002SOL     OW29467   4.645   3.162   4.720  0.0079 -0.3657 -0.3853
 6002SOL    HW129468   4.592   3.210   4.657 -1.5634  1.2912  2.1846
 6002SOL    HW229469   4.606   3.076   4.709 -0.6647 -0.1730  0.5023
 6003SOL     OW29470   1.474   0.585   0.624 -0.4208 -0.1289 -0.0891
 6003SOL    HW129471   1.455   0.677   0.604 -0.1497 -0.0978 -0.2018
 6003SOL    HW229472   1.417   0.533   0.567  0.6684  2.1475 -3.2363
 6004SOL     OW29473   2.339   2.799   3.141 -0.1831  0.1630  0.0744
 6004SOL    HW129474   2.264   2.794   3.083 -0.3867 -1.1710  0.4471
 6004SOL    HW229475   2.387   2.724   3.108 -1.1722 -0.1510 -0.6333
 6005SOL     OW29476   1.471   0.619   7.986  0.0611 -0.3060 -0.0072
 6005SOL    HW129477   1.413   0.622   7.910 -0.7767 -1.0974  0.6037
 6005SOL    HW229478   1.519   0.537   7.988 -0.5548 -0.6391  0.9485
 6006SOL     OW29479   3.646   0.619   4.156 -0.0655  0.2323  0.0673
 6006SOL    HW129480   3.670   0.693   4.211 -1.8339  1.5803 -0.9647
 6006SOL    HW229481   3.631   0.556   4.226 -1.0973  0.4589  0.0449
 6007SOL     OW29482   2.293   0.104   7.710  0.0664 -0.4671  0.0771
 6007SOL    HW129483   2.212   0.062   7.680 -0.6679 -0.3379  1.8692
 6007SOL    HW229484   2.287   0.184   7.657 -0.5347  0.9136  2.2514
 6008SOL     OW29485   3.647   0.109   6.242 -0.1291  0.0851 -0.0457
 6008SOL    HW129486   3.742   0.094   6.242  0.0112  1.0240  0.2773
 6008SOL    HW229487   3.627   0.040   6.305 -3.5994  1.0441 -0.1132
 6009SOL     OW29488   1.929   1.787   5.918 -0.1017 -0.3438  0.3922
 6009SOL    HW129489   1.921   1.723   5.848  1.9214  0.8291 -0.9179
 6009SOL    HW229490   2.024   1.794   5.906 -0.3674 -0.6184 -1.8983
 6010SOL     OW29491   0.576   4.067   3.227  0.6005 -0.4024  0.0613
 6010SOL    HW129492   0.518   4.107   3.161 -0.7896 -1.4403  0.6549
 6010SOL    HW229493   0.592   4.139   3.288 -0.4470 -1.1516  1.2080
 6011SOL     OW29494   2.114   1.050   2.150  0.7559 -0.8666 -0.7099
 6011SOL    HW129495   2.131   0.965   2.110  1.8316 -0.5223 -0.9911
 6011SOL    HW229496   2.119   1.021   2.241  1.2566 -1.5788 -0.9643
 6012SOL     OW29497   2.163   1.016   8.173 -0.0844  0.3999 -0.2981
 6012SOL    HW129498   2.181   1.042   8.082  1.7345 -2.2472 -0.7096
 6012SOL    HW229499   2.068   1.006   8.176 -0.0313  0.8406  3.0152
 6013SOL     OW29500   1.065   1.963   4.351  0.5005  0.1087 -0.2126
 6013SOL    HW129501   1.141   1.949   4.295  0.8285  0.4377  0.1465
 6013SOL    HW229502   1.106   1.993   4.432  1.3846  0.8081 -0.9192
 6014SOL     OW29503   3.423   2.014  14.720 -0.7634  0.0797  0.0555
 6014SOL    HW129504   3.408   1.970  14.636  2.0159 -2.4415  0.8867
 6014SOL    HW229505   3.355   2.081  14.708  0.4127  1.6777  2.3024
 6015SOL     OW29506   2.964   1.784   3.266  0.2882 -0.0204 -0.0293
 6015SOL    HW129507   2.910   1.856   3.233  0.2863  0.3262  0.7398
 6015SOL    HW229508   2.938   1.778   3.358  0.6820 -3.6054 -0.1633
 6016SOL     OW29509   4.208   0.735  15.229 -0.1388  0.1209 -0.1787
 6016SOL    HW129510   4.256   0.786  15.164 -0.5611  3.4359  2.1198
 6016SOL    HW229511   4.116   0.744  15.203 -0.0285 -0.1732 -0.6651
 6017SOL     OW29512   2.330   4.686  10.442  0.0824 -0.5534  0.3257
 6017SOL    HW129513   2.246   4.642  10.454 -0.1116 -0.4507 -0.6497
 6017SOL    HW229514   2.394   4.615  10.445  0.9400  0.1570 -1.2082
 6018SOL     OW29515   2.607   1.915   7.171  0.4000 -0.0799 -0.1102
 6018SOL    HW129516   2.641   1.923   7.082  1.8955  2.4684  0.6813
 6018SOL    HW229517   2.658   1.984   7.213  0.1848  1.5036 -2.4532
 6019SOL     OW29518   4.630   1.633   8.702 -0.0799  0.3600 -0.4415
 6019SOL    HW129519   4.578   1.711   8.716 -1.4154 -0.3222 -1.6145
 6019SOL    HW229520   4.565   1.563   8.693  0.5336  0.0754 -2.7290
 6020SOL     OW29521   3.334   0.657  15.024 -0.4609  0.3230 -0.2364
 6020SOL    HW129522   3.304   0.693  14.941 -2.0217 -1.3465 -0.4075
 6020SOL    HW229523   3.318   0.731  15.082  0.7657  0.9936 -0.7503
 6021SOL     OW29524   1.766   3.641   6.638 -0.2253  0.6157 -0.5075
 6021SOL    HW129525   1.795   3.612   6.724  0.8571  1.9052 -0.4500
 6021SOL    HW229526   1.845   3.624   6.587 -0.1044 -1.2056  0.2739
 6022SOL     OW29527   2.916   4.719   6.991 -0.8288  0.2537 -0.1263
 6022SOL    HW129528   2.881   4.653   7.049 -1.3647 -0.4176 -1.2132
 6022SOL    HW229529   2.938   4.662   6.917  2.8563  0.5457  0.7349
 6023SOL     OW29530   4.625   3.172  16.502 -0.4644 -0.2618  0.6165
 6023SOL    HW129531   4.641   3.120  16.423  0.8680  1.3695 -0.1952
 6023SOL    HW229532   4.596   3.113  16.571  0.4384 -1.7824 -0.3298
 6024SOL     OW29533   4.508   2.959  16.668 -0.1337 -0.4604 -0.5854
 6024SOL    HW129534   4.533   2.907  16.744 -1.1094 -0.6488 -0.4008
 6024SOL    HW229535   4.463   3.030  16.713 -0.6544  0.2221 -2.1692
 6025SOL     OW29536   2.980   1.794   8.425 -0.4208  0.2838 -0.3018
 6025SOL    HW129537   3.034   1.732   8.377  0.3080  1.6630 -1.2488
 6025SOL    HW229538   3.048   1.851   8.461  1.5343 -1.8594 -0.6065
 6026SOL     OW29539   0.063   4.180   3.613  0.2220  0.5046 -0.4283
 6026SOL    HW129540   0.034   4.103   3.662  2.5139 -0.7534 -1.0604
 6026SOL    HW229541   0.155   4.187   3.641 -0.0413 -0.9446  0.8036
 6027SOL     OW29542   2.468   4.559  12.375 -0.5866 -0.1175  0.3425
 6027SOL    HW129543   2.553   4.582  12.414 -0.7550  2.0478 -0.5658
 6027SOL    HW229544   2.472   4.597  12.287 -1.5427 -0.7280  0.0371
 6028SOL     OW29545   3.862   0.796   2.461 -0.2537 -0.1109  0.0198
 6028SOL    HW129546   3.847   0.832   2.374 -0.5268 -0.5614 -0.1205
 6028SOL    HW229547   3.804   0.859   2.503  0.1423  0.5462 -0.4084
 6029SOL     OW29548   4.552   4.667   4.000 -0.2182 -0.5304 -0.2779
 6029SOL    HW129549   4.534   4.650   3.908  1.3329  2.6405 -1.1709
 6029SOL    HW229550   4.475   4.720   4.022 -0.5701 -0.5695 -1.4583
 6030SOL     OW29551   1.978   0.311   3.390  0.0489 -0.1753 -0.2546
 6030SOL    HW129552   1.942   0.361   3.318 -1.0427  1.8721  1.7299
 6030SOL    HW229553   2.046   0.260   3.346 -1.8591 -1.1208 -2.1388
 6031SOL     OW29554   3.470   1.668   7.447  0.2425  0.0754 -0.1703
 6031SOL    HW129555   3.389   1.663   7.396  0.4445 -1.0388 -0.3802
 6031SOL    HW229556   3.527   1.699   7.376 -0.5011 -2.0246 -1.6987
 6032SOL     OW29557   1.853   3.969   0.789  0.2197  0.3764 -0.9709
 6032SOL    HW129558   1.811   3.929   0.866 -1.8778  4.4516 -0.0043
 6032SOL    HW229559   1.934   3.998   0.830  0.1112 -2.4632  1.2669
 6033SOL     OW29560   2.931   1.751  14.426 -0.0926  0.1836  0.0763
 6033SOL    HW129561   2.862   1.701  14.384  0.1193  0.4697 -0.6224
 6033SOL    HW229562   2.981   1.686  14.475 -0.2298  0.2294  0.2742
 6034SOL     OW29563   4.334   2.629   5.466  0.0202 -0.3545  0.0918
 6034SOL    HW129564   4.283   2.606   5.544  0.3635 -0.2919  0.3340
 6034SOL    HW229565   4.323   2.724   5.468  1.4551 -0.2070  1.6539
 6035SOL     OW29566   3.008   1.941  16.260  0.3119  0.2359 -0.6977
 6035SOL    HW129567   2.957   1.970  16.336 -0.3992 -2.5745 -0.0746
 6035SOL    HW229568   3.081   2.002  16.270 -0.5184  1.2890 -1.0438
 6036SOL     OW29569   1.979   1.638   6.363  0.0296  0.7001 -0.2167
 6036SOL    HW129570   1.991   1.719   6.314 -1.4820  1.2888  0.3967
 6036SOL    HW229571   1.959   1.576   6.293  0.1718  0.6966 -0.2548
 6037SOL     OW29572   1.293   2.845   6.111 -0.2723 -0.4663 -0.5319
 6037SOL    HW129573   1.259   2.907   6.175  1.1544  0.8641 -1.0768
 6037SOL    HW229574   1.314   2.909   6.043  3.0017 -0.6386  0.3444
 6038SOL     OW29575   4.590   1.052   0.461 -0.2766  0.3449  0.5117
 6038SOL    HW129576   4.526   1.120   0.439 -1.5867 -1.5586 -1.5920
 6038SOL    HW229577   4.634   1.045   0.376  2.7773  1.6336  2.0016
 6039SOL     OW29578   1.493   4.100   9.227  0.0098  0.5002  0.2862
 6039SOL    HW129579   1.409   4.114   9.271 -0.3769  2.8813 -1.2266
 6039SOL    HW229580   1.503   4.185   9.185  2.9062 -0.1600 -0.3719
 6040SOL     OW29581   0.085   0.024   4.094  0.2689 -0.0194 -0.7559
 6040SOL    HW129582   0.124   4.675   4.141 -1.8788 -1.1387 -0.7712
 6040SOL    HW229583   0.005   4.714   4.055 -1.5650  0.9248  2.1801
 6041SOL     OW29584   1.313   1.793   8.996  0.6939  0.1650 -0.6147
 6041SOL    HW129585   1.281   1.792   8.906  1.8556  1.0139 -1.0361
 6041SOL    HW229586   1.230   1.783   9.043  0.5285 -0.8801 -1.1459
 6042SOL     OW29587   4.065   3.330   4.826  0.4777 -0.2535  0.3672
 6042SOL    HW129588   4.135   3.314   4.763 -1.3153  0.0928 -1.7136
 6042SOL    HW229589   4.030   3.416   4.804 -0.0156 -0.2487  1.1592
 6043SOL     OW29590   1.839   2.827   6.153  0.1884  0.0435  0.1722
 6043SOL    HW129591   1.929   2.829   6.123  0.2743  0.4783  0.4588
 6043SOL    HW229592   1.784   2.812   6.076  3.3390 -1.6592 -1.7175
 6044SOL     OW29593   1.681   3.458   9.528 -0.1231 -0.1191 -0.3970
 6044SOL    HW129594   1.730   3.376   9.515 -1.1073 -0.8687  0.5750
 6044SOL    HW229595   1.759   3.505   9.557 -0.2259 -0.1356 -0.0879
 6045SOL     OW29596   3.701   3.117   9.235 -0.2650  0.2651  0.0422
 6045SOL    HW129597   3.690   3.023   9.251 -1.3327  0.4145  0.2163
 6045SOL    HW229598   3.624   3.157   9.276 -0.7634 -0.9025  0.2551
 6046SOL     OW29599   2.041   4.043   1.631  0.0221 -0.4226 -0.3215
 6046SOL    HW129600   2.055   3.958   1.589  1.4538 -0.4126  0.1366
 6046SOL    HW229601   2.042   4.005   1.719  1.2810  0.8406  0.2035
 6047SOL     OW29602   0.174   0.078   5.429 -0.3838 -0.3363  0.4493
 6047SOL    HW129603   0.201   0.082   5.337  1.0473  0.3331  0.9034
 6047SOL    HW229604   0.255   0.109   5.469 -0.4526  0.3518  0.0535
 6048SOL     OW29605   2.224   3.933   9.989 -0.4790  0.0194  0.2097
 6048SOL    HW129606   2.306   3.981   9.999  0.0709 -0.8106 -0.2907
 6048SOL    HW229607   2.246   3.841  10.005  0.2999  0.3365  1.0325
 6049SOL     OW29608   4.263   4.310   8.228  0.2169  0.0306 -0.3405
 6049SOL    HW129609   4.208   4.235   8.207 -0.8516  0.1983  1.9624
 6049SOL    HW229610   4.252   4.324   8.322  0.1607  0.5325 -0.4216
 6050SOL     OW29611   0.693   3.361  13.166 -0.2916 -0.3267 -0.4669
 6050SOL    HW129612   0.608   3.326  13.192 -0.6091  1.3229  0.7184
 6050SOL    HW229613   0.729   3.284  13.123  2.0342  1.7455 -2.2040
 6051SOL     OW29614   4.669   1.075   3.793 -0.3968  0.1356 -0.2519
 6051SOL    HW129615   4.586   1.037   3.763 -0.4148  0.4831 -0.6517
 6051SOL    HW229616   4.680   1.038   3.881  0.2037 -0.1370 -0.4425
 6052SOL     OW29617   3.291   2.537   5.029  0.0123  0.0646 -0.3041
 6052SOL    HW129618   3.263   2.600   5.096 -0.0895  0.5471 -0.7952
 6052SOL    HW229619   3.266   2.454   5.069 -0.3290  0.5740  0.5318
 6053SOL     OW29620   2.592   3.322  13.208 -0.3144  0.0968 -0.2125
 6053SOL    HW129621   2.498   3.322  13.188 -0.3952  0.1004  0.1798
 6053SOL    HW229622   2.632   3.292  13.126 -0.3949 -0.5264 -0.0229
 6054SOL     OW29623   1.979   0.833   5.686 -0.2916  0.5200 -0.5496
 6054SOL    HW129624   2.065   0.836   5.727 -0.2668  1.7176 -0.6881
 6054SOL    HW229625   1.933   0.780   5.751  0.6237 -0.8290 -1.0187
 6055SOL     OW29626   3.359   1.840   5.197  0.1663  0.4703 -0.2408
 6055SOL    HW129627   3.356   1.818   5.103 -1.6187 -1.0387  0.1568
 6055SOL    HW229628   3.292   1.779   5.228 -0.2144  0.8235 -0.3658
 6056SOL     OW29629   0.285   2.399   7.106 -0.2958 -0.0155 -0.3048
 6056SOL    HW129630   0.330   2.336   7.163 -1.0909 -0.8111 -0.5586
 6056SOL    HW229631   0.338   2.386   7.027  2.2843  2.6926  0.9915
 6057SOL     OW29632   3.702   1.935   8.659 -0.2234 -0.2581  0.1403
 6057SOL    HW129633   3.667   2.022   8.676 -0.3523 -0.2234 -0.3128
 6057SOL    HW229634   3.672   1.917   8.570  1.1730  0.6273 -0.5029
 6058SOL     OW29635   3.823   0.776   0.849 -0.6386  0.1907 -0.1464
 6058SOL    HW129636   3.917   0.768   0.862 -0.8416 -1.2117  0.5153
 6058SOL    HW229637   3.784   0.796   0.934 -1.8155  1.6381 -1.0083
 6059SOL     OW29638   1.255   3.402   7.609 -0.4067  0.1949 -0.1985
 6059SOL    HW129639   1.198   3.372   7.679 -0.2597 -0.4417 -0.3508
 6059SOL    HW229640   1.218   3.489   7.594  1.1126  0.5591 -1.8410
 6060SOL     OW29641   1.020   3.833   0.797  0.5849 -0.1405  0.1471
 6060SOL    HW129642   0.965   3.768   0.754  0.3013 -0.0504  0.3794
 6060SOL    HW229643   1.105   3.824   0.753  0.8866  0.1181  0.6776
 6061SOL     OW29644   0.765   0.344   6.736  0.2899  0.0123  0.4376
 6061SOL    HW129645   0.734   0.275   6.678  2.2368 -1.0682  0.6989
 6061SOL    HW229646   0.829   0.291   6.784  1.1528 -0.6843 -1.5059
 6062SOL     OW29647   3.092   2.067  12.890  0.2739 -0.2987 -0.0013
 6062SOL    HW129648   3.151   2.122  12.839  1.4299 -0.5497  1.0763
 6062SOL    HW229649   3.155   2.041  12.958 -0.8832 -2.3144  0.3223
 6063SOL     OW29650   1.446   0.540   3.712 -0.7943  0.1460 -0.5299
 6063SOL    HW129651   1.367   0.564   3.759 -1.6892 -1.3311 -1.2724
 6063SOL    HW229652   1.413   0.486   3.639 -1.3817  0.8006 -0.7491
 6064SOL     OW29653   1.212   3.256   2.120 -0.3271  0.5267  0.1672
 6064SOL    HW129654   1.170   3.270   2.035  3.5394 -1.6987 -2.1180
 6064SOL    HW229655   1.172   3.172   2.143 -0.1925  0.3549 -0.2195
 6065SOL     OW29656   0.510   1.098  13.212 -0.0170 -0.2440 -0.1771
 6065SOL    HW129657   0.428   1.097  13.164  0.7010  1.7499 -1.4646
 6065SOL    HW229658   0.492   1.063  13.299 -1.8879 -1.5402 -1.1128
 6066SOL     OW29659   4.075   1.996   6.996  0.1838 -0.0402  0.1992
 6066SOL    HW129660   4.171   2.005   6.993  0.0910  0.9513  0.2698
 6066SOL    HW229661   4.056   1.913   6.954 -0.2887  0.1391  0.0645
 6067SOL     OW29662   1.670   0.983  17.459  0.3283  0.0538 -0.2102
 6067SOL    HW129663   1.747   1.031  17.490  0.5657  0.1107 -0.8898
 6067SOL    HW229664   1.595   1.026  17.500  0.4669 -1.7320  1.9093
 6068SOL     OW29665   0.958   3.547   0.845  0.2522 -0.1822 -0.7567
 6068SOL    HW129666   0.997   3.539   0.758  1.4664 -2.5419 -0.0176
 6068SOL    HW229667   0.901   3.470   0.841 -0.7762  0.5527 -0.3270
 6069SOL     OW29668   2.689   0.806  15.424 -0.9718 -0.1073  0.9689
 6069SOL    HW129669   2.638   0.879  15.388 -1.3117 -0.6924  0.2577
 6069SOL    HW229670   2.777   0.842  15.424 -1.0568  0.1013  0.9108
 6070SOL     OW29671   3.525   2.092  12.972 -0.0525  0.0522 -0.1502
 6070SOL    HW129672   3.463   2.110  12.901 -0.2371  0.1004  0.0233
 6070SOL    HW229673   3.516   1.999  12.992 -1.1873  0.7061  2.4579
 6071SOL     OW29674   1.364   4.602  10.783  0.4791 -0.0206 -0.0013
 6071SOL    HW129675   1.443   4.554  10.755  1.5841  1.4304  0.5975
 6071SOL    HW229676   1.322   4.546  10.848  1.0154  1.1718  1.3872
 6072SOL     OW29677   0.156   1.483  12.333 -0.5126 -0.3901 -0.2900
 6072SOL    HW129678   0.074   1.522  12.364 -1.1031 -2.1607  0.3892
 6072SOL    HW229679   0.119   1.421  12.269 -0.8240 -1.0427  0.5302
 6073SOL     OW29680   4.131   0.828   1.755 -0.1450 -0.6734  0.1999
 6073SOL    HW129681   4.223   0.800   1.747  0.0047  0.0046 -0.4369
 6073SOL    HW229682   4.131   0.860   1.845  2.3770 -0.1864  0.0411
 6074SOL     OW29683   3.977   3.812   9.083 -0.9767  0.1156 -0.1692
 6074SOL    HW129684   3.956   3.792   9.175 -0.9898  0.1664 -0.1613
 6074SOL    HW229685   4.065   3.777   9.070 -1.3575 -0.8888 -0.0118
 6075SOL     OW29686   1.226   4.001  13.893  0.2013 -0.6954 -0.3173
 6075SOL    HW129687   1.277   4.054  13.833  0.0747 -3.0934 -2.5490
 6075SOL    HW229688   1.149   3.984  13.839  1.2255 -1.6250 -1.4780
 6076SOL     OW29689   1.372   0.597  14.100 -0.0186 -0.0779  0.0082
 6076SOL    HW129690   1.290   0.638  14.075  1.5756  2.5742 -0.8751
 6076SOL    HW229691   1.386   0.633  14.188 -0.4598 -2.0916  0.9080
 6077SOL     OW29692   4.451   0.093  13.495  0.3006  0.2821 -0.6175
 6077SOL    HW129693   4.468   0.177  13.452  0.5960  1.6016  2.0817
 6077SOL    HW229694   4.406   0.128  13.572 -0.5959 -1.4244 -0.3826
 6078SOL     OW29695   1.595   1.304   5.097  0.0227 -0.1635 -0.2249
 6078SOL    HW129696   1.570   1.396   5.093 -0.3094 -0.2343  0.1941
 6078SOL    HW229697   1.670   1.314   5.157  0.2700 -0.7830 -0.4235
 6079SOL     OW29698   3.762   0.300   8.768  0.2676 -0.2658  0.4880
 6079SOL    HW129699   3.769   0.227   8.706  0.1168  0.7226 -0.6901
 6079SOL    HW229700   3.816   0.275   8.843 -0.7819 -2.4594  0.5241
 6080SOL     OW29701   0.577   3.679   9.962  0.0406  0.5492  0.2443
 6080SOL    HW129702   0.643   3.700  10.028  0.4929 -0.1036 -0.0063
 6080SOL    HW229703   0.507   3.729  10.005 -0.1309  0.2744  0.2901
 6081SOL     OW29704   2.107   4.627  16.199 -0.0126  0.2714  0.1403
 6081SOL    HW129705   2.015   4.652  16.190 -0.5410 -1.2070  1.3354
 6081SOL    HW229706   2.113   4.586  16.286  0.0427 -0.6450 -0.2934
 6082SOL     OW29707   0.552   3.022   5.093  0.1784 -0.2304  0.2938
 6082SOL    HW129708   0.492   2.984   5.157 -1.0513  0.1635 -0.6307
 6082SOL    HW229709   0.495   3.088   5.053  3.4247  1.4253 -1.6652
 6083SOL     OW29710   2.521   3.249   3.826  0.3001  0.2113 -0.4914
 6083SOL    HW129711   2.584   3.319   3.808  2.1676 -0.8850  1.9044
 6083SOL    HW229712   2.578   3.192   3.877  1.3464  2.2320  0.5889
 6084SOL     OW29713   2.403   2.645  10.292  0.1915 -0.1078 -0.0963
 6084SOL    HW129714   2.343   2.573  10.310 -0.9062  0.8451  0.0525
 6084SOL    HW229715   2.355   2.726  10.276  0.2903  0.0446  0.3698
 6085SOL     OW29716   1.085   4.467   6.851  0.0156 -0.5029 -0.0089
 6085SOL    HW129717   1.011   4.491   6.906  0.8781  2.7729 -0.2813
 6085SOL    HW229718   1.137   4.547   6.859 -0.7590 -0.0806  0.7818
 6086SOL     OW29719   0.821   3.846   2.454 -0.0569  0.0752 -0.0730
 6086SOL    HW129720   0.797   3.818   2.543 -0.1364  1.1177  0.2354
 6086SOL    HW229721   0.771   3.927   2.441  0.2856  0.1752 -0.7152
 6087SOL     OW29722   0.583   0.853   5.254 -0.3350  0.0148  0.1299
 6087SOL    HW129723   0.586   0.862   5.159  2.0951 -0.4357  0.1704
 6087SOL    HW229724   0.491   0.831   5.267 -0.5972  0.2794 -1.2836
 6088SOL     OW29725   1.060   3.828  17.312  0.4093 -0.2742  0.3434
 6088SOL    HW129726   1.152   3.833  17.286  0.8095 -0.2039  1.7807
 6088SOL    HW229727   1.077   3.845  17.405 -0.5461  0.9306  0.3108
 6089SOL     OW29728   3.101   1.293   7.003 -0.5012 -0.6055  0.2381
 6089SOL    HW129729   3.050   1.290   6.922 -1.2046  0.9855  0.6110
 6089SOL    HW229730   3.127   1.386   7.005  1.4159 -1.1231 -0.7571
 6090SOL     OW29731   4.383   1.634   7.538  0.9706 -0.0016 -0.4210
 6090SOL    HW129732   4.299   1.651   7.497  0.1370  0.4941  1.5177
 6090SOL    HW229733   4.394   1.540   7.521 -2.4933 -0.5973  0.7214
 6091SOL     OW29734   0.259   1.707   3.701 -0.6203 -0.5739  0.1110
 6091SOL    HW129735   0.243   1.770   3.630 -1.5423  1.1076  1.8186
 6091SOL    HW229736   0.283   1.770   3.769 -1.9428  0.2804 -0.1965
 6092SOL     OW29737   1.576   1.044   4.546  0.1660  0.0026 -0.6201
 6092SOL    HW129738   1.485   1.027   4.522  0.1194 -1.3076  0.4524
 6092SOL    HW229739   1.568   1.126   4.595 -0.7627  0.4285 -1.4867
 6093SOL     OW29740   0.658   0.492  11.555  0.0702 -0.5931  0.1575
 6093SOL    HW129741   0.747   0.525  11.565 -0.6084  1.2850  0.1251
 6093SOL    HW229742   0.623   0.531  11.635  2.9447 -0.0486  1.1517
 6094SOL     OW29743   3.652   3.352   1.172 -0.5410 -0.0900  0.3341
 6094SOL    HW129744   3.584   3.417   1.192 -1.0016 -0.4499 -0.0667
 6094SOL    HW229745   3.703   3.339   1.252 -1.5943  2.3231  1.4162
 6095SOL     OW29746   0.988   0.253   2.173 -0.5009 -0.9930 -0.3417
 6095SOL    HW129747   0.908   0.239   2.122  0.3669 -2.3818 -1.3052
 6095SOL    HW229748   0.969   0.341   2.205  0.6105 -1.6880  2.2369
 6096SOL     OW29749   2.003   2.401  12.016 -0.1983 -0.1423 -0.1901
 6096SOL    HW129750   1.933   2.395  12.081  0.7714 -0.6415  0.8154
 6096SOL    HW229751   1.995   2.314  11.976 -0.4503 -0.0332 -0.3772
 6097SOL     OW29752   4.212   3.913   3.164 -0.4808  0.0074  0.4742
 6097SOL    HW129753   4.216   4.009   3.167  0.6941 -0.0570  1.3357
 6097SOL    HW229754   4.132   3.892   3.214 -1.3106  2.7075  0.2569
 6098SOL     OW29755   3.954   4.253   7.515  0.2360  0.7613 -0.7253
 6098SOL    HW129756   3.900   4.259   7.593  0.4821  0.6964 -0.5519
 6098SOL    HW229757   3.918   4.182   7.461 -1.2010  0.7768  0.2193
 6099SOL     OW29758   2.978   1.018  17.289 -0.0234  0.5455  0.7681
 6099SOL    HW129759   3.014   1.006  17.200 -1.3378 -1.9565  0.5869
 6099SOL    HW229760   3.004   0.943  17.342  0.6699 -0.4829 -1.0283
 6100SOL     OW29761   2.969   0.560   2.026 -0.2116  0.1077  0.2163
 6100SOL    HW129762   3.053   0.535   1.988 -1.5979 -2.7918 -0.9038
 6100SOL    HW229763   2.978   0.655   2.020  0.9076  0.1188  2.0990
 6101SOL     OW29764   1.535   4.456   5.044 -0.0912 -0.4643 -0.1447
 6101SOL    HW129765   1.587   4.474   5.123 -1.8587  0.0713  0.8891
 6101SOL    HW229766   1.514   4.364   5.059 -1.3455  0.0027  0.9755
 6102SOL     OW29767   1.545   1.611   9.952  0.6289 -0.2648 -0.6411
 6102SOL    HW129768   1.469   1.567   9.913  0.5685  0.0866 -0.9250
 6102SOL    HW229769   1.596   1.630   9.873  1.1426  3.3608  0.5297
 6103SOL     OW29770   4.320   1.655   7.820  0.2936 -0.0112  0.5779
 6103SOL    HW129771   4.348   1.585   7.761  0.1452 -1.3475  2.0848
 6103SOL    HW229772   4.251   1.693   7.766  0.1815 -1.0965 -0.0455
 6104SOL     OW29773   3.539   3.229   2.081  0.4183  0.3125 -0.0414
 6104SOL    HW129774   3.607   3.293   2.104 -0.8011  0.1646  3.8824
 6104SOL    HW229775   3.515   3.256   1.992  0.7887  0.1510 -0.1892
 6105SOL     OW29776   2.476   0.847   4.970 -0.7601  0.0333 -0.0140
 6105SOL    HW129777   2.514   0.932   4.947  0.4903 -0.0712  1.6722
 6105SOL    HW229778   2.413   0.879   5.035 -1.7181  2.6865 -2.2026
 6106SOL     OW29779   1.330   1.348  10.891 -0.4245  0.5426  0.1707
 6106SOL    HW129780   1.267   1.283  10.862  0.7851 -0.7977  0.5598
 6106SOL    HW229781   1.411   1.305  10.920 -1.0296 -1.4786 -1.1414
 6107SOL     OW29782   2.328   4.109   6.095 -0.0599  0.2091  0.0634
 6107SOL    HW129783   2.286   4.027   6.120 -0.1893  0.5217  0.8588
 6107SOL    HW229784   2.368   4.083   6.011 -1.5665  1.9280 -1.1778
 6108SOL     OW29785   2.848   1.129   2.140 -0.2645  0.2541 -0.4808
 6108SOL    HW129786   2.804   1.081   2.210  0.4764  1.0569  0.5356
 6108SOL    HW229787   2.772   1.186   2.125 -0.7997 -0.2526  0.2952
 6109SOL     OW29788   4.436   3.742   3.078  0.0466  0.5412 -0.1884
 6109SOL    HW129789   4.365   3.779   3.131  1.3958  4.4191 -1.0405
 6109SOL    HW229790   4.464   3.818   3.026 -0.2746  2.7182  2.7745
 6110SOL     OW29791   2.791   2.101   7.240  0.2997  0.2129 -0.3953
 6110SOL    HW129792   2.777   2.143   7.155  0.3197 -0.0168 -0.5112
 6110SOL    HW229793   2.805   2.179   7.293 -0.6073  0.0803  0.0325
 6111SOL     OW29794   1.770   2.874   8.921 -0.5580 -0.5278  0.0580
 6111SOL    HW129795   1.763   2.838   9.009 -0.9552 -0.3394  0.1046
 6111SOL    HW229796   1.832   2.826   8.866  1.0836 -0.3543  1.7580
 6112SOL     OW29797   4.403   4.343   1.853  0.1455  0.1316  0.0792
 6112SOL    HW129798   4.350   4.418   1.882 -1.7046 -0.5055 -1.6066
 6112SOL    HW229799   4.372   4.276   1.913  0.7117 -0.5218 -0.3622
 6113SOL     OW29800   2.762   1.915  12.309  0.0430  0.2105  0.0077
 6113SOL    HW129801   2.729   1.871  12.231  0.6269 -2.4544  1.2680
 6113SOL    HW229802   2.732   1.858  12.381 -0.5965  2.2384  1.3504
 6114SOL     OW29803   0.251   3.422   5.408  0.5880 -0.0421  0.0198
 6114SOL    HW129804   0.330   3.400   5.358 -0.9868 -1.6729 -1.7698
 6114SOL    HW229805   0.222   3.337   5.439  2.2704 -1.6149 -2.6941
 6115SOL     OW29806   0.287   1.350   6.780 -0.0272 -0.1063 -0.4190
 6115SOL    HW129807   0.257   1.441   6.775  0.3230 -0.0624 -1.7470
 6115SOL    HW229808   0.207   1.299   6.763 -0.6041  0.4108  0.7780
 6116SOL     OW29809   3.288   2.148   9.194  0.0306  0.4216  0.3150
 6116SOL    HW129810   3.322   2.179   9.278  0.8101 -0.2107  0.2295
 6116SOL    HW229811   3.284   2.053   9.205  0.8303  0.3867  0.2741
 6117SOL     OW29812   4.036   4.488   6.793 -0.5467  0.0874  0.1952
 6117SOL    HW129813   4.079   4.574   6.790  1.6218 -1.0383 -1.2916
 6117SOL    HW229814   4.112   4.438   6.762  0.3446  1.6856 -0.2311
 6118SOL     OW29815   1.987   1.025   1.032  0.9981  0.4675  0.8378
 6118SOL    HW129816   2.043   1.000   0.958  1.2415 -2.1682  1.9095
 6118SOL    HW229817   1.981   0.948   1.089  1.7978 -0.9824 -1.0503
 6119SOL     OW29818   3.842   0.907   9.845  0.1699  0.3479 -0.2464
 6119SOL    HW129819   3.899   0.981   9.826 -1.0941  1.4459  0.2363
 6119SOL    HW229820   3.899   0.831   9.854  1.0723  0.9356 -1.0444
 6120SOL     OW29821   1.298   3.774   2.100 -0.5352 -0.5844  0.2893
 6120SOL    HW129822   1.236   3.702   2.090 -1.9402  0.8301 -1.1478
 6120SOL    HW229823   1.329   3.766   2.190  2.0408  0.1963 -0.5213
 6121SOL     OW29824   3.427   2.740   8.513 -0.1242  0.0239  0.4203
 6121SOL    HW129825   3.499   2.679   8.525  0.2170  0.4872  0.7250
 6121SOL    HW229826   3.429   2.781   8.599 -0.3359 -1.0561  0.9373
 6122SOL     OW29827   0.078   0.491  15.979 -0.2321 -0.0228 -0.8323
 6122SOL    HW129828   0.049   0.579  16.005  0.4908 -0.0860  0.1851
 6122SOL    HW229829   0.012   0.429  16.008  1.2799 -1.0506  0.3832
 6123SOL     OW29830   0.046   2.142   6.747  0.0863  0.4399  0.1632
 6123SOL    HW129831   0.128   2.101   6.775 -0.6005 -0.4368  0.8716
 6123SOL    HW229832   0.006   2.066   6.705  0.5633 -0.1094  0.7040
 6124SOL     OW29833   3.658   3.707   8.126 -0.8121 -0.0246  0.4954
 6124SOL    HW129834   3.702   3.628   8.157  1.1945  1.4259  1.3813
 6124SOL    HW229835   3.605   3.676   8.052  2.1246 -0.5098 -1.3906
 6125SOL     OW29836   3.309   4.578   3.629  0.6702 -0.0079 -0.7071
 6125SOL    HW129837   3.235   4.628   3.592 -0.1162  1.0977  2.3667
 6125SOL    HW229838   3.368   4.571   3.554 -0.1866 -1.2096 -1.2567
 6126SOL     OW29839   2.620   1.037   1.287  0.2722 -0.0869 -0.0937
 6126SOL    HW129840   2.623   1.011   1.195  1.8256  1.4676 -0.4683
 6126SOL    HW229841   2.569   1.117   1.298 -1.3002 -0.8819 -1.5859
 6127SOL     OW29842   3.176   2.963   2.691 -0.0594 -0.2213  0.0117
 6127SOL    HW129843   3.171   2.885   2.747 -0.0095 -0.1785  0.0769
 6127SOL    HW229844   3.258   2.955   2.644 -0.1380  1.9600 -0.5033
 6128SOL     OW29845   2.245   1.012   3.043  0.3693 -0.0824 -0.1010
 6128SOL    HW129846   2.283   1.059   3.117  0.1578 -0.3737  0.1956
 6128SOL    HW229847   2.149   1.008   3.050  0.3260  1.6967  0.3935
 6129SOL     OW29848   0.532   3.397   7.760  0.1819  0.4782  0.1333
 6129SOL    HW129849   0.605   3.352   7.802  0.1669  1.2134  0.9540
 6129SOL    HW229850   0.469   3.342   7.805  1.0930 -0.5267  0.1849
 6130SOL     OW29851   0.880   1.101  11.757 -0.0680 -0.0906  0.5398
 6130SOL    HW129852   0.857   1.022  11.805 -0.4415  0.6820  1.6412
 6130SOL    HW229853   0.975   1.091  11.751  0.0684 -0.3146  2.8617
 6131SOL     OW29854   3.152   0.852   5.591  0.1589  0.0910 -0.1472
 6131SOL    HW129855   3.093   0.830   5.518 -0.1753  1.0233 -0.1558
 6131SOL    HW229856   3.112   0.933   5.622 -1.2376 -1.4303  1.9752
 6132SOL     OW29857   4.415   2.559   5.775  0.3800 -0.2704 -0.3496
 6132SOL    HW129858   4.455   2.642   5.748 -1.6407  0.4260 -1.2034
 6132SOL    HW229859   4.489   2.500   5.763 -0.7239 -2.0991  1.8672
 6133SOL     OW29860   1.122   0.263   7.586  0.1650  0.1053  0.4254
 6133SOL    HW129861   1.147   0.328   7.520  2.6694 -1.8305 -0.5421
 6133SOL    HW229862   1.029   0.283   7.597  0.3455  1.2068 -0.0574
 6134SOL     OW29863   0.352   0.075  13.028  0.0630 -0.7028  0.2044
 6134SOL    HW129864   0.346   0.120  12.944 -1.2897  2.3175  1.9003
 6134SOL    HW229865   0.366   4.710  13.000  0.2841 -0.5879 -0.0481
 6135SOL     OW29866   1.067   4.401   7.232  0.3031  0.7132 -0.0589
 6135SOL    HW129867   1.023   4.380   7.315  0.7058 -0.1021 -0.0558
 6135SOL    HW229868   0.983   4.422   7.190 -0.0545  1.5016  1.0396
 6136SOL     OW29869   0.836   2.465   1.962  0.0242  0.2266 -0.3022
 6136SOL    HW129870   0.792   2.426   2.037  1.5347 -0.2455  0.3346
 6136SOL    HW229871   0.866   2.385   1.918  2.3987  0.2743  1.2312
 6137SOL     OW29872   2.217   4.406  14.049  0.3973 -0.3358  0.1285
 6137SOL    HW129873   2.310   4.384  14.047  0.0753 -1.5113 -2.0958
 6137SOL    HW229874   2.181   4.361  13.972 -0.3886 -0.0014  0.2958
 6138SOL     OW29875   3.986   1.319  14.608  0.4669  0.4636  0.1737
 6138SOL    HW129876   4.054   1.337  14.673  0.1903  4.8413 -0.7760
 6138SOL    HW229877   3.900   1.327  14.649  0.5337  1.5228  0.1007
 6139SOL     OW29878   1.823   0.278   9.108  0.2214 -0.6051 -0.1224
 6139SOL    HW129879   1.916   0.265   9.088  0.2224  1.5341 -1.4883
 6139SOL    HW229880   1.818   0.216   9.180 -0.3549  1.4340  1.5864
 6140SOL     OW29881   1.355   3.933   7.050 -0.4782  0.0054 -0.3467
 6140SOL    HW129882   1.308   3.855   7.020 -0.2500  0.2417 -1.3363
 6140SOL    HW229883   1.396   3.969   6.971 -0.7840 -1.4587 -1.1526
 6141SOL     OW29884   3.247   0.141  13.825  0.7042  0.4724  0.1454
 6141SOL    HW129885   3.280   0.069  13.878 -0.4974  0.2894  0.6353
 6141SOL    HW229886   3.318   0.167  13.766  1.9417 -0.1869  1.3735
 6142SOL     OW29887   0.117   1.860  11.201 -0.3073  0.0283  0.0780
 6142SOL    HW129888   0.185   1.869  11.268 -1.6282 -1.2425  1.6019
 6142SOL    HW229889   0.051   1.811  11.251 -0.8070 -0.0309 -0.6371
 6143SOL     OW29890   2.507   0.228   2.750  0.2576 -0.0682 -0.2805
 6143SOL    HW129891   2.450   0.273   2.688 -2.6285 -1.5740  1.3256
 6143SOL    HW229892   2.455   0.210   2.828  0.9466  1.1680  0.4593
 6144SOL     OW29893   4.555   4.371   5.174  0.6576  0.8562 -0.6579
 6144SOL    HW129894   4.571   4.414   5.090 -1.7560 -1.3662 -2.2358
 6144SOL    HW229895   4.643   4.382   5.211  0.4942 -0.8581  0.2129
 6145SOL     OW29896   3.553   2.034  11.792 -0.4812  0.5715 -0.1750
 6145SOL    HW129897   3.647   2.025  11.807  0.1792  1.6599 -3.4862
 6145SOL    HW229898   3.520   1.990  11.870 -2.3390 -0.3052 -1.4477
 6146SOL     OW29899   3.736   4.457  12.868 -0.4636  0.2475  0.6191
 6146SOL    HW129900   3.765   4.531  12.921 -2.0193  0.4967  1.1214
 6146SOL    HW229901   3.824   4.439  12.834 -0.5830  1.1411 -0.1706
 6147SOL     OW29902   3.105   3.498   7.479  0.6614  0.1297 -0.2479
 6147SOL    HW129903   3.062   3.502   7.394  0.9963 -0.0669 -0.4239
 6147SOL    HW229904   3.131   3.408   7.495  0.2971  0.4177  2.0568
 6148SOL     OW29905   0.801   2.916   5.112  0.3751 -0.1388 -0.6979
 6148SOL    HW129906   0.731   2.963   5.068  0.1321  0.7568  0.6604
 6148SOL    HW229907   0.816   2.981   5.180 -2.0944 -0.8298  0.5031
 6149SOL     OW29908   0.181   4.705   3.094 -0.1241  0.1681  0.5220
 6149SOL    HW129909   0.243   4.660   3.037  0.9235  2.6780 -0.3538
 6149SOL    HW229910   0.112   4.638   3.091 -0.3053  0.4408 -1.4274
 6150SOL     OW29911   3.436   2.974   7.671 -0.7460 -0.1672 -0.1717
 6150SOL    HW129912   3.487   2.894   7.669 -1.8419 -0.8740  0.2101
 6150SOL    HW229913   3.409   2.975   7.763  1.4427 -2.9479  0.4895
 6151SOL     OW29914   2.652   0.044  13.964 -0.4645  0.2664  0.3677
 6151SOL    HW129915   2.697   0.048  13.880 -3.7881 -0.3885 -1.4025
 6151SOL    HW229916   2.665   0.131  14.002 -1.1027 -0.2554  1.8005
 6152SOL     OW29917   0.185   4.355  16.770 -0.3171  0.2986 -0.2929
 6152SOL    HW129918   0.175   4.261  16.756  1.1761 -0.0074  0.6738
 6152SOL    HW229919   0.159   4.379  16.681 -2.0172 -0.8375 -0.1068
 6153SOL     OW29920   2.670   1.893   2.392 -0.0907  0.5276  0.1867
 6153SOL    HW129921   2.690   1.799   2.390 -0.4811  0.4404  0.3481
 6153SOL    HW229922   2.671   1.915   2.485  1.4192 -0.9322  0.5069
 6154SOL     OW29923   1.403   1.190   3.212  0.3543  0.4182 -0.3737
 6154SOL    HW129924   1.335   1.245   3.173  0.4866  0.5774 -0.3781
 6154SOL    HW229925   1.479   1.247   3.198  0.2417  0.9562  1.2637
 6155SOL     OW29926   0.060   4.492   3.351  0.6371  0.4738 -0.6740
 6155SOL    HW129927   0.132   4.511   3.290 -1.2685  1.1823 -2.6821
 6155SOL    HW229928   0.041   4.407   3.312 -3.0838  0.9773  0.0283
 6156SOL     OW29929   1.599   2.834   9.978 -0.9062  0.3120  0.7896
 6156SOL    HW129930   1.593   2.738   9.986 -2.0040  0.4857  1.9048
 6156SOL    HW229931   1.647   2.875  10.049 -1.3185  1.9156  0.1399
 6157SOL     OW29932   3.097   1.384   6.437  0.0543 -0.1808  0.0787
 6157SOL    HW129933   3.100   1.437   6.357 -0.5498 -2.7294 -1.6340
 6157SOL    HW229934   3.131   1.448   6.499 -0.7903  1.4753 -1.1686
 6158SOL     OW29935   4.304   4.245   7.085  0.2320 -0.4196 -0.1944
 6158SOL    HW129936   4.391   4.221   7.052  0.2914  1.9093 -1.6883
 6158SOL    HW229937   4.319   4.294   7.166 -2.6557 -2.1216  1.3547
 6159SOL     OW29938   3.172   0.429   7.503 -0.6165  0.0283  0.3325
 6159SOL    HW129939   3.184   0.380   7.422 -0.3732  0.1864  0.2710
 6159SOL    HW229940   3.235   0.393   7.566 -0.7139  0.8750  0.9225
 6160SOL     OW29941   0.723   2.827   9.061  0.0617  0.2455  0.1322
 6160SOL    HW129942   0.655   2.761   9.048 -0.3152  1.1398 -2.3386
 6160SOL    HW229943   0.680   2.902   9.020  0.7625 -0.3474 -1.6817
 6161SOL     OW29944   3.098   3.726  17.040 -0.4507 -0.1456  0.4204
 6161SOL    HW129945   3.137   3.661  16.982 -0.3477  0.9776 -0.7517
 6161SOL    HW229946   3.150   3.707  17.118 -0.8926  0.1970  0.8018
 6162SOL     OW29947   2.054   1.328   8.412  0.1716  0.5557 -0.2079
 6162SOL    HW129948   2.084   1.348   8.500 -0.8225 -0.9735  0.4812
 6162SOL    HW229949   2.020   1.239   8.421  1.8798 -0.1536 -0.7812
 6163SOL     OW29950   4.620   1.314   7.013  0.2272  0.2108  0.1729
 6163SOL    HW129951   4.552   1.250   7.033  0.7437  0.2209  1.9458
 6163SOL    HW229952   4.586   1.400   7.035 -2.1672 -1.0554  1.3385
 6164SOL     OW29953   2.216   4.078  10.242 -0.4435 -0.3108 -0.1099
 6164SOL    HW129954   2.136   4.089  10.294 -0.3683  0.0571 -0.0680
 6164SOL    HW229955   2.209   3.989  10.207  0.9389 -0.6189  0.4066
 6165SOL     OW29956   4.346   2.565  13.081 -0.6231  0.2089 -0.5295
 6165SOL    HW129957   4.407   2.624  13.036  1.0354 -0.1490  1.2397
 6165SOL    HW229958   4.263   2.613  13.078 -1.1890 -0.7392 -0.0316
 6166SOL     OW29959   4.647   4.381  16.026 -0.1945 -0.1530  0.2233
 6166SOL    HW129960   4.623   4.349  15.939  2.5530  3.1304 -1.7314
 6166SOL    HW229961   0.012   4.411  16.013 -0.7873  1.2041 -0.7238
 6167SOL     OW29962   4.275   3.560   4.484  0.1049 -0.3027 -0.7419
 6167SOL    HW129963   4.286   3.655   4.491 -2.4995  0.0314 -1.0634
 6167SOL    HW229964   4.360   3.530   4.452 -0.0918 -0.0814 -1.4762
 6168SOL     OW29965   1.548   0.970   2.390  0.1028 -0.1449  0.1332
 6168SOL    HW129966   1.609   1.040   2.413  0.1472 -0.1818  0.1280
 6168SOL    HW229967   1.476   1.013   2.436 -0.6704 -0.6487 -0.6092
 6169SOL     OW29968   2.127   1.606  11.604  0.0510 -0.0054  0.0102
 6169SOL    HW129969   2.189   1.545  11.564  1.3342  0.9814  0.4875
 6169SOL    HW229970   2.062   1.541  11.631  1.2843 -1.8577 -1.5897
 6170SOL     OW29971   4.124   0.362  10.809 -0.1287 -0.4474  0.2305
 6170SOL    HW129972   4.106   0.368  10.903 -0.1689  2.8407  0.0161
 6170SOL    HW229973   4.214   0.394  10.822 -0.1072  0.2772 -1.6486
 6171SOL     OW29974   0.541   2.195   3.687  0.0524  0.3077  0.3881
 6171SOL    HW129975   0.529   2.285   3.717  0.8423  0.1114  1.3010
 6171SOL    HW229976   0.456   2.179   3.647  0.4285 -1.2255  0.1859
 6172SOL     OW29977   0.032   2.977   3.179 -0.0888  0.2479 -0.1181
 6172SOL    HW129978   0.017   2.958   3.087  0.5687 -0.2948 -0.1130
 6172SOL    HW229979   4.686   2.933   3.226  0.5763 -0.2561  0.4173
 6173SOL     OW29980   0.969   3.716   3.311 -0.0527 -0.3711  0.6411
 6173SOL    HW129981   0.954   3.768   3.232  4.1840  0.9460  0.7244
 6173SOL    HW229982   1.008   3.641   3.266  3.8281  0.5790  2.4888
 6174SOL     OW29983   2.936   3.502   6.918  1.0368 -0.0327 -0.2122
 6174SOL    HW129984   3.008   3.500   6.855  2.1011  2.6234  0.9127
 6174SOL    HW229985   2.926   3.597   6.921 -2.1416 -0.3883  0.9121
 6175SOL     OW29986   2.801   4.150  16.264 -0.5679 -0.4744 -0.1851
 6175SOL    HW129987   2.785   4.067  16.219 -0.3178 -0.7967  0.3204
 6175SOL    HW229988   2.885   4.164  16.220 -0.8304 -1.7592 -1.0988
 6176SOL     OW29989   4.503   2.333   2.617  0.1411 -0.0722  0.3909
 6176SOL    HW129990   4.570   2.377   2.564  0.9659  0.4125  1.8525
 6176SOL    HW229991   4.465   2.405   2.666 -1.0190 -0.1777 -0.3561
 6177SOL     OW29992   0.745   1.294  10.294  0.0597 -0.6045  0.1216
 6177SOL    HW129993   0.713   1.271  10.207  2.2317  0.7453 -1.0522
 6177SOL    HW229994   0.818   1.232  10.302  1.2548  0.8898  0.8537
 6178SOL     OW29995   2.765   3.529   4.704 -0.5122  0.1534 -0.1476
 6178SOL    HW129996   2.789   3.545   4.613  0.8642  0.9362  0.3562
 6178SOL    HW229997   2.849   3.516   4.747 -0.7098 -0.1821  0.1401
 6179SOL     OW29998   2.430   0.793   6.986  0.0247  0.2542 -0.4164
 6179SOL    HW129999   2.403   0.796   6.894  2.7110 -1.4684 -1.2569
 6179SOL    HW230000   2.460   0.884   6.982  2.1453 -0.4829 -1.2861
 6180SOL     OW30001   4.468   0.690  12.857  0.1260  0.1265  0.3352
 6180SOL    HW130002   4.518   0.720  12.781  0.2755  0.2333  0.4769
 6180SOL    HW230003   4.394   0.642  12.819 -0.1366  0.5523  0.3091
 6181SOL     OW30004   3.941   3.627   8.024 -0.3030  0.2259  0.0026
 6181SOL    HW130005   4.034   3.633   8.043 -0.4792  0.1089  0.9231
 6181SOL    HW230006   3.928   3.708   7.975 -2.7888  0.7082  1.4309
 6182SOL     OW30007   1.465   4.556   6.952  0.4626  0.2207  0.0811
 6182SOL    HW130008   1.404   4.494   6.990  1.2711  0.4463  1.7712
 6182SOL    HW230009   1.479   4.614   7.027  0.2181 -0.6507  0.7930
 6183SOL     OW30010   2.167   4.180   5.272 -0.3061 -0.0701  0.2680
 6183SOL    HW130011   2.082   4.205   5.308 -1.0425 -0.4622 -1.2445
 6183SOL    HW230012   2.185   4.102   5.325 -0.0747  1.1404  1.9931
 6184SOL     OW30013   4.359   2.602   6.274  0.6194 -0.5507  0.3570
 6184SOL    HW130014   4.426   2.664   6.244 -0.5248  0.8720  0.7832
 6184SOL    HW230015   4.418   2.545   6.323 -1.4844 -2.3475  0.7882
 6185SOL     OW30016   4.632   1.525  16.751  0.2266  0.5926 -0.1172
 6185SOL    HW130017   4.625   1.570  16.836 -2.9806  0.4429 -0.3232
 6185SOL    HW230018   4.541   1.506  16.730  0.5362  1.3554 -2.1116
 6186SOL     OW30019   3.789   0.887   8.257  0.6069  0.1640 -0.0588
 6186SOL    HW130020   3.800   0.848   8.344 -1.6698  0.9373  0.5821
 6186SOL    HW230021   3.736   0.817   8.219  1.4288 -0.1720 -0.5762
 6187SOL     OW30022   3.497   4.385   7.026  0.3002  0.4285  0.1918
 6187SOL    HW130023   3.406   4.415   7.028 -0.1511 -0.7860 -1.7557
 6187SOL    HW230024   3.515   4.379   6.932 -0.5389 -3.1961  0.2447
 6188SOL     OW30025   4.506   1.072   4.685  0.3949  0.7048  0.1845
 6188SOL    HW130026   4.598   1.057   4.662  0.4887 -0.9702  1.7275
 6188SOL    HW230027   4.488   0.983   4.716 -0.3776  0.1831 -1.7735
 6189SOL     OW30028   4.187   0.128   0.259  0.2749  0.1175 -0.0292
 6189SOL    HW130029   4.134   0.085   0.192  0.3493  1.2044 -0.7980
 6189SOL    HW230030   4.232   0.188   0.199 -0.4041 -0.3621 -1.0284
 6190SOL     OW30031   4.280   2.548  16.897 -0.6377  0.2495  0.3463
 6190SOL    HW130032   4.249   2.464  16.931  1.4294 -1.5565 -2.1798
 6190SOL    HW230033   4.219   2.604  16.945  1.5462  1.4870  1.7119
 6191SOL     OW30034   1.793   2.134   5.605 -0.2763 -0.0463  0.1280
 6191SOL    HW130035   1.779   2.049   5.646  0.0998 -0.0402  0.2627
 6191SOL    HW230036   1.778   2.107   5.514 -0.7682 -1.7408  0.7234
 6192SOL     OW30037   2.267   1.620   0.765  0.0065 -0.2909  0.0826
 6192SOL    HW130038   2.277   1.625   0.670 -0.1070  0.0731  0.0911
 6192SOL    HW230039   2.333   1.680   0.801 -1.4938  1.4136 -0.0091
 6193SOL     OW30040   4.638   3.254   2.465 -0.0167 -0.2922 -0.7456
 6193SOL    HW130041   4.594   3.319   2.519  1.0121 -1.2662  1.2912
 6193SOL    HW230042   4.575   3.217   2.403 -2.5215  0.1506  1.5821
 6194SOL     OW30043   2.133   0.190  17.520 -0.1534  0.3218  0.3993
 6194SOL    HW130044   2.154   0.283  17.528  1.0718  0.1963 -1.2006
 6194SOL    HW230045   2.155   0.161  17.608 -0.9057 -0.2342  0.4009
 6195SOL     OW30046   2.333   1.189   3.817 -0.0793 -0.2866  0.2438
 6195SOL    HW130047   2.424   1.201   3.845  0.4764 -0.1930 -1.6151
 6195SOL    HW230048   2.346   1.107   3.769  0.4601  0.3142 -0.6381
 6196SOL     OW30049   4.503   0.416   2.030 -0.3132  0.2027 -0.3185
 6196SOL    HW130050   4.456   0.338   2.060 -1.7427  0.1650 -2.6463
 6196SOL    HW230051   4.429   0.463   1.993 -0.4301  1.5968  1.7254
 6197SOL     OW30052   2.878   2.447   8.050 -0.1906 -0.0791  0.4109
 6197SOL    HW130053   2.954   2.448   7.990 -0.5333  0.7969 -0.0185
 6197SOL    HW230054   2.908   2.373   8.103  2.0517  1.0555  0.7432
 6198SOL     OW30055   0.096   2.650  13.337 -0.3356 -0.3489 -0.2296
 6198SOL    HW130056   0.084   2.725  13.279  0.0016 -0.9767 -1.1199
 6198SOL    HW230057   0.080   2.581  13.272 -0.0841  0.1902 -0.8585
 6199SOL     OW30058   0.390   2.001   9.256 -0.2615 -0.3940  0.2946
 6199SOL    HW130059   0.347   2.062   9.315 -2.5410 -2.0829  0.3925
 6199SOL    HW230060   0.330   1.928   9.244 -0.1825 -0.4423  0.1895
 6200SOL     OW30061   3.121   1.944  15.849  0.4015 -0.6051 -0.1287
 6200SOL    HW130062   3.057   1.994  15.799  0.8029 -0.8924 -0.9167
 6200SOL    HW230063   3.177   2.018  15.874  0.4844 -0.7193  0.0302
 6201SOL     OW30064   0.731   2.268   1.626 -0.3494 -0.2620 -0.8326
 6201SOL    HW130065   0.715   2.176   1.606  0.8372 -0.5402 -0.4481
 6201SOL    HW230066   0.708   2.311   1.544 -1.0557  2.8730  1.0001
 6202SOL     OW30067   4.318   2.645   4.823 -0.0968 -0.3426  1.2899
 6202SOL    HW130068   4.365   2.570   4.785 -0.9991 -0.8336  1.1359
 6202SOL    HW230069   4.318   2.700   4.745  2.5052 -2.4569 -0.2085
 6203SOL     OW30070   3.729   0.093  16.900  0.1675  0.4521  0.1451
 6203SOL    HW130071   3.675   0.074  16.823 -1.2916  0.8399  1.0615
 6203SOL    HW230072   3.710   0.018  16.957 -0.6868  0.5009 -0.0764
 6204SOL     OW30073   2.185   3.829   8.509  0.3618  0.0315 -0.2464
 6204SOL    HW130074   2.103   3.867   8.477 -0.0119  0.9895  1.8479
 6204SOL    HW230075   2.142   3.797   8.588 -0.9622 -1.8251 -1.7218
 6205SOL     OW30076   1.446   0.103   3.467  0.3303  0.2206  0.2987
 6205SOL    HW130077   1.354   0.079   3.457  0.7190 -1.1735  0.1620
 6205SOL    HW230078   1.442   0.199   3.467 -1.1427  0.1520  0.0531
 6206SOL     OW30079   3.897   2.090  14.933 -0.1961 -0.1867  0.4112
 6206SOL    HW130080   3.815   2.113  14.890 -0.3766 -0.7196  0.4762
 6206SOL    HW230081   3.866   2.027  14.998  0.3899 -1.8102 -0.8897
 6207SOL     OW30082   0.127   2.889   6.036  0.1439 -0.1576  0.3560
 6207SOL    HW130083   0.040   2.849   6.030 -0.6520  1.2152  2.9475
 6207SOL    HW230084   0.130   2.936   5.952  0.4488 -0.9674 -0.0890
 6208SOL     OW30085   2.127   4.006   9.542 -0.0214 -0.1880  0.7517
 6208SOL    HW130086   2.219   4.016   9.565  0.0908 -1.0058  0.6486
 6208SOL    HW230087   2.088   3.983   9.626  1.7336 -0.9453  1.3540
 6209SOL     OW30088   0.211   4.372   7.351 -0.1625  0.0939  0.0545
 6209SOL    HW130089   0.195   4.281   7.375 -0.3540  0.4149  1.1326
 6209SOL    HW230090   0.119   4.398   7.343 -0.4535 -0.1692  2.5167
 6210SOL     OW30091   0.717   1.447  16.865  0.1996  0.4544 -0.0424
 6210SOL    HW130092   0.656   1.440  16.938  0.0136 -2.6508 -0.4922
 6210SOL    HW230093   0.651   1.443  16.796  0.0284 -1.6191  0.2313
 6211SOL     OW30094   4.284   2.156   0.584  0.3010 -0.0617  0.1131
 6211SOL    HW130095   4.193   2.172   0.560  0.2855 -1.8446 -0.9709
 6211SOL    HW230096   4.290   2.155   0.680  0.3748  1.4088  0.1334
 6212SOL     OW30097   1.991   1.160   6.989  0.1337 -0.7956  0.0660
 6212SOL    HW130098   2.001   1.222   6.917  0.1716 -2.0867 -1.0625
 6212SOL    HW230099   1.923   1.208   7.035  0.1202 -0.2444 -0.5276
 6213SOL     OW30100   2.122   2.257  10.880 -0.3624  0.0629  0.6744
 6213SOL    HW130101   2.153   2.167  10.876  0.2834  0.2491  1.5118
 6213SOL    HW230102   2.170   2.291  10.955  0.2838  1.7377 -0.4779
 6214SOL     OW30103   1.936   3.458   9.274 -0.5710  0.1734 -0.2565
 6214SOL    HW130104   2.013   3.506   9.242  1.1759 -1.5695  1.3428
 6214SOL    HW230105   1.957   3.372   9.237 -0.7284 -0.4631  1.1308
 6215SOL     OW30106   1.412   3.255   3.512  0.1806 -0.0241  0.7369
 6215SOL    HW130107   1.452   3.300   3.586  0.2439  1.2856 -0.0902
 6215SOL    HW230108   1.489   3.201   3.493  0.4850  0.1189  1.5655
 6216SOL     OW30109   3.240   2.434  13.458  0.1655  0.4853  0.2667
 6216SOL    HW130110   3.180   2.360  13.473  1.1938 -0.3259  0.3865
 6216SOL    HW230111   3.196   2.483  13.388 -1.0955 -1.8496 -0.5772
 6217SOL     OW30112   0.105   0.382  16.638 -0.3988  0.7380 -0.7085
 6217SOL    HW130113   0.081   0.443  16.568 -0.6839  0.8316 -0.5303
 6217SOL    HW230114   0.171   0.427  16.690  0.4729 -1.4220  0.0613
 6218SOL     OW30115   1.759   3.858   4.837 -0.1009 -0.4061 -0.0837
 6218SOL    HW130116   1.697   3.904   4.893 -2.6795 -1.3597 -2.1835
 6218SOL    HW230117   1.836   3.854   4.894  0.1817  1.5115 -0.3470
 6219SOL     OW30118   2.485   2.026   1.310  0.3183 -0.2728 -0.2729
 6219SOL    HW130119   2.498   1.972   1.388  3.9319  0.6630 -0.2108
 6219SOL    HW230120   2.390   2.022   1.299  0.2902 -0.7055  0.1303
 6220SOL     OW30121   2.186   0.862  17.369  0.1551 -0.3628 -0.1968
 6220SOL    HW130122   2.254   0.877  17.435  0.3623 -1.6931 -0.1065
 6220SOL    HW230123   2.185   0.766  17.375 -0.7957 -0.2966  0.7874
 6221SOL     OW30124   1.536   4.439   1.260  0.0826  0.5208 -0.2976
 6221SOL    HW130125   1.508   4.492   1.335 -0.7220 -2.9187  1.8347
 6221SOL    HW230126   1.594   4.380   1.309 -0.2114  1.8634  1.6729
 6222SOL     OW30127   1.209   1.779   8.370  0.8031 -0.3179 -0.2454
 6222SOL    HW130128   1.129   1.739   8.337 -0.2697  2.6695 -1.2306
 6222SOL    HW230129   1.261   1.703   8.396  1.8631 -0.3845 -2.6274
 6223SOL     OW30130   0.187   2.295  15.408 -0.3485 -0.6366 -0.1111
 6223SOL    HW130131   0.241   2.356  15.357  1.7121 -0.7591  1.9022
 6223SOL    HW230132   0.248   2.285  15.481 -2.2892 -0.3488  1.5650
 6224SOL     OW30133   2.437   2.751   8.406 -0.0454  0.4088 -0.1902
 6224SOL    HW130134   2.414   2.735   8.315 -0.9453 -0.7032  0.2270
 6224SOL    HW230135   2.366   2.814   8.421  0.4779  0.9291  0.0852
 6225SOL     OW30136   4.067   2.179   5.000  0.4292  0.0641  0.7670
 6225SOL    HW130137   4.117   2.256   4.974  0.1421  0.4818  1.4306
 6225SOL    HW230138   4.143   2.132   5.035  1.3392  0.4167 -0.7320
 6226SOL     OW30139   0.117   0.877   2.269 -0.1795  0.2006 -0.2154
 6226SOL    HW130140   0.029   0.889   2.233  0.6467 -0.6763 -2.5609
 6226SOL    HW230141   0.159   0.941   2.212  0.4119 -0.0190 -0.0267
 6227SOL     OW30142   4.428   3.289   1.568 -0.1636  0.1998 -0.4228
 6227SOL    HW130143   4.375   3.275   1.646  1.3927 -0.4759  0.5205
 6227SOL    HW230144   4.514   3.308   1.607 -0.0660 -0.2262 -0.4397
 6228SOL     OW30145   1.048   4.281  12.232  0.6652 -0.3899 -0.0781
 6228SOL    HW130146   1.043   4.323  12.318  0.7462 -0.2479 -0.1431
 6228SOL    HW230147   1.078   4.355  12.180 -0.3366 -0.8017 -1.2366
 6229SOL     OW30148   3.060   2.920   2.188  0.4115  0.0658 -0.3688
 6229SOL    HW130149   3.049   2.887   2.277  0.3654  1.5210  0.1795
 6229SOL    HW230150   2.995   2.991   2.191 -0.6241 -0.8909 -0.4471
 6230SOL     OW30151   3.839   0.995   0.383  1.0079  0.3556  0.1617
 6230SOL    HW130152   3.896   0.939   0.436  0.8084  0.9991  1.0636
 6230SOL    HW230153   3.909   1.034   0.331  0.6195  0.1270 -0.5277
 6231SOL     OW30154   2.200   1.657   9.120 -1.0480 -0.4850  0.0392
 6231SOL    HW130155   2.256   1.614   9.055 -0.9496 -1.1056  0.5387
 6231SOL    HW230156   2.174   1.745   9.093  1.9418  0.1237 -0.7999
 6232SOL     OW30157   1.627   0.793   6.124 -0.2508 -0.1296  0.0123
 6232SOL    HW130158   1.543   0.765   6.087 -0.2245 -0.3546  0.1245
 6232SOL    HW230159   1.613   0.885   6.147 -0.0735 -0.6775  2.2855
 6233SOL     OW30160   4.393   2.252   4.895 -0.4905  0.3300  0.0832
 6233SOL    HW130161   4.316   2.300   4.923 -0.1198 -0.0622  1.7963
 6233SOL    HW230162   4.411   2.195   4.970 -3.5787 -0.0368  0.5413
 6234SOL     OW30163   0.835   0.249   7.334  0.0620 -0.0747 -0.5639
 6234SOL    HW130164   0.820   0.338   7.365  0.9945  0.1612 -0.8112
 6234SOL    HW230165   0.813   0.195   7.410  1.7919  0.5341  0.3493
 6235SOL     OW30166   2.823   0.012   5.969 -0.1414 -0.4341 -0.0491
 6235SOL    HW130167   2.862   0.080   6.024 -0.8776  1.3484 -1.7554
 6235SOL    HW230168   2.903   4.692   5.940 -0.7919 -1.9232  0.4370
 6236SOL     OW30169   0.478   4.263   6.688  0.2128  0.2378  0.4344
 6236SOL    HW130170   0.494   4.204   6.761 -1.9893 -0.6326  0.2205
 6236SOL    HW230171   0.398   4.312   6.705  0.4624  0.9983 -0.5868
 6237SOL     OW30172   4.700   2.861   2.924  0.0427 -0.6320  0.4356
 6237SOL    HW130173   4.610   2.850   2.955  0.2659 -2.9347  0.2204
 6237SOL    HW230174   4.676   2.835   2.836 -0.2611 -2.3241  1.0270
 6238SOL     OW30175   1.350   2.939   1.764 -0.1389  0.1614  0.4945
 6238SOL    HW130176   1.299   2.935   1.684  0.3134  0.9762  0.1683
 6238SOL    HW230177   1.373   3.032   1.767  2.6467 -0.5838  2.2780
 6239SOL     OW30178   0.267   4.519   4.148  0.5436 -0.4142 -0.9212
 6239SOL    HW130179   0.304   4.466   4.077  0.3211 -0.4089 -1.0426
 6239SOL    HW230180   0.347   4.566   4.170 -1.2759  1.9303  0.7262
 6240SOL     OW30181   4.536   2.677   4.620  0.0257  0.1329 -0.1997
 6240SOL    HW130182   4.513   2.584   4.623  1.2747 -0.1486  0.7903
 6240SOL    HW230183   4.630   2.676   4.636 -0.4425 -0.6870  2.5360
 6241SOL     OW30184   3.416   3.353   6.610 -0.8291  0.5619  0.1537
 6241SOL    HW130185   3.431   3.431   6.664 -1.4674  1.2307 -0.6240
 6241SOL    HW230186   3.450   3.380   6.525 -0.6991  0.2462  0.1077
 6242SOL     OW30187   2.541   1.914  11.039  0.0031  0.1628 -0.4021
 6242SOL    HW130188   2.453   1.894  11.006  0.7426 -2.1622 -0.9326
 6242SOL    HW230189   2.534   1.910  11.134 -1.2568 -1.0024 -0.5402
 6243SOL     OW30190   0.649   3.332   2.997 -0.1703  0.8621  0.2554
 6243SOL    HW130191   0.583   3.273   2.962  0.6976  0.7254 -1.1266
 6243SOL    HW230192   0.701   3.364   2.923  1.7786  1.1240  1.7177
 6244SOL     OW30193   2.667   3.200   8.669 -0.1212  0.5047 -0.4010
 6244SOL    HW130194   2.705   3.233   8.587 -0.9791 -0.6281 -1.2623
 6244SOL    HW230195   2.748   3.165   8.707 -0.4477  1.8463  1.5450
 6245SOL     OW30196   1.142   1.517   7.420 -0.5146 -0.6708 -0.3009
 6245SOL    HW130197   1.235   1.537   7.413 -0.5110 -0.0281  1.7515
 6245SOL    HW230198   1.119   1.517   7.327 -2.7330 -0.8343  0.2610
 6246SOL     OW30199   3.114   0.602   8.176 -0.0630 -0.1406 -0.5437
 6246SOL    HW130200   3.064   0.531   8.216 -0.4474 -0.6855 -2.0019
 6246SOL    HW230201   3.094   0.583   8.085  2.2444 -1.3852 -0.7690
 6247SOL     OW30202   2.978   4.629   6.747 -0.3662  0.1228 -0.1861
 6247SOL    HW130203   2.929   4.659   6.670 -1.5783  1.3561  1.0779
 6247SOL    HW230204   3.063   4.610   6.706  0.9026  0.9776  2.0456
 6248SOL     OW30205   1.953   3.964   6.943 -0.3000  0.3095  0.2311
 6248SOL    HW130206   1.945   3.983   6.850 -1.0216 -3.1727 -0.3855
 6248SOL    HW230207   1.905   4.039   6.980  0.5787  1.5351 -1.1212
 6249SOL     OW30208   0.443   1.213  14.696  0.0925 -0.6798 -0.1227
 6249SOL    HW130209   0.505   1.241  14.764 -0.8131  2.1345 -0.4616
 6249SOL    HW230210   0.484   1.131  14.668  1.9127  0.4415 -0.7678
 6250SOL     OW30211   1.187   3.022   7.766 -0.2686  0.0047 -0.1866
 6250SOL    HW130212   1.249   3.090   7.793  0.9669 -1.3965  0.5099
 6250SOL    HW230213   1.187   2.975   7.849  0.2231 -1.5076 -1.0370
 6251SOL     OW30214   4.006   1.831   0.661 -0.2106  0.3600  1.2142
 6251SOL    HW130215   4.038   1.876   0.583  0.1136  0.7090  1.5482
 6251SOL    HW230216   3.965   1.905   0.706 -0.1205 -0.2073  2.2283
 6252SOL     OW30217   3.773   3.728   4.657  0.3560  0.3677 -0.0558
 6252SOL    HW130218   3.729   3.807   4.689  1.6232  1.6715 -1.5105
 6252SOL    HW230219   3.701   3.697   4.601  0.3913  0.4986 -0.1736
 6253SOL     OW30220   4.074   4.517   9.636 -0.1507 -0.2420  0.0045
 6253SOL    HW130221   4.125   4.524   9.555 -2.5360  0.5601 -1.4523
 6253SOL    HW230222   4.147   4.499   9.695  0.0256  1.0673  0.1736
 6254SOL     OW30223   4.295   0.829   8.374  0.1868  0.3487 -0.2525
 6254SOL    HW130224   4.355   0.754   8.368  2.3725  2.2881 -2.8217
 6254SOL    HW230225   4.280   0.841   8.281 -1.1380  2.8857  0.3062
 6255SOL     OW30226   1.523   3.339   7.569  0.1105 -0.8799  0.5109
 6255SOL    HW130227   1.575   3.386   7.634 -0.0976 -0.0549  0.0935
 6255SOL    HW230228   1.437   3.367   7.601  0.8234  1.9444 -0.0520
 6256SOL     OW30229   0.125   3.486   3.254  0.3811 -0.3963  0.1352
 6256SOL    HW130230   0.101   3.404   3.210 -0.3670  0.4894 -1.1269
 6256SOL    HW230231   0.220   3.486   3.238  0.5708 -0.2537  1.2540
 6257SOL     OW30232   3.823   3.343   8.949 -0.6849 -0.0279 -0.2362
 6257SOL    HW130233   3.788   3.364   9.035 -2.1071  0.2681 -0.8899
 6257SOL    HW230234   3.811   3.248   8.953 -1.3081  0.0229 -0.7583
 6258SOL     OW30235   4.010   1.733  15.319 -0.5762 -0.1305 -0.7261
 6258SOL    HW130236   4.036   1.641  15.323 -1.4511 -0.3145  0.9214
 6258SOL    HW230237   4.069   1.779  15.260  0.2260  0.9950  0.9544
 6259SOL     OW30238   1.504   1.220   4.038  0.2945  0.6014 -0.0819
 6259SOL    HW130239   1.473   1.235   4.127 -0.7793  0.8302 -0.4874
 6259SOL    HW230240   1.419   1.202   3.997 -0.2931 -0.7229  1.7192
 6260SOL     OW30241   0.247   4.423   5.870  0.4116 -0.4924  0.2699
 6260SOL    HW130242   0.213   4.356   5.810  2.4587  0.6183 -2.0984
 6260SOL    HW230243   0.183   4.413   5.941 -0.1347  0.7191 -0.0548
 6261SOL     OW30244   2.188   2.124   5.270  0.0361 -0.0602 -0.2965
 6261SOL    HW130245   2.110   2.069   5.267  0.9036 -1.3193  0.6203
 6261SOL    HW230246   2.260   2.063   5.287  2.5187  2.8506 -0.3348
 6262SOL     OW30247   1.463   1.072   8.713  0.6192 -0.3373 -0.8975
 6262SOL    HW130248   1.397   1.100   8.776  1.3937 -0.7790  0.1136
 6262SOL    HW230249   1.497   1.154   8.678  1.5172  1.0729  3.2405
 6263SOL     OW30250   0.771   2.894   0.615 -0.3205 -0.0863 -0.2829
 6263SOL    HW130251   0.823   2.918   0.692  0.2752 -0.2017 -0.6468
 6263SOL    HW230252   0.686   2.869   0.652  2.3827 -3.3302  3.7520
 6264SOL     OW30253   3.555   3.169   5.006  0.1072 -0.2325 -0.4048
 6264SOL    HW130254   3.591   3.247   5.048  2.9996 -1.9090  0.2595
 6264SOL    HW230255   3.527   3.115   5.080  1.7702  0.4053  0.6692
 6265SOL     OW30256   2.301   0.329   4.797  0.0010 -0.4192  0.8226
 6265SOL    HW130257   2.325   0.421   4.790  1.8012 -0.9361  0.0961
 6265SOL    HW230258   2.381   0.281   4.819  0.4190  1.0053  2.3777
 6266SOL     OW30259   2.332   1.616   2.495 -0.5040 -0.4557  0.0561
 6266SOL    HW130260   2.317   1.691   2.438 -1.2249  0.6961  1.7357
 6266SOL    HW230261   2.257   1.629   2.553 -1.4034  0.3633 -1.3103
 6267SOL     OW30262   4.271   3.937   8.960  0.2494  0.1069 -0.5197
 6267SOL    HW130263   4.261   3.877   8.886 -1.4154 -1.4243  0.9359
 6267SOL    HW230264   4.366   3.942   8.971  0.2413 -0.4324 -0.2217
 6268SOL     OW30265   1.066   0.013  17.635  0.1377 -0.2510  0.6953
 6268SOL    HW130266   1.074   4.670   0.001  3.6592  0.1590  0.7245
 6268SOL    HW230267   0.991   0.061  17.669 -0.0338 -0.8019  1.1068
 6269SOL     OW30268   1.082   2.896   3.398  0.0003  0.5187  0.3210
 6269SOL    HW130269   0.994   2.902   3.435 -0.6601 -0.1836 -1.1314
 6269SOL    HW230270   1.119   2.981   3.421  0.8879  0.9332 -2.6446
 6270SOL     OW30271   2.082   4.437   2.451 -0.0708 -0.0185  0.1813
 6270SOL    HW130272   2.127   4.364   2.409 -0.5833 -0.3141  0.1538
 6270SOL    HW230273   2.042   4.392   2.525 -0.1238 -3.7178 -2.1182
 6271SOL     OW30274   4.521   4.124   6.713  0.1306  0.5108 -0.2720
 6271SOL    HW130275   4.568   4.157   6.789  0.5440  1.3049 -0.8722
 6271SOL    HW230276   4.444   4.081   6.750 -0.1376  0.1232 -1.2865
 6272SOL     OW30277   2.586   2.319  13.917  0.2581 -0.2329 -0.3361
 6272SOL    HW130278   2.676   2.289  13.927 -0.4193 -1.8468  1.0589
 6272SOL    HW230279   2.592   2.387  13.851  0.6197  1.1425  1.0993
 6273SOL     OW30280   1.415   0.966  11.277  0.2761  0.3031 -0.3769
 6273SOL    HW130281   1.371   0.928  11.200 -0.6881 -2.1242  1.3641
 6273SOL    HW230282   1.502   0.925  11.277  0.8216  1.4755  1.3435
 6274SOL     OW30283   2.293   3.001   8.268  0.2658  0.2904 -0.0377
 6274SOL    HW130284   2.327   3.078   8.222  1.7372  0.9427  2.1775
 6274SOL    HW230285   2.318   3.011   8.359  0.9128 -1.4434 -0.0315
 6275SOL     OW30286   4.371   0.436  10.030 -0.1894  0.1603 -0.5577
 6275SOL    HW130287   4.363   0.510   9.970 -0.1229  1.7976  1.4514
 6275SOL    HW230288   4.400   0.367   9.971  1.1362  0.2661 -0.0333
 6276SOL     OW30289   1.229   1.520  11.084 -0.0989  0.1719  0.2146
 6276SOL    HW130290   1.260   1.456  11.020  0.7481  0.3302  0.4628
 6276SOL    HW230291   1.136   1.503  11.093 -0.1706 -0.2957 -1.5028
 6277SOL     OW30292   3.072   4.653   5.915 -0.0724 -0.4703 -0.0707
 6277SOL    HW130293   3.154   4.636   5.960  0.9886 -0.8642 -2.1657
 6277SOL    HW230294   3.102   4.723   5.858 -1.4704 -0.3999 -0.7277
 6278SOL     OW30295   1.810   4.048   3.316 -0.0299  0.8114  0.4414
 6278SOL    HW130296   1.723   4.049   3.356 -1.2079 -0.6050 -2.1043
 6278SOL    HW230297   1.874   4.036   3.386  0.4984  3.2357  0.3917
 6279SOL     OW30298   3.119   4.021   8.521  0.3352 -0.4540  0.0027
 6279SOL    HW130299   3.050   4.061   8.468  0.1782 -0.8785 -0.1168
 6279SOL    HW230300   3.156   3.958   8.459 -1.8579 -1.9030  0.1350
 6280SOL     OW30301   1.376   2.486   4.792  0.0793  0.3983 -0.5042
 6280SOL    HW130302   1.299   2.542   4.794 -0.6919 -0.6986  0.3320
 6280SOL    HW230303   1.441   2.549   4.825 -0.6533  1.3539 -0.8706
 6281SOL     OW30304   1.289   4.571   5.095 -0.7796 -0.3411  0.8143
 6281SOL    HW130305   1.234   4.509   5.143 -2.7082 -0.3896 -1.4783
 6281SOL    HW230306   1.365   4.518   5.072 -3.2340 -3.3103 -0.3804
 6282SOL     OW30307   1.525   2.040   7.351 -0.1303  0.3727 -0.2512
 6282SOL    HW130308   1.597   2.030   7.289 -0.4867 -0.5464 -0.5243
 6282SOL    HW230309   1.552   1.972   7.413  0.2868  2.0958  1.4381
 6283SOL     OW30310   1.340   1.408   7.060  0.1506  0.0127  0.1458
 6283SOL    HW130311   1.400   1.353   7.009 -0.5241  0.6908 -1.3943
 6283SOL    HW230312   1.326   1.339   7.126  0.4388  0.3708  0.5777
 6284SOL     OW30313   3.854   0.214   2.892  0.0436 -0.2305  0.2947
 6284SOL    HW130314   3.814   0.225   2.979  1.3022  3.5450  0.3991
 6284SOL    HW230315   3.781   0.206   2.831  2.7362  0.5618 -3.0447
 6285SOL     OW30316   0.096   4.473   5.204  0.3057 -0.5201  0.1156
 6285SOL    HW130317   0.142   4.515   5.132  1.2161 -2.4614 -0.4334
 6285SOL    HW230318   0.155   4.490   5.277 -0.3084  1.7461  0.0990
 6286SOL     OW30319   0.475   1.691   0.288  0.5031  0.0279 -0.1709
 6286SOL    HW130320   0.398   1.737   0.321  0.0860 -1.2827  0.6749
 6286SOL    HW230321   0.529   1.687   0.367  0.1443  0.0080  0.0719
 6287SOL     OW30322   2.058   0.424   9.407 -0.1281  0.0477 -0.0376
 6287SOL    HW130323   1.982   0.477   9.430 -0.4444 -0.9068  1.0978
 6287SOL    HW230324   2.105   0.432   9.490 -0.3607  0.1483  0.0842
 6288SOL     OW30325   4.703   0.601   9.914  0.4555  0.2523 -0.8232
 6288SOL    HW130326   4.623   0.653   9.926  0.8353  0.4264  0.9247
 6288SOL    HW230327   4.699   0.541   9.989  0.2280 -1.5768 -2.2954
 6289SOL     OW30328   4.230   0.876   5.783 -0.7078 -0.2342 -0.7427
 6289SOL    HW130329   4.171   0.905   5.852  1.7416  1.6787  0.5592
 6289SOL    HW230330   4.235   0.783   5.803 -4.9117 -0.4302 -0.5905
 6290SOL     OW30331   3.444   2.555   3.442  0.1525  0.3922  0.0219
 6290SOL    HW130332   3.505   2.481   3.432  1.8178  1.8991 -1.0243
 6290SOL    HW230333   3.436   2.583   3.350  2.6461 -1.2888 -0.7246
 6291SOL     OW30334   0.465   0.855   5.990  0.2443  0.4175  0.1643
 6291SOL    HW130335   0.555   0.854   6.024  0.6966  0.6981 -1.0171
 6291SOL    HW230336   0.460   0.770   5.947 -0.1362  0.7006 -0.3582
 6292SOL     OW30337   0.012   1.292   1.126 -0.1465  0.1041 -0.0517
 6292SOL    HW130338   0.040   1.207   1.093  0.2371  0.9160 -1.8273
 6292SOL    HW230339   4.669   1.266   1.188  0.0793 -0.0024  0.1525
 6293SOL     OW30340   4.118   1.545   4.568  0.7869 -0.2678  0.1171
 6293SOL    HW130341   4.154   1.605   4.634 -0.6202  0.4534  0.2276
 6293SOL    HW230342   4.083   1.604   4.502 -0.3832  0.2937  1.2306
 6294SOL     OW30343   2.140   4.582   3.945 -0.2172 -0.3090 -0.6320
 6294SOL    HW130344   2.064   4.531   3.972 -1.0477  2.5631  2.5400
 6294SOL    HW230345   2.133   4.648   4.015  0.6421 -1.2009  0.2954
 6295SOL     OW30346   3.125   1.127   4.462  0.2019  0.1013 -0.0617
 6295SOL    HW130347   3.182   1.054   4.437 -3.0312 -2.2688 -0.4696
 6295SOL    HW230348   3.041   1.092   4.433  0.7002 -0.2447 -1.0764
 6296SOL     OW30349   3.361   3.903   8.829 -0.4320 -0.1529 -0.0748
 6296SOL    HW130350   3.375   3.865   8.915 -1.9409 -2.5155 -0.8393
 6296SOL    HW230351   3.308   3.834   8.788 -0.3021 -0.5403  0.4031
 6297SOL     OW30352   2.535   3.113   6.694  0.1468 -0.5894  0.2214
 6297SOL    HW130353   2.531   3.208   6.705  3.1154 -0.7293  2.3635
 6297SOL    HW230354   2.581   3.100   6.611  0.9793 -0.5281  0.6697
 6298SOL     OW30355   1.395   3.557   0.316  0.1814  0.2370 -0.8985
 6298SOL    HW130356   1.403   3.481   0.258  1.7110  0.1000 -0.5051
 6298SOL    HW230357   1.474   3.609   0.299 -0.6570  1.8788  0.2118
 6299SOL     OW30358   3.529   0.691   6.318  0.2945 -0.5062  0.1293
 6299SOL    HW130359   3.462   0.717   6.255  0.3256  0.8076  0.6477
 6299SOL    HW230360   3.612   0.726   6.287 -1.2624  1.4169 -1.8839
 6300SOL     OW30361   1.793   1.315   7.160 -0.0591  0.4357 -0.2326
 6300SOL    HW130362   1.853   1.384   7.189  1.8289 -1.2457 -0.1713
 6300SOL    HW230363   1.740   1.299   7.238 -1.0512 -0.3974 -1.0773
 6301SOL     OW30364   1.735   3.200   8.911  0.0568 -0.1311 -0.5194
 6301SOL    HW130365   1.821   3.232   8.888 -0.4183  2.0398  0.7558
 6301SOL    HW230366   1.750   3.107   8.895  0.2938 -0.0175 -0.9496
 6302SOL     OW30367   2.004   0.500   7.001  0.3708  0.6664 -0.4036
 6302SOL    HW130368   2.001   0.554   6.922  0.2620 -0.2485 -1.0346
 6302SOL    HW230369   1.935   0.433   6.994  2.2133 -1.0318 -2.3748
 6303SOL     OW30370   0.583   3.466  14.604  0.1482 -0.6639 -0.2027
 6303SOL    HW130371   0.604   3.467  14.698 -0.3366  1.2334 -0.1051
 6303SOL    HW230372   0.533   3.547  14.596  2.0906  0.4238 -1.2371
 6304SOL     OW30373   2.359   4.012   4.676  0.5696  0.0305  0.2866
 6304SOL    HW130374   2.305   4.070   4.730 -1.1218  0.1984 -1.5708
 6304SOL    HW230375   2.391   3.948   4.739  1.2380 -0.2223 -0.3142
 6305SOL     OW30376   0.845   0.919  15.444  0.2757  0.5976 -0.0066
 6305SOL    HW130377   0.900   0.913  15.523  0.4529 -1.4099 -0.2948
 6305SOL    HW230378   0.890   0.983  15.389  0.1219 -0.2666 -1.1401
 6306SOL     OW30379   2.345   1.338   3.005  0.0183  0.0956 -0.0724
 6306SOL    HW130380   2.425   1.390   3.005  0.1671 -0.1327 -0.4626
 6306SOL    HW230381   2.361   1.260   3.057 -1.1367  1.4795  2.3419
 6307SOL     OW30382   0.915   2.826   4.364 -0.1702 -0.5541 -0.3409
 6307SOL    HW130383   0.903   2.731   4.360 -1.2424 -0.2750 -4.5080
 6307SOL    HW230384   0.860   2.854   4.290  0.2633  0.0836 -0.4115
 6308SOL     OW30385   1.264   0.767   2.582 -0.0301 -0.3556  0.0293
 6308SOL    HW130386   1.226   0.707   2.647 -1.4014  1.8436  1.2527
 6308SOL    HW230387   1.318   0.711   2.526 -1.1892 -1.5861  0.1549
 6309SOL     OW30388   0.029   2.640  11.266 -0.0511  0.4337  0.3075
 6309SOL    HW130389   0.036   2.731  11.238 -1.9969  0.9966  1.5832
 6309SOL    HW230390   4.666   2.634  11.304  0.5238  1.8968  1.8513
 6310SOL     OW30391   4.295   1.017  14.725  0.1554  0.0494 -0.2165
 6310SOL    HW130392   4.276   1.103  14.688 -2.0452 -0.4840 -0.3128
 6310SOL    HW230393   4.236   0.960  14.675 -0.5840  0.8560 -0.2716
 6311SOL     OW30394   2.695   3.319   6.509 -0.3240 -0.2476 -0.0768
 6311SOL    HW130395   2.717   3.299   6.600  1.8298 -0.1693 -0.5624
 6311SOL    HW230396   2.777   3.297   6.464 -0.7898 -2.7456  0.3317
 6312SOL     OW30397   0.114   1.073  13.990  0.3801 -0.0744 -0.4409
 6312SOL    HW130398   0.020   1.062  14.000  0.4491 -1.0546 -0.8459
 6312SOL    HW230399   0.109   1.108  13.901  0.1455 -0.3425 -0.5335
 6313SOL     OW30400   4.057   3.645  14.045 -0.1210  0.1091  0.1399
 6313SOL    HW130401   4.051   3.713  13.977 -1.4958  0.8540  1.0108
 6313SOL    HW230402   4.131   3.686  14.090 -0.9984 -0.1091  1.7379
 6314SOL     OW30403   3.141   4.229   0.214  0.3513  0.1298 -0.3063
 6314SOL    HW130404   3.084   4.176   0.158  0.1064  0.9966 -0.8586
 6314SOL    HW230405   3.166   4.167   0.283 -0.7562  0.5796  0.4998
 6315SOL     OW30406   0.669   3.760   5.639 -0.2950  0.5383  0.5126
 6315SOL    HW130407   0.608   3.709   5.692  1.7094 -1.5568  0.7899
 6315SOL    HW230408   0.665   3.707   5.560  0.0029  0.8143  0.3153
 6316SOL     OW30409   0.968   1.639   9.391 -0.1827 -0.2742 -0.3963
 6316SOL    HW130410   1.058   1.612   9.372  0.4161 -0.3466  2.6034
 6316SOL    HW230411   0.976   1.694   9.469 -2.2576  2.2295 -1.9574
 6317SOL     OW30412   0.990   0.564  13.253  0.1037  0.3858  0.1529
 6317SOL    HW130413   1.050   0.540  13.182 -0.0769  2.6292 -0.7488
 6317SOL    HW230414   0.936   0.634  13.216  0.6011  1.2307  1.0284
 6318SOL     OW30415   1.172   3.458   6.118 -0.2497  0.2556  0.5066
 6318SOL    HW130416   1.224   3.473   6.197  0.0528  0.7821  0.2093
 6318SOL    HW230417   1.226   3.497   6.049 -2.1476  1.5823 -0.2310
 6319SOL     OW30418   3.661   2.372   8.906 -0.1710 -0.2865  0.2556
 6319SOL    HW130419   3.643   2.353   8.998  1.8580  1.0932  0.9305
 6319SOL    HW230420   3.647   2.467   8.914 -1.5594 -0.5488  0.9319
 6320SOL     OW30421   2.506   2.194   6.280 -0.4118 -0.3065  0.0571
 6320SOL    HW130422   2.576   2.257   6.261 -0.0843 -1.1028 -1.3776
 6320SOL    HW230423   2.534   2.129   6.215  0.1464 -1.2524  1.2444
 6321SOL     OW30424   3.333   4.465   8.225  0.0790  0.5279  0.1750
 6321SOL    HW130425   3.373   4.379   8.223 -0.1964  0.3971  0.2104
 6321SOL    HW230426   3.252   4.443   8.177  0.3668 -0.8784  0.3566
 6322SOL     OW30427   0.055   4.315   5.427  0.1864  0.1292 -0.1332
 6322SOL    HW130428   0.065   4.366   5.346 -1.7105 -1.4724 -1.3795
 6322SOL    HW230429   4.688   4.338   5.442  0.7353  1.7168  0.8345
 6323SOL     OW30430   1.195   2.470   1.044 -0.2690  1.0341 -0.1398
 6323SOL    HW130431   1.280   2.485   1.002 -0.4655  3.5745  0.3578
 6323SOL    HW230432   1.165   2.395   0.993  0.5787  2.0370 -2.0903
 6324SOL     OW30433   4.246   2.751   6.837 -0.0053 -0.2032  0.4131
 6324SOL    HW130434   4.232   2.826   6.779  0.9790  0.7698  1.4518
 6324SOL    HW230435   4.241   2.796   6.921  2.6142 -1.5364  1.3034
 6325SOL     OW30436   0.221   3.349   9.020  0.0162  0.1196  0.4133
 6325SOL    HW130437   0.280   3.274   9.018 -1.0710 -0.7418  0.2118
 6325SOL    HW230438   0.274   3.404   9.077  0.2801 -0.6185  0.8888
 6326SOL     OW30439   4.513   1.871   7.551  0.0083 -0.0753 -0.0614
 6326SOL    HW130440   4.455   1.796   7.551  0.1587 -0.1827  1.2589
 6326SOL    HW230441   4.567   1.844   7.476  0.1992 -0.2554  0.1412
 6327SOL     OW30442   0.277   2.612   8.263  0.2563 -0.4319 -0.6278
 6327SOL    HW130443   0.185   2.627   8.239  0.9896  0.5268 -2.8403
 6327SOL    HW230444   0.262   2.522   8.290  0.4626 -0.1005  0.5586
 6328SOL     OW30445   4.034   0.817  11.709 -0.6377 -0.1328 -0.0770
 6328SOL    HW130446   4.092   0.769  11.649 -0.4251  1.7518 -1.4021
 6328SOL    HW230447   3.977   0.745  11.737 -0.7849  0.6333  1.5662
 6329SOL     OW30448   2.719   2.000  16.852 -0.1839 -0.4969  0.6813
 6329SOL    HW130449   2.666   2.011  16.773 -1.7337 -1.4527  1.5872
 6329SOL    HW230450   2.785   1.937  16.824 -1.8578 -1.4732 -1.0773
 6330SOL     OW30451   4.500   3.289  10.404 -0.0483  0.0980 -0.5351
 6330SOL    HW130452   4.516   3.214  10.462  1.3805 -0.2259 -1.3330
 6330SOL    HW230453   4.417   3.327  10.432  1.0242  0.3914  2.2470
 6331SOL     OW30454   3.128   3.131   5.102  0.4986 -0.6267  0.2600
 6331SOL    HW130455   3.033   3.130   5.096  0.3457 -1.1987  2.6706
 6331SOL    HW230456   3.148   3.218   5.066 -2.2255 -0.1534 -0.1159
 6332SOL     OW30457   0.531   3.902   3.438 -0.7602  0.2453 -0.5429
 6332SOL    HW130458   0.620   3.875   3.459 -0.5631  2.2090  1.1037
 6332SOL    HW230459   0.540   3.988   3.397 -1.1725  0.9534  0.8443
 6333SOL     OW30460   0.494   1.110   4.093  0.3937 -0.1660  0.3119
 6333SOL    HW130461   0.482   1.184   4.034 -2.0179 -0.2133  0.7294
 6333SOL    HW230462   0.432   1.130   4.163  0.6413 -1.4822  0.8926
 6334SOL     OW30463   3.377   1.885  16.565  0.7062 -0.5906  0.0766
 6334SOL    HW130464   3.464   1.913  16.595  0.1892 -0.9590  1.9655
 6334SOL    HW230465   3.408   1.824  16.499  0.9218 -1.4825  0.9967
 6335SOL     OW30466   2.289   2.715   8.706 -0.0303  0.1130 -0.5641
 6335SOL    HW130467   2.334   2.677   8.781 -1.5072 -1.7602 -0.6290
 6335SOL    HW230468   2.255   2.633   8.668 -0.1392 -0.2229  0.2675
 6336SOL     OW30469   2.674   2.915   4.775 -0.7465 -0.6281 -0.3436
 6336SOL    HW130470   2.676   2.976   4.849 -1.6379  0.5594 -1.2895
 6336SOL    HW230471   2.686   2.829   4.815 -2.4175 -1.0103 -0.6756
 6337SOL     OW30472   2.392   4.122   8.517  0.2857 -0.1283 -0.0982
 6337SOL    HW130473   2.413   4.171   8.437 -0.6882 -1.7728 -1.3513
 6337SOL    HW230474   2.301   4.150   8.525  0.4973  0.1060  1.4514
 6338SOL     OW30475   4.625   0.537   5.671  0.1624 -0.0248 -0.0152
 6338SOL    HW130476   4.563   0.570   5.736 -0.5019 -0.9486 -0.1802
 6338SOL    HW230477   4.687   0.489   5.725 -2.8841 -1.2250  2.4417
 6339SOL     OW30478   0.350   2.215   4.727  0.3473  0.5600  0.2288
 6339SOL    HW130479   0.423   2.191   4.671  0.5685 -1.2387  1.2850
 6339SOL    HW230480   0.281   2.191   4.665 -0.6313  0.2493  1.4274
 6340SOL     OW30481   0.990   3.020   8.117  0.1061  0.4230 -0.3221
 6340SOL    HW130482   0.968   2.983   8.202 -0.5202 -2.0232 -1.5628
 6340SOL    HW230483   0.981   3.114   8.136  3.0380  0.4648  0.8820
 6341SOL     OW30484   1.099   1.524   7.124  0.8885  0.4518 -0.2843
 6341SOL    HW130485   1.192   1.530   7.101  1.0961  2.6816  1.1235
 6341SOL    HW230486   1.068   1.606   7.087  1.3291  1.2550  1.0998
 6342SOL     OW30487   2.946   2.637  12.014  0.0412  0.0043  0.2451
 6342SOL    HW130488   2.999   2.560  12.034  1.2211  1.0287  1.1590
 6342SOL    HW230489   2.960   2.687  12.095  1.2634  0.1974 -0.0828
 6343SOL     OW30490   1.741   2.933   6.536 -0.2214  0.1047 -0.1907
 6343SOL    HW130491   1.782   2.959   6.454  0.5137 -3.0740 -0.8181
 6343SOL    HW230492   1.659   2.981   6.521  1.7905  2.9899 -1.9196
 6344SOL     OW30493   0.414   3.053   6.497 -0.1377  0.2195 -0.2358
 6344SOL    HW130494   0.392   2.988   6.564  2.1187 -1.2824 -0.9501
 6344SOL    HW230495   0.356   3.032   6.423  0.2048 -1.1049 -0.1259
 6345SOL     OW30496   2.751   0.559   3.454 -0.0050  0.1710  0.0238
 6345SOL    HW130497   2.736   0.485   3.395  2.3977 -0.2370 -0.1061
 6345SOL    HW230498   2.705   0.631   3.411 -0.3484  1.4474  2.5587
 6346SOL     OW30499   4.035   2.326   2.318  0.3877 -0.0984 -0.3073
 6346SOL    HW130500   4.005   2.237   2.296 -0.5517 -0.5880  2.9256
 6346SOL    HW230501   3.983   2.338   2.398  0.9806  2.9548 -0.3824
 6347SOL     OW30502   2.250   1.065   6.219 -0.2901 -0.1429 -0.0854
 6347SOL    HW130503   2.185   1.058   6.289 -0.3152  0.5243 -0.0422
 6347SOL    HW230504   2.272   1.158   6.215  0.3061 -0.3407 -1.3907
 6348SOL     OW30505   2.990   1.769   3.755 -0.3352  0.5928 -0.1575
 6348SOL    HW130506   3.013   1.825   3.830 -0.4145  2.1071 -1.2583
 6348SOL    HW230507   3.032   1.689   3.784  0.0306  0.9668  0.3529
 6349SOL     OW30508   0.692   0.406   8.102 -0.2329 -0.0399 -0.6784
 6349SOL    HW130509   0.760   0.471   8.122 -1.8081  2.0240 -2.0180
 6349SOL    HW230510   0.637   0.407   8.180 -0.0681  0.6076 -0.5677
 6350SOL     OW30511   0.796   0.255   2.987 -0.1064  0.1359  0.1867
 6350SOL    HW130512   0.757   0.241   3.074 -2.4941  1.0161 -0.7400
 6350SOL    HW230513   0.846   0.337   2.989  1.0775 -0.5413 -1.5456
 6351SOL     OW30514   1.536   2.011   2.470  0.0265  0.6344  0.1748
 6351SOL    HW130515   1.462   2.037   2.525 -0.2133  0.7175 -0.1846
 6351SOL    HW230516   1.531   2.078   2.402 -0.5782 -0.8119 -1.1990
 6352SOL     OW30517   2.299   3.327   1.790  0.3815  0.5051 -0.1794
 6352SOL    HW130518   2.236   3.356   1.856  2.0486  1.2932  1.0650
 6352SOL    HW230519   2.268   3.367   1.708 -1.6732 -0.3869  0.1770
 6353SOL     OW30520   1.769   4.200  10.355 -0.1051  0.0778  0.4485
 6353SOL    HW130521   1.729   4.248  10.428 -0.6749  0.1335  0.1038
 6353SOL    HW230522   1.696   4.197  10.293 -0.9081  1.9841  1.2997
 6354SOL     OW30523   2.734   3.551  13.138 -0.2281 -0.9369  0.2080
 6354SOL    HW130524   2.662   3.489  13.137 -1.0144  0.0389 -2.1967
 6354SOL    HW230525   2.753   3.565  13.231  0.6609 -2.6928  0.2780
 6355SOL     OW30526   4.348   2.295   7.381  0.0225  0.2980  0.1393
 6355SOL    HW130527   4.428   2.262   7.340  0.1729  0.1722  0.5299
 6355SOL    HW230528   4.288   2.262   7.314  0.4108  1.7080 -0.8934
 6356SOL     OW30529   0.350   4.663   3.885 -0.1952  0.1525 -0.0350
 6356SOL    HW130530   0.256   4.680   3.887 -0.1703  0.7121 -3.0305
 6356SOL    HW230531   0.367   4.691   3.795 -0.4488  0.6507  0.0735
 6357SOL     OW30532   2.394   2.643   7.118 -0.1690 -0.0608  0.3212
 6357SOL    HW130533   2.468   2.585   7.135 -0.1064  0.3913  1.6134
 6357SOL    HW230534   2.404   2.700   7.194 -0.2138 -0.0078  0.2875
 6358SOL     OW30535   4.584   1.327   0.755 -0.4138  0.2679 -0.1591
 6358SOL    HW130536   4.676   1.343   0.778 -0.7345  0.6790  0.8511
 6358SOL    HW230537   4.579   1.231   0.760 -1.7396  0.2969 -0.9107
 6359SOL     OW30538   2.921   2.807  11.802 -0.0652 -0.2110 -0.1032
 6359SOL    HW130539   2.919   2.732  11.862 -2.4073  0.5313  0.7604
 6359SOL    HW230540   2.921   2.882  11.861  0.1944 -0.8039  0.6458
 6360SOL     OW30541   0.826   2.934  15.794  0.4659  0.4023 -0.0334
 6360SOL    HW130542   0.840   2.849  15.753  1.2047 -0.4224  1.9114
 6360SOL    HW230543   0.731   2.944  15.788  0.3809  0.5448  1.5077
 6361SOL     OW30544   1.162   3.298   3.685  0.0515  0.1395  1.0913
 6361SOL    HW130545   1.082   3.294   3.737 -0.9724  1.1732 -0.3789
 6361SOL    HW230546   1.214   3.261   3.756  1.6229 -0.4072 -0.3494
 6362SOL     OW30547   2.649   3.770   4.456 -0.0554 -0.3023  0.1920
 6362SOL    HW130548   2.666   3.860   4.428  0.1445 -0.4414 -0.1366
 6362SOL    HW230549   2.734   3.725   4.456 -0.1113 -0.4171 -2.3752
 6363SOL     OW30550   1.320   1.685   9.572  0.3159  0.4350 -0.5241
 6363SOL    HW130551   1.331   1.596   9.537  2.1779  0.3019  0.4201
 6363SOL    HW230552   1.314   1.738   9.493 -0.0789  0.7617 -0.2746
 6364SOL     OW30553   2.394   3.300   7.000 -0.5695 -0.4209  0.4723
 6364SOL    HW130554   2.385   3.205   7.009 -0.0442 -0.6545 -1.4150
 6364SOL    HW230555   2.303   3.321   6.980  0.1343  2.5272  0.4318
 6365SOL     OW30556   2.025   1.368   6.189  0.4481  0.0363  0.0193
 6365SOL    HW130557   2.032   1.345   6.096  1.3924 -0.9952  0.3462
 6365SOL    HW230558   1.943   1.416   6.178 -0.7177 -1.7792  0.8774
 6366SOL     OW30559   1.679   2.398   3.991  0.1007  0.5778  0.0769
 6366SOL    HW130560   1.627   2.325   3.957 -1.1359  0.7226  1.6634
 6366SOL    HW230561   1.735   2.403   3.913 -0.2138  0.9060 -0.1254
 6367SOL     OW30562   0.778   3.352   0.736  0.4463  0.0506  0.2018
 6367SOL    HW130563   0.697   3.357   0.785  1.8981 -1.4218  2.7281
 6367SOL    HW230564   0.799   3.259   0.738 -1.5970 -0.4216 -1.0461
 6368SOL     OW30565   2.854   0.027   2.264 -0.5270 -0.3938 -0.1649
 6368SOL    HW130566   2.875   4.710   2.348 -1.4174  2.1544  1.3280
 6368SOL    HW230567   2.825   4.674   2.217 -2.6985  1.4825 -1.9280
 6369SOL     OW30568   1.941   3.208   4.615  0.0777  0.3690 -0.2378
 6369SOL    HW130569   1.889   3.283   4.643  0.4293  1.3975 -2.3192
 6369SOL    HW230570   1.916   3.137   4.673  1.1997  0.4029  0.3003
 6370SOL     OW30571   3.289   0.589  15.677  0.1824  0.0067  0.1196
 6370SOL    HW130572   3.314   0.504  15.712  0.1753 -0.6752 -1.5562
 6370SOL    HW230573   3.322   0.589  15.587 -0.2323  1.6808 -0.0480
 6371SOL     OW30574   1.404   1.641   0.623  0.4392 -0.2598 -0.3034
 6371SOL    HW130575   1.485   1.691   0.609 -0.9541  1.4376 -2.3190
 6371SOL    HW230576   1.377   1.676   0.707 -0.1671 -1.8472  0.1576
 6372SOL     OW30577   0.640   1.395  16.389  0.3832 -0.5408  0.0899
 6372SOL    HW130578   0.580   1.334  16.344 -0.7876  0.0133  0.8893
 6372SOL    HW230579   0.660   1.453  16.316 -0.6029  0.2406  0.4367
 6373SOL     OW30580   0.554   2.625   6.836  0.0141  0.4247 -0.0471
 6373SOL    HW130581   0.610   2.550   6.814  1.0323  1.4551 -0.9402
 6373SOL    HW230582   0.605   2.678   6.896 -0.6551  2.4048 -1.2217
 6374SOL     OW30583   2.027   4.711   8.923  0.1284  1.0335  0.0896
 6374SOL    HW130584   2.060   0.076   8.931 -0.9527  1.6346 -2.0407
 6374SOL    HW230585   1.958   4.698   8.988  1.0832 -0.1532  0.8546
 6375SOL     OW30586   4.468   2.763   8.751 -0.1688  0.0707  0.3205
 6375SOL    HW130587   4.519   2.757   8.832  0.6978  0.6504 -0.1752
 6375SOL    HW230588   4.433   2.675   8.742 -0.1176  0.1056 -0.2436
 6376SOL     OW30589   2.649   4.501   1.025  0.0749 -0.0111  0.4379
 6376SOL    HW130590   2.585   4.532   1.088  0.2083  1.0436  0.0598
 6376SOL    HW230591   2.605   4.505   0.940  2.3428 -1.8559 -0.8265
 6377SOL     OW30592   1.713   0.524  12.844 -0.2027 -0.0994 -0.4689
 6377SOL    HW130593   1.682   0.434  12.860  0.9254 -0.4745 -0.3957
 6377SOL    HW230594   1.749   0.524  12.755  3.2381  0.0014  0.9268
 6378SOL     OW30595   1.410   0.802   0.990 -0.3101 -0.4021  0.6874
 6378SOL    HW130596   1.482   0.858   1.019  2.0447 -1.5452 -2.9793
 6378SOL    HW230597   1.375   0.778   1.076 -0.9963 -4.1355 -0.6282
 6379SOL     OW30598   2.899   0.356  13.554  0.0305 -0.5318 -0.5120
 6379SOL    HW130599   2.853   0.377  13.472 -1.7705 -0.8945  0.4051
 6379SOL    HW230600   2.990   0.375  13.532 -0.3401  0.5124 -1.1566
 6380SOL     OW30601   1.486   2.622   7.338 -0.1269 -0.4351  0.5777
 6380SOL    HW130602   1.522   2.546   7.291  0.3977 -0.3046  0.7692
 6380SOL    HW230603   1.552   2.690   7.328 -1.0763  0.5184  0.8166
 6381SOL     OW30604   1.098   1.936   3.564 -0.0330  0.0251 -0.2703
 6381SOL    HW130605   1.174   1.946   3.622  0.7624 -1.0462 -1.1201
 6381SOL    HW230606   1.083   2.028   3.543 -0.7436  0.3784  1.7596
 6382SOL     OW30607   0.594   4.029  11.507  0.3586 -0.0774  0.5636
 6382SOL    HW130608   0.665   4.089  11.485  0.0255 -0.5724 -1.8599
 6382SOL    HW230609   0.536   4.028  11.431  1.5957 -0.3819 -0.3790
 6383SOL     OW30610   2.518   1.062   2.892 -0.2751  0.1287 -0.1744
 6383SOL    HW130611   2.503   1.096   2.804 -2.2628 -0.7921 -0.1874
 6383SOL    HW230612   2.430   1.056   2.929 -0.0137 -2.1676  0.0801
 6384SOL     OW30613   0.464   3.567   6.228 -0.3367  0.1327  0.5039
 6384SOL    HW130614   0.372   3.553   6.205 -0.8067  0.1732  2.3860
 6384SOL    HW230615   0.515   3.574   6.147 -1.8611 -0.1386 -0.4852
 6385SOL     OW30616   1.728   3.957   8.875 -0.3943 -0.4542  0.1843
 6385SOL    HW130617   1.771   3.934   8.957  0.8786 -0.1122 -0.3801
 6385SOL    HW230618   1.708   3.866   8.854  0.6452  0.0827 -3.1963
 6386SOL     OW30619   0.289   2.702   5.747  0.4040 -0.3232  0.4641
 6386SOL    HW130620   0.362   2.723   5.805  0.2345  2.2946 -0.2703
 6386SOL    HW230621   0.334   2.676   5.666  0.7814 -1.3698  1.0043
 6387SOL     OW30622   1.993   0.236   6.709 -0.7967 -0.1763 -0.4660
 6387SOL    HW130623   1.975   0.312   6.653 -0.1138 -1.0365 -1.8718
 6387SOL    HW230624   2.079   0.260   6.745 -1.4275  1.2029  0.1395
 6388SOL     OW30625   2.931   4.663   7.934  0.1480 -0.3255  0.3184
 6388SOL    HW130626   2.938   0.033   7.925  2.5494 -0.5394 -0.2084
 6388SOL    HW230627   2.857   4.641   7.877  1.6053 -0.0448 -1.6778
 6389SOL     OW30628   0.417   2.674   9.185 -0.0896  0.8647 -0.3759
 6389SOL    HW130629   0.382   2.761   9.205  2.7615  2.0633 -0.4735
 6389SOL    HW230630   0.475   2.657   9.259 -0.4318  0.2269 -0.2529
 6390SOL     OW30631   2.689   0.606   9.049 -0.4276  0.1283  0.5133
 6390SOL    HW130632   2.616   0.549   9.072  0.2545 -1.0611 -0.2360
 6390SOL    HW230633   2.704   0.555   8.969  1.2509 -0.1160  0.9823
 6391SOL     OW30634   0.756   3.254   6.904  0.1949  0.4621  0.0363
 6391SOL    HW130635   0.756   3.174   6.957 -2.2984  0.4093 -0.0693
 6391SOL    HW230636   0.699   3.308   6.958  0.5040  1.0151 -0.1934
 6392SOL     OW30637   0.434   4.721   4.819  0.5343 -0.1328  0.2272
 6392SOL    HW130638   0.525   0.021   4.808  0.6959 -0.2167  1.3504
 6392SOL    HW230639   0.395   0.076   4.784  0.4115 -0.7804 -1.1193
 6393SOL     OW30640   0.742   2.037  16.708 -0.4075 -0.4088 -0.1535
 6393SOL    HW130641   0.819   1.987  16.679 -0.6199  0.6127 -2.5185
 6393SOL    HW230642   0.732   2.104  16.641  0.3560 -1.4986 -1.3622
 6394SOL     OW30643   3.573   1.912   6.553 -0.4405 -0.8255 -0.0185
 6394SOL    HW130644   3.582   1.827   6.511  0.4040 -1.3177  1.1501
 6394SOL    HW230645   3.657   1.928   6.596 -0.3548 -1.7019  0.1281
 6395SOL     OW30646   3.636   1.151  10.411 -0.0030 -0.2362  0.7342
 6395SOL    HW130647   3.728   1.143  10.386  0.2071 -0.1590  1.4735
 6395SOL    HW230648   3.597   1.071  10.378  1.3277 -0.2681 -0.8229
 6396SOL     OW30649   1.527   1.181   7.030  0.0658 -0.2117 -0.1484
 6396SOL    HW130650   1.595   1.241   7.060  0.3457 -0.9587  0.6847
 6396SOL    HW230651   1.512   1.132   7.111  1.9778  1.9641  1.5192
 6397SOL     OW30652   3.011   1.974   7.310 -0.1681 -0.0571 -0.1902
 6397SOL    HW130653   2.975   1.888   7.333 -1.2578 -0.6159 -3.9149
 6397SOL    HW230654   2.933   2.012   7.270 -0.3261 -1.6339 -1.4027
 6398SOL     OW30655   0.368   2.082   6.256 -0.1402  0.2775  0.0175
 6398SOL    HW130656   0.430   2.134   6.205  1.3394 -2.1737 -0.6708
 6398SOL    HW230657   0.346   2.014   6.193 -1.6384  2.4057 -1.7579
 6399SOL     OW30658   0.992   3.443   5.085 -0.4264  0.4773 -0.3389
 6399SOL    HW130659   0.961   3.360   5.049 -2.6220  1.0463  0.2810
 6399SOL    HW230660   0.920   3.502   5.062  2.6403  4.0112 -0.8813
 6400SOL     OW30661   4.272   4.240   8.788  0.0792 -0.3785 -0.6152
 6400SOL    HW130662   4.240   4.171   8.845  1.8914 -0.8939 -0.2215
 6400SOL    HW230663   4.352   4.257   8.838  0.3747 -0.8569 -0.9315
 6401SOL     OW30664   3.736   0.499   3.206 -0.1340  0.5073  0.3416
 6401SOL    HW130665   3.739   0.590   3.178 -0.5588 -0.3803 -2.6323
 6401SOL    HW230666   3.825   0.483   3.238  0.1066 -0.7290 -0.8966
 6402SOL     OW30667   2.101   2.310   2.171  0.2323  0.0024  0.2986
 6402SOL    HW130668   2.183   2.348   2.202  1.1685 -2.5380  0.8666
 6402SOL    HW230669   2.109   2.338   2.079 -1.6224  2.0144  0.7560
 6403SOL     OW30670   1.839   4.508   9.279 -0.0839 -0.3008  0.5668
 6403SOL    HW130671   1.872   4.571   9.343 -1.7394  1.1032  0.0169
 6403SOL    HW230672   1.764   4.554   9.243 -0.6842 -0.7684  1.2263
 6404SOL     OW30673   3.705   0.199   9.680 -0.4515  0.7220  0.0826
 6404SOL    HW130674   3.645   0.273   9.686 -2.7514 -1.2685  1.5402
 6404SOL    HW230675   3.765   0.222   9.751  0.6837  0.5544 -0.8210
 6405SOL     OW30676   1.031   3.701  14.578  0.0438  0.3298 -0.2223
 6405SOL    HW130677   0.945   3.665  14.557 -1.1820  1.9658  1.9648
 6405SOL    HW230678   1.047   3.752  14.498  3.7544  0.9834  0.9362
 6406SOL     OW30679   1.491   3.138   7.842 -0.5075 -0.2093 -0.2298
 6406SOL    HW130680   1.556   3.199   7.807  2.0343 -1.8628  1.6857
 6406SOL    HW230681   1.509   3.061   7.788  1.7961 -1.3056  2.1221
 6407SOL     OW30682   0.047   2.650   9.340 -0.2854 -0.7309  0.5050
 6407SOL    HW130683   0.075   2.565   9.373  0.9727 -0.0769  1.1060
 6407SOL    HW230684   0.121   2.702   9.372  0.7585 -2.2036  0.4622
 6408SOL     OW30685   0.012   0.130  16.716 -0.2676  0.2226  0.3426
 6408SOL    HW130686   0.030   0.218  16.684 -2.8317  0.5302 -0.2759
 6408SOL    HW230687   4.657   0.101  16.672 -1.1863  2.9401  0.2184
 6409SOL     OW30688   0.599   3.225   9.409 -0.0152 -0.4242  0.4962
 6409SOL    HW130689   0.630   3.265   9.327  2.0812 -0.6764  1.1672
 6409SOL    HW230690   0.652   3.146   9.408  1.2462  0.4176  0.6701
 6410SOL     OW30691   2.926   2.715   3.009  0.5139 -0.7402 -0.7212
 6410SOL    HW130692   2.898   2.713   2.917  0.8770 -1.8442 -0.8035
 6410SOL    HW230693   2.868   2.646   3.039 -2.9782  2.8928  0.8147
 6411SOL     OW30694   0.956   1.555  16.958 -0.2926  0.1535 -0.3821
 6411SOL    HW130695   1.013   1.517  16.891  2.1482  1.3919  0.9817
 6411SOL    HW230696   0.873   1.519  16.926 -1.2172  1.1401  0.8821
 6412SOL     OW30697   1.623   4.335  10.127 -0.3644 -0.0547  0.4422
 6412SOL    HW130698   1.605   4.392  10.202 -2.0130  0.2902 -0.2190
 6412SOL    HW230699   1.575   4.256  10.150  1.4996 -1.5210 -0.7562
 6413SOL     OW30700   2.588   2.387   8.033  0.3562 -0.2086 -0.2712
 6413SOL    HW130701   2.682   2.405   8.025 -0.0032  2.2065  1.0383
 6413SOL    HW230702   2.576   2.312   7.974  1.1493 -2.0911  1.9592
 6414SOL     OW30703   1.542   2.814  13.674  0.2754  0.0149 -0.4490
 6414SOL    HW130704   1.502   2.762  13.604  0.0182 -1.0082  0.4717
 6414SOL    HW230705   1.580   2.883  13.620  0.2042  0.0185 -0.4957
 6415SOL     OW30706   2.708   0.273  16.400  0.2981 -0.1837 -0.2584
 6415SOL    HW130707   2.640   0.208  16.382  0.4763 -1.0930  2.3449
 6415SOL    HW230708   2.737   0.289  16.310  2.2187  1.9265  0.7102
 6416SOL     OW30709   2.815   4.275   4.359  1.0526 -0.4518 -0.0472
 6416SOL    HW130710   2.803   4.196   4.307 -1.3477 -0.2902  0.2581
 6416SOL    HW230711   2.795   4.244   4.448 -0.5388 -0.1007 -0.2699
 6417SOL     OW30712   1.180   1.606  12.935 -0.6065 -0.1553  0.0897
 6417SOL    HW130713   1.243   1.645  12.874  0.7601 -2.9477 -0.3342
 6417SOL    HW230714   1.130   1.554  12.871 -0.2291  1.1275 -1.2341
 6418SOL     OW30715   1.590   1.970   9.121  0.0620 -0.5164  0.0282
 6418SOL    HW130716   1.682   1.967   9.145 -0.5307 -0.3321  2.3479
 6418SOL    HW230717   1.577   1.876   9.105 -1.6580 -0.2270 -0.2660
 6419SOL     OW30718   2.883   1.097   3.746  0.1167 -0.2554  0.2292
 6419SOL    HW130719   2.898   1.077   3.654  1.9240 -0.0421  0.4852
 6419SOL    HW230720   2.966   1.067   3.783 -0.0660  0.4751  1.2449
 6420SOL     OW30721   2.835   1.010  15.715  0.2198 -0.1891  0.2967
 6420SOL    HW130722   2.851   0.959  15.795 -0.7400 -1.0955 -0.0820
 6420SOL    HW230723   2.770   1.074  15.741 -0.7467 -1.3911  0.8243
 6421SOL     OW30724   3.336   0.929   6.886 -0.9767 -0.2999 -0.2822
 6421SOL    HW130725   3.300   0.843   6.865  1.3287 -1.2540 -0.3687
 6421SOL    HW230726   3.347   0.930   6.981 -0.3974 -0.5321 -0.3496
 6422SOL     OW30727   3.194   4.709   4.719  0.2675  0.3498  0.4346
 6422SOL    HW130728   3.217   4.662   4.798  0.9782  1.1432  0.6982
 6422SOL    HW230729   3.207   4.647   4.647  1.2001  2.0128 -0.8545
 6423SOL     OW30730   4.476   0.470   4.746  0.6223  0.0841  0.4395
 6423SOL    HW130731   4.447   0.429   4.664  0.1616  1.1243  0.0764
 6423SOL    HW230732   4.548   0.530   4.728  0.9669  0.0987  1.9198
 6424SOL     OW30733   3.134   1.575  17.085 -0.1459 -0.3802 -0.3148
 6424SOL    HW130734   3.207   1.543  17.138 -0.3467 -0.9057 -0.3551
 6424SOL    HW230735   3.093   1.491  17.065 -0.5277 -0.4669  0.8023
 6425SOL     OW30736   4.636   3.071   6.613 -0.0737 -0.3930 -0.3187
 6425SOL    HW130737   4.650   3.001   6.676 -1.1824  0.5508  0.9659
 6425SOL    HW230738   4.550   3.046   6.578 -0.7531 -1.2887  2.0385
 6426SOL     OW30739   2.947   0.669   7.080  0.4127 -0.0492  0.0650
 6426SOL    HW130740   2.960   0.583   7.039  0.6935  0.2890 -0.5382
 6426SOL    HW230741   2.856   0.684   7.055  0.5826 -1.9886 -1.7301
 6427SOL     OW30742   3.271   0.052   4.381  0.6960  0.5370  0.0003
 6427SOL    HW130743   3.182   0.033   4.353  0.5433 -2.3587  2.4354
 6427SOL    HW230744   3.259   0.146   4.394  1.5706  0.7974 -1.0897
 6428SOL     OW30745   4.030   1.134  11.096  0.3852 -0.5965 -1.0552
 6428SOL    HW130746   4.012   1.142  11.002  0.5522 -2.4232 -1.2390
 6428SOL    HW230747   3.958   1.187  11.130  0.8067 -1.3633  0.9973
 6429SOL     OW30748   0.548   3.961   5.069 -0.1071  0.0824 -0.2902
 6429SOL    HW130749   0.590   3.899   5.010 -0.3609 -1.0984  0.7886
 6429SOL    HW230750   0.461   3.922   5.072  0.3797 -0.9909 -0.3370
 6430SOL     OW30751   3.322   3.507  13.264  0.2962  0.2557  0.9522
 6430SOL    HW130752   3.271   3.447  13.209 -0.0321  0.1138  1.4128
 6430SOL    HW230753   3.252   3.567  13.289  2.2258  1.2872  3.8660
 6431SOL     OW30754   1.549   1.217   7.595  0.2867 -0.0563  0.1208
 6431SOL    HW130755   1.558   1.127   7.562  2.2536  0.9712 -2.0956
 6431SOL    HW230756   1.528   1.199   7.687 -0.0201 -0.1271  0.0391
 6432SOL     OW30757   2.481   0.981   8.113 -0.5837  0.0219 -0.5769
 6432SOL    HW130758   2.396   0.976   8.069  0.0683  0.5163 -1.8858
 6432SOL    HW230759   2.460   1.063   8.159 -0.4267 -0.7753  0.8904
 6433SOL     OW30760   0.439   0.569   5.935  0.2975 -0.3019  0.3656
 6433SOL    HW130761   0.474   0.558   6.023  0.6545 -0.3094  0.2214
 6433SOL    HW230762   0.374   0.498   5.938 -0.1410  0.1403  1.2728
 6434SOL     OW30763   3.145   1.548   3.808  0.2049 -0.5269 -0.0093
 6434SOL    HW130764   3.097   1.482   3.759  0.8457  0.5451 -2.1154
 6434SOL    HW230765   3.175   1.487   3.874 -1.7723 -2.1246 -0.5940
 6435SOL     OW30766   3.678   1.567   1.820  0.0819 -0.9630 -0.2630
 6435SOL    HW130767   3.759   1.562   1.769  1.1957  1.5173  1.3152
 6435SOL    HW230768   3.610   1.560   1.752 -1.5824  1.2318  1.1839
 6436SOL     OW30769   3.295   2.609   6.319 -0.0251  0.2403 -0.3961
 6436SOL    HW130770   3.265   2.519   6.329  0.3017  0.2572  0.7354
 6436SOL    HW230771   3.383   2.602   6.356  0.1277 -2.4598 -1.2689
 6437SOL     OW30772   0.759   2.924   6.013 -0.1436 -0.1259  0.2774
 6437SOL    HW130773   0.829   2.950   6.073 -0.2797  1.2884 -0.1908
 6437SOL    HW230774   0.769   2.829   6.015 -0.8334 -0.2018  0.0242
 6438SOL     OW30775   0.365   0.145   9.800  0.1041 -0.1890 -0.0358
 6438SOL    HW130776   0.443   0.118   9.752 -0.9062 -0.3226 -1.6115
 6438SOL    HW230777   0.359   0.237   9.774 -1.5679 -0.4856 -0.6741
 6439SOL     OW30778   1.434   3.849   8.132  0.5024  0.4300 -0.2865
 6439SOL    HW130779   1.393   3.823   8.215  0.8558 -0.4831 -0.3939
 6439SOL    HW230780   1.516   3.798   8.134  1.5737  2.1351 -1.3421
 6440SOL     OW30781   2.519   2.868   5.083 -0.3709 -0.4022 -0.3102
 6440SOL    HW130782   2.466   2.806   5.034 -0.7411  1.1548 -1.8796
 6440SOL    HW230783   2.550   2.809   5.151 -0.2576  1.4913  1.2835
 6441SOL     OW30784   3.909   0.895   4.746  0.3398  0.2068  0.3506
 6441SOL    HW130785   3.857   0.964   4.705  1.8793  1.0038 -0.2701
 6441SOL    HW230786   4.000   0.925   4.749  0.5992 -0.5732  0.4502
 6442SOL     OW30787   1.890   4.103   3.710  0.0401  0.4341  0.1795
 6442SOL    HW130788   1.936   4.186   3.726  1.3636 -0.1368 -0.7052
 6442SOL    HW230789   1.925   4.050   3.781  0.5625 -1.2967 -1.3841
 6443SOL     OW30790   3.503   0.325  14.747  0.3360 -0.0440  0.7907
 6443SOL    HW130791   3.561   0.401  14.740  0.3502 -0.1986 -0.6660
 6443SOL    HW230792   3.507   0.307  14.841  2.6438 -0.4053  0.6193
 6444SOL     OW30793   1.122   2.875   9.859 -0.1462  0.3627 -1.0345
 6444SOL    HW130794   1.034   2.858   9.826 -1.2338 -0.6822  2.4393
 6444SOL    HW230795   1.167   2.810   9.805 -1.2777 -0.5729 -0.8547
 6445SOL     OW30796   0.301   2.503   2.834  0.5096 -0.2263  0.0988
 6445SOL    HW130797   0.257   2.571   2.886  1.4508 -0.8204  1.6458
 6445SOL    HW230798   0.387   2.496   2.875 -0.2692 -0.8953  1.6214
 6446SOL     OW30799   0.971   2.859   8.917  0.6061  0.3631  0.3148
 6446SOL    HW130800   0.990   2.900   9.002  0.6837  2.8553 -0.9151
 6446SOL    HW230801   0.912   2.790   8.947 -0.7527  1.1966 -0.4459
 6447SOL     OW30802   3.134   3.530   4.050 -0.0055 -0.0280 -0.4531
 6447SOL    HW130803   3.130   3.566   3.961 -0.4870 -1.2644 -0.9372
 6447SOL    HW230804   3.145   3.437   4.028  0.2569 -0.1601  0.2579
 6448SOL     OW30805   4.343   3.196   9.103  0.4825  0.1502 -0.3905
 6448SOL    HW130806   4.398   3.119   9.112 -2.0582 -1.4263  1.7623
 6448SOL    HW230807   4.357   3.221   9.012 -1.2349 -0.4784 -0.8248
 6449SOL     OW30808   4.577   4.213   6.981 -0.1124  0.1562  0.1766
 6449SOL    HW130809   4.622   4.294   7.002  4.0224 -2.4440  1.3530
 6449SOL    HW230810   4.636   4.142   7.007 -1.1560 -0.0795  1.8948
 6450SOL     OW30811   2.414   4.475   3.967 -0.5509  0.5978 -0.1117
 6450SOL    HW130812   2.322   4.493   3.951  0.0151  1.4323 -2.4849
 6450SOL    HW230813   2.416   4.395   3.914 -0.2248  0.4919  0.0568
 6451SOL     OW30814   0.583   0.036   5.132 -0.2716 -0.2647  0.3714
 6451SOL    HW130815   0.627   4.719   5.206  1.3102  1.8934  0.6489
 6451SOL    HW230816   0.653   0.097   5.109 -0.8949  0.0493 -0.7307
 6452SOL     OW30817   1.678   0.509  16.532 -0.1316  0.0431 -0.0896
 6452SOL    HW130818   1.717   0.548  16.454  0.8730 -1.5406 -0.3723
 6452SOL    HW230819   1.655   0.420  16.505 -1.2856  0.1473  0.5070
 6453SOL     OW30820   1.954   1.629  12.393  0.5826  0.6272  0.3299
 6453SOL    HW130821   1.869   1.661  12.366  0.6073 -1.0187 -1.7134
 6453SOL    HW230822   1.972   1.559  12.330  1.1162 -0.4529  1.6860
 6454SOL     OW30823   2.775   2.950  11.174  0.0807  0.2478 -0.1174
 6454SOL    HW130824   2.706   3.004  11.135  0.0894  0.8043  0.6473
 6454SOL    HW230825   2.838   2.977  11.106  0.6541  2.0746  1.1451
 6455SOL     OW30826   2.127   4.690  12.946 -0.0500 -0.0492 -0.0437
 6455SOL    HW130827   2.180   0.045  12.952  0.6843 -0.5036 -0.5227
 6455SOL    HW230828   2.179   4.641  12.882 -2.2179 -0.6462 -1.3378
 6456SOL     OW30829   3.218   0.688  10.030  0.1427  0.0333  0.5249
 6456SOL    HW130830   3.187   0.609  10.074 -0.1364  0.0596  0.3740
 6456SOL    HW230831   3.168   0.676   9.949  1.8561 -1.3659 -0.3161
 6457SOL     OW30832   4.305   3.710   3.659 -0.1440 -0.2626 -0.1273
 6457SOL    HW130833   4.234   3.646   3.654 -0.6084  0.1933  0.7245
 6457SOL    HW230834   4.256   3.778   3.613  0.3725  0.8641  0.9879
 6458SOL     OW30835   1.068   3.348   3.120  0.7019  0.0310  0.2731
 6458SOL    HW130836   1.110   3.341   3.033  0.2560 -1.8351  0.1940
 6458SOL    HW230837   1.133   3.385   3.180  2.0087  2.4613 -2.6550
 6459SOL     OW30838   1.669   4.172   8.379 -0.2143  0.5417 -0.3280
 6459SOL    HW130839   1.588   4.221   8.391 -0.5040 -0.0176 -0.0121
 6459SOL    HW230840   1.729   4.237   8.416 -0.6894  0.4216  0.6557
 6460SOL     OW30841   0.493   4.431   5.753 -0.0786 -0.1243  0.4307
 6460SOL    HW130842   0.414   4.414   5.805  0.6574  0.9070  1.8852
 6460SOL    HW230843   0.546   4.352   5.763  2.6627  1.6848  0.0229
 6461SOL     OW30844   2.329   1.764   6.199 -0.1688  0.3370 -0.2318
 6461SOL    HW130845   2.309   1.857   6.213 -2.4381 -0.3379  1.0326
 6461SOL    HW230846   2.314   1.727   6.286  0.0919 -0.1900 -0.4156
 6462SOL     OW30847   1.813   0.024   3.075 -0.2523  0.4728 -0.1489
 6462SOL    HW130848   1.799   4.668   3.026 -4.1970 -0.0679  1.9221
 6462SOL    HW230849   1.884   0.058   3.021 -0.5483  1.8149  0.3085
 6463SOL     OW30850   4.060   2.533  12.771  0.3519 -0.3066 -0.5104
 6463SOL    HW130851   3.990   2.555  12.833 -0.4927  0.0377 -1.5875
 6463SOL    HW230852   4.113   2.607  12.801  3.6656 -2.3801 -1.2322
 6464SOL     OW30853   2.092   2.324   5.110  0.3837 -0.2463 -0.0056
 6464SOL    HW130854   2.112   2.253   5.171 -0.3200 -0.5348 -0.1173
 6464SOL    HW230855   2.011   2.296   5.067 -0.7201  1.1989  1.1111
 6465SOL     OW30856   1.329   0.855   7.115 -0.0159  0.5208  0.3498
 6465SOL    HW130857   1.309   0.857   7.209  0.2430  2.6909  0.3409
 6465SOL    HW230858   1.328   0.949   7.101 -0.8915  0.5392  0.5112
 6466SOL     OW30859   2.759   2.458  16.680 -0.1727 -0.5841  0.5571
 6466SOL    HW130860   2.813   2.527  16.642 -1.2160  0.0763  0.2723
 6466SOL    HW230861   2.749   2.395  16.609 -0.4895 -1.2597  1.1989
 6467SOL     OW30862   1.522   4.243   2.013 -0.0093  0.1676  0.4347
 6467SOL    HW130863   1.542   4.278   2.099 -1.3792 -0.8854  1.1772
 6467SOL    HW230864   1.473   4.161   2.023  0.6881 -0.3044  0.0021
 6468SOL     OW30865   0.457   2.857  14.908  0.1223 -0.7803 -0.5657
 6468SOL    HW130866   0.477   2.910  14.986 -1.5245  0.9525 -1.3222
 6468SOL    HW230867   0.436   2.773  14.949 -0.3760  0.1438  1.0816
 6469SOL     OW30868   1.356   0.067   3.876  0.7095  0.3204 -0.7468
 6469SOL    HW130869   1.392   0.135   3.933 -1.2390 -0.0124  0.8790
 6469SOL    HW230870   1.429   0.008   3.859 -0.4726 -0.8430 -1.7699
 6470SOL     OW30871   0.095   1.780  13.823  0.4136  0.0427 -0.3128
 6470SOL    HW130872   0.187   1.803  13.829  0.4878 -0.6156  1.1879
 6470SOL    HW230873   0.057   1.852  13.873 -0.3632 -0.4097 -0.2466
 6471SOL     OW30874   0.480   2.455  15.661 -0.7384 -0.3199 -0.1611
 6471SOL    HW130875   0.445   2.379  15.708 -0.1776 -1.0203 -0.8634
 6471SOL    HW230876   0.450   2.442  15.570  1.7802 -2.1299 -0.7275
 6472SOL     OW30877   2.110   0.334   3.857  0.5049  0.0886 -0.1784
 6472SOL    HW130878   2.103   0.418   3.811  0.1583 -0.3932 -1.0121
 6472SOL    HW230879   2.022   0.298   3.846  0.0509  1.4221 -0.9536
 6473SOL     OW30880   1.750   3.133   7.032 -0.0746 -0.3005 -0.0328
 6473SOL    HW130881   1.796   3.198   6.979 -0.4408 -0.3672 -0.4301
 6473SOL    HW230882   1.658   3.158   7.024 -0.3236 -1.2113 -0.0308
 6474SOL     OW30883   0.141   3.364  16.734  0.4423  0.2005  0.6330
 6474SOL    HW130884   0.146   3.392  16.825  0.9801  0.3054  0.5689
 6474SOL    HW230885   0.181   3.277  16.740 -1.1046 -0.4335  1.7416
 6475SOL     OW30886   4.060   2.205   9.799 -0.1991  0.3452 -0.5092
 6475SOL    HW130887   4.092   2.290   9.769 -0.7569  0.1433 -1.6846
 6475SOL    HW230888   4.131   2.146   9.773 -2.3335 -3.4634  2.3633
 6476SOL     OW30889   1.327   3.203   3.880 -0.2142 -0.3181 -0.2946
 6476SOL    HW130890   1.339   3.208   3.974 -1.0023 -1.4213 -0.1466
 6476SOL    HW230891   1.325   3.108   3.880 -0.9845 -0.2909  0.8950
 6477SOL     OW30892   4.610   3.624   2.892  0.1663 -0.1754  0.0701
 6477SOL    HW130893   4.637   3.701   2.843 -0.2534  0.2733  0.5525
 6477SOL    HW230894   4.530   3.660   2.929 -0.3944  0.3370 -1.6745
 6478SOL     OW30895   4.186   3.940   3.580 -0.4473 -0.2450  0.6661
 6478SOL    HW130896   4.093   3.942   3.555  0.3228  1.9798 -1.8936
 6478SOL    HW230897   4.210   4.032   3.574  0.6976 -0.6251 -0.6181
 6479SOL     OW30898   4.502   4.532   9.130  0.1422  0.0451  0.1414
 6479SOL    HW130899   4.561   4.472   9.083  1.9903  1.4689  0.6607
 6479SOL    HW230900   4.437   4.467   9.159 -1.1909  0.8293 -1.0622
 6480SOL     OW30901   2.108   2.142   6.478 -0.2865  0.3664 -0.0859
 6480SOL    HW130902   2.053   2.195   6.536  0.0491 -1.3895  1.8426
 6480SOL    HW230903   2.194   2.183   6.484 -1.1259  1.9800  1.1030
 6481SOL     OW30904   4.385   3.074   2.762 -0.1744 -0.4133 -0.0543
 6481SOL    HW130905   4.343   2.996   2.800 -0.0639  0.4105  1.7417
 6481SOL    HW230906   4.327   3.087   2.687  1.0950 -1.0201 -1.1465
 6482SOL     OW30907   2.370   1.083  11.239 -0.2958  0.7204 -0.2393
 6482SOL    HW130908   2.460   1.061  11.261 -0.2564  2.0404  0.8694
 6482SOL    HW230909   2.323   1.003  11.263  0.6458  0.3565  0.3565
 6483SOL     OW30910   3.596   2.194   8.695  0.1932 -0.4164  0.0523
 6483SOL    HW130911   3.605   2.264   8.760 -0.5730 -0.1126 -0.1671
 6483SOL    HW230912   3.503   2.211   8.682 -0.0196 -0.6337  1.2151
 6484SOL     OW30913   3.522   4.655   6.047  0.5656 -0.0087 -0.3845
 6484SOL    HW130914   3.559   4.575   6.009 -1.8606 -1.0308 -0.6321
 6484SOL    HW230915   3.587   4.675   6.114 -1.9340  0.5629  1.9120
 6485SOL     OW30916   1.318   4.658   8.132  0.2890 -0.4833  0.1375
 6485SOL    HW130917   1.332   0.017   8.176 -2.4216 -0.6632  1.3634
 6485SOL    HW230918   1.290   4.604   8.206 -2.4250 -1.2183 -1.4521
 6486SOL     OW30919   2.916   4.633   6.478  0.2350 -0.3491 -0.2488
 6486SOL    HW130920   2.828   4.610   6.448  1.3359 -0.7200 -3.2227
 6486SOL    HW230921   2.962   4.550   6.481 -0.6620 -0.9158 -2.0002
 6487SOL     OW30922   0.319   3.673   8.803  0.2454 -0.3116 -0.1721
 6487SOL    HW130923   0.355   3.742   8.747 -0.4311  1.5481  1.6728
 6487SOL    HW230924   0.391   3.611   8.802  0.3111 -0.2012 -2.2282
 6488SOL     OW30925   1.135   3.145   5.229 -0.5961 -0.2635 -0.3736
 6488SOL    HW130926   1.080   3.195   5.168  0.7365 -0.0066 -1.3504
 6488SOL    HW230927   1.180   3.211   5.281  1.5066 -1.8714 -0.1853
 6489SOL     OW30928   1.588   3.749   0.377 -0.1907  0.5963  0.5341
 6489SOL    HW130929   1.622   3.820   0.323  0.3562  0.1765  0.3279
 6489SOL    HW230930   1.671   3.721   0.415  0.1415  1.2999  0.3374
 6490SOL     OW30931   1.932   1.703   6.632  0.2651 -0.3781  0.0780
 6490SOL    HW130932   1.870   1.633   6.654 -0.1317  0.7297  2.5336
 6490SOL    HW230933   1.966   1.668   6.550  0.2335 -0.4268  0.0855
 6491SOL     OW30934   2.141   0.937   9.212 -0.1162  0.1618 -0.5352
 6491SOL    HW130935   2.100   1.023   9.210  0.9551  0.6629 -0.6422
 6491SOL    HW230936   2.231   0.958   9.239 -0.2941  0.7152 -0.3643
 6492SOL     OW30937   1.791   1.678   3.029  0.3659  0.0037  0.5465
 6492SOL    HW130938   1.787   1.583   3.015 -0.0509  0.3378 -1.5582
 6492SOL    HW230939   1.885   1.685   3.017  0.6092 -0.5492  2.1267
 6493SOL     OW30940   3.247   2.244  16.143  0.3594 -0.2305  0.0881
 6493SOL    HW130941   3.249   2.327  16.192 -2.7605  0.1065 -0.3454
 6493SOL    HW230942   3.260   2.176  16.209 -0.0148  1.7750  2.2247
 6494SOL     OW30943   4.541   3.574   3.575  0.3833  0.0355  1.1253
 6494SOL    HW130944   4.478   3.641   3.602 -0.0236  0.4939 -0.9470
 6494SOL    HW230945   4.617   3.626   3.548  0.1544 -0.4868 -0.5368
 6495SOL     OW30946   3.839   4.554  17.193  0.3583 -0.0255  0.4255
 6495SOL    HW130947   3.833   4.539  17.288 -0.5715  0.8135  0.4976
 6495SOL    HW230948   3.794   4.638  17.198  0.9054  0.3199 -0.4172
 6496SOL     OW30949   2.041   1.975  11.111  0.0813 -0.1013 -0.3857
 6496SOL    HW130950   2.113   2.018  11.064 -2.0074  3.0058 -0.7445
 6496SOL    HW230951   2.012   1.912  11.044 -2.4304  0.9412 -0.2857
 6497SOL     OW30952   0.632   0.053   8.655 -0.4372 -0.3688 -0.3564
 6497SOL    HW130953   0.568   0.056   8.584 -0.1669  0.3469 -0.5639
 6497SOL    HW230954   0.660   0.144   8.655 -0.7135 -0.2883  2.4247
 6498SOL     OW30955   3.485   2.050   5.808  1.1225  0.4321  0.8425
 6498SOL    HW130956   3.546   2.108   5.854 -1.5382  2.4650  1.8402
 6498SOL    HW230957   3.434   2.119   5.765  1.4546  0.5225  0.5914
 6499SOL     OW30958   0.389   2.260   8.988  0.2000 -1.0686 -0.1000
 6499SOL    HW130959   0.415   2.174   9.021 -0.6039 -1.5385 -0.6771
 6499SOL    HW230960   0.447   2.316   9.038  0.0362  0.2264 -1.3715
 6500SOL     OW30961   1.517   3.364   3.756  0.3927 -0.3726  0.1148
 6500SOL    HW130962   1.477   3.293   3.805 -1.4407  0.0495 -0.7479
 6500SOL    HW230963   1.461   3.438   3.782  0.3309 -1.1036  2.0259
 6501SOL     OW30964   3.787   0.388   7.143 -0.3008 -0.4173 -0.4159
 6501SOL    HW130965   3.794   0.314   7.203  1.7321  1.4753  1.6927
 6501SOL    HW230966   3.702   0.421   7.171 -0.1606  0.4273 -0.9736
 6502SOL     OW30967   1.841   0.508   8.816  0.7292  0.2890  0.2219
 6502SOL    HW130968   1.926   0.496   8.773  1.0808 -0.3764  1.1135
 6502SOL    HW230969   1.866   0.535   8.905  3.4916 -0.2801 -0.3573
 6503SOL     OW30970   0.853   1.988  10.920  0.3568 -0.2093 -0.2750
 6503SOL    HW130971   0.878   1.959  11.008  0.7809 -0.2279 -0.3999
 6503SOL    HW230972   0.942   1.995  10.885  0.8680 -1.2431  0.8164
 6504SOL     OW30973   2.060   1.799   2.477 -1.2173  0.4048  0.3910
 6504SOL    HW130974   2.107   1.871   2.518 -1.7885  0.5521  0.7859
 6504SOL    HW230975   1.975   1.841   2.464 -1.4539  0.0787  0.8955
 6505SOL     OW30976   1.812   2.621   4.119 -0.3185  0.4161 -0.1447
 6505SOL    HW130977   1.816   2.582   4.032  0.1889 -0.3028  0.2068
 6505SOL    HW230978   1.872   2.695   4.115 -1.4736  1.4491  1.3934
 6506SOL     OW30979   1.504   2.619   4.031  0.0207  0.1049 -0.1206
 6506SOL    HW130980   1.559   2.543   4.012  0.7806  0.9046 -1.0943
 6506SOL    HW230981   1.563   2.664   4.092 -0.6896 -0.0756  0.7042
 6507SOL     OW30982   0.432   4.034  10.744 -0.6081  0.3459  0.2082
 6507SOL    HW130983   0.486   4.056  10.820  0.8227 -1.0738 -0.3846
 6507SOL    HW230984   0.508   4.015  10.689 -1.6089 -0.1918 -0.9846
 6508SOL     OW30985   1.565   1.676   9.030  0.0874  0.0058  0.0289
 6508SOL    HW130986   1.544   1.598   9.081  2.2791 -1.7003 -1.6427
 6508SOL    HW230987   1.477   1.712   9.021 -0.5192 -1.1092  1.5699
 6509SOL     OW30988   0.269   4.723   6.047  0.7672 -0.2100 -0.3390
 6509SOL    HW130989   0.273   0.091   6.065 -1.3895  0.1391 -1.6197
 6509SOL    HW230990   0.240   4.699   6.135  0.5828  2.3221  0.2838
 6510SOL     OW30991   2.444   3.307   0.504 -0.7868  0.5116  0.3688
 6510SOL    HW130992   2.473   3.396   0.526  1.2520  0.2415 -1.1905
 6510SOL    HW230993   2.518   3.250   0.525 -0.3593  0.8852 -0.1107
 6511SOL     OW30994   2.717   4.219   3.033  0.3861  0.0775  0.5441
 6511SOL    HW130995   2.750   4.305   3.059  0.6823  0.7503 -2.0160
 6511SOL    HW230996   2.630   4.237   2.998  0.4300  0.2403  0.5182
 6512SOL     OW30997   3.465   1.505   4.078 -0.1821  0.5049  0.1807
 6512SOL    HW130998   3.396   1.458   4.033  0.7929 -1.1316  0.3965
 6512SOL    HW230999   3.525   1.497   4.003 -0.2560 -3.8167  0.6067
 6513SOL     OW31000   2.531   3.385   5.143 -0.0158  0.2087 -0.0621
 6513SOL    HW131001   2.444   3.399   5.104 -0.5306 -1.4077  0.5162
 6513SOL    HW231002   2.589   3.433   5.084 -0.6909  0.3210 -0.6336
 6514SOL     OW31003   0.457   2.530   3.590 -0.0667 -0.0709 -0.0257
 6514SOL    HW131004   0.428   2.616   3.561  0.7193  0.2642  0.1994
 6514SOL    HW231005   0.477   2.496   3.502 -1.6398  0.6506 -0.6530
 6515SOL     OW31006   2.323   2.424  11.912  0.0296 -0.1792 -0.3962
 6515SOL    HW131007   2.240   2.378  11.902 -0.5609  0.6192  0.7567
 6515SOL    HW231008   2.340   2.446  11.821 -0.1684 -0.6954 -0.5575
 6516SOL     OW31009   1.413   2.392   5.898  0.0940  0.3558 -0.3055
 6516SOL    HW131010   1.472   2.331   5.854  0.1124 -0.7403  1.2192
 6516SOL    HW231011   1.443   2.370   5.987 -1.2527  4.1354  1.0885
 6517SOL     OW31012   2.390   1.241  14.784  0.6596 -0.2958  0.1306
 6517SOL    HW131013   2.337   1.312  14.750  1.7906  0.8977  0.8586
 6517SOL    HW231014   2.454   1.242  14.713  0.5391 -1.4728  0.0052
 6518SOL     OW31015   4.246   1.121   6.125  0.2717  0.3849  0.3723
 6518SOL    HW131016   4.274   1.195   6.071  0.4806 -1.2631 -1.7916
 6518SOL    HW231017   4.180   1.081   6.069  1.8878 -0.9009 -0.6299
 6519SOL     OW31018   0.912   0.508   1.098  0.0091  0.0462  0.0002
 6519SOL    HW131019   0.851   0.562   1.147 -1.8066 -0.2483 -1.9620
 6519SOL    HW231020   0.902   0.541   1.009 -1.9903 -1.1095 -0.2095
 6520SOL     OW31021   4.112   3.158   0.890 -0.5469  0.7745  0.0946
 6520SOL    HW131022   4.130   3.079   0.941 -0.2623  1.2679  0.7668
 6520SOL    HW231023   4.191   3.209   0.908 -0.4871  0.8285 -0.3107
 6521SOL     OW31024   2.467   0.329   5.525  0.7547 -0.2349  0.0884
 6521SOL    HW131025   2.481   0.355   5.434  1.9974  0.1290  0.3856
 6521SOL    HW231026   2.388   0.276   5.516 -0.5241  1.7945 -0.8516
 6522SOL     OW31027   2.262   4.440   7.669 -0.2637 -0.4726 -0.3984
 6522SOL    HW131028   2.316   4.365   7.692 -0.5044 -0.5540 -0.0910
 6522SOL    HW231029   2.220   4.475   7.748  1.0232 -1.2834  0.6398
 6523SOL     OW31030   0.833   3.462   2.166  0.4125 -0.2711 -0.1846
 6523SOL    HW131031   0.792   3.477   2.251  0.8243  0.1072 -0.0538
 6523SOL    HW231032   0.764   3.418   2.116 -0.5461  0.3646  0.5731
 6524SOL     OW31033   1.610   0.118  16.687 -0.4269  0.3246  0.6625
 6524SOL    HW131034   1.640   0.174  16.615 -0.7312 -0.3336  0.0249
 6524SOL    HW231035   1.600   0.181  16.758  2.3559 -0.3487  1.6663
 6525SOL     OW31036   3.061   1.572  15.460  0.2808 -0.1047 -0.6352
 6525SOL    HW131037   3.034   1.657  15.495 -1.0908 -0.7396 -0.1392
 6525SOL    HW231038   3.147   1.564  15.500 -0.4296 -0.4216  0.8090
 6526SOL     OW31039   3.380   2.480  12.186  0.3423 -0.6547  0.2952
 6526SOL    HW131040   3.354   2.388  12.183  0.8414 -0.8418  1.9494
 6526SOL    HW231041   3.467   2.486  12.146 -1.5363 -1.2988 -3.9353
 6527SOL     OW31042   4.162   0.418   6.155  0.3440 -0.4113  0.5471
 6527SOL    HW131043   4.240   0.452   6.112 -1.8954  1.4111 -2.0688
 6527SOL    HW231044   4.105   0.394   6.082  0.8361 -2.0798  0.7017
 6528SOL     OW31045   1.502   1.167   5.816  0.6062 -0.2618 -1.2715
 6528SOL    HW131046   1.581   1.118   5.841 -0.6563 -0.2756  2.8067
 6528SOL    HW231047   1.534   1.256   5.821  1.7192 -0.7043 -0.5402
 6529SOL     OW31048   2.528   0.157  16.867 -0.0120 -0.0350 -0.0280
 6529SOL    HW131049   2.619   0.132  16.883 -0.3008 -0.4102  1.0695
 6529SOL    HW231050   2.491   0.112  16.943  0.3616  0.1519  0.2631
 6530SOL     OW31051   1.819   1.335   0.254  0.5469  0.0662 -0.4976
 6530SOL    HW131052   1.800   1.246   0.284 -1.0344  1.0202  1.3569
 6530SOL    HW231053   1.871   1.317   0.176 -3.0106 -0.2389 -2.7868
 6531SOL     OW31054   0.222   0.357   7.346  0.0159  0.1808  0.4483
 6531SOL    HW131055   0.228   0.444   7.386  0.6149 -1.0975  3.0914
 6531SOL    HW231056   0.193   0.303   7.419 -1.3545  0.7368  0.2995
 6532SOL     OW31057   0.507   3.904   3.714 -0.0223  0.3446  0.2253
 6532SOL    HW131058   0.575   3.837   3.722  1.7803  1.7704 -3.3056
 6532SOL    HW231059   0.487   3.905   3.620 -0.1505 -0.7999  0.2436
 6533SOL     OW31060   0.728   2.761   6.985  0.2949  0.2942 -0.3690
 6533SOL    HW131061   0.738   2.738   7.077 -0.3355  0.5942 -0.2239
 6533SOL    HW231062   0.812   2.726   6.954  0.9572  1.5282  0.0124
 6534SOL     OW31063   2.411   4.189   3.285  0.2893 -0.6676 -0.4533
 6534SOL    HW131064   2.399   4.240   3.365  0.1500 -0.1688 -0.7899
 6534SOL    HW231065   2.342   4.125   3.300 -0.4415 -0.3745 -2.4912
 6535SOL     OW31066   1.144   3.211  10.294 -0.0939  0.2173 -0.2068
 6535SOL    HW131067   1.174   3.302  10.286  2.4384 -0.3807  2.1628
 6535SOL    HW231068   1.227   3.165  10.283 -0.7360 -1.2941  1.2534
 6536SOL     OW31069   0.287   1.919  16.981  0.2164 -0.4648 -0.1547
 6536SOL    HW131070   0.340   1.841  16.962 -0.6081 -1.4760  1.6476
 6536SOL    HW231071   0.233   1.933  16.904  0.0071 -2.2845 -0.3433
 6537SOL     OW31072   4.363   2.582   2.992  0.3070  0.0427 -0.2413
 6537SOL    HW131073   4.449   2.540   2.995  1.0952  1.5851 -1.0240
 6537SOL    HW231074   4.322   2.552   3.073  0.2162  0.3415 -0.1760
 6538SOL     OW31075   1.287   3.406   4.819  0.3784 -0.8102 -0.1817
 6538SOL    HW131076   1.361   3.346   4.825  1.4437  0.6355  0.8442
 6538SOL    HW231077   1.220   3.356   4.866  1.5010 -3.6160 -1.5484
 6539SOL     OW31078   3.239   4.041   5.424  0.0729 -0.6280  0.3125
 6539SOL    HW131079   3.161   3.996   5.392 -0.1848  0.7593 -1.0654
 6539SOL    HW231080   3.213   4.106   5.489  0.9064  2.1461 -2.0813
 6540SOL     OW31081   2.041   4.144   2.106 -0.0117  0.3874  0.5129
 6540SOL    HW131082   2.043   4.155   2.011 -0.3528 -0.4721  0.4017
 6540SOL    HW231083   1.955   4.182   2.121 -0.0900  0.3080  0.2618
 6541SOL     OW31084   2.886   3.121   2.226 -0.1966 -0.2270  0.4550
 6541SOL    HW131085   2.796   3.153   2.222 -0.5154 -1.4456 -2.0790
 6541SOL    HW231086   2.933   3.202   2.207  2.4370 -1.5732  1.3490
 6542SOL     OW31087   1.378   0.883   3.859  0.0932 -0.9938 -0.1246
 6542SOL    HW131088   1.335   0.847   3.782 -1.8541  0.1471  0.4151
 6542SOL    HW231089   1.411   0.968   3.829 -1.0165 -1.7111 -3.2859
 6543SOL     OW31090   1.045   0.949  17.252  0.3077  0.0588 -0.8601
 6543SOL    HW131091   0.958   0.983  17.231 -0.5466 -0.7617  1.3691
 6543SOL    HW231092   1.023   0.857  17.238  3.0555 -0.5083 -1.4426
 6544SOL     OW31093   3.538   4.295  14.821 -0.6694  0.6946  0.0033
 6544SOL    HW131094   3.515   4.219  14.874  0.5592  1.9773  2.3907
 6544SOL    HW231095   3.460   4.348  14.805  1.6356  4.2879  0.5232
 6545SOL     OW31096   0.444   0.718  14.715 -0.3527  0.3907  0.3368
 6545SOL    HW131097   0.409   0.679  14.635 -0.3940  0.7617  0.1766
 6545SOL    HW231098   0.485   0.645  14.761 -2.0189 -0.6061  0.2388
 6546SOL     OW31099   0.706   4.359   2.243  0.6320 -0.4276 -0.4667
 6546SOL    HW131100   0.622   4.345   2.199  1.4404 -0.1891 -2.0976
 6546SOL    HW231101   0.770   4.310   2.191 -0.0638 -0.8176 -0.9561
 6547SOL     OW31102   3.342   2.470  12.634  0.9465 -0.0537 -0.3514
 6547SOL    HW131103   3.271   2.434  12.580  1.3291 -0.6517 -0.4597
 6547SOL    HW231104   3.348   2.554  12.588  2.6526  0.8036  1.4385
 6548SOL     OW31105   4.562   2.817   8.139 -0.0266 -0.2123 -0.4079
 6548SOL    HW131106   4.471   2.843   8.147  0.2395 -0.0014  1.7667
 6548SOL    HW231107   4.565   2.759   8.215 -0.2372  2.1562  1.4056
 6549SOL     OW31108   0.140   3.974   8.727  0.1068 -0.0558 -0.0459
 6549SOL    HW131109   0.131   3.917   8.803 -1.7710 -0.8343 -0.8426
 6549SOL    HW231110   0.119   4.062   8.759  0.2133  0.1651 -0.5904
 6550SOL     OW31111   0.364   1.932  11.361  0.0648  0.3522 -0.4974
 6550SOL    HW131112   0.425   1.996  11.398 -1.3444  0.9837  0.7648
 6550SOL    HW231113   0.302   1.941  11.434  0.7096 -0.3688  0.1322
 6551SOL     OW31114   0.006   0.728  11.508 -0.2316  0.4441  0.5130
 6551SOL    HW131115   4.696   0.816  11.525  1.2901  0.7985  1.8101
 6551SOL    HW231116   4.683   0.711  11.427  0.7728  0.8249 -0.1631
 6552SOL     OW31117   3.005   0.154  12.245  0.6299  0.2720 -0.1144
 6552SOL    HW131118   2.969   0.192  12.324  0.9109  0.8505 -0.2680
 6552SOL    HW231119   2.997   0.059  12.255  0.1707  0.7404  3.7343
 6553SOL     OW31120   3.165   2.587  15.532 -0.2150  0.3638  0.0663
 6553SOL    HW131121   3.161   2.493  15.515 -0.3418  0.2365  0.7627
 6553SOL    HW231122   3.071   2.605  15.528  0.0463  1.7829  0.3805
 6554SOL     OW31123   4.687   0.184  10.186  0.4852  0.2598  0.0555
 6554SOL    HW131124   4.704   0.194  10.092  1.0645 -1.8391 -0.0716
 6554SOL    HW231125   4.713   0.092  10.181  0.5178  0.2684  0.0655
 6555SOL     OW31126   3.828   4.535  10.137 -0.2861  0.2713  0.2001
 6555SOL    HW131127   3.908   4.519  10.087 -0.3665 -0.4480  0.2932
 6555SOL    HW231128   3.867   4.512  10.221 -0.0875 -0.3203 -0.0559
 6556SOL     OW31129   1.619   1.757  16.776 -0.1908 -0.8601  0.3228
 6556SOL    HW131130   1.607   1.846  16.745 -0.4700 -0.9551  0.1534
 6556SOL    HW231131   1.657   1.777  16.861 -1.5298 -0.9339  0.9452
 6557SOL     OW31132   3.568   2.147   4.416  0.4299 -0.0700 -0.4874
 6557SOL    HW131133   3.504   2.076   4.422 -0.6809  0.6811 -3.4041
 6557SOL    HW231134   3.529   2.192   4.341 -0.7295  0.4526  0.4286
 6558SOL     OW31135   1.417   1.287   7.350  0.0597 -0.2756  0.0911
 6558SOL    HW131136   1.469   1.207   7.357  2.2055  0.8754 -2.3319
 6558SOL    HW231137   1.400   1.305   7.442  1.2921  0.8552  0.0915
 6559SOL     OW31138   1.995   1.292  10.213 -0.7830  0.4154  0.0385
 6559SOL    HW131139   2.061   1.274  10.280  0.3080  2.1189 -0.5774
 6559SOL    HW231140   2.021   1.231  10.144 -2.2190  0.1800 -0.2865
 6560SOL     OW31141   1.536   2.020   0.107  0.1589 -0.0281 -0.0572
 6560SOL    HW131142   1.443   2.003   0.097  0.0309  0.2750  0.6412
 6560SOL    HW231143   1.555   1.989   0.196 -0.5874 -1.4222 -0.3746
 6561SOL     OW31144   0.949   2.064   6.133  0.0428  0.1906 -0.2368
 6561SOL    HW131145   0.936   1.975   6.166  1.8303  0.1930  0.4686
 6561SOL    HW231146   0.942   2.040   6.041  0.1393  2.8526 -0.9442
 6562SOL     OW31147   0.265   1.570   1.268  0.3974 -0.4106 -0.2988
 6562SOL    HW131148   0.209   1.599   1.340  0.0469  0.1500 -0.8009
 6562SOL    HW231149   0.317   1.649   1.262  1.5207 -1.0835  0.4435
 6563SOL     OW31150   2.551   4.314  10.832  0.8614 -0.4601  0.4961
 6563SOL    HW131151   2.547   4.330  10.926  1.2766 -2.9614  0.9457
 6563SOL    HW231152   2.491   4.381  10.800 -0.1006 -1.3119  0.5235
 6564SOL     OW31153   2.597   1.571   2.656 -0.3892 -0.1165  0.2014
 6564SOL    HW131154   2.592   1.653   2.705  2.0044  0.2295 -0.1321
 6564SOL    HW231155   2.503   1.560   2.646 -0.0043 -0.8008 -2.5322
 6565SOL     OW31156   2.371   4.322  10.375  0.0851  0.1503 -0.3393
 6565SOL    HW131157   2.314   4.293  10.446  1.7027 -2.0518  0.0838
 6565SOL    HW231158   2.401   4.244  10.329 -2.0060 -0.7985 -0.0485
 6566SOL     OW31159   3.384   2.948   7.412 -0.1032 -0.4229  0.3438
 6566SOL    HW131160   3.383   2.958   7.507 -2.3794  0.0613  0.2541
 6566SOL    HW231161   3.479   2.937   7.406 -0.4082 -1.7178 -2.4627
 6567SOL     OW31162   2.604   1.949   6.544  0.1606 -0.0994 -0.1766
 6567SOL    HW131163   2.613   1.858   6.570  1.7997 -0.0520 -0.5777
 6567SOL    HW231164   2.518   1.947   6.501  0.7974 -0.6057 -1.4478
 6568SOL     OW31165   3.923   3.427   0.992  0.2463 -0.6843  0.0165
 6568SOL    HW131166   3.904   3.335   1.014 -1.3830  0.1063  1.8778
 6568SOL    HW231167   3.962   3.470   1.068  2.9228  0.5303 -2.0785
 6569SOL     OW31168   2.293   2.761   1.920 -0.3771 -0.5789  0.0582
 6569SOL    HW131169   2.208   2.805   1.915  0.3553  0.6770 -1.3786
 6569SOL    HW231170   2.344   2.835   1.951  0.4997 -1.3434  0.4461
 6570SOL     OW31171   2.909   1.683   6.190  0.1126 -0.1065  0.0382
 6570SOL    HW131172   2.930   1.776   6.186  2.8679 -0.6715  1.0660
 6570SOL    HW231173   2.861   1.669   6.109  2.6676 -2.2364 -1.1356
 6571SOL     OW31174   3.806   0.659  15.358 -0.2412 -0.0290 -0.1191
 6571SOL    HW131175   3.857   0.740  15.360 -1.3775  0.6509  1.6371
 6571SOL    HW231176   3.756   0.668  15.278 -0.0170  1.3036 -0.1098
 6572SOL     OW31177   3.550   0.724   0.606 -0.4162 -0.3960 -0.2318
 6572SOL    HW131178   3.495   0.706   0.682  1.2825 -0.3632  1.0318
 6572SOL    HW231179   3.486   0.741   0.538 -0.0117  4.4102  0.5532
 6573SOL     OW31180   1.864   4.003  11.144 -0.1386  0.0739 -0.4496
 6573SOL    HW131181   1.950   3.982  11.180 -0.9372 -1.0281  0.8305
 6573SOL    HW231182   1.826   3.915  11.143 -1.2090  0.5240  0.6428
 6574SOL     OW31183   2.790   1.526   7.605  0.0102  0.0453 -0.2958
 6574SOL    HW131184   2.819   1.436   7.622 -0.3394  0.2859  1.5299
 6574SOL    HW231185   2.819   1.537   7.514 -0.0455  1.8890 -0.0846
 6575SOL     OW31186   2.301   1.508   3.877 -0.0571  0.2360 -0.1173
 6575SOL    HW131187   2.253   1.502   3.960 -1.2044 -0.4309 -0.8321
 6575SOL    HW231188   2.322   1.416   3.860 -1.7749 -0.6275  2.4148
 6576SOL     OW31189   3.328   0.898   4.774  0.2669 -0.1915  0.2215
 6576SOL    HW131190   3.258   0.957   4.743  0.6719 -0.6191 -1.5353
 6576SOL    HW231191   3.302   0.809   4.753  0.1966 -0.0644 -0.2331
 6577SOL     OW31192   4.439   3.460   3.137  0.4059  0.4953  0.3538
 6577SOL    HW131193   4.491   3.460   3.217 -0.8504 -1.7101  1.1813
 6577SOL    HW231194   4.457   3.549   3.110 -2.9203  1.0712 -0.0110
 6578SOL     OW31195   2.255   4.674   5.095 -0.2255  0.0545  0.0338
 6578SOL    HW131196   2.280   4.689   5.186 -3.0624  1.1037  0.6198
 6578SOL    HW231197   2.275   4.583   5.073  2.6980  0.6898  0.0003
 6579SOL     OW31198   3.672   1.349   5.994 -1.0512 -0.6232  0.2547
 6579SOL    HW131199   3.687   1.381   6.083  1.7451 -0.9925 -0.0998
 6579SOL    HW231200   3.623   1.423   5.956 -0.6862 -1.7894 -2.4905
 6580SOL     OW31201   1.504   1.374   8.275  0.0173 -0.2812 -0.4517
 6580SOL    HW131202   1.473   1.321   8.202  0.3885 -1.3349  0.1705
 6580SOL    HW231203   1.596   1.348   8.269 -0.4135 -1.8611  0.0153
 6581SOL     OW31204   1.233   1.826  11.812 -0.3234  0.0183  0.0884
 6581SOL    HW131205   1.283   1.837  11.731  0.6658 -0.1126  0.6697
 6581SOL    HW231206   1.217   1.732  11.805  4.1808 -0.9840  2.9208
 6582SOL     OW31207   2.392   4.222   7.069  0.4278  0.0209 -0.1644
 6582SOL    HW131208   2.299   4.230   7.045  0.4213 -0.2862 -0.2420
 6582SOL    HW231209   2.432   4.256   6.989  2.7659  0.9577  1.4320
 6583SOL     OW31210   2.034   3.285   4.028 -0.6166 -0.2856 -0.7817
 6583SOL    HW131211   2.031   3.379   4.044 -0.8010 -0.7740  2.1644
 6583SOL    HW231212   2.123   3.270   4.061 -0.7082 -0.8170 -0.7680
 6584SOL     OW31213   1.581   4.183   8.815  0.0584 -0.4298  0.2357
 6584SOL    HW131214   1.636   4.106   8.828 -0.7629 -1.1501 -0.5894
 6584SOL    HW231215   1.495   4.147   8.835  0.8519 -2.5618 -0.1514
 6585SOL     OW31216   0.892   3.578   4.213  0.0582 -0.3524 -0.2596
 6585SOL    HW131217   0.956   3.644   4.186 -0.2585 -1.2925 -3.3280
 6585SOL    HW231218   0.947   3.538   4.281  0.2827  1.1294  0.4316
 6586SOL     OW31219   0.405   1.273  16.889  0.9122 -0.1272  0.3128
 6586SOL    HW131220   0.340   1.258  16.958 -1.0216  2.5396 -0.8892
 6586SOL    HW231221   0.465   1.333  16.934  0.2915 -0.0726  1.0858
 6587SOL     OW31222   0.796   4.585  13.292  0.3998  0.3303 -0.0753
 6587SOL    HW131223   0.886   4.613  13.273  1.2392 -2.8068 -0.6178
 6587SOL    HW231224   0.755   4.663  13.330  1.5845  1.8312 -1.8745
 6588SOL     OW31225   3.639   0.891  11.799 -0.3049 -0.1559  0.0304
 6588SOL    HW131226   3.685   0.847  11.728  0.5985  0.8804 -0.0198
 6588SOL    HW231227   3.569   0.827  11.811  0.8856 -1.2961  0.8619
 6589SOL     OW31228   1.585   4.633   9.196 -0.2935 -0.7531  0.3262
 6589SOL    HW131229   1.546   4.615   9.282 -3.1855 -0.6453 -0.9693
 6589SOL    HW231230   1.556   4.723   9.180 -0.4185 -0.5968  1.4075
 6590SOL     OW31231   3.124   3.237   3.077  0.7979 -0.0800 -0.1209
 6590SOL    HW131232   3.146   3.218   3.168  1.5437 -1.1894 -0.5258
 6590SOL    HW231233   3.136   3.155   3.028 -1.9084 -0.0625 -0.7714
 6591SOL     OW31234   1.380   2.509   7.858 -0.3048 -0.1259 -0.1154
 6591SOL    HW131235   1.414   2.594   7.887 -0.4686  0.2684 -1.0815
 6591SOL    HW231236   1.434   2.497   7.780  1.2387  3.0398  0.4295
 6592SOL     OW31237   4.669   4.250   3.230 -0.1091  0.0412  0.2179
 6592SOL    HW131238   4.586   4.210   3.208  0.1090 -0.0920 -0.3667
 6592SOL    HW231239   4.717   4.175   3.265  0.8926  0.4077 -0.3669
 6593SOL     OW31240   4.668   3.986  10.679  0.6916  1.0404 -0.1002
 6593SOL    HW131241   4.667   4.075  10.714 -0.6027  1.4285 -1.1534
 6593SOL    HW231242   0.035   3.988  10.653  0.7048 -0.2382 -0.1686
 6594SOL     OW31243   1.220   0.118   5.143  0.2608 -0.0201 -0.5473
 6594SOL    HW131244   1.296   0.138   5.198 -0.2772  1.8411 -0.4744
 6594SOL    HW231245   1.234   0.034   5.099  0.1465 -0.8268  0.9787
 6595SOL     OW31246   3.962   3.714   8.671  0.5031 -0.1176 -1.1017
 6595SOL    HW131247   3.937   3.714   8.579  0.4078 -0.9586 -1.0780
 6595SOL    HW231248   3.966   3.619   8.686 -0.5486  0.0526  0.2806
 6596SOL     OW31249   0.903   2.823   1.079 -0.4946 -0.4988 -0.2848
 6596SOL    HW131250   0.994   2.809   1.106  0.8046  2.6629 -3.0404
 6596SOL    HW231251   0.869   2.847   1.165 -0.4614  0.1572 -0.4517
 6597SOL     OW31252   3.704   1.209   3.469 -0.3813 -0.0656 -0.0162
 6597SOL    HW131253   3.765   1.220   3.396  2.6410 -3.1371  2.0398
 6597SOL    HW231254   3.633   1.174   3.416 -0.1468  0.7649 -0.8764
 6598SOL     OW31255   1.846   3.679  10.398  0.2993  0.3114  0.5127
 6598SOL    HW131256   1.827   3.716  10.312 -0.5913 -0.1881  0.4914
 6598SOL    HW231257   1.758   3.671  10.436  0.7946  0.6778  1.7300
 6599SOL     OW31258   1.811   1.542   0.769  0.5786  0.1494 -0.2776
 6599SOL    HW131259   1.833   1.593   0.848  0.0045 -1.8814  1.1994
 6599SOL    HW231260   1.761   1.606   0.718  1.5976 -0.2466 -1.7616
 6600SOL     OW31261   2.794   3.959   5.873 -0.1398 -0.5471  0.0329
 6600SOL    HW131262   2.717   4.012   5.892  0.6062  0.1651  1.0757
 6600SOL    HW231263   2.817   4.003   5.791 -1.1986  2.0704  1.1494
 6601SOL     OW31264   0.654   3.789  13.966 -0.2474  0.3702 -0.5260
 6601SOL    HW131265   0.611   3.726  13.908 -0.8014  0.8054 -0.5876
 6601SOL    HW231266   0.580   3.837  14.005  0.3607 -0.1056  1.1726
 6602SOL     OW31267   0.470   1.148  10.928 -0.2924  0.5197  0.0707
 6602SOL    HW131268   0.529   1.075  10.949 -2.5112 -1.1098  0.5685
 6602SOL    HW231269   0.451   1.178  11.017 -0.3480 -1.6405  0.7835
 6603SOL     OW31270   1.917   1.670   2.081 -0.0248 -0.0138  0.0035
 6603SOL    HW131271   1.876   1.665   2.167  0.3429 -0.1189  0.1723
 6603SOL    HW231272   1.888   1.758   2.057 -0.9089 -0.8431 -1.9986
 6604SOL     OW31273   4.451   4.628   7.947 -0.2570 -0.3020  0.2974
 6604SOL    HW131274   4.509   4.694   7.908 -2.6617 -0.1874 -3.0599
 6604SOL    HW231275   4.366   4.655   7.913 -0.0731 -0.6188 -0.3978
 6605SOL     OW31276   2.170   0.100  10.629  0.0798 -0.0897 -0.0289
 6605SOL    HW131277   2.237   0.131  10.690 -1.3776 -1.3376  2.1826
 6605SOL    HW231278   2.223   0.075  10.553  2.4402 -0.5330  1.7879
 6606SOL     OW31279   3.194   1.527   7.573 -0.0427 -0.4248  0.6436
 6606SOL    HW131280   3.170   1.612   7.610 -0.3884 -0.3937  0.3397
 6606SOL    HW231281   3.232   1.563   7.493  2.8231 -1.4165  1.5208
 6607SOL     OW31282   1.835   0.971   7.235  0.0880  0.2412  0.5456
 6607SOL    HW131283   1.922   0.954   7.196 -0.2033  2.2806 -0.9963
 6607SOL    HW231284   1.782   0.896   7.209  1.6732 -0.1340 -1.6957
 6608SOL     OW31285   3.579   0.361   9.066  0.0747 -0.0132 -0.5729
 6608SOL    HW131286   3.529   0.422   9.121 -1.8354 -1.9450 -0.1634
 6608SOL    HW231287   3.670   0.369   9.095  0.4752  1.7189 -2.3052
 6609SOL     OW31288   2.243   4.717  16.741 -0.4001 -0.1263 -0.2241
 6609SOL    HW131289   2.297   4.638  16.750  0.6264  0.3905 -1.8955
 6609SOL    HW231290   2.226   0.013  16.833  0.0190  2.2848 -0.7028
 6610SOL     OW31291   3.349   1.804  11.695  0.2839  0.0670 -0.1657
 6610SOL    HW131292   3.263   1.846  11.693  1.2014  2.0654  2.2605
 6610SOL    HW231293   3.372   1.845  11.778 -1.8621  0.6639  0.1296
 6611SOL     OW31294   1.463   1.053   6.805  0.3918  0.0659  0.2466
 6611SOL    HW131295   1.447   1.135   6.757 -0.1047 -0.4532 -0.4654
 6611SOL    HW231296   1.501   1.080   6.888  0.5502  0.6997 -0.0299
 6612SOL     OW31297   3.810   3.003  12.270  0.5938 -0.3142  0.0659
 6612SOL    HW131298   3.737   3.026  12.212 -0.7891 -1.9883  1.1168
 6612SOL    HW231299   3.884   3.060  12.251 -0.1992  0.5174 -0.5798
 6613SOL     OW31300   1.102   4.669   0.832 -0.5802 -0.0200  0.3145
 6613SOL    HW131301   1.053   4.614   0.893  1.9869 -1.5817  0.9610
 6613SOL    HW231302   1.025   4.681   0.777  0.9636 -2.1247 -2.3082
 6614SOL     OW31303   1.606   1.090   7.286 -0.2348 -0.0631  0.6747
 6614SOL    HW131304   1.696   1.074   7.260 -0.4928 -2.5363  1.2591
 6614SOL    HW231305   1.598   1.025   7.356 -1.7941  1.9449  2.3890
 6615SOL     OW31306   3.165   0.506   0.892  0.0100  0.4178  0.3651
 6615SOL    HW131307   3.202   0.420   0.911  0.5857  0.5227 -0.2685
 6615SOL    HW231308   3.213   0.568   0.946 -0.0952 -0.0345  0.9688
 6616SOL     OW31309   4.626   0.711   4.183  0.0952  0.4550 -1.1503
 6616SOL    HW131310   4.714   0.749   4.183 -0.0720  0.8311  0.8810
 6616SOL    HW231311   4.608   0.710   4.089 -1.5324  2.8899 -0.8563
 6617SOL     OW31312   1.709   3.157   2.934 -0.0066  0.8191 -0.3481
 6617SOL    HW131313   1.719   3.174   2.840 -1.0716 -0.9403 -0.7700
 6617SOL    HW231314   1.718   3.062   2.928 -2.4071  0.6718 -1.4025
 6618SOL     OW31315   4.195   2.433   4.959 -0.2520 -0.8612 -0.1319
 6618SOL    HW131316   4.219   2.502   4.897  2.6697 -1.2174  0.6183
 6618SOL    HW231317   4.208   2.486   5.038 -1.5533 -2.1342  0.9391
 6619SOL     OW31318   3.814   2.984   2.470 -0.1349 -0.0228 -0.4316
 6619SOL    HW131319   3.866   3.053   2.428 -0.2255 -0.6873 -1.6537
 6619SOL    HW231320   3.737   2.993   2.414  0.0735 -0.8620 -0.8558
 6620SOL     OW31321   4.489   3.155  13.383  0.0281 -0.2397 -0.2606
 6620SOL    HW131322   4.445   3.239  13.374 -1.1107 -0.7118  0.7848
 6620SOL    HW231323   4.579   3.182  13.399 -0.1789  0.1346  0.2781
 6621SOL     OW31324   1.189   2.228  10.536  0.8623  0.5907 -0.6156
 6621SOL    HW131325   1.232   2.169  10.598  0.3368  1.4709  0.5765
 6621SOL    HW231326   1.243   2.306  10.547  1.6852 -0.4165  2.3015
 6622SOL     OW31327   1.590   1.025   8.117  0.0582 -0.4786  0.0462
 6622SOL    HW131328   1.533   1.057   8.186  1.0979 -0.6465  0.9874
 6622SOL    HW231329   1.589   0.935   8.150  2.0563 -0.4295  0.2556
 6623SOL     OW31330   2.263   1.889   4.495  0.0315  0.2314 -0.2578
 6623SOL    HW131331   2.232   1.970   4.454  1.0047  0.6051 -0.2644
 6623SOL    HW231332   2.242   1.907   4.587  0.7052 -0.9445  0.1212
 6624SOL     OW31333   4.034   3.955  15.261  0.2166 -0.2735 -0.1742
 6624SOL    HW131334   3.977   4.027  15.287  0.2642 -0.4287  0.3549
 6624SOL    HW231335   4.117   3.994  15.232 -0.0480  1.1520  1.0016
 6625SOL     OW31336   3.169   1.663  13.494  0.3786  0.9520 -0.5319
 6625SOL    HW131337   3.098   1.610  13.457  0.2777  1.3326 -0.8817
 6625SOL    HW231338   3.135   1.752  13.493 -0.2778  0.6955 -1.2860
 6626SOL     OW31339   0.213   3.172   3.749  0.3106 -0.6380 -0.3239
 6626SOL    HW131340   0.229   3.078   3.759 -0.5854 -0.5465  1.8988
 6626SOL    HW231341   0.298   3.208   3.726  1.7997 -2.1046  2.8430
 6627SOL     OW31342   2.659   1.627   2.379 -0.0425  0.3562  0.3735
 6627SOL    HW131343   2.628   1.544   2.345 -0.1204  1.1240 -1.4213
 6627SOL    HW231344   2.674   1.608   2.472  2.0503 -0.3098 -0.0962
 6628SOL     OW31345   1.662   3.494   2.456  0.3601 -0.1084 -0.3148
 6628SOL    HW131346   1.659   3.410   2.411 -1.4165  0.6224 -1.5612
 6628SOL    HW231347   1.710   3.478   2.537  0.5956  2.1706  0.0163
 6629SOL     OW31348   2.952   4.308   2.705  0.5196  0.5034 -0.1772
 6629SOL    HW131349   2.966   4.285   2.797  2.2924  0.7507 -0.3740
 6629SOL    HW231350   2.942   4.231   2.650 -1.7759  1.1433 -0.6289
 6630SOL     OW31351   2.254   2.244   1.652 -0.4262  0.1905 -0.6020
 6630SOL    HW131352   2.299   2.327   1.669  0.1859 -0.2583  0.0128
 6630SOL    HW231353   2.194   2.239   1.727  0.3598  1.5510  0.1300
 6631SOL     OW31354   1.473   2.940   4.106  0.1139  0.5113  0.5611
 6631SOL    HW131355   1.549   2.987   4.071  0.3080 -0.5665 -0.4942
 6631SOL    HW231356   1.514   2.914   4.189  2.3422  0.2417 -0.6072
 6632SOL     OW31357   3.396   1.859  11.977  0.0322 -1.3647 -0.1523
 6632SOL    HW131358   3.414   1.798  12.049  2.4106  0.5413  0.8638
 6632SOL    HW231359   3.310   1.897  11.995 -0.3805 -2.0374 -0.6761
 6633SOL     OW31360   0.101   2.631   0.193  0.9368  0.5311 -0.6854
 6633SOL    HW131361   0.058   2.588   0.119 -1.4013 -0.4412  1.2714
 6633SOL    HW231362   0.060   2.718   0.188 -0.8260 -0.2128  1.2110
 6634SOL     OW31363   2.023   0.670   6.774  0.7568  0.0142 -0.2481
 6634SOL    HW131364   1.955   0.636   6.716  0.7123 -0.7837  0.2721
 6634SOL    HW231365   2.075   0.706   6.701  0.6784 -1.0854 -0.8380
 6635SOL     OW31366   2.983   3.689   2.200  0.0906 -0.5396  0.1966
 6635SOL    HW131367   2.905   3.635   2.186 -0.4982  0.7178 -1.3523
 6635SOL    HW231368   2.955   3.718   2.287 -0.4993 -1.2553  0.2502
 6636SOL     OW31369   3.667   3.992   5.853  0.1089  0.0400  0.7568
 6636SOL    HW131370   3.635   3.927   5.915  0.4685 -2.0139 -1.2530
 6636SOL    HW231371   3.727   4.048   5.902  0.9456 -0.8401  0.7344
 6637SOL     OW31372   3.757   2.896   8.530 -0.5515  0.3224 -0.4766
 6637SOL    HW131373   3.778   2.864   8.618 -0.2158 -1.2125 -1.1157
 6637SOL    HW231374   3.685   2.953   8.558  1.1556  0.8352  2.9029
 6638SOL     OW31375   1.820   4.128   7.213  0.1675 -0.1216 -0.2014
 6638SOL    HW131376   1.896   4.186   7.213 -0.7440  1.0898  0.5577
 6638SOL    HW231377   1.848   4.075   7.287 -0.3439 -0.6938 -0.4207
 6639SOL     OW31378   3.135   4.584   8.620 -0.4175 -0.1277  0.5641
 6639SOL    HW131379   3.201   4.545   8.678  1.9500  1.5619 -0.9780
 6639SOL    HW231380   3.057   4.581   8.675 -0.5643  2.0449  0.4801
 6640SOL     OW31381   4.645   4.455   1.720  0.2110  0.0739  0.0410
 6640SOL    HW131382   4.610   4.467   1.632 -0.1011 -1.6735 -0.0713
 6640SOL    HW231383   4.568   4.410   1.755  0.4156  0.4307  0.9547
 6641SOL     OW31384   1.393   4.484   7.367 -0.8336 -0.0691  0.5687
 6641SOL    HW131385   1.439   4.453   7.445 -1.3226 -2.1680  0.0234
 6641SOL    HW231386   1.345   4.560   7.401 -1.7150 -0.8240  1.0230
 6642SOL     OW31387   0.224   2.380   0.220  0.3410 -0.3122  0.3669
 6642SOL    HW131388   0.184   2.467   0.225  2.0274  0.4618  0.2449
 6642SOL    HW231389   0.255   2.383   0.129  0.3398  2.6720  0.4747
 6643SOL     OW31390   0.705   0.805   5.677 -0.1924  0.1582  0.4184
 6643SOL    HW131391   0.621   0.775   5.642 -0.7454  0.1075  1.7677
 6643SOL    HW231392   0.729   0.879   5.621 -0.8775  0.1243  0.0763
 6644SOL     OW31393   0.489   1.874  13.153 -0.0537  0.6153  0.1745
 6644SOL    HW131394   0.569   1.892  13.104  1.1330  2.1459  2.7078
 6644SOL    HW231395   0.503   1.924  13.233  0.5957  0.8938 -0.1099
 6645SOL     OW31396   0.775   3.823   8.178 -0.2694 -0.8488  0.0932
 6645SOL    HW131397   0.749   3.876   8.103  1.9648  0.4446  0.2468
 6645SOL    HW231398   0.869   3.834   8.186 -0.2089 -2.0562  1.2149
 6646SOL     OW31399   2.763   3.451   2.384 -0.0910  0.1911 -0.4433
 6646SOL    HW131400   2.844   3.402   2.399  0.4061  1.0098 -0.4729
 6646SOL    HW231401   2.775   3.483   2.295  2.3788  0.6999  0.0530
 6647SOL     OW31402   2.714   2.802   8.476  0.0516  0.0686  0.2423
 6647SOL    HW131403   2.648   2.828   8.540  2.5318  0.7335  2.5113
 6647SOL    HW231404   2.665   2.738   8.425 -2.8256  1.9332  0.6715
 6648SOL     OW31405   2.365   3.984   3.543  0.1221 -0.3483 -0.6315
 6648SOL    HW131406   2.394   3.921   3.610  0.5325 -0.7900 -1.2305
 6648SOL    HW231407   2.412   4.058   3.579 -1.0724 -0.3809  1.0432
 6649SOL     OW31408   1.237   1.180  17.400  0.1389  0.2025  0.1122
 6649SOL    HW131409   1.320   1.189  17.445 -0.0448 -2.4391  0.9713
 6649SOL    HW231410   1.186   1.220  17.470 -0.3929 -2.4170  1.2202
 6650SOL     OW31411   1.467   2.732  14.987 -0.1517 -0.0718 -0.0018
 6650SOL    HW131412   1.381   2.712  15.024 -0.5123  0.0942 -0.7627
 6650SOL    HW231413   1.490   2.646  14.952  0.4575 -0.3801  1.1313
 6651SOL     OW31414   0.446   0.277   7.208 -0.4346  0.0514 -0.5877
 6651SOL    HW131415   0.477   0.202   7.259 -1.6466  0.2745  0.4607
 6651SOL    HW231416   0.371   0.309   7.257 -0.2866  1.1014 -1.0481
 6652SOL     OW31417   3.590   3.623  13.348 -0.2446  0.3207 -0.3280
 6652SOL    HW131418   3.510   3.582  13.316  0.4860 -2.7980  1.9204
 6652SOL    HW231419   3.561   3.701  13.395  5.8597  1.9085  0.8573
 6653SOL     OW31420   2.562   0.987  10.772  0.0382 -0.5941 -0.5104
 6653SOL    HW131421   2.612   0.986  10.691  1.8249 -0.8876  0.6087
 6653SOL    HW231422   2.626   0.989  10.843 -0.8940  0.9498  0.2970
 6654SOL     OW31423   3.645   2.138   7.249  0.2844  0.1075 -0.1008
 6654SOL    HW131424   3.549   2.136   7.245  0.3094 -0.5892 -0.5037
 6654SOL    HW231425   3.662   2.144   7.343 -0.6017  2.6171 -0.1102
 6655SOL     OW31426   2.640   1.361   5.327  0.0538  0.6630  0.4426
 6655SOL    HW131427   2.667   1.430   5.387 -0.7972  1.0482  0.3737
 6655SOL    HW231428   2.608   1.288   5.380 -2.3123  1.2524 -0.2092
 6656SOL     OW31429   4.697   2.624   1.093  0.4593 -0.2896  0.3791
 6656SOL    HW131430   4.695   2.530   1.072  0.0416 -0.0960 -0.4446
 6656SOL    HW231431   0.056   2.626   1.138  0.7441  0.7758 -0.2120
 6657SOL     OW31432   4.304   0.594   7.726  0.9091  0.0817 -0.3208
 6657SOL    HW131433   4.291   0.566   7.636  1.1768  0.2124 -0.3998
 6657SOL    HW231434   4.218   0.596   7.767 -0.1555  2.5233 -2.6392
 6658SOL     OW31435   1.520   2.517  15.142 -0.2371 -0.5594  0.1022
 6658SOL    HW131436   1.502   2.517  15.048  0.3006 -0.1722  0.0018
 6658SOL    HW231437   1.434   2.483  15.167 -1.0151  1.4458  0.1811
 6659SOL     OW31438   1.263   4.507   6.042  0.2268 -0.1241 -0.3761
 6659SOL    HW131439   1.296   4.531   6.129  2.0747 -1.9928 -0.5529
 6659SOL    HW231440   1.205   4.433   6.059  0.4664 -0.4190 -0.8710
 6660SOL     OW31441   1.299   3.871   7.313 -0.1477  0.2472 -0.2216
 6660SOL    HW131442   1.339   3.872   7.226 -2.2029 -1.1749 -1.2047
 6660SOL    HW231443   1.205   3.862   7.294 -0.2353 -0.5617  0.5836
 6661SOL     OW31444   2.479   3.773   1.493  0.0937  0.6061 -0.0489
 6661SOL    HW131445   2.549   3.807   1.549 -0.7325  1.1174  0.6773
 6661SOL    HW231446   2.515   3.688   1.466  0.3075  0.6965 -0.0469
 6662SOL     OW31447   0.258   4.311   7.042 -0.3854  0.4076  0.1968
 6662SOL    HW131448   0.255   4.342   6.952  1.5964 -2.6094 -0.9221
 6662SOL    HW231449   0.163   4.318   7.050 -0.4441 -0.4869  0.2773
 6663SOL     OW31450   0.149   0.361   1.401  0.1317  0.1849 -0.1773
 6663SOL    HW131451   0.242   0.347   1.414  0.4905  1.6075 -1.1942
 6663SOL    HW231452   0.112   0.276   1.425 -0.3068  0.3998 -0.0838
 6664SOL     OW31453   1.700   1.894  10.427  0.0965 -0.2347 -0.4123
 6664SOL    HW131454   1.701   1.800  10.407  1.1994 -0.3994  0.4317
 6664SOL    HW231455   1.768   1.922  10.367  1.2772 -2.4375 -0.1102
 6665SOL     OW31456   2.767   0.089  10.323 -0.2099 -0.3602 -0.3780
 6665SOL    HW131457   2.707   0.102  10.250 -0.5389  0.7332  0.0858
 6665SOL    HW231458   2.823   0.016  10.293  0.5717  0.9590 -2.1582
 6666SOL     OW31459   4.224   1.048   4.985  0.3081  0.0100  0.4015
 6666SOL    HW131460   4.228   1.132   4.940  0.4786  0.3346  1.0289
 6666SOL    HW231461   4.287   1.074   5.052 -0.5506  1.4080  0.6665
 6667SOL     OW31462   1.461   0.738   3.108 -0.5343  0.6318 -0.1925
 6667SOL    HW131463   1.438   0.814   3.054 -0.0585 -0.3360 -1.7283
 6667SOL    HW231464   1.472   0.661   3.053  0.3025  0.8378 -0.3068
 6668SOL     OW31465   2.987   0.104   4.538  0.7153 -0.3156  0.1633
 6668SOL    HW131466   3.029   0.053   4.608 -1.8918 -1.2037  1.0967
 6668SOL    HW231467   3.035   0.187   4.540 -2.0161  1.3214 -2.2830
 6669SOL     OW31468   2.094   4.099   3.071  0.6795  0.0222 -0.4810
 6669SOL    HW131469   2.155   4.030   3.097 -0.7851 -0.7610  0.9054
 6669SOL    HW231470   2.015   4.080   3.122  0.9803 -0.0982 -0.0586
 6670SOL     OW31471   2.295   1.130  12.827  0.1457 -0.3387 -0.4943
 6670SOL    HW131472   2.278   1.224  12.833 -0.0975 -0.4292  0.2849
 6670SOL    HW231473   2.323   1.102  12.740  0.7217  0.7437 -0.6705
 6671SOL     OW31474   4.064   3.359   1.827 -0.1495  0.1677  1.0828
 6671SOL    HW131475   4.033   3.445   1.797  1.8245 -0.3070 -2.3659
 6671SOL    HW231476   3.981   3.318   1.852 -0.6275  0.0693 -0.6467
 6672SOL     OW31477   0.042   3.338  11.063 -0.0773  0.1004 -0.3429
 6672SOL    HW131478   0.109   3.347  11.131  1.1456 -0.7125 -1.4334
 6672SOL    HW231479   4.705   3.411  11.071  1.2832  1.3015 -0.5790
 6673SOL     OW31480   3.287   2.428   3.202 -0.0554 -0.7747 -0.5606
 6673SOL    HW131481   3.298   2.518   3.173 -3.8602 -0.5790 -1.4163
 6673SOL    HW231482   3.374   2.419   3.241 -0.1580 -0.3182 -0.2272
 6674SOL     OW31483   4.045   3.137  17.535 -0.7675  0.0638  0.0323
 6674SOL    HW131484   4.122   3.089  17.506  0.6956  2.2334  0.3506
 6674SOL    HW231485   4.010   3.093  17.613 -0.0087 -1.7643 -0.6740
 6675SOL     OW31486   4.649   0.787   0.778 -0.7455 -0.5987 -0.0777
 6675SOL    HW131487   4.663   0.724   0.707  3.0388  1.4787 -1.2222
 6675SOL    HW231488   4.621   0.733   0.851 -2.9846 -0.1036 -0.5771
 6676SOL     OW31489   4.697   2.478   0.735 -0.1155  0.5316  0.0229
 6676SOL    HW131490   0.051   2.486   0.789 -0.2061  0.6572  0.1400
 6676SOL    HW231491   4.725   2.447   0.649 -3.1777  0.1298 -0.8428
 6677SOL     OW31492   1.107   2.370  14.731  0.1321  0.2228 -0.6862
 6677SOL    HW131493   1.122   2.429  14.657 -2.0631  2.6118  0.7693
 6677SOL    HW231494   1.195   2.343  14.755 -0.1586  0.6723  0.9086
 6678SOL     OW31495   2.329   1.639   2.882  0.2209 -0.2644  0.5122
 6678SOL    HW131496   2.305   1.574   2.816 -0.4832  1.2635 -0.7399
 6678SOL    HW231497   2.394   1.588   2.930 -0.4627 -0.3393  1.3475
 6679SOL     OW31498   2.450   4.507   3.036  0.1796 -0.1884  0.5481
 6679SOL    HW131499   2.463   4.520   3.130 -0.6514  2.8120  0.2327
 6679SOL    HW231500   2.440   4.412   3.029  2.2056 -0.5437  2.5114
 6680SOL     OW31501   4.009   1.295   6.055 -0.5582  0.1606  0.2336
 6680SOL    HW131502   3.989   1.374   6.005  1.5749  0.6920  0.1977
 6680SOL    HW231503   4.105   1.292   6.052 -0.4958  1.2041  1.1486
 6681SOL     OW31504   4.422   0.425   6.079  0.4647 -0.4628 -0.3997
 6681SOL    HW131505   4.404   0.499   6.021  0.4622  0.8732  1.3027
 6681SOL    HW231506   4.503   0.456   6.117  0.1451  0.1128 -0.1949
 6682SOL     OW31507   3.293   3.953   3.564  1.0441 -0.5143  0.2992
 6682SOL    HW131508   3.299   3.918   3.652  0.3294  2.8546  1.6895
 6682SOL    HW231509   3.350   4.030   3.565  1.3621 -0.7737  1.4254
 6683SOL     OW31510   2.418   3.811   9.332  0.0656  0.0707  0.2830
 6683SOL    HW131511   2.430   3.819   9.427  2.0253 -1.0082  0.1045
 6683SOL    HW231512   2.431   3.905   9.319  0.6821  0.2227  1.9452
 6684SOL     OW31513   3.578   1.045   2.531 -0.3747  0.0360 -0.8282
 6684SOL    HW131514   3.592   1.082   2.444 -1.1393  1.7915 -0.2014
 6684SOL    HW231515   3.527   1.118   2.567 -1.6203  0.2159 -2.9822
 6685SOL     OW31516   2.983   3.642  13.164 -0.1065  0.5596 -0.3189
 6685SOL    HW131517   3.038   3.583  13.112  1.0158  1.9096 -0.6852
 6685SOL    HW231518   2.897   3.609  13.139  0.2344 -0.9447  0.4634
 6686SOL     OW31519   0.117   0.362  10.365  0.4460 -0.4032 -0.0438
 6686SOL    HW131520   0.049   0.317  10.314 -0.6916  0.2791  0.8795
 6686SOL    HW231521   0.079   0.446  10.388  0.1088 -0.2407 -1.1765
 6687SOL     OW31522   1.942   0.535   9.112 -0.0557 -0.3579  0.1454
 6687SOL    HW131523   1.938   0.540   9.208 -0.9885  0.7984  0.0420
 6687SOL    HW231524   1.903   0.448   9.102  0.4128 -0.4332 -1.0772
 6688SOL     OW31525   0.009   3.557   4.232 -0.3969  0.5343  0.3040
 6688SOL    HW131526   0.060   3.613   4.174 -0.2383 -1.3053 -1.3526
 6688SOL    HW231527   0.020   3.607   4.312 -1.7520 -0.3616  1.0496
 6689SOL     OW31528   1.641   3.567   5.997  0.3974 -0.1620  0.5675
 6689SOL    HW131529   1.716   3.626   6.004  0.8787 -0.5869 -1.2024
 6689SOL    HW231530   1.596   3.599   6.075 -0.3640 -2.1224  0.9339
 6690SOL     OW31531   2.518   3.547  17.379 -0.5411  0.4029  0.5586
 6690SOL    HW131532   2.572   3.496  17.440 -1.0920 -1.0277 -0.1448
 6690SOL    HW231533   2.457   3.474  17.380 -0.5957  0.4302 -1.9974
 6691SOL     OW31534   2.383   0.108   7.138 -0.0528  0.1310 -0.5184
 6691SOL    HW131535   2.451   0.059   7.093  0.9548 -0.2319  1.3967
 6691SOL    HW231536   2.313   0.101   7.073 -1.0811  0.2499  0.5652
 6692SOL     OW31537   1.283   3.012   9.166 -0.1536 -0.1561 -0.0700
 6692SOL    HW131538   1.292   2.992   9.073 -0.6879 -0.2397 -0.1012
 6692SOL    HW231539   1.282   3.107   9.173  0.5673 -0.1900  0.5034
 6693SOL     OW31540   1.296   1.188   3.844  0.2549  0.2626  0.5412
 6693SOL    HW131541   1.329   1.227   3.764  3.3967  0.4446  1.9222
 6693SOL    HW231542   1.219   1.239   3.869 -0.7085 -0.6636 -0.5194
 6694SOL     OW31543   1.375   2.043   9.730  0.4360 -0.2889  0.0490
 6694SOL    HW131544   1.325   2.041   9.811  0.8256  0.7474  0.3092
 6694SOL    HW231545   1.458   2.005   9.759  1.4115 -0.1730 -2.6310
 6695SOL     OW31546   3.543   0.657   7.904  0.0774 -0.1787  0.8995
 6695SOL    HW131547   3.613   0.669   7.968  1.1156 -0.0404 -0.2546
 6695SOL    HW231548   3.478   0.722   7.930  2.5372  1.2645  3.3548
 6696SOL     OW31549   2.706   3.222  13.580  0.4144  0.3288  0.0530
 6696SOL    HW131550   2.732   3.130  13.573 -0.7051  0.0312 -0.2178
 6696SOL    HW231551   2.614   3.212  13.554  1.7171 -1.4096 -3.9748
 6697SOL     OW31552   2.090   3.950   9.252  0.1594  0.1246 -0.5824
 6697SOL    HW131553   2.162   3.990   9.203  0.8470 -0.7851 -0.3078
 6697SOL    HW231554   2.110   3.988   9.338 -0.8459  1.1127 -0.7910
 6698SOL     OW31555   1.462   0.674   0.107 -0.0928 -0.0274 -0.8512
 6698SOL    HW131556   1.387   0.706   0.056 -0.5309 -0.8422 -0.7072
 6698SOL    HW231557   1.419   0.661   0.192 -2.2691  3.6633 -1.3385
 6699SOL     OW31558   0.584   1.504   2.633 -0.0429 -0.0348 -0.1093
 6699SOL    HW131559   0.578   1.466   2.546 -0.2691 -2.0154  0.7762
 6699SOL    HW231560   0.554   1.430   2.685  1.2960  0.0297  0.7682
 6700SOL     OW31561   2.053   1.734   4.267  0.3779 -0.3189 -0.1823
 6700SOL    HW131562   2.074   1.692   4.184 -1.2304 -0.5832 -0.4551
 6700SOL    HW231563   2.073   1.685   4.346 -0.0544  0.0129  0.1343
 6701SOL     OW31564   3.563   4.030  13.176  0.6615  0.1525  0.4749
 6701SOL    HW131565   3.649   4.013  13.137 -0.4773  0.2138 -2.0280
 6701SOL    HW231566   3.522   3.944  13.187  1.1004 -0.2949 -1.3618
 6702SOL     OW31567   1.888   1.388   8.904  0.4710  0.1844 -0.4587
 6702SOL    HW131568   1.877   1.426   8.992  0.1713 -0.6040 -0.1508
 6702SOL    HW231569   1.956   1.445   8.868 -0.3258  2.0048  0.9246
 6703SOL     OW31570   1.848   3.524   6.311  0.6106  0.2132  0.3696
 6703SOL    HW131571   1.929   3.500   6.265  0.2675  1.5311 -0.9258
 6703SOL    HW231572   1.877   3.551   6.398  0.5897  0.3064  0.3478
 6704SOL     OW31573   4.298   3.194  12.872 -0.1692  0.2824  0.6978
 6704SOL    HW131574   4.363   3.166  12.938 -0.3240 -0.6692  0.4551
 6704SOL    HW231575   4.342   3.265  12.825  1.3316 -0.8340  0.3885
 6705SOL     OW31576   1.931   1.315   4.773 -0.1590  0.3762  0.3050
 6705SOL    HW131577   1.861   1.266   4.730  1.0461 -2.0398  1.1366
 6705SOL    HW231578   1.901   1.405   4.756  1.3370  0.5398 -1.4038
 6706SOL     OW31579   2.473   4.352   6.795  0.0528  0.0559 -0.3142
 6706SOL    HW131580   2.413   4.426   6.798 -0.0310 -0.0015 -0.5432
 6706SOL    HW231581   2.559   4.395   6.798 -0.1514  0.4398 -0.0221
 6707SOL     OW31582   4.179   2.237   1.962 -0.0129  0.3094  0.1081
 6707SOL    HW131583   4.103   2.181   1.975  1.4346 -1.4565  1.0318
 6707SOL    HW231584   4.212   2.253   2.051 -0.2599 -0.7446  0.3871
 6708SOL     OW31585   0.391   3.249  12.275 -0.2031 -0.0334 -0.1045
 6708SOL    HW131586   0.387   3.308  12.351  1.8782  0.4875 -0.4027
 6708SOL    HW231587   0.309   3.274  12.232 -0.1886 -1.0241 -0.6950
 6709SOL     OW31588   4.313   1.545   8.860 -0.1977 -0.3269  0.8754
 6709SOL    HW131589   4.286   1.459   8.827 -0.7808  0.0978  0.2575
 6709SOL    HW231590   4.232   1.593   8.844 -0.9191 -1.6765  0.4856
 6710SOL     OW31591   2.242   0.370   7.547  0.5563  0.3959 -0.3531
 6710SOL    HW131592   2.288   0.454   7.540  3.5021 -1.2583 -0.4695
 6710SOL    HW231593   2.290   0.319   7.481  1.2269  0.0340  0.4196
 6711SOL     OW31594   3.545   0.966   4.310 -0.1473  0.3583  0.3080
 6711SOL    HW131595   3.531   1.053   4.274  1.8092 -0.3430 -2.1163
 6711SOL    HW231596   3.634   0.951   4.277  0.6987  0.4701  2.5251
 6712SOL     OW31597   4.006   4.383   7.958  0.8102  0.0308 -0.8004
 6712SOL    HW131598   3.970   4.307   8.004  1.2216  1.0408  1.2174
 6712SOL    HW231599   4.097   4.362   7.936  0.8010 -1.6272  0.6841
 6713SOL     OW31600   0.524   1.887  11.696  0.3419  0.3508 -0.0945
 6713SOL    HW131601   0.558   1.961  11.746 -0.2953  0.0871  0.7379
 6713SOL    HW231602   0.581   1.893  11.619 -1.1008 -2.0052 -1.3365
 6714SOL     OW31603   2.733   0.735   6.480 -0.0513  0.8039  0.0165
 6714SOL    HW131604   2.794   0.691   6.539 -1.6609 -2.0182 -0.4227
 6714SOL    HW231605   2.767   0.713   6.393 -3.2820  1.9500 -1.5342
 6715SOL     OW31606   4.661   1.417   8.382  0.1613 -0.2996  0.0789
 6715SOL    HW131607   4.614   1.481   8.329 -0.6996 -1.8754 -1.0536
 6715SOL    HW231608   0.019   1.459   8.403 -0.7602  1.2681  0.6179
 6716SOL     OW31609   4.143   0.737  15.910  0.2087  0.1703 -0.1762
 6716SOL    HW131610   4.085   0.718  15.837 -2.8109  1.7380  1.8328
 6716SOL    HW231611   4.091   0.805  15.952  0.8643  2.0702 -2.4809
 6717SOL     OW31612   1.435   0.160   4.385 -0.3491  0.2558  0.2107
 6717SOL    HW131613   1.355   0.164   4.437  0.0851  0.3190  0.8661
 6717SOL    HW231614   1.486   0.199   4.455 -1.2319 -0.9193  1.5178
 6718SOL     OW31615   3.100   1.530   1.610 -0.0654 -0.3759 -0.5385
 6718SOL    HW131616   3.104   1.437   1.589 -1.8413 -0.5276 -0.2454
 6718SOL    HW231617   3.028   1.526   1.674 -0.1414 -0.5822 -0.6385
 6719SOL     OW31618   1.789   1.291  12.455  0.0100 -0.2363 -0.1972
 6719SOL    HW131619   1.881   1.279  12.435 -0.2167 -0.4165 -1.1027
 6719SOL    HW231620   1.758   1.201  12.464  0.4393 -0.3863 -0.2166
 6720SOL     OW31621   0.043   3.995  11.205 -0.1415  0.1090 -0.0043
 6720SOL    HW131622   0.127   3.956  11.183 -1.6473 -3.1102 -0.1078
 6720SOL    HW231623   4.707   3.940  11.155 -1.3034 -0.6454  2.2624
 6721SOL     OW31624   1.149   2.042   3.008 -0.5354  0.2137  0.3380
 6721SOL    HW131625   1.197   2.121   2.983  0.2731 -1.1084 -2.3376
 6721SOL    HW231626   1.083   2.085   3.062 -0.3962  1.1419 -0.2373
 6722SOL     OW31627   2.697   1.497   3.575  0.2728 -0.2653  0.3407
 6722SOL    HW131628   2.626   1.488   3.639  0.4198  0.6609  0.6354
 6722SOL    HW231629   2.735   1.585   3.584 -1.2473  0.3918  0.4209
 6723SOL     OW31630   1.622   0.399  13.599 -0.0133 -0.7220  0.4566
 6723SOL    HW131631   1.637   0.390  13.505 -2.0093 -0.5462  0.1174
 6723SOL    HW231632   1.643   0.492  13.611 -2.9331  0.2777 -2.1406
 6724SOL     OW31633   0.217   1.505   8.418 -0.3288 -0.2285  0.0468
 6724SOL    HW131634   0.187   1.586   8.458 -0.4451 -0.1213 -0.2544
 6724SOL    HW231635   0.227   1.545   8.331 -3.6991  2.1613  0.7711
 6725SOL     OW31636   2.460   1.588   7.495  0.2763  0.2440 -0.5499
 6725SOL    HW131637   2.365   1.582   7.505  0.3807  0.9915  0.8909
 6725SOL    HW231638   2.487   1.514   7.549 -1.9546 -1.4771 -1.7998
 6726SOL     OW31639   1.768   2.021   7.923  0.1493 -0.2536  0.4878
 6726SOL    HW131640   1.857   2.048   7.946 -0.0202  0.7724 -0.0719
 6726SOL    HW231641   1.711   2.041   7.998 -0.4699  1.9306 -0.5731
 6727SOL     OW31642   4.583   1.551   2.946  0.4888  0.0849  0.0711
 6727SOL    HW131643   4.664   1.509   2.915  0.1898  0.0130 -0.6151
 6727SOL    HW231644   4.591   1.542   3.041  0.0368 -0.1570  0.0881
 6728SOL     OW31645   0.901   0.438   5.207 -0.3810 -0.1773  0.8264
 6728SOL    HW131646   0.872   0.528   5.191  1.5475  0.2218 -0.4469
 6728SOL    HW231647   0.976   0.445   5.148 -1.9194  1.3305 -0.9530
 6729SOL     OW31648   3.706   4.478   1.092  0.0588  0.6002 -0.2660
 6729SOL    HW131649   3.664   4.483   1.007 -0.9591  1.8808  0.3103
 6729SOL    HW231650   3.722   4.385   1.079  0.0978  0.7315 -1.1361
 6730SOL     OW31651   0.225   0.802  13.162  0.3845 -0.1084  0.2164
 6730SOL    HW131652   0.167   0.731  13.136  0.6139 -0.0079 -0.6044
 6730SOL    HW231653   0.251   0.837  13.076 -2.4265  0.1772 -0.5280
 6731SOL     OW31654   1.748   0.768   2.738  0.7104 -0.3809  0.4269
 6731SOL    HW131655   1.816   0.827   2.770 -0.7729 -0.1253  3.0784
 6731SOL    HW231656   1.669   0.820   2.732  1.3555  0.4592 -0.7400
 6732SOL     OW31657   3.526   0.526   2.532 -0.1581  0.4811 -0.4129
 6732SOL    HW131658   3.468   0.471   2.481  1.1993 -0.7518 -0.6164
 6732SOL    HW231659   3.483   0.612   2.536 -0.8815  0.0740  0.6289
 6733SOL     OW31660   0.288   1.853   0.417 -0.0209  0.3456 -0.5207
 6733SOL    HW131661   0.264   1.926   0.475 -0.2054  0.3244 -0.5719
 6733SOL    HW231662   0.225   1.880   0.349  1.3116 -0.5392 -2.0950
 6734SOL     OW31663   0.222   3.587   4.487  0.3099 -0.4592 -0.7369
 6734SOL    HW131664   0.254   3.641   4.559  1.3853 -0.0661 -1.5103
 6734SOL    HW231665   0.140   3.551   4.523  0.1932 -0.5720 -1.1231
 6735SOL     OW31666   4.029   0.979   1.554  1.1358  0.3329 -0.0637
 6735SOL    HW131667   4.056   0.929   1.631  1.2915 -1.6791 -1.4550
 6735SOL    HW231668   4.073   0.928   1.486 -0.1246 -0.0835 -0.5737
 6736SOL     OW31669   2.711   2.369   6.155 -0.2695 -0.1574 -0.0820
 6736SOL    HW131670   2.778   2.345   6.092  1.5809  0.8677  1.4870
 6736SOL    HW231671   2.749   2.360   6.243 -3.1230 -1.5241  1.0371
 6737SOL     OW31672   0.706   1.483   9.824  0.0922 -0.7026  0.5965
 6737SOL    HW131673   0.770   1.547   9.856 -1.4540  1.5677 -0.8442
 6737SOL    HW231674   0.748   1.428   9.758 -0.9078  0.6617 -1.1850
 6738SOL     OW31675   0.748   2.373   7.205  0.4829 -0.4645  0.3622
 6738SOL    HW131676   0.839   2.403   7.212  0.4224  0.6133 -3.6603
 6738SOL    HW231677   0.705   2.429   7.268  2.2580  0.8473  0.4071
 6739SOL     OW31678   2.811   0.215   8.927 -0.3341  0.3446 -0.1443
 6739SOL    HW131679   2.842   0.208   8.837 -0.8898  0.4290 -0.3447
 6739SOL    HW231680   2.739   0.152   8.933  0.1440  0.0166  1.8779
 6740SOL     OW31681   3.002   1.771   1.893  0.0663 -0.8006  0.5656
 6740SOL    HW131682   3.042   1.831   1.955 -0.1293  0.9107 -0.9775
 6740SOL    HW231683   3.050   1.693   1.924  0.0672 -1.4133 -0.9575
 6741SOL     OW31684   1.199   3.263   2.887 -0.7002  0.3759  0.1492
 6741SOL    HW131685   1.152   3.187   2.851 -0.6663  0.5413 -0.2393
 6741SOL    HW231686   1.273   3.210   2.916  0.3854  1.7699 -0.1306
 6742SOL     OW31687   4.499   3.634   5.232 -0.4268 -0.1555  0.4499
 6742SOL    HW131688   4.406   3.650   5.217 -0.2097  1.3307  0.6658
 6742SOL    HW231689   4.524   3.569   5.166 -1.7897  0.4069 -0.5920
 6743SOL     OW31690   0.940   0.764   5.806  0.3017  0.2352  0.5820
 6743SOL    HW131691   0.909   0.711   5.879 -2.0701  0.8911  0.0466
 6743SOL    HW231692   0.857   0.787   5.764  0.5542  0.8167  0.3993
 6744SOL     OW31693   2.894   2.242   3.057 -0.5153  0.1752 -0.1414
 6744SOL    HW131694   2.864   2.305   2.992  1.1285 -0.0100 -1.0623
 6744SOL    HW231695   2.980   2.231   3.018  0.1893  3.2781  0.5618
 6745SOL     OW31696   4.525   0.279  11.032 -0.4734 -0.3059  0.5457
 6745SOL    HW131697   4.578   0.245  11.105 -0.3599  1.6649  1.3825
 6745SOL    HW231698   4.459   0.212  11.016  0.0962 -0.9215  0.7934
 6746SOL     OW31699   1.163   1.760   1.276 -0.1521  0.2324  0.3785
 6746SOL    HW131700   1.125   1.713   1.202  0.6059  0.2331 -0.0060
 6746SOL    HW231701   1.182   1.686   1.332  2.0242  1.0065  0.6434
 6747SOL     OW31702   0.040   4.610   4.399 -0.4748 -0.2573 -0.0404
 6747SOL    HW131703   0.009   4.559   4.325 -0.4644 -0.2278 -0.0652
 6747SOL    HW231704   4.684   4.653   4.428 -1.6981 -3.7166  1.6322
 6748SOL     OW31705   2.496   1.890  11.306  0.2131  0.1789  0.3392
 6748SOL    HW131706   2.458   1.972  11.339  1.2279  0.8375 -0.1355
 6748SOL    HW231707   2.470   1.843  11.385  0.4165  0.0998  0.3575
 6749SOL     OW31708   0.444   2.555   5.557  0.0982 -0.1566  0.0007
 6749SOL    HW131709   0.434   2.460   5.556  2.1933 -0.3910  0.8142
 6749SOL    HW231710   0.536   2.582   5.551  0.0886 -0.3670 -1.1757
 6750SOL     OW31711   2.565   2.637   1.903  0.4857 -0.1540  0.4146
 6750SOL    HW131712   2.577   2.578   1.829  1.4837 -0.9906  1.2408
 6750SOL    HW231713   2.471   2.654   1.901  0.2773 -1.6529 -2.2367
 6751SOL     OW31714   2.436   2.959  15.745  0.1254  0.1530 -0.4956
 6751SOL    HW131715   2.354   3.009  15.750  0.7164  1.1877 -1.1200
 6751SOL    HW231716   2.440   2.957  15.649 -0.6760  0.7571 -0.5466
 6752SOL     OW31717   0.599   2.232  16.539 -0.7125 -0.2475 -1.0143
 6752SOL    HW131718   0.524   2.291  16.548 -1.1449 -1.1706  1.4855
 6752SOL    HW231719   0.545   2.153  16.529 -2.2869  0.1795  3.9209
 6753SOL     OW31720   1.927   3.493   4.724  0.1408  0.6419 -0.7016
 6753SOL    HW131721   2.006   3.477   4.672  0.5690  1.7815 -0.4189
 6753SOL    HW231722   1.961   3.546   4.796  0.4581 -0.2427 -0.1984
 6754SOL     OW31723   3.071   4.369   4.399  0.3291  0.3950  0.1151
 6754SOL    HW131724   3.026   4.341   4.478  1.2342 -1.2566  0.0468
 6754SOL    HW231725   2.994   4.372   4.342  0.6131  0.7128 -0.2560
 6755SOL     OW31726   2.981   1.460   9.934 -0.4955  0.4425  0.3354
 6755SOL    HW131727   2.907   1.459   9.874  0.4825 -2.9475 -0.8711
 6755SOL    HW231728   3.019   1.383   9.891 -0.3092 -0.5094  2.2202
 6756SOL     OW31729   0.221   1.554   6.418  0.1505 -0.6849 -0.4616
 6756SOL    HW131730   0.227   1.529   6.510  1.4672  1.5512  0.0644
 6756SOL    HW231731   0.202   1.466   6.385 -0.8845 -0.3000 -0.8817
 6757SOL     OW31732   3.831   2.730   8.760  0.3214 -0.2802 -0.2600
 6757SOL    HW131733   3.892   2.798   8.788 -1.7849  1.1085  0.9314
 6757SOL    HW231734   3.876   2.714   8.677 -0.4000 -2.2905 -0.2473
 6758SOL     OW31735   0.316   2.660  15.041 -0.5783 -0.2499  0.1361
 6758SOL    HW131736   0.334   2.567  15.057  2.5626 -0.0835 -2.5005
 6758SOL    HW231737   0.256   2.656  14.967 -2.7046  0.3859  1.7971
 6759SOL     OW31738   2.715   0.411  13.748  0.0761 -0.0519  0.2902
 6759SOL    HW131739   2.795   0.423  13.697  0.0464  1.9947  0.7645
 6759SOL    HW231740   2.670   0.347  13.692 -2.8622  1.9887  0.3263
 6760SOL     OW31741   0.488   4.667  15.022  1.0757 -0.5826 -0.0193
 6760SOL    HW131742   0.461   0.018  14.971 -0.3810  0.4733  2.2856
 6760SOL    HW231743   0.406   4.658  15.071  0.8537 -0.8901 -0.4514
 6761SOL     OW31744   4.705   0.797   1.912  0.2027 -0.2424  0.9468
 6761SOL    HW131745   4.685   0.800   2.006 -2.3279 -0.7255  0.4271
 6761SOL    HW231746   0.053   0.736   1.911 -0.4558 -0.9968 -0.8842
 6762SOL     OW31747   4.635   1.853   4.513  0.6054 -0.2199  0.2753
 6762SOL    HW131748   4.704   1.877   4.452 -2.4528  1.6121 -2.4503
 6762SOL    HW231749   4.630   1.759   4.493 -3.7702  0.0619  0.1424
 6763SOL     OW31750   2.627   3.375   6.802 -0.4244  1.0769  0.7343
 6763SOL    HW131751   2.718   3.384   6.830  0.2624  0.5540 -1.3505
 6763SOL    HW231752   2.580   3.420   6.872 -1.7902  0.7321  0.0416
 6764SOL     OW31753   1.042   1.910   7.134 -0.4339 -0.6680  0.0199
 6764SOL    HW131754   1.107   1.860   7.086 -0.0753  1.2619 -1.5150
 6764SOL    HW231755   1.022   1.989   7.084 -0.7881 -1.5465 -1.2211
 6765SOL     OW31756   2.066   1.679   2.997  0.2767 -0.0871 -0.5798
 6765SOL    HW131757   2.047   1.746   2.931 -3.6962 -1.1798 -0.5375
 6765SOL    HW231758   2.161   1.686   2.997  0.3297 -0.7520  1.5130
 6766SOL     OW31759   2.030   1.193   8.682  0.1587 -0.3865 -0.2391
 6766SOL    HW131760   2.036   1.249   8.759 -1.3946 -0.2043 -0.2599
 6766SOL    HW231761   2.115   1.150   8.672 -0.3791 -1.8031  1.4069
 6767SOL     OW31762   4.093   3.275   2.788 -0.2471 -0.0537  0.0048
 6767SOL    HW131763   4.149   3.264   2.711 -0.0264  1.0467  0.0066
 6767SOL    HW231764   4.015   3.312   2.746  1.1595  2.1785 -0.6694
 6768SOL     OW31765   4.594   1.927   3.154  0.7102  0.3374  0.1516
 6768SOL    HW131766   4.604   1.956   3.245  1.8711  0.8774 -0.1502
 6768SOL    HW231767   4.684   1.946   3.129  0.8748 -1.5169 -0.7337
 6769SOL     OW31768   2.244   0.728   7.865  0.2109 -0.6639 -0.1618
 6769SOL    HW131769   2.324   0.690   7.828  0.0542 -2.7473  1.6905
 6769SOL    HW231770   2.235   0.686   7.950  0.3728  2.3725  1.3340
 6770SOL     OW31771   2.118   3.524   4.225  0.5064  0.1614  0.1880
 6770SOL    HW131772   2.186   3.556   4.284  0.6039  1.6129 -0.7130
 6770SOL    HW231773   2.048   3.588   4.233  1.0060  0.5013  1.8041
 6771SOL     OW31774   0.396   3.729   4.659  0.0408 -0.0470  0.6856
 6771SOL    HW131775   0.478   3.769   4.630 -0.5062  0.5259 -0.1002
 6771SOL    HW231776   0.425   3.638   4.656 -0.7363 -0.3249  1.6820
 6772SOL     OW31777   0.046   2.115  10.031 -0.0395 -0.7835  0.2403
 6772SOL    HW131778   0.018   2.185  10.089 -0.6177 -0.0702 -0.8956
 6772SOL    HW231779   0.115   2.066  10.074  1.0383 -0.2138 -0.8407
 6773SOL     OW31780   4.403   1.800   6.131  0.1238  0.2835  0.2439
 6773SOL    HW131781   4.454   1.828   6.056  0.3241  1.5898  0.8662
 6773SOL    HW231782   4.335   1.867   6.125 -0.3481 -0.5390 -3.6206
 6774SOL     OW31783   1.379   2.090  11.355 -0.1796  0.6932  0.4974
 6774SOL    HW131784   1.380   2.157  11.287 -3.0862 -0.8237 -1.0224
 6774SOL    HW231785   1.323   2.130  11.422  0.6829  2.3808  0.2079
 6775SOL     OW31786   0.107   2.259   6.296 -0.6728 -0.3323  0.2139
 6775SOL    HW131787   0.156   2.177   6.288  0.5445  0.4525 -0.3891
 6775SOL    HW231788   0.086   2.261   6.389  0.0576  3.7418  0.3308
 6776SOL     OW31789   4.547   1.450   7.772  0.0528 -0.0851 -0.1832
 6776SOL    HW131790   4.559   1.389   7.844 -1.6168 -0.1957  0.0037
 6776SOL    HW231791   4.612   1.418   7.710  1.0178  0.0934  0.7360
 6777SOL     OW31792   3.004   3.141   5.477  0.0118 -0.2437  0.9225
 6777SOL    HW131793   3.043   3.220   5.513  0.6217  0.3280 -0.9852
 6777SOL    HW231794   3.023   3.072   5.540  2.4262 -1.1366 -0.7765
 6778SOL     OW31795   3.113   1.816  12.721  0.2548  0.3420  0.2182
 6778SOL    HW131796   3.203   1.847  12.724  0.6092 -0.5360 -1.6908
 6778SOL    HW231797   3.069   1.891  12.762 -2.8519  0.3886 -3.1531
 6779SOL     OW31798   4.534   0.206   9.434  0.2318  0.2603  0.2719
 6779SOL    HW131799   4.526   0.144   9.362  0.0283 -0.9342  1.3139
 6779SOL    HW231800   4.607   0.256   9.398 -0.6948  1.7240  0.4182
 6780SOL     OW31801   2.199   0.263   4.567 -0.8271 -0.1537 -0.0850
 6780SOL    HW131802   2.108   0.267   4.598 -0.2599 -1.5738  1.7146
 6780SOL    HW231803   2.239   0.304   4.643 -0.9190 -1.0286  0.4415
 6781SOL     OW31804   4.174   3.364   2.102  0.2681 -0.1307 -0.5548
 6781SOL    HW131805   4.152   3.271   2.095 -0.5350  0.2240 -2.7401
 6781SOL    HW231806   4.144   3.381   2.013 -3.1028  1.2643  0.8419
 6782SOL     OW31807   4.461   2.494   3.831  0.1792 -0.5615  0.0670
 6782SOL    HW131808   4.420   2.449   3.904 -1.1338  0.2753 -0.1575
 6782SOL    HW231809   4.545   2.452   3.849  0.4822  0.7118  1.6112
 6783SOL     OW31810   3.617   2.360  12.969  0.6481 -0.0515 -0.3812
 6783SOL    HW131811   3.586   2.368  13.059  0.0550  0.7133 -0.6522
 6783SOL    HW231812   3.627   2.266  12.955 -2.1282 -0.2434 -0.9654
 6784SOL     OW31813   1.801   3.890   6.040 -0.2566  0.4749 -0.1165
 6784SOL    HW131814   1.866   3.820   6.041 -1.8810 -1.0609 -1.3716
 6784SOL    HW231815   1.748   3.865   6.116  2.1084 -2.8980  0.4493
 6785SOL     OW31816   3.423   1.612  13.930  0.7382 -0.2635  0.1235
 6785SOL    HW131817   3.476   1.627  13.852  1.1536  0.2708  0.5121
 6785SOL    HW231818   3.393   1.701  13.947  1.0188 -0.1657  0.0916
 6786SOL     OW31819   2.070   2.661   8.984 -0.2065 -0.2896 -0.5275
 6786SOL    HW131820   1.999   2.598   8.985  0.4632 -1.0037  4.5690
 6786SOL    HW231821   2.118   2.641   9.065  1.0515  1.6636 -0.7866
 6787SOL     OW31822   2.781   0.763   6.024 -0.1967 -0.0926 -0.1105
 6787SOL    HW131823   2.804   0.670   6.013  1.0834  0.2791 -0.5802
 6787SOL    HW231824   2.850   0.809   5.977  0.7823  0.0229  1.4550
 6788SOL     OW31825   2.706   2.013  10.297 -0.0350  0.3875  0.0010
 6788SOL    HW131826   2.741   2.091  10.254  0.8712  1.0032  1.8335
 6788SOL    HW231827   2.787   1.982  10.338 -0.5765  0.8058  1.4002
 6789SOL     OW31828   0.739   4.037   8.695 -0.3076 -0.7473  0.0933
 6789SOL    HW131829   0.736   3.982   8.617 -2.1108 -0.9056  0.2734
 6789SOL    HW231830   0.831   4.055   8.714 -0.4798  0.0429  0.1884
 6790SOL     OW31831   2.824   4.028   2.355 -0.5783  0.4028 -0.5319
 6790SOL    HW131832   2.775   3.969   2.298  0.7879  0.6317 -1.9524
 6790SOL    HW231833   2.818   4.115   2.314  3.1481  1.0647  0.3430
 6791SOL     OW31834   0.706   2.138  13.040 -0.1149  0.1095 -0.4106
 6791SOL    HW131835   0.702   2.043  13.049 -1.7638 -0.0128 -2.3656
 6791SOL    HW231836   0.616   2.170  13.049 -0.2398 -0.5249  0.6260
 6792SOL     OW31837   4.155   2.805  13.360  0.3402  0.0557  0.3681
 6792SOL    HW131838   4.084   2.850  13.406 -1.1303 -1.2955 -0.6035
 6792SOL    HW231839   4.168   2.718  13.397 -0.8440 -0.0825  0.4625
 6793SOL     OW31840   0.912   0.437  10.950  0.1561 -1.0500 -0.6153
 6793SOL    HW131841   0.882   0.448  10.860 -1.4152 -2.0338 -0.2132
 6793SOL    HW231842   0.934   0.527  10.974  0.3951 -1.6053  1.2946
 6794SOL     OW31843   4.010   0.933  13.487  0.1854 -0.4563 -0.3554
 6794SOL    HW131844   3.963   0.882  13.553  2.0762 -1.6552  0.0364
 6794SOL    HW231845   3.992   0.878  13.410  0.3726 -1.9745  0.7094
 6795SOL     OW31846   2.830   3.729  15.452 -1.0992 -0.3069  0.4158
 6795SOL    HW131847   2.848   3.731  15.546  0.8317  0.6772  0.0390
 6795SOL    HW231848   2.906   3.770  15.409  0.9807 -1.2889  3.1618
 6796SOL     OW31849   1.291   1.604   7.811  0.1496 -0.5266  0.1708
 6796SOL    HW131850   1.352   1.554   7.758 -1.0921 -0.6972 -1.1087
 6796SOL    HW231851   1.343   1.663   7.865  0.4710 -1.0468  0.4233
 6797SOL     OW31852   1.920   0.299  16.594  0.1402 -0.2849  0.1902
 6797SOL    HW131853   1.956   0.212  16.612 -0.5468 -0.8855 -1.3990
 6797SOL    HW231854   1.955   0.322  16.508 -0.1336 -1.0468 -0.1269
 6798SOL     OW31855   1.180   0.555   8.385  0.0814  0.5647 -0.0342
 6798SOL    HW131856   1.129   0.570   8.306  0.8487  2.2093 -0.2352
 6798SOL    HW231857   1.117   0.579   8.452 -0.2112  0.8171 -0.4024
 6799SOL     OW31858   0.163   3.249   6.228  0.8397 -0.3984 -0.1968
 6799SOL    HW131859   0.151   3.180   6.292 -0.6425  1.4171  1.4561
 6799SOL    HW231860   0.232   3.210   6.173 -0.4903 -2.2612 -0.5286
 6800SOL     OW31861   1.481   2.026   5.888  0.0477 -0.0442  0.5280
 6800SOL    HW131862   1.501   2.077   5.809  1.8198 -0.9388  0.4006
 6800SOL    HW231863   1.568   1.992   5.908 -0.4641 -1.6836 -0.0363
 6801SOL     OW31864   3.308   2.286   5.803 -0.5696 -0.2523 -0.0450
 6801SOL    HW131865   3.217   2.264   5.787 -1.2173  1.2948  1.5846
 6801SOL    HW231866   3.305   2.376   5.772 -0.5943  0.5328  2.2150
 6802SOL     OW31867   1.091   4.138   6.821 -0.4975  0.1228  0.1323
 6802SOL    HW131868   1.115   4.110   6.910  3.0683  1.0744 -0.5402
 6802SOL    HW231869   1.111   4.231   6.831 -1.5483  0.5363 -1.6961
 6803SOL     OW31870   0.908   4.173   3.201  0.0343  0.2249  0.3062
 6803SOL    HW131871   0.832   4.231   3.201 -1.0608 -1.1782 -0.7449
 6803SOL    HW231872   0.896   4.124   3.283  2.9851 -2.5105 -0.8726
 6804SOL     OW31873   3.678   2.773   9.176 -0.4499  0.2523  0.4298
 6804SOL    HW131874   3.591   2.790   9.211 -1.7267 -2.6642 -1.3373
 6804SOL    HW231875   3.657   2.709   9.108 -1.7641  1.0353  0.0906
 6805SOL     OW31876   3.202   1.235   5.181 -0.6233 -0.2702  0.1747
 6805SOL    HW131877   3.205   1.139   5.189 -1.0058 -0.3749 -0.9401
 6805SOL    HW231878   3.241   1.245   5.095 -0.4396 -1.3387  0.1314
 6806SOL     OW31879   2.398   0.135   2.121  0.4370  0.2794  0.6207
 6806SOL    HW131880   2.379   0.112   2.212 -0.3350 -0.7589  0.1993
 6806SOL    HW231881   2.368   0.224   2.105 -0.1396  0.3754  2.2355
 6807SOL     OW31882   4.053   3.031   3.959 -0.2749  0.5453 -0.1285
 6807SOL    HW131883   4.089   3.013   4.045  0.1121 -0.5985 -0.5343
 6807SOL    HW231884   4.089   3.116   3.932  1.2354 -0.1596 -0.3200
 6808SOL     OW31885   3.557   3.698   6.715 -0.1563 -0.1196  0.3141
 6808SOL    HW131886   3.636   3.661   6.674  0.7546 -1.2071  3.0607
 6808SOL    HW231887   3.584   3.786   6.740  2.9039 -1.3535  1.3288
 6809SOL     OW31888   1.492   1.915   9.396  0.1481 -0.3241 -0.2986
 6809SOL    HW131889   1.555   1.847   9.421  0.8795  0.6355  0.4311
 6809SOL    HW231890   1.509   1.924   9.302 -0.9598  1.0497 -0.3592
 6810SOL     OW31891   0.467   2.224   4.060 -0.0763 -0.0110  0.3653
 6810SOL    HW131892   0.561   2.218   4.080  0.0227 -2.8751 -0.9648
 6810SOL    HW231893   0.471   2.274   3.978  2.0113 -2.1483 -0.8376
 6811SOL     OW31894   4.693   1.132   5.310  0.1062 -0.2743 -0.1539
 6811SOL    HW131895   0.012   1.065   5.258  0.5177 -0.1988  0.0977
 6811SOL    HW231896   0.038   1.198   5.303 -1.4448  1.2766 -1.1730
 6812SOL     OW31897   0.169   1.332   4.741  0.6571  0.1565  0.2654
 6812SOL    HW131898   0.125   1.416   4.723 -0.2291  0.0411  1.8691
 6812SOL    HW231899   0.100   1.277   4.780 -0.1036  0.0159 -1.2735
 6813SOL     OW31900   4.697   3.847   5.339 -0.0232 -0.5061 -0.0379
 6813SOL    HW131901   0.047   3.789   5.326  0.9161  0.4291  1.2481
 6813SOL    HW231902   4.629   3.793   5.298 -1.3254  0.3774  0.9617
 6814SOL     OW31903   4.279   2.485   9.286 -0.3385  0.1747 -0.4256
 6814SOL    HW131904   4.326   2.564   9.259 -1.8853  1.8198  1.6734
 6814SOL    HW231905   4.353   2.427   9.267  1.0111  1.8946 -0.4582
 6815SOL     OW31906   3.422   1.273   2.471  0.5419  0.0548  0.0065
 6815SOL    HW131907   3.356   1.331   2.507 -0.1143 -2.6243  3.0782
 6815SOL    HW231908   3.377   1.220   2.405 -0.0270  2.1616 -1.3016
 6816SOL     OW31909   4.031   4.109   5.711  0.0068 -0.4799  0.2426
 6816SOL    HW131910   4.109   4.164   5.702 -1.3064  1.4143  0.6275
 6816SOL    HW231911   4.025   4.112   5.806 -1.6093  1.0152  0.0939
 6817SOL     OW31912   2.893   0.128   3.288 -0.6729  0.2704  0.5508
 6817SOL    HW131913   2.965   0.172   3.244 -2.1315  0.8449 -1.2818
 6817SOL    HW231914   2.940   0.069   3.347  2.8356 -0.3682 -2.8977
 6818SOL     OW31915   1.112   3.273   1.844 -0.2921  0.4499 -0.0236
 6818SOL    HW131916   1.124   3.189   1.801  2.5812  1.0340 -0.3193
 6818SOL    HW231917   1.098   3.324   1.764 -2.9565 -0.2469 -0.0208
 6819SOL     OW31918   1.025   0.498   2.259  0.2684 -0.4653 -0.0078
 6819SOL    HW131919   1.017   0.579   2.208 -0.5340 -0.7155 -0.2719
 6819SOL    HW231920   1.014   0.531   2.348  2.1482 -1.4062  0.5851
 6820SOL     OW31921   3.070   3.122  15.084  0.1003 -0.0453  0.2185
 6820SOL    HW131922   3.040   3.078  15.164 -0.5114  1.4779  0.8330
 6820SOL    HW231923   3.157   3.150  15.111  0.2087  1.1986 -1.4351
 6821SOL     OW31924   4.466   3.593   6.197 -0.1823 -0.1610 -0.4053
 6821SOL    HW131925   4.373   3.604   6.217  0.0887 -2.0734  1.9032
 6821SOL    HW231926   4.505   3.574   6.283 -0.8214 -2.4633 -0.6247
 6822SOL     OW31927   4.280   4.419   9.484  0.2628 -0.5265  0.0404
 6822SOL    HW131928   4.237   4.364   9.418 -3.0333  0.7623  1.0822
 6822SOL    HW231929   4.373   4.409   9.464  0.0467 -0.7965 -0.8122
 6823SOL     OW31930   2.538   1.037   1.025 -0.0794 -0.1941 -0.1573
 6823SOL    HW131931   2.539   1.128   0.993  1.1862 -0.2827 -0.3705
 6823SOL    HW231932   2.620   1.004   0.989 -0.0394 -1.9211  1.5189
 6824SOL     OW31933   4.502   2.097   6.937 -0.5249 -0.1004 -0.3582
 6824SOL    HW131934   4.484   2.055   6.853  0.1925 -2.4210  0.6703
 6824SOL    HW231935   4.436   2.167   6.930  0.0402  0.8453  3.7818
 6825SOL     OW31936   1.057   3.988   5.763 -0.2798  0.5625 -0.4151
 6825SOL    HW131937   1.041   4.037   5.844 -1.0069  0.0902 -0.2748
 6825SOL    HW231938   0.970   4.002   5.724 -0.0763 -0.9750 -1.4136
 6826SOL     OW31939   4.403   1.116   6.360  0.1290  0.0831 -1.1144
 6826SOL    HW131940   4.356   1.173   6.420  0.2683 -1.8806  0.8732
 6826SOL    HW231941   4.342   1.117   6.286 -3.4845 -3.2427  1.8222
 6827SOL     OW31942   1.673   0.219   8.896 -0.0149 -0.4284 -0.2584
 6827SOL    HW131943   1.716   0.231   8.981  2.0746 -1.1617 -1.2228
 6827SOL    HW231944   1.683   0.124   8.891 -1.4934 -0.5878 -0.1055
 6828SOL     OW31945   2.306   0.934   9.486 -0.7055 -0.0797 -0.2606
 6828SOL    HW131946   2.398   0.910   9.478 -1.0209 -1.1541 -0.6424
 6828SOL    HW231947   2.308   1.020   9.444 -2.3212 -0.1008 -0.3880
 6829SOL     OW31948   1.477   3.324  16.057 -0.1803 -0.0021 -0.2671
 6829SOL    HW131949   1.555   3.275  16.082 -0.5652  0.3234  1.5632
 6829SOL    HW231950   1.449   3.376  16.133  1.0943 -1.0727  0.9291
 6830SOL     OW31951   0.360   3.880   3.162  0.5386 -0.3712  0.4135
 6830SOL    HW131952   0.414   3.917   3.232  0.3129 -0.4904  0.6503
 6830SOL    HW231953   0.415   3.808   3.130 -0.6983 -0.6253 -1.1639
 6831SOL     OW31954   2.903   4.588  16.261 -0.3111 -0.1711 -0.0679
 6831SOL    HW131955   2.898   4.544  16.176 -0.3012 -0.6646  0.1849
 6831SOL    HW231956   2.955   4.664  16.236  0.4376 -1.4569 -2.3811
 6832SOL     OW31957   2.551   2.305   7.532 -0.0769 -0.3870 -0.0145
 6832SOL    HW131958   2.511   2.233   7.483 -0.6647  0.3286 -0.5834
 6832SOL    HW231959   2.641   2.310   7.500 -0.7454 -1.7474 -2.0871
 6833SOL     OW31960   1.671   0.879   0.060  0.3839  0.1571  0.3807
 6833SOL    HW131961   1.701   0.951   0.116 -1.7601 -1.2974  3.3889
 6833SOL    HW231962   1.591   0.859   0.107  0.2382 -0.5941 -0.1986
 6834SOL     OW31963   1.455   2.514   6.677 -0.1313  0.3244  0.5772
 6834SOL    HW131964   1.507   2.565   6.615 -0.0737 -2.1046 -1.3725
 6834SOL    HW231965   1.382   2.573   6.693 -2.3146 -2.2988  0.2377
 6835SOL     OW31966   1.723   4.126   2.882  0.1088  0.7138  0.0474
 6835SOL    HW131967   1.693   4.098   2.796 -1.2875 -2.4091  1.5832
 6835SOL    HW231968   1.648   4.097   2.934  1.2020 -0.6344  0.8686
 6836SOL     OW31969   2.716   2.611  17.534  0.2461 -0.3162 -0.0216
 6836SOL    HW131970   2.707   2.629  17.627 -0.3212 -0.8645  0.0284
 6836SOL    HW231971   2.625   2.632  17.513  0.5943  0.0976 -1.1453
 6837SOL     OW31972   0.368   4.176   2.498 -1.0276  0.4138 -0.0021
 6837SOL    HW131973   0.425   4.241   2.538 -0.2812  0.5060 -1.1932
 6837SOL    HW231974   0.288   4.223   2.474 -0.6972  0.9594 -0.0404
 6838SOL     OW31975   4.458   2.204   3.517  0.2714 -0.7380 -0.3399
 6838SOL    HW131976   4.548   2.171   3.527  0.6975 -0.0040 -1.8321
 6838SOL    HW231977   4.399   2.153   3.573 -2.1606  0.5235 -1.8043
 6839SOL     OW31978   4.231   3.328   6.903  0.1936 -0.3504  0.6547
 6839SOL    HW131979   4.149   3.284   6.879 -0.2398  0.4427  0.7190
 6839SOL    HW231980   4.266   3.356   6.818 -1.7201  0.1464  0.0287
 6840SOL     OW31981   4.113   0.296  11.979 -0.2932 -0.2973  0.0315
 6840SOL    HW131982   4.122   0.298  11.884 -1.5299  0.6500 -0.0751
 6840SOL    HW231983   4.205   0.308  12.001  0.3443 -1.3560 -2.1100
 6841SOL     OW31984   1.924   3.055   2.569  0.3790 -0.0194 -0.4319
 6841SOL    HW131985   1.923   2.969   2.528 -1.8573 -0.5472  0.7349
 6841SOL    HW231986   2.017   3.076   2.579  0.7001 -1.4702 -0.3566
 6842SOL     OW31987   1.075   1.582   6.096  0.1370 -0.8463 -0.0505
 6842SOL    HW131988   1.136   1.578   6.022  2.6149 -0.5526  1.9606
 6842SOL    HW231989   1.022   1.503   6.083  1.2614 -1.8744  1.6373
 6843SOL     OW31990   1.499   0.512   2.975 -0.5026  0.4079 -0.5671
 6843SOL    HW131991   1.494   0.496   2.881 -3.0682  0.4905 -0.4415
 6843SOL    HW231992   1.565   0.451   3.009 -0.1625  2.7697  3.0429
 6844SOL     OW31993   1.797   0.712   6.321 -0.2899 -0.4920  0.9834
 6844SOL    HW131994   1.846   0.793   6.336  0.4952 -1.0091  1.2100
 6844SOL    HW231995   1.737   0.743   6.253  0.6637 -2.1223 -0.6184
 6845SOL     OW31996   0.222   3.927  12.944  0.8965  0.0354 -0.3632
 6845SOL    HW131997   0.284   3.968  12.884  1.1394 -0.0781 -0.1909
 6845SOL    HW231998   0.282   3.883  13.003 -2.2577  0.0403  2.8806
 6846SOL     OW31999   3.472   4.174   3.202  0.3515 -0.2069 -0.3827
 6846SOL    HW132000   3.456   4.153   3.110  2.5988 -1.9932 -0.3636
 6846SOL    HW232001   3.395   4.142   3.248  1.3279  0.4070  1.6700
 6847SOL     OW32002   3.823   0.111   7.758 -0.2755 -0.0439  0.0283
 6847SOL    HW132003   3.833   0.030   7.708  0.8711 -1.4351  2.5357
 6847SOL    HW232004   3.899   0.105   7.816 -0.6499  1.6021  0.7059
 6848SOL     OW32005   2.530   0.745   5.296  0.5372  0.1022  0.4331
 6848SOL    HW132006   2.440   0.711   5.301 -0.3439  2.4406  0.4796
 6848SOL    HW232007   2.512   0.839   5.284  0.5634  0.0994  0.3706
 6849SOL     OW32008   0.651   3.786  15.845  0.5316  0.1777 -0.2005
 6849SOL    HW132009   0.740   3.763  15.820  0.9401  0.6960  0.7657
 6849SOL    HW232010   0.621   3.794  15.755  0.0910  1.9672  0.1102
 6850SOL     OW32011   1.380   3.235   5.679  0.8441  0.2980  0.2658
 6850SOL    HW132012   1.417   3.289   5.749  0.0192 -2.5430  2.9021
 6850SOL    HW232013   1.304   3.287   5.652  0.8177  0.5734  0.8732
 6851SOL     OW32014   1.729   0.356   5.480  0.3229  0.5054  0.1857
 6851SOL    HW132015   1.792   0.326   5.415 -0.3596  0.7635 -0.6006
 6851SOL    HW232016   1.781   0.426   5.520  0.8174 -0.6739  1.6160
 6852SOL     OW32017   2.958   2.190  14.844  0.5689 -0.2213 -0.2336
 6852SOL    HW132018   2.880   2.134  14.846  0.5273 -0.1136  0.7500
 6852SOL    HW232019   2.959   2.224  14.933 -0.2204  0.7309 -0.5829
 6853SOL     OW32020   0.986   2.427   8.979  0.3193  0.4276 -0.0604
 6853SOL    HW132021   0.944   2.445   9.064 -1.1531 -0.0666 -0.6817
 6853SOL    HW232022   0.926   2.476   8.923  1.1275  1.6242  0.1138
 6854SOL     OW32023   3.003   0.078   4.280  0.1012  0.3987 -0.0013
 6854SOL    HW132024   2.966   0.080   4.368 -2.3674  0.3427 -1.0237
 6854SOL    HW232025   2.928   0.059   4.224  0.2633  1.1529 -0.4698
 6855SOL     OW32026   3.324   3.078   7.033 -0.2978  0.0017  0.3920
 6855SOL    HW132027   3.283   3.040   6.956  0.0604 -1.0822  0.7418
 6855SOL    HW232028   3.322   3.004   7.093  0.3626 -0.8949 -0.6990
 6856SOL     OW32029   4.342   3.517   1.279  0.6840 -0.2709  0.0128
 6856SOL    HW132030   4.370   3.570   1.354  2.4446 -0.3032 -0.6328
 6856SOL    HW232031   4.396   3.439   1.290  2.1463  0.6446 -0.7707
 6857SOL     OW32032   0.388   0.851  13.712 -0.3879 -0.1949 -0.3321
 6857SOL    HW132033   0.307   0.862  13.662 -0.8951 -0.8624  0.3400
 6857SOL    HW232034   0.369   0.764  13.748  1.1452 -1.0279 -1.5576
 6858SOL     OW32035   2.565   4.295  16.672  0.4477 -0.0884  0.0934
 6858SOL    HW132036   2.499   4.285  16.604 -1.5163 -0.2665  2.0448
 6858SOL    HW232037   2.572   4.213  16.721  0.0380 -1.0072 -1.4039
 6859SOL     OW32038   4.133   3.838  13.504  0.1592 -0.2216 -1.0427
 6859SOL    HW132039   4.147   3.932  13.494 -0.5528 -0.0347 -0.2572
 6859SOL    HW232040   4.038   3.838  13.502  0.1204  0.3069  0.8169
 6860SOL     OW32041   1.970   0.166   2.690 -0.6017 -0.0021 -0.1774
 6860SOL    HW132042   1.909   0.186   2.619 -0.6927 -0.3126 -0.1849
 6860SOL    HW232043   1.955   0.072   2.700 -0.0441 -0.0459  0.2577
 6861SOL     OW32044   3.273   2.524  15.169 -0.3762  1.3659  0.4110
 6861SOL    HW132045   3.278   2.614  15.202 -0.0091  1.3750  0.3298
 6861SOL    HW232046   3.340   2.478  15.220 -0.2128  0.8457 -0.2770
 6862SOL     OW32047   1.832   0.608   0.217 -0.0537 -0.2354  0.1018
 6862SOL    HW132048   1.813   0.518   0.244 -2.5949 -0.6225 -3.0153
 6862SOL    HW232049   1.759   0.618   0.156  0.7830 -1.3902 -1.0616
 6863SOL     OW32050   1.522   2.574   9.861 -0.4494  0.1717  0.2261
 6863SOL    HW132051   1.526   2.481   9.838  1.5861  0.6069 -1.2807
 6863SOL    HW232052   1.616   2.588   9.850 -0.6289  0.6414 -0.7151
 6864SOL     OW32053   0.812   2.921   2.460 -0.4869 -0.4555 -0.3204
 6864SOL    HW132054   0.752   2.920   2.386  0.7603  1.3865 -1.3548
 6864SOL    HW232055   0.780   2.997   2.508 -0.2388  0.3397 -1.4052
 6865SOL     OW32056   3.861   1.174  14.962 -0.4818  0.0731 -0.2596
 6865SOL    HW132057   3.953   1.149  14.970 -0.3648  0.9558  1.1778
 6865SOL    HW232058   3.857   1.268  14.980 -0.6952 -0.1668  0.9889
 6866SOL     OW32059   2.258   1.627   6.849  0.4679  0.1825  0.2279
 6866SOL    HW132060   2.276   1.566   6.778  2.4777  1.3164 -0.2394
 6866SOL    HW232061   2.185   1.679   6.816  0.5592  0.6192  0.7181
 6867SOL     OW32062   0.342   2.609   4.226  0.0466  0.3487 -0.1082
 6867SOL    HW132063   0.371   2.529   4.269 -0.1455  1.3024  1.7945
 6867SOL    HW232064   0.399   2.675   4.265  0.0817 -0.0205  0.4551
 6868SOL     OW32065   0.300   3.794   6.372 -0.2850  0.4848 -0.1096
 6868SOL    HW132066   0.259   3.761   6.452 -0.7189 -0.4918 -0.7239
 6868SOL    HW232067   0.306   3.722   6.309  1.5301 -0.1787  0.8270
 6869SOL     OW32068   1.455   2.146   8.233 -0.8605 -0.0603  0.3644
 6869SOL    HW132069   1.406   2.226   8.252  0.3988  0.9467 -0.6247
 6869SOL    HW232070   1.384   2.102   8.185 -0.7277 -1.3645  1.3750
 6870SOL     OW32071   2.708   1.762   8.608  0.0128 -0.1809  0.8236
 6870SOL    HW132072   2.789   1.795   8.569  0.1747 -1.0185  0.4532
 6870SOL    HW232073   2.737   1.671   8.623 -0.3476 -0.2758  0.9287
 6871SOL     OW32074   3.021   1.109   1.941  0.0677 -0.7265  0.2436
 6871SOL    HW132075   2.973   1.106   2.023 -1.1509 -0.9254 -0.4794
 6871SOL    HW232076   2.964   1.159   1.882 -0.1585 -3.0801 -1.5608
 6872SOL     OW32077   1.697   1.445  16.490  0.3184  0.2405 -0.7278
 6872SOL    HW132078   1.643   1.367  16.478  1.2884 -0.7663  1.5244
 6872SOL    HW232079   1.674   1.490  16.408 -0.5379 -1.4197 -1.4079
 6873SOL     OW32080   2.340   3.498  13.784  0.1345 -0.3631 -0.3155
 6873SOL    HW132081   2.403   3.493  13.712  0.6614  0.8444  0.0574
 6873SOL    HW232082   2.297   3.414  13.772  1.1787 -0.6342 -2.1349
 6874SOL     OW32083   0.466   4.508   5.013  0.4425 -0.1237 -0.4354
 6874SOL    HW132084   0.457   4.603   5.001 -0.1598 -0.4761 -2.7121
 6874SOL    HW232085   0.514   4.491   4.932 -1.4514  1.3983 -1.8838
 6875SOL     OW32086   1.489   3.473  16.279  0.2437  0.0405 -0.4107
 6875SOL    HW132087   1.498   3.416  16.356  1.6330 -1.6672 -1.8491
 6875SOL    HW232088   1.571   3.523  16.282  0.1047  0.2204  0.5528
 6876SOL     OW32089   3.323   2.453   5.426 -0.2449 -0.0019 -0.0331
 6876SOL    HW132090   3.322   2.529   5.368 -1.7953 -0.9216 -1.2329
 6876SOL    HW232091   3.342   2.487   5.513  0.3457 -0.6338  0.0827
 6877SOL     OW32092   0.747   4.344  13.134 -0.1232 -0.3797  0.7189
 6877SOL    HW132093   0.839   4.373  13.127  0.1553 -2.1409 -3.0884
 6877SOL    HW232094   0.712   4.432  13.145 -1.6606 -1.0382  0.9777
 6878SOL     OW32095   4.589   4.417   4.536  0.0107 -0.2570 -0.3416
 6878SOL    HW132096   4.633   4.381   4.459  1.8190 -1.9864  1.4983
 6878SOL    HW232097   4.618   4.360   4.608  0.6168  1.0175  0.4165
 6879SOL     OW32098   4.402   3.400   2.850 -0.0156  0.4569 -0.0361
 6879SOL    HW132099   4.379   3.310   2.826  1.2824  0.8403 -2.6936
 6879SOL    HW232100   4.438   3.392   2.938  1.0973  2.6883 -0.3022
 6880SOL     OW32101   2.587   3.084  10.880  0.2114 -0.1101 -0.0031
 6880SOL    HW132102   2.622   3.121  10.961  0.2611  0.1374 -0.1362
 6880SOL    HW232103   2.660   3.120  10.829 -0.9962 -0.8730 -2.2788
 6881SOL     OW32104   2.497   2.705  13.343 -0.3366 -0.1788  0.5063
 6881SOL    HW132105   2.506   2.618  13.383 -2.1805 -0.1821  0.8994
 6881SOL    HW232106   2.437   2.705  13.269 -0.2971  2.7121  0.4862
 6882SOL     OW32107   3.911   4.110   6.555  0.4380 -0.6240  0.0486
 6882SOL    HW132108   3.951   4.188   6.517  0.1749 -1.9118 -2.8703
 6882SOL    HW232109   3.966   4.039   6.521  1.2442 -0.0585  0.1931
 6883SOL     OW32110   3.172   4.320   4.808  0.6092  0.3406 -0.1234
 6883SOL    HW132111   3.228   4.392   4.780  0.1886 -0.3263 -2.6729
 6883SOL    HW232112   3.226   4.241   4.800 -1.5998 -1.3489  1.4144
 6884SOL     OW32113   3.843   1.476   2.789  0.2715  0.2541  0.0052
 6884SOL    HW132114   3.855   1.558   2.740 -1.0773  0.0088 -0.7388
 6884SOL    HW232115   3.859   1.509   2.878  1.4837 -0.9315  0.2181
 6885SOL     OW32116   0.966   0.368  17.641  0.5396  0.1795 -0.0875
 6885SOL    HW132117   1.062   0.372  17.650  0.6883  1.1490 -2.0842
 6885SOL    HW232118   0.930   0.376   0.027 -0.1437 -1.5989 -0.2305
 6886SOL     OW32119   2.495   3.744   2.824 -0.9158  0.4154  0.5437
 6886SOL    HW132120   2.474   3.669   2.769 -0.4947 -0.4523  1.5737
 6886SOL    HW232121   2.565   3.706   2.877 -1.1299 -0.4058  0.2357
 6887SOL     OW32122   4.664   1.741   9.407 -0.1102 -0.3549  0.2389
 6887SOL    HW132123   4.671   1.809   9.340 -1.4406 -0.0355  0.4219
 6887SOL    HW232124   4.592   1.689   9.371  0.4448 -2.1207  1.7029
 6888SOL     OW32125   4.466   1.301   5.657  0.4482 -0.6235 -0.2314
 6888SOL    HW132126   4.489   1.208   5.667  0.1787 -0.5731  0.8846
 6888SOL    HW232127   4.421   1.302   5.573  1.1228  0.8658 -0.5704
 6889SOL     OW32128   1.103   2.500   5.263 -0.3760 -0.1617 -0.1893
 6889SOL    HW132129   1.018   2.484   5.304 -0.2615 -0.7342 -0.1741
 6889SOL    HW232130   1.117   2.416   5.220 -0.3452 -0.7930  1.0632
 6890SOL     OW32131   2.981   4.233   4.637  0.0849 -0.0583  0.0469
 6890SOL    HW132132   3.060   4.238   4.691  1.2661 -0.7662 -1.6011
 6890SOL    HW232133   2.949   4.155   4.682  0.3204  0.2816  0.8048
 6891SOL     OW32134   1.556   0.956   9.271  0.2154  0.6091 -0.2941
 6891SOL    HW132135   1.596   0.887   9.219 -1.4193 -0.2161 -0.4747
 6891SOL    HW232136   1.473   0.958   9.224 -0.7394  3.8246  1.4880
 6892SOL     OW32137   1.472   1.766  16.140  0.0543  0.8770  0.3910
 6892SOL    HW132138   1.437   1.837  16.087  2.4278 -0.7445 -3.3540
 6892SOL    HW232139   1.460   1.692  16.081  2.4103  1.2037 -0.5113
 6893SOL     OW32140   0.183   0.721   2.992  0.5813 -0.3483  0.2879
 6893SOL    HW132141   0.097   0.703   3.030 -1.2845  3.5080 -2.0974
 6893SOL    HW232142   0.161   0.704   2.900  2.9815 -1.2555 -0.1198
 6894SOL     OW32143   2.655   0.996   0.327 -0.9551 -0.0443 -0.7235
 6894SOL    HW132144   2.563   0.971   0.324 -0.6944 -1.1456  0.4460
 6894SOL    HW232145   2.675   0.967   0.238 -2.2877  1.7286 -1.6048
 6895SOL     OW32146   4.704   1.333  12.186  0.4121 -0.1538  0.8919
 6895SOL    HW132147   4.663   1.410  12.225  1.3587 -0.3804  2.3037
 6895SOL    HW232148   4.710   1.358  12.094  0.8618 -1.6309  0.5205
 6896SOL     OW32149   2.788   2.767   5.285 -0.0393 -0.7024  0.0564
 6896SOL    HW132150   2.837   2.780   5.203 -1.9484 -0.3365 -1.0119
 6896SOL    HW232151   2.791   2.856   5.321 -1.4050 -0.0283 -1.4803
 6897SOL     OW32152   2.990   1.171  16.814  0.0336 -0.4213 -0.2371
 6897SOL    HW132153   3.049   1.134  16.748  1.2144 -1.5579  1.4453
 6897SOL    HW232154   3.016   1.117  16.889  0.6747 -0.4489 -0.4807
 6898SOL     OW32155   2.525   2.206   1.596 -0.5358  0.0749 -0.5030
 6898SOL    HW132156   2.558   2.128   1.641  0.5657  0.4063 -0.7276
 6898SOL    HW232157   2.432   2.186   1.586 -0.4172 -0.5756 -0.3153
 6899SOL     OW32158   3.962   3.772  12.735 -0.4529 -0.0726 -0.3688
 6899SOL    HW132159   3.918   3.772  12.820  1.0666 -0.4052  0.4268
 6899SOL    HW232160   4.004   3.855  12.756 -1.0563  0.5691 -1.6855
 6900SOL     OW32161   1.746   2.321   7.603  0.2532  0.0408  0.7594
 6900SOL    HW132162   1.680   2.332   7.672 -1.0241 -0.0188 -0.4313
 6900SOL    HW232163   1.694   2.267   7.542  0.7981  0.6195 -0.2116
 6901SOL     OW32164   0.660   0.097  13.477  0.2063  0.0550 -0.6883
 6901SOL    HW132165   0.671   0.160  13.548 -1.8810  0.3810 -0.6464
 6901SOL    HW232166   0.637   0.022  13.532  0.2350  1.5255  1.3156
 6902SOL     OW32167   2.547   2.182   4.277 -0.0208  0.4967 -0.2770
 6902SOL    HW132168   2.617   2.189   4.212 -1.1641  0.1265 -1.5321
 6902SOL    HW232169   2.469   2.184   4.222 -0.0474  2.8190 -0.1366
 6903SOL     OW32170   4.649   0.317  15.572 -0.8654 -0.1809 -0.2059
 6903SOL    HW132171   4.587   0.292  15.504 -0.0227 -3.4421  0.2108
 6903SOL    HW232172   4.582   0.323  15.640 -0.0013 -2.6300  0.8775
 6904SOL     OW32173   2.601   1.389   4.035 -0.3358 -0.0056  0.4262
 6904SOL    HW132174   2.582   1.313   3.979  0.0468 -1.0615  1.7318
 6904SOL    HW232175   2.649   1.433   3.965  0.7278 -0.2371  1.0157
 6905SOL     OW32176   4.537   3.273   4.470 -0.1021 -0.2791 -0.4280
 6905SOL    HW132177   4.521   3.338   4.402 -1.8132  0.7854  1.0091
 6905SOL    HW232178   4.513   3.190   4.429  0.5136 -0.9209  0.5239
 6906SOL     OW32179   2.018   0.021  16.588 -0.3727 -0.2713 -0.1201
 6906SOL    HW132180   2.096   0.040  16.641 -1.0150  1.0049  0.3742
 6906SOL    HW232181   1.992   4.660  16.620 -1.5298 -0.5037 -1.7171
 6907SOL     OW32182   0.238   4.217   3.332 -0.0026 -0.3777 -0.5021
 6907SOL    HW132183   0.183   4.143   3.305 -0.0950 -0.2334 -0.7153
 6907SOL    HW232184   0.249   4.198   3.425 -3.7409 -0.6761 -0.1051
 6908SOL     OW32185   3.619   4.676   4.160 -0.4795  0.2283 -0.0482
 6908SOL    HW132186   3.689   4.652   4.100 -2.3434 -0.8686 -1.7917
 6908SOL    HW232187   3.541   4.639   4.120 -1.6575  1.9762  0.6114
 6909SOL     OW32188   1.552   4.607   7.991  0.1989  0.3604  0.3672
 6909SOL    HW132189   1.530   4.542   7.924 -0.4764  1.7791 -0.7736
 6909SOL    HW232190   1.468   4.612   8.037  1.4982  2.7913  2.4248
 6910SOL     OW32191   0.843   1.843   8.347 -0.3801  0.5633 -0.0047
 6910SOL    HW132192   0.853   1.837   8.442 -0.8800  2.3728  0.1701
 6910SOL    HW232193   0.762   1.794   8.340  1.3986 -1.7665 -4.3810
 6911SOL     OW32194   1.847   1.979   0.047 -0.1973  0.1437  0.1978
 6911SOL    HW132195   1.876   1.889   0.034 -1.7882 -0.0871 -1.7648
 6911SOL    HW232196   1.934   2.006   0.077  0.0323 -2.2484  1.6900
 6912SOL     OW32197   2.852   2.228   2.555  0.5317  0.7749 -0.1688
 6912SOL    HW132198   2.862   2.220   2.460  1.3094 -0.1072 -0.0066
 6912SOL    HW232199   2.865   2.322   2.563  0.0464  0.9211 -1.1642
 6913SOL     OW32200   1.568   1.369  14.390 -0.3111  0.4307  0.0486
 6913SOL    HW132201   1.490   1.317  14.412 -0.0420  0.7592  1.7704
 6913SOL    HW232202   1.638   1.323  14.436 -0.0494  0.6578 -0.1240
 6914SOL     OW32203   2.516   0.076  16.379 -0.1689  0.1865 -0.0091
 6914SOL    HW132204   2.468   0.080  16.462  0.7180 -1.0822  0.5481
 6914SOL    HW232205   2.531   4.707  16.372  0.8351  0.4363 -1.2722
 6915SOL     OW32206   2.289   4.709   5.357  0.1780  0.4832 -0.2093
 6915SOL    HW132207   2.250   0.059   5.401  0.9697  0.5022  0.4426
 6915SOL    HW232208   2.370   4.710   5.407 -0.9753 -0.4316  1.6874
 6916SOL     OW32209   4.701   1.181   5.784 -0.2281  0.4256 -0.1568
 6916SOL    HW132210   0.036   1.219   5.848  0.9831  0.7949 -1.4993
 6916SOL    HW232211   4.621   1.172   5.836 -0.3030  1.8284 -0.0372
 6917SOL     OW32212   4.507   0.412   6.720  0.2215 -0.2126 -0.3303
 6917SOL    HW132213   4.439   0.479   6.715  0.0144 -0.4063 -0.1275
 6917SOL    HW232214   4.563   0.463   6.778  0.2566  1.4361 -1.8073
 6918SOL     OW32215   1.147   3.441  11.551 -0.1028  0.2674 -0.5533
 6918SOL    HW132216   1.195   3.395  11.482  2.7443  2.5302 -0.0774
 6918SOL    HW232217   1.222   3.478  11.598 -0.3232  0.2917 -0.2215
 6919SOL     OW32218   3.485   0.636   3.418 -0.3594 -0.1978  0.0608
 6919SOL    HW132219   3.477   0.556   3.470 -1.3692  1.3214  2.2302
 6919SOL    HW232220   3.506   0.594   3.335  0.7770 -0.1157  0.3161
 6920SOL     OW32221   3.147   4.529   5.424  0.5225  0.1024 -0.4613
 6920SOL    HW132222   3.166   4.515   5.331  0.2005 -0.5126 -0.4340
 6920SOL    HW232223   3.235   4.545   5.460  1.1145 -0.0344 -1.8406
 6921SOL     OW32224   4.666   1.178   4.965  0.4335 -0.5556  0.5987
 6921SOL    HW132225   4.663   1.084   4.951 -1.0334 -0.6739  1.7174
 6921SOL    HW232226   4.592   1.211   4.914  0.3089 -2.2353 -0.2803
 6922SOL     OW32227   0.451   4.347   5.237 -0.3672  0.0116  0.2512
 6922SOL    HW132228   0.391   4.393   5.295 -0.7727  2.8633 -2.4341
 6922SOL    HW232229   0.421   4.391   5.158  0.4412 -0.8872 -0.5559
 6923SOL     OW32230   0.214   3.610   7.863  0.3525  0.1048 -0.4557
 6923SOL    HW132231   0.304   3.586   7.885  1.2014  3.1671 -0.5646
 6923SOL    HW232232   0.215   3.615   7.767 -4.3978  0.2541 -0.4807
 6924SOL     OW32233   4.677   4.094   1.986  0.2414  0.1684 -1.0925
 6924SOL    HW132234   4.675   4.016   2.041 -1.6682  1.6784  1.0013
 6924SOL    HW232235   4.585   4.119   1.999 -0.0437 -0.5093 -1.8062
 6925SOL     OW32236   2.401   4.178   2.436  0.2976 -0.7612  0.4132
 6925SOL    HW132237   2.314   4.202   2.405  1.4949  0.1195 -2.2330
 6925SOL    HW232238   2.402   4.082   2.437 -3.6665 -0.8004 -0.1075
 6926SOL     OW32239   3.988   2.267   0.044 -0.4631  0.0650  0.1203
 6926SOL    HW132240   4.015   2.359   0.052 -2.4189  0.5918  0.6076
 6926SOL    HW232241   3.983   2.253  17.651  1.3339  2.3946 -0.3244
 6927SOL     OW32242   1.220   0.437   5.435  0.5740  0.0112  0.4338
 6927SOL    HW132243   1.230   0.410   5.344  0.3427  0.0362  0.3999
 6927SOL    HW232244   1.299   0.405   5.477  0.9515  1.9327  1.2009
 6928SOL     OW32245   3.376   4.138   8.949  0.4560  0.0741  0.3541
 6928SOL    HW132246   3.361   4.084   8.872  1.3393 -1.0040  0.9414
 6928SOL    HW232247   3.466   4.114   8.972  0.3027 -2.5757 -1.8306
 6929SOL     OW32248   4.635   2.966   2.242  0.8396 -0.8931  0.0617
 6929SOL    HW132249   4.605   3.038   2.185  2.8213 -0.8227 -0.9066
 6929SOL    HW232250   0.005   2.977   2.242  0.5488  1.5857  0.6251
 6930SOL     OW32251   3.189   2.898   8.812  0.1348  0.2135  0.1806
 6930SOL    HW132252   3.112   2.872   8.762  0.3631 -0.2903  0.0952
 6930SOL    HW232253   3.148   2.916   8.897  1.5902 -1.0563  1.1655
 6931SOL     OW32254   3.806   2.116   9.863 -0.3655  0.5054  0.2793
 6931SOL    HW132255   3.807   2.051   9.793 -0.0537 -0.3848  1.1071
 6931SOL    HW232256   3.885   2.166   9.843 -0.4497  0.1528 -0.9223
 6932SOL     OW32257   2.330   4.431   1.369  0.1552  0.5485  0.1348
 6932SOL    HW132258   2.313   4.363   1.304 -1.3984 -1.1756  2.3277
 6932SOL    HW232259   2.309   4.382   1.449  0.6185 -0.5274 -0.4023
 6933SOL     OW32260   1.066   2.475   9.398  0.3600  0.5867 -0.4543
 6933SOL    HW132261   1.144   2.498   9.348  0.6259  2.4231  0.7900
 6933SOL    HW232262   1.077   2.381   9.410  0.7798  0.5245 -1.4123
 6934SOL     OW32263   3.410   4.452   1.433  0.0519  0.0091 -0.0496
 6934SOL    HW132264   3.500   4.421   1.425  0.0771  0.0256  0.1610
 6934SOL    HW232265   3.365   4.399   1.367 -1.8892  0.7840  0.6625
 6935SOL     OW32266   1.567   0.948   7.532 -0.1483 -0.5353  0.5187
 6935SOL    HW132267   1.639   0.889   7.507 -0.0581  0.0236 -0.5549
 6935SOL    HW232268   1.532   0.895   7.604 -3.2042 -0.7550 -1.1132
 6936SOL     OW32269   2.077   3.907   2.241 -0.1522  0.3159  0.2302
 6936SOL    HW132270   2.060   3.996   2.212 -0.6503  0.2835  0.4307
 6936SOL    HW232271   2.021   3.854   2.184 -2.3656  3.4934 -0.5676
 6937SOL     OW32272   1.737   3.682   9.008  0.0542  0.5813 -0.1651
 6937SOL    HW132273   1.733   3.623   9.083  1.5736  2.0354  1.0720
 6937SOL    HW232274   1.691   3.627   8.944 -0.3682  2.0790 -1.1384
 6938SOL     OW32275   3.921   2.119   3.805  0.3211  0.1241 -0.6481
 6938SOL    HW132276   3.930   2.044   3.746 -0.1310 -1.7747  1.7149
 6938SOL    HW232277   3.836   2.099   3.845 -0.1550  0.9084 -1.2708
 6939SOL     OW32278   1.943   4.287   9.749  0.9848 -0.0279  0.1322
 6939SOL    HW132279   1.925   4.362   9.692  2.2525  0.1872  0.0124
 6939SOL    HW232280   1.855   4.273   9.785  0.3327  0.2823 -1.3433
 6940SOL     OW32281   2.230   0.699   0.357  0.2579 -0.5587  0.1209
 6940SOL    HW132282   2.220   0.736   0.445  0.7839  2.4681 -1.1347
 6940SOL    HW232283   2.228   0.605   0.377  1.8744 -1.0146 -1.9324
 6941SOL     OW32284   3.407   0.054   5.256  0.4710 -0.5822 -0.0284
 6941SOL    HW132285   3.402   4.684   5.269 -0.5609 -0.1492  2.7814
 6941SOL    HW232286   3.500   0.071   5.274  0.5449  2.0622 -2.9467
 6942SOL     OW32287   1.600   2.494   8.759 -0.1848 -0.2387 -0.2372
 6942SOL    HW132288   1.572   2.476   8.669 -3.3766 -1.4001  0.9924
 6942SOL    HW232289   1.684   2.447   8.766 -0.1002 -0.0831 -0.2051
 6943SOL     OW32290   0.364   3.220   7.553 -0.4279  0.0398  0.7427
 6943SOL    HW132291   0.448   3.194   7.590 -0.0393  0.6141  0.2598
 6943SOL    HW232292   0.321   3.137   7.535  1.0895  0.0662 -2.8793
 6944SOL     OW32293   0.889   1.650   9.929  0.0577  0.4382 -0.0409
 6944SOL    HW132294   0.974   1.629   9.890  0.4568  0.8175  0.6380
 6944SOL    HW232295   0.910   1.679  10.018  1.5404 -1.9205  0.3991
 6945SOL     OW32296   4.283   0.810   8.095  0.2032 -0.1944  0.1169
 6945SOL    HW132297   4.330   0.845   8.019  0.7267  1.1711  1.0781
 6945SOL    HW232298   4.224   0.751   8.049  0.4278  0.0831 -0.5291
 6946SOL     OW32299   2.936   4.079  17.302  0.0901  0.4227  0.0815
 6946SOL    HW132300   2.961   4.064  17.211  0.3040  2.2262 -0.1576
 6946SOL    HW232301   2.879   4.005  17.324 -0.4569  0.3237 -1.6732
 6947SOL     OW32302   2.404   0.709  11.771 -0.6660  0.3930  0.3249
 6947SOL    HW132303   2.370   0.666  11.850 -0.1286  0.4090  0.5621
 6947SOL    HW232304   2.428   0.636  11.714 -0.1706  0.8542 -0.0474
 6948SOL     OW32305   2.525   4.716   4.019  0.0048  0.1675  0.2987
 6948SOL    HW132306   2.497   4.627   3.997 -0.6873  0.3358  0.5123
 6948SOL    HW232307   2.467   0.042   3.962  0.1068  0.3406  0.3514
 6949SOL     OW32308   4.561   3.198  15.962  0.2438  0.0102  0.2774
 6949SOL    HW132309   4.525   3.240  16.039 -2.5332 -0.3029 -0.8561
 6949SOL    HW232310   4.580   3.268  15.900 -3.1065 -0.2372 -1.0308
 6950SOL     OW32311   0.206   1.929   7.439 -0.0882  0.1856  0.0378
 6950SOL    HW132312   0.156   1.874   7.500  1.1641  0.2565  1.1435
 6950SOL    HW232313   0.288   1.933   7.489 -0.0143  0.5345 -0.1147
 6951SOL     OW32314   4.300   3.045  17.531 -0.0039 -0.2488 -0.3157
 6951SOL    HW132315   4.369   2.979  17.539 -0.0676 -0.3542 -0.6296
 6951SOL    HW232316   4.351   3.125  17.549 -0.1462 -0.3245  0.4134
 6952SOL     OW32317   1.834   1.455   7.896  0.0192 -0.5255 -0.5234
 6952SOL    HW132318   1.834   1.497   7.810  2.0059  1.4991  0.4894
 6952SOL    HW232319   1.740   1.459   7.911 -0.0706 -2.4992 -0.5587
 6953SOL     OW32320   4.531   0.502  16.226 -0.0241 -0.0787 -0.7628
 6953SOL    HW132321   4.508   0.440  16.296  2.4136  0.1768  0.2808
 6953SOL    HW232322   4.525   0.443  16.151 -0.2610 -0.6437 -0.2966
 6954SOL     OW32323   0.942   4.109   2.343  0.4393  0.0811  0.1136
 6954SOL    HW132324   0.889   4.094   2.265  0.0601 -0.0519  0.3950
 6954SOL    HW232325   0.957   4.018   2.369  0.3380  0.1518  0.4177
 6955SOL     OW32326   0.589   4.330   2.637  0.5850 -0.0949 -0.4895
 6955SOL    HW132327   0.677   4.335   2.673  0.2701  0.9011  0.1371
 6955SOL    HW232328   0.559   4.421   2.638  1.4483  0.1533  3.5588
 6956SOL     OW32329   2.006   3.152   3.374 -0.1063  0.6182 -0.5326
 6956SOL    HW132330   2.071   3.087   3.345 -0.1718  1.3992 -2.4287
 6956SOL    HW232331   1.994   3.198   3.291 -1.7212  1.3612  0.1213
 6957SOL     OW32332   3.901   0.734   5.964 -0.0178 -0.2853  0.4898
 6957SOL    HW132333   3.901   0.647   5.924 -2.4466 -1.2716  2.6226
 6957SOL    HW232334   3.808   0.754   5.973  0.3270  1.0787  0.9902
 6958SOL     OW32335   0.698   2.437   5.643 -0.0503  0.3655  0.7439
 6958SOL    HW132336   0.652   2.397   5.570 -0.6963  1.0810  0.7564
 6958SOL    HW232337   0.776   2.382   5.644  0.2557  0.7682 -0.8238
 6959SOL     OW32338   3.524   1.539   4.338 -0.4711  0.1891  0.1657
 6959SOL    HW132339   3.526   1.522   4.244 -3.8956 -3.0627  0.6996
 6959SOL    HW232340   3.435   1.572   4.347 -0.1369  1.1288  0.1081
 6960SOL     OW32341   2.256   4.242  12.420 -0.5714 -0.3668  0.5946
 6960SOL    HW132342   2.269   4.163  12.367  2.8200 -0.9277  2.2392
 6960SOL    HW232343   2.160   4.239  12.425 -0.5139 -2.8090  0.1526
 6961SOL     OW32344   3.852   2.980   4.877 -0.3854  0.1312  0.4334
 6961SOL    HW132345   3.852   2.953   4.969  0.7385  1.0469  0.7025
 6961SOL    HW232346   3.777   2.927   4.848 -1.1520  0.0955  2.5052
 6962SOL     OW32347   0.375   3.746   8.494 -0.1818  0.9435 -0.2952
 6962SOL    HW132348   0.394   3.838   8.512  1.1087  1.2712 -3.3272
 6962SOL    HW232349   0.439   3.737   8.423  0.9316 -2.8617  1.1451
 6963SOL     OW32350   2.703   0.844  17.189 -0.2521  0.0441  0.1109
 6963SOL    HW132351   2.751   0.775  17.143  2.0834  1.2130  0.8239
 6963SOL    HW232352   2.635   0.802  17.242  0.4183 -3.4865 -1.7562
 6964SOL     OW32353   2.007   3.292  17.170  0.1578  0.0106 -0.4045
 6964SOL    HW132354   2.068   3.288  17.097  1.3902  0.9324  0.5698
 6964SOL    HW232355   2.062   3.245  17.233 -1.9436 -1.2353  0.5180
 6965SOL     OW32356   0.204   0.231  15.569 -0.4636  0.0967  0.0256
 6965SOL    HW132357   0.115   0.253  15.595 -0.4879  0.0736 -0.0371
 6965SOL    HW232358   0.237   0.315  15.536 -0.0321 -0.4493 -0.9374
 6966SOL     OW32359   2.941   3.617   9.539  0.3196  0.2103  0.2348
 6966SOL    HW132360   2.859   3.579   9.509  1.1264 -0.8278 -0.6442
 6966SOL    HW232361   2.931   3.706   9.503 -0.0257  0.1370  0.1572
 6967SOL     OW32362   0.337   2.694   3.213  1.1216 -0.5745  0.3797
 6967SOL    HW132363   0.294   2.682   3.129 -0.0071  2.3042  0.5471
 6967SOL    HW232364   0.310   2.614   3.258 -3.4918  0.1621 -1.0950
 6968SOL     OW32365   4.584   2.483   6.415  1.2776  0.4566 -0.8074
 6968SOL    HW132366   4.672   2.446   6.414  1.1005  0.0064  1.7848
 6968SOL    HW232367   4.595   2.553   6.479 -0.4166 -0.6989  0.7592
 6969SOL     OW32368   1.774   3.141   3.774 -0.8128  0.6750  0.2534
 6969SOL    HW132369   1.730   3.206   3.718  0.0115 -0.2103 -1.4315
 6969SOL    HW232370   1.815   3.094   3.702 -0.8436  1.2260 -0.1282
 6970SOL     OW32371   4.111   2.869   7.347 -0.1031 -0.2507  0.2219
 6970SOL    HW132372   4.116   2.944   7.288 -1.9612  0.3358  0.7795
 6970SOL    HW232373   4.097   2.923   7.425 -0.6607  1.2250 -0.8985
 6971SOL     OW32374   2.999   2.018   3.423 -0.1117 -0.0745  0.0311
 6971SOL    HW132375   2.920   2.064   3.394  1.2394  2.0896 -0.2418
 6971SOL    HW232376   2.976   1.995   3.513 -0.0712  0.5187  0.1991
 6972SOL     OW32377   0.324   2.942   4.651 -0.6589 -0.5090  0.0699
 6972SOL    HW132378   0.303   2.853   4.622 -0.9841 -0.6012  0.5790
 6972SOL    HW232379   0.299   2.988   4.572  0.2630 -1.9969 -1.0804
 6973SOL     OW32380   1.424   1.683   2.564  0.1506  0.0165  0.2266
 6973SOL    HW132381   1.421   1.727   2.649  0.2080  1.0741 -0.3159
 6973SOL    HW232382   1.493   1.724   2.512 -0.3353  1.6111  0.8519
 6974SOL     OW32383   1.605   3.821  12.104 -0.3476 -0.1664 -0.0255
 6974SOL    HW132384   1.521   3.858  12.132 -0.5899 -0.3633 -0.5060
 6974SOL    HW232385   1.577   3.745  12.054  0.6367 -0.5867  0.0661
 6975SOL     OW32386   4.345   0.551   1.645 -0.3078 -0.3346  0.4728
 6975SOL    HW132387   4.427   0.581   1.607 -0.3539 -0.4104  0.3125
 6975SOL    HW232388   4.305   0.517   1.566 -0.8151  0.6243  0.3152
 6976SOL     OW32389   3.365   1.145  15.774 -0.4823  0.2453 -0.2285
 6976SOL    HW132390   3.439   1.123  15.717 -0.0487  0.4510  0.2555
 6976SOL    HW232391   3.400   1.219  15.823  0.4502 -0.4041  0.0774
 6977SOL     OW32392   1.814   1.211  11.522  0.1206  0.1345  0.0673
 6977SOL    HW132393   1.768   1.176  11.598  3.6952  1.9941  3.1333
 6977SOL    HW232394   1.733   1.211  11.471  0.0492 -0.8083  0.1771
 6978SOL     OW32395   3.689   3.698   3.678 -0.3579  0.0759 -0.3933
 6978SOL    HW132396   3.656   3.767   3.621 -2.2406  0.0646  0.6800
 6978SOL    HW232397   3.614   3.670   3.730  0.7652 -3.0047 -0.3878
 6979SOL     OW32398   4.463   0.053   9.224 -0.8943 -0.1547 -0.2991
 6979SOL    HW132399   4.489   4.691   9.194  1.6126  0.5585 -0.1964
 6979SOL    HW232400   4.371   0.036   9.248 -0.8065  0.3560  0.3996
 6980SOL     OW32401   0.274   4.502   5.418 -0.1800 -0.0339  0.0261
 6980SOL    HW132402   0.253   4.593   5.439  1.4728 -0.1566  2.2237
 6980SOL    HW232403   0.239   4.466   5.499 -0.7073 -2.9259 -1.4848
 6981SOL     OW32404   3.683   2.198  10.423  0.0276  0.9616  0.0494
 6981SOL    HW132405   3.717   2.258  10.357 -0.1348  0.4201 -0.5322
 6981SOL    HW232406   3.744   2.124  10.419 -2.1784 -0.8692 -0.2832
 6982SOL     OW32407   1.743   0.928   4.343  0.6988  0.0762 -0.3675
 6982SOL    HW132408   1.731   0.951   4.435 -0.9359  1.8747 -1.0344
 6982SOL    HW232409   1.689   0.848   4.342  1.3758 -0.3875  0.3492
 6983SOL     OW32410   3.602   1.297   2.720 -0.4730  0.1002 -0.9634
 6983SOL    HW132411   3.558   1.374   2.757 -1.2822  0.1266 -1.9928
 6983SOL    HW232412   3.689   1.337   2.727 -0.8471  0.4811  1.4776
 6984SOL     OW32413   4.530   4.604   3.736  0.0701  0.3883 -0.5109
 6984SOL    HW132414   4.551   4.679   3.681  3.6764 -0.9696 -1.0124
 6984SOL    HW232415   4.597   4.540   3.709  0.1803  0.0217  0.6627
 6985SOL     OW32416   0.947   2.722  14.769  0.3720 -0.2036 -0.2195
 6985SOL    HW132417   0.973   2.641  14.814  1.3118  1.0941  1.6006
 6985SOL    HW232418   0.852   2.726  14.770  0.3251 -1.0335 -2.0964
 6986SOL     OW32419   1.850   1.508  10.115 -0.1064 -0.1143 -0.0776
 6986SOL    HW132420   1.915   1.440  10.134 -0.3744 -0.9117 -1.9361
 6986SOL    HW232421   1.827   1.487  10.024  0.7712 -1.6908  0.0664
 6987SOL     OW32422   3.490   4.249   8.580 -0.5208  0.1875  0.1304
 6987SOL    HW132423   3.524   4.162   8.601 -1.5577 -0.2124  0.1660
 6987SOL    HW232424   3.565   4.305   8.600  0.4280 -0.5176 -1.4432
 6988SOL     OW32425   2.200   2.120   4.308 -0.0514  0.4481 -0.2063
 6988SOL    HW132426   2.109   2.123   4.279  0.2563  0.7791 -1.1223
 6988SOL    HW232427   2.238   2.110   4.220 -0.6903  0.8193 -0.5253
 6989SOL     OW32428   4.533   0.958   1.065 -0.0847 -0.4738  0.1830
 6989SOL    HW132429   4.480   1.038   1.074 -0.2656 -0.8678  2.5015
 6989SOL    HW232430   4.614   0.998   1.032 -0.3687  0.4209  0.5692
 6990SOL     OW32431   1.931   3.666  16.613  0.0266 -0.0541  0.6396
 6990SOL    HW132432   1.898   3.623  16.692  0.4840 -0.6371  0.5126
 6990SOL    HW232433   1.868   3.637  16.547 -0.1348  1.0165  0.3315
 6991SOL     OW32434   0.302   2.342   4.278 -0.5391 -0.0220 -0.3674
 6991SOL    HW132435   0.368   2.282   4.243 -0.5212  0.1662 -0.6552
 6991SOL    HW232436   0.249   2.290   4.338  1.0825 -1.2060  0.0472
 6992SOL     OW32437   3.097   2.004  15.537  0.1634  0.1327 -0.4305
 6992SOL    HW132438   3.090   1.977  15.446 -0.7743  1.1215 -0.6504
 6992SOL    HW232439   3.084   1.918  15.578 -1.2997  0.2381 -0.6565
 6993SOL     OW32440   2.050   3.894   0.318 -0.2348 -0.3197  0.5026
 6993SOL    HW132441   2.132   3.851   0.339 -1.0985 -2.2186  0.0001
 6993SOL    HW232442   2.039   3.928   0.407  2.1282  1.3738  0.1340
 6994SOL     OW32443   2.084   2.877   7.740  0.6473 -0.2201  0.1184
 6994SOL    HW132444   2.054   2.900   7.652 -2.8065  2.8191  2.1020
 6994SOL    HW232445   2.106   2.965   7.770 -0.6222  0.8099 -1.9679
 6995SOL     OW32446   3.608   2.367   4.707 -0.0725 -1.1155  0.1351
 6995SOL    HW132447   3.634   2.403   4.791 -2.4650  0.5537  0.1633
 6995SOL    HW232448   3.654   2.421   4.642 -1.8083  1.7024  1.2592
 6996SOL     OW32449   3.789   2.476   9.260  0.0786 -0.1176  0.7705
 6996SOL    HW132450   3.729   2.538   9.301 -0.4219  0.9752 -1.6505
 6996SOL    HW232451   3.723   2.422   9.217  1.2969 -1.0646  0.1112
 6997SOL     OW32452   4.529   0.516  13.541 -0.0612  0.0011  0.4197
 6997SOL    HW132453   4.441   0.486  13.517  0.3320 -0.5342 -0.3496
 6997SOL    HW232454   4.545   0.571  13.464 -0.4793 -0.4807 -0.0145
 6998SOL     OW32455   1.593   1.642   9.370  0.1346  0.2181 -0.1019
 6998SOL    HW132456   1.651   1.566   9.368 -0.8406 -0.4953 -1.2025
 6998SOL    HW232457   1.521   1.613   9.315 -0.9241  0.6952  1.0421
 6999SOL     OW32458   0.332   1.374  14.285 -0.0980  0.6601 -0.3937
 6999SOL    HW132459   0.425   1.386  14.264  0.7742 -1.9927  2.0514
 6999SOL    HW232460   0.291   1.371  14.199 -0.1925  0.5284 -0.3429
 7000SOL     OW32461   2.150   4.662   3.550 -0.3965 -0.1586 -0.4500
 7000SOL    HW132462   2.166   4.702   3.465 -1.0239  0.8252 -0.1018
 7000SOL    HW232463   2.238   4.655   3.588 -1.0761  0.4275  1.2119
 7001SOL     OW32464   2.620   1.581  15.155  0.1938  0.2569  0.7321
 7001SOL    HW132465   2.570   1.663  15.150  0.6466  0.6865  3.5260
 7001SOL    HW232466   2.585   1.544  15.236  0.7013  1.7574  1.6327
 7002SOL     OW32467   1.318   0.389   9.267 -0.1069 -0.2253 -1.0504
 7002SOL    HW132468   1.334   0.482   9.282 -1.5242 -0.3144  1.0067
 7002SOL    HW232469   1.245   0.380   9.329  0.7602  0.1359  0.0191
 7003SOL     OW32470   4.464   4.630   4.429  0.0469  0.2975 -0.2286
 7003SOL    HW132471   4.510   4.550   4.455 -0.4403  1.3050  3.7156
 7003SOL    HW232472   4.389   4.586   4.390  1.5523 -1.6363 -0.9216
 7004SOL     OW32473   3.446   0.583  10.394  0.1124 -0.3670 -0.2617
 7004SOL    HW132474   3.486   0.497  10.388  0.3263 -0.3545  0.8910
 7004SOL    HW232475   3.516   0.644  10.418  0.1552  0.3189 -2.1552
 7005SOL     OW32476   4.423   2.988   2.001 -0.1242  0.1626 -0.7961
 7005SOL    HW132477   4.334   3.020   2.014  0.4766  1.3133  0.4373
 7005SOL    HW232478   4.483   3.053   2.038  1.5868 -1.6798 -0.3173
 7006SOL     OW32479   1.359   4.690   8.911 -0.7603  0.1878 -0.0190
 7006SOL    HW132480   1.339   0.028   8.842  1.0037 -0.7832 -1.4176
 7006SOL    HW232481   1.452   4.667   8.904 -0.2731  2.1080  0.1479
 7007SOL     OW32482   2.359   0.627   2.846 -0.2532  0.2349 -0.1350
 7007SOL    HW132483   2.279   0.600   2.891  1.7480 -3.9393  0.9311
 7007SOL    HW232484   2.324   0.635   2.758  0.9491  1.4132 -0.5026
 7008SOL     OW32485   0.065   3.983   4.022 -0.0868 -0.0154 -0.1477
 7008SOL    HW132486   0.052   3.975   3.927 -0.7687 -2.2679  0.1433
 7008SOL    HW232487   0.119   4.062   4.025  0.2444 -0.2609  0.3221
 7009SOL     OW32488   2.933   3.177   2.547 -0.5124 -0.7547 -0.3828
 7009SOL    HW132489   3.010   3.214   2.502 -0.3619 -1.9940 -1.1364
 7009SOL    HW232490   2.878   3.140   2.478 -2.1159 -0.9878  1.0387
 7010SOL     OW32491   0.830   2.762   7.244  0.1508 -0.0595  0.1311
 7010SOL    HW132492   0.786   2.790   7.325 -0.8320 -0.8075 -0.1417
 7010SOL    HW232493   0.880   2.683   7.265  3.0813  1.5090 -0.9149
 7011SOL     OW32494   4.413   0.066   9.621  0.1990 -0.3816 -0.3328
 7011SOL    HW132495   4.468   0.128   9.574 -0.9166  0.8631 -0.0134
 7011SOL    HW232496   4.356   0.042   9.548 -3.0936 -0.7281  2.3171
 7012SOL     OW32497   4.027   3.870   2.464 -0.3332  0.0919 -0.5104
 7012SOL    HW132498   4.052   3.783   2.493 -0.4430  0.5173  0.9135
 7012SOL    HW232499   4.013   3.857   2.371 -1.2615 -0.9657 -0.2246
 7013SOL     OW32500   1.113   3.090   1.654 -0.2725 -0.3791 -0.5242
 7013SOL    HW132501   1.146   3.014   1.606  1.9523  0.4411 -0.2996
 7013SOL    HW232502   1.037   3.124   1.607 -1.8302  1.2704  3.2454
 7014SOL     OW32503   0.161   3.475  16.107  0.2712  0.4159  0.1045
 7014SOL    HW132504   0.185   3.401  16.163 -2.3612 -0.3562  0.2014
 7014SOL    HW232505   0.196   3.547  16.161 -2.0968 -0.8796  3.3767
 7015SOL     OW32506   1.029   1.706   8.170 -0.1312 -0.0303 -0.1924
 7015SOL    HW132507   0.965   1.770   8.200  1.2217  0.2124  2.1496
 7015SOL    HW232508   1.038   1.736   8.079 -0.1107 -1.7690 -0.7554
 7016SOL     OW32509   2.895   4.410   3.134 -0.1521  0.4137 -0.1825
 7016SOL    HW132510   2.903   4.504   3.146 -0.6455  0.4985 -0.5188
 7016SOL    HW232511   2.990   4.396   3.130 -0.2809 -0.2600 -0.9372
 7017SOL     OW32512   2.511   4.230   3.757 -0.4241 -0.4513 -0.6771
 7017SOL    HW132513   2.525   4.182   3.838  1.6030 -0.4028 -1.0061
 7017SOL    HW232514   2.601   4.237   3.726 -0.0676  1.1112  0.7075
 7018SOL     OW32515   3.037   3.822   0.498  0.0629  0.0797 -0.2664
 7018SOL    HW132516   3.055   3.890   0.564  0.2214  1.0903 -1.3401
 7018SOL    HW232517   3.072   3.868   0.422  1.6948 -2.0433 -0.7718
 7019SOL     OW32518   1.718   0.750   3.380  0.1379  0.6738 -0.1042
 7019SOL    HW132519   1.663   0.822   3.349 -1.5870 -0.3703  0.5868
 7019SOL    HW232520   1.705   0.753   3.474  3.7139  0.2364  0.3928
 7020SOL     OW32521   0.959   3.053   9.576 -0.3943  0.2341 -0.7133
 7020SOL    HW132522   0.938   2.960   9.584 -1.9934  0.7141  0.7406
 7020SOL    HW232523   1.054   3.052   9.586 -0.1666  1.1452 -2.8368
 7021SOL     OW32524   3.697   4.210   6.359 -0.3721 -0.0568  0.0713
 7021SOL    HW132525   3.734   4.131   6.320 -3.8888 -1.8617  0.3846
 7021SOL    HW232526   3.729   4.200   6.449  0.3620 -0.4191 -0.2310
 7022SOL     OW32527   1.321   1.160   8.153  0.5709  0.6314 -0.3528
 7022SOL    HW132528   1.303   1.068   8.133 -0.2374  1.0462 -1.5216
 7022SOL    HW232529   1.270   1.198   8.081 -1.1264  1.2812  1.1748
 7023SOL     OW32530   4.350   2.904  15.984 -0.0541  0.1905 -0.0728
 7023SOL    HW132531   4.389   2.989  16.002  0.2617  0.1554 -0.5967
 7023SOL    HW232532   4.412   2.843  16.024  3.2581  2.7393 -1.4059
 7024SOL     OW32533   4.011   1.817   4.556 -0.2584  0.0689  0.2890
 7024SOL    HW132534   3.926   1.807   4.599  0.2892 -1.1557  1.1071
 7024SOL    HW232535   3.991   1.776   4.472 -0.5292  1.1705 -0.1797
 7025SOL     OW32536   4.542   4.413   9.404  0.7579 -0.5372  0.0651
 7025SOL    HW132537   4.539   4.488   9.346 -2.0345  0.6290  1.7054
 7025SOL    HW232538   4.590   4.344   9.357  2.2097  0.1259  0.5657
 7026SOL     OW32539   2.082   0.713   2.255 -0.0513  0.5939  0.2356
 7026SOL    HW132540   2.076   0.650   2.327  1.0628 -1.6503 -1.6709
 7026SOL    HW232541   1.993   0.749   2.256 -0.6056 -0.8140  1.5010
 7027SOL     OW32542   1.088   4.271  15.150  0.4243 -0.5405 -0.4036
 7027SOL    HW132543   1.048   4.350  15.114 -0.4960 -1.7276 -2.0076
 7027SOL    HW232544   1.093   4.213  15.073 -2.1278 -0.1655 -0.8385
 7028SOL     OW32545   2.236   4.395  11.348 -0.2667 -0.0884 -0.1092
 7028SOL    HW132546   2.263   4.487  11.352  0.4414 -0.2718 -0.5879
 7028SOL    HW232547   2.299   4.353  11.406 -0.3450 -0.2978 -0.1748
 7029SOL     OW32548   0.930   1.211   6.286 -0.3186 -0.2313 -0.0244
 7029SOL    HW132549   0.889   1.126   6.295  0.5517 -0.6075  0.4137
 7029SOL    HW232550   0.948   1.237   6.376 -2.7086  0.6370  0.2025
 7030SOL     OW32551   0.759   4.091   0.131 -0.1016 -0.6521 -0.1191
 7030SOL    HW132552   0.739   4.184   0.125 -0.0757 -0.6365  0.0329
 7030SOL    HW232553   0.762   4.069   0.224 -0.1029  2.2732  0.5797
 7031SOL     OW32554   0.026   3.871   7.675  0.2796 -0.0404 -0.0754
 7031SOL    HW132555   0.007   3.891   7.767  1.3975 -1.3523  0.4443
 7031SOL    HW232556   4.711   3.949   7.637  0.5226 -0.0325 -0.3206
 7032SOL     OW32557   3.218   3.857   6.912  0.4103  0.2044  0.0834
 7032SOL    HW132558   3.190   3.938   6.955 -0.2553  0.9105 -1.6851
 7032SOL    HW232559   3.231   3.798   6.986 -2.0540 -3.9142 -2.7363
 7033SOL     OW32560   0.522   3.419   5.325 -0.3846 -0.3235  0.3786
 7033SOL    HW132561   0.507   3.510   5.352 -1.2606 -0.2881 -0.2322
 7033SOL    HW232562   0.616   3.401   5.332  0.1136  2.5182  1.2723
 7034SOL     OW32563   4.482   4.007   3.856  0.7637 -0.0025 -0.0085
 7034SOL    HW132564   4.431   4.085   3.835  0.0873  0.0388  1.8600
 7034SOL    HW232565   4.421   3.943   3.893 -1.1079  1.3200 -0.8277
 7035SOL     OW32566   3.007   4.518   5.656  0.2722  0.3230 -0.3779
 7035SOL    HW132567   3.043   4.513   5.567  0.5167  3.2248 -0.4441
 7035SOL    HW232568   3.087   4.490   5.701 -0.6925 -1.1553  0.4176
 7036SOL     OW32569   1.318   4.459  17.139  0.7567  0.3457 -0.2657
 7036SOL    HW132570   1.337   4.378  17.187 -1.1356  0.5556  0.8320
 7036SOL    HW232571   1.353   4.527  17.196  1.1849  1.6808 -2.1106
 7037SOL     OW32572   0.177   3.437   6.897 -0.0781  0.0331 -0.0664
 7037SOL    HW132573   0.245   3.452   6.963  1.4010 -0.0514 -1.5724
 7037SOL    HW232574   0.179   3.516   6.843 -0.9074  1.2344  1.6391
 7038SOL     OW32575   2.402   1.412  17.429  0.1027 -0.1239  0.3541
 7038SOL    HW132576   2.416   1.336  17.373  1.2281  0.0450  0.3981
 7038SOL    HW232577   2.386   1.364  17.510 -3.8911  0.6197  0.0280
 7039SOL     OW32578   4.292   4.369   6.323 -0.1186  0.2002 -0.1394
 7039SOL    HW132579   4.369   4.372   6.379  0.2078 -0.4025 -0.5590
 7039SOL    HW232580   4.292   4.274   6.311 -0.7862  0.2862 -0.8022
 7040SOL     OW32581   4.054   2.304  16.742  0.5534 -0.4163 -0.0936
 7040SOL    HW132582   4.134   2.309  16.794  0.3997  2.0983 -0.0848
 7040SOL    HW232583   4.089   2.316  16.654 -0.4872  2.1610 -0.1514
 7041SOL     OW32584   1.610   4.490  10.327  0.2486 -0.3738 -0.6398
 7041SOL    HW132585   1.643   4.450  10.407 -0.2956  0.4595 -0.0018
 7041SOL    HW232586   1.547   4.553  10.361 -0.2713 -1.0057 -0.4423
 7042SOL     OW32587   1.627   1.205   1.357  0.0611  0.1193 -0.3037
 7042SOL    HW132588   1.653   1.153   1.281 -2.2641 -1.2753 -0.1268
 7042SOL    HW232589   1.564   1.147   1.401 -0.6435 -0.2896 -1.8402
 7043SOL     OW32590   2.542   2.061   2.068  0.2489  0.3157 -0.2578
 7043SOL    HW132591   2.578   2.107   1.992  0.1839 -0.1116 -0.5409
 7043SOL    HW232592   2.468   2.016   2.029  0.4378 -0.1063 -0.1281
 7044SOL     OW32593   0.184   3.191  12.086 -0.1134  0.1649 -0.1024
 7044SOL    HW132594   0.180   3.182  11.991  1.5541  0.0625 -0.1649
 7044SOL    HW232595   0.152   3.280  12.103  0.3818  0.1509  0.9387
 7045SOL     OW32596   0.871   2.186   5.577  0.0259 -0.1720  0.1296
 7045SOL    HW132597   0.820   2.110   5.606 -1.1307  0.7143  0.4158
 7045SOL    HW232598   0.957   2.153   5.550  0.5608  1.5606 -0.2911
 7046SOL     OW32599   1.155   2.154   2.039 -0.6818  0.0238 -0.1791
 7046SOL    HW132600   1.230   2.170   1.982 -2.3447  0.2551 -2.2888
 7046SOL    HW232601   1.079   2.189   1.991 -0.1642  0.8252 -0.4093
 7047SOL     OW32602   0.157   1.666   7.943 -0.0719 -0.2268 -0.5341
 7047SOL    HW132603   0.077   1.651   7.891 -0.7435 -0.1410  0.4847
 7047SOL    HW232604   0.171   1.755   7.912 -0.1628  0.2026  0.6728
 7048SOL     OW32605   3.232   2.093   1.860  0.1312 -0.7008  0.0749
 7048SOL    HW132606   3.173   2.035   1.909  2.4354 -0.9525  2.5496
 7048SOL    HW232607   3.302   2.107   1.923  0.8033 -2.6182 -0.2324
 7049SOL     OW32608   3.838   2.530  12.952 -0.3212 -0.2459 -0.1926
 7049SOL    HW132609   3.823   2.568  13.039 -2.2732 -0.9025 -0.2311
 7049SOL    HW232610   3.775   2.458  12.949 -0.0545 -0.4721 -0.4131
 7050SOL     OW32611   1.535   4.585  16.783 -0.2819  0.6046 -0.1737
 7050SOL    HW132612   1.555   4.659  16.726  1.0961 -0.8397 -1.5533
 7050SOL    HW232613   1.563   4.619  16.868 -0.0626 -1.8019  0.7127
 7051SOL     OW32614   3.663   2.988   7.466  0.0310  0.1632 -0.2057
 7051SOL    HW132615   3.706   3.069   7.439  2.2017 -0.1884  2.1593
 7051SOL    HW232616   3.710   2.971   7.548  3.1192 -0.7856 -2.1805
 7052SOL     OW32617   2.097   4.036   2.743  0.0499  0.2569 -0.0726
 7052SOL    HW132618   2.182   3.991   2.748  0.1132  0.4907  0.9743
 7052SOL    HW232619   2.077   4.051   2.835  0.9497  0.4306  0.0944
 7053SOL     OW32620   3.286   0.988   5.248 -0.4358  0.3530 -0.3058
 7053SOL    HW132621   3.206   0.943   5.220 -0.4456 -0.6884  1.4047
 7053SOL    HW232622   3.351   0.929   5.209 -1.0798 -1.8850  2.0351
 7054SOL     OW32623   0.092   1.563   2.060  0.2951  0.2215  0.2615
 7054SOL    HW132624   0.043   1.593   1.984  0.4527  2.1107  0.9197
 7054SOL    HW232625   0.136   1.480   2.041 -1.5593 -0.6738 -0.0831
 7055SOL     OW32626   0.325   0.212   2.574  0.0856  0.1131 -0.3091
 7055SOL    HW132627   0.267   0.155   2.625  0.9343 -0.3903  0.0920
 7055SOL    HW232628   0.275   0.249   2.501 -0.7278 -0.6926 -0.1561
 7056SOL     OW32629   4.165   0.508  13.176  0.0966  0.0880 -0.2062
 7056SOL    HW132630   4.080   0.489  13.217 -0.1422 -1.4094 -1.4245
 7056SOL    HW232631   4.159   0.603  13.167 -1.0163 -0.0033 -0.4916
 7057SOL     OW32632   2.319   4.087  11.255 -0.1121 -0.7342 -0.1657
 7057SOL    HW132633   2.323   4.065  11.162 -1.7141 -1.4508 -0.0695
 7057SOL    HW232634   2.400   4.138  11.256  1.7742 -3.7310 -1.0402
 7058SOL     OW32635   2.531   0.741   3.325  0.6778 -0.4773  0.0013
 7058SOL    HW132636   2.561   0.830   3.303  1.8564 -0.7149  0.6301
 7058SOL    HW232637   2.528   0.704   3.237 -0.5069 -0.4938  0.0471
 7059SOL     OW32638   2.875   0.420   0.406  0.2387 -0.4532  0.0096
 7059SOL    HW132639   2.924   0.339   0.391 -0.7469 -0.8110 -1.2236
 7059SOL    HW232640   2.943   0.455   0.464  0.3196  0.9910 -0.9648
 7060SOL     OW32641   0.782   0.602   4.739 -0.2584 -0.6241  0.3546
 7060SOL    HW132642   0.840   0.578   4.811  0.8425 -1.0772 -0.6759
 7060SOL    HW232643   0.717   0.533   4.751  2.5350 -2.7241  3.2128
 7061SOL     OW32644   4.041   1.442  12.470  0.1060 -0.2618 -0.3218
 7061SOL    HW132645   4.060   1.351  12.494  1.8659  0.8844  2.4957
 7061SOL    HW232646   4.095   1.454  12.392  2.2036 -2.5615  0.7592
 7062SOL     OW32647   1.558   1.701   0.295  0.1156  0.6070 -0.0458
 7062SOL    HW132648   1.486   1.763   0.285  0.4924  1.4795  2.6886
 7062SOL    HW232649   1.552   1.669   0.385  0.0193  3.7173  1.0622
 7063SOL     OW32650   2.966   0.035  17.560 -0.0878  0.2414  0.5621
 7063SOL    HW132651   2.929   0.025  17.472  1.1285  1.5796 -0.0973
 7063SOL    HW232652   3.026   4.685  17.561  0.5747  0.7141 -2.1718
 7064SOL     OW32653   0.508   1.519   3.234 -0.0518  1.0247  0.1017
 7064SOL    HW132654   0.525   1.425   3.229  1.7889  1.3673  0.0483
 7064SOL    HW232655   0.516   1.532   3.328 -1.1964  2.0405  0.0497
 7065SOL     OW32656   1.952   0.400   1.458  0.1102  0.4711  0.5059
 7065SOL    HW132657   1.957   0.367   1.368  2.7054 -1.4826  1.3622
 7065SOL    HW232658   1.857   0.414   1.463 -0.4091 -2.5135 -0.9158
 7066SOL     OW32659   1.189   3.993   7.950  0.2417  0.1160  0.0971
 7066SOL    HW132660   1.282   3.980   7.933 -0.5923 -3.8923 -1.5530
 7066SOL    HW232661   1.157   4.058   7.886 -2.1925  0.0838  1.2536
 7067SOL     OW32662   1.843   1.853   7.712 -0.0531  0.4743  0.1576
 7067SOL    HW132663   1.819   1.914   7.781  2.9077  1.4831  0.2821
 7067SOL    HW232664   1.928   1.829   7.749 -1.3430 -1.9633  1.5376
 7068SOL     OW32665   1.167   0.756   4.982 -0.1914  0.4001 -0.8042
 7068SOL    HW132666   1.225   0.753   4.906  1.5698  1.1946  0.5256
 7068SOL    HW232667   1.225   0.713   5.044  0.6691  1.9744 -0.5130
 7069SOL     OW32668   0.283   4.555   6.414  0.0110 -0.1903 -0.4144
 7069SOL    HW132669   0.300   4.474   6.366  3.6823 -1.0028  2.2701
 7069SOL    HW232670   0.232   4.606   6.351 -0.3523  1.0320  0.8665
 7070SOL     OW32671   3.208   4.722   2.640  0.0055  0.3428 -0.3139
 7070SOL    HW132672   3.190   4.630   2.623 -0.0556  0.0619  1.2472
 7070SOL    HW232673   3.224   0.021   2.549  0.1850 -1.5645 -0.7783
 7071SOL     OW32674   1.668   4.553   4.577 -0.6573  0.7052 -0.0788
 7071SOL    HW132675   1.606   4.533   4.648  2.7251 -2.2848  2.0423
 7071SOL    HW232676   1.725   4.477   4.587 -1.2845  0.0078 -1.7776
 7072SOL     OW32677   3.910   4.072   6.822  0.0182 -0.0015  0.2840
 7072SOL    HW132678   3.950   3.991   6.855  0.4746  0.4658  0.8904
 7072SOL    HW232679   3.928   4.062   6.729  2.2929 -2.3548  0.9574
 7073SOL     OW32680   2.819   4.062   7.083 -0.2012  0.5521 -0.2912
 7073SOL    HW132681   2.859   4.028   7.003 -1.8409 -2.2526  0.0669
 7073SOL    HW232682   2.833   3.990   7.145  1.0256  0.7593 -0.3247
 7074SOL     OW32683   1.401   4.564  10.080  0.2643  0.7455 -0.1161
 7074SOL    HW132684   1.484   4.528  10.113 -0.3295 -0.4157  0.1177
 7074SOL    HW232685   1.419   4.580   9.987  3.2496 -1.3200  0.0913
 7075SOL     OW32686   2.894   0.679   6.279 -0.0044  0.3906  0.3983
 7075SOL    HW132687   2.873   0.734   6.204  3.2482 -1.3575 -1.7974
 7075SOL    HW232688   2.984   0.708   6.291 -0.0819  1.1358 -0.8424
 7076SOL     OW32689   2.842   3.541  15.670  0.1727  0.2565 -0.2444
 7076SOL    HW132690   2.885   3.557  15.587  0.4946 -0.0005 -0.1266
 7076SOL    HW232691   2.754   3.507  15.651 -0.0606  0.8317 -0.1988
 7077SOL     OW32692   2.624   4.489  16.286  0.3190 -0.0876 -0.1683
 7077SOL    HW132693   2.632   4.534  16.201 -1.0184  2.4191  1.0369
 7077SOL    HW232694   2.713   4.455  16.294  0.3408 -0.0359 -0.1869
 7078SOL     OW32695   4.070   3.803   4.251 -0.3516  0.1717  0.4426
 7078SOL    HW132696   4.151   3.853   4.244 -1.5522  1.9239 -0.9927
 7078SOL    HW232697   4.068   3.791   4.346 -0.3851 -1.4844  0.2349
 7079SOL     OW32698   1.345   0.372   1.042 -0.4301  0.2654 -0.2185
 7079SOL    HW132699   1.414   0.428   1.007 -0.7438  1.0354  0.4181
 7079SOL    HW232700   1.396   0.309   1.094 -0.7736  1.9205  2.1043
 7080SOL     OW32701   2.078   2.017   8.681  0.3337 -0.4823 -0.1741
 7080SOL    HW132702   2.094   2.110   8.663  0.6247 -0.7910 -1.5179
 7080SOL    HW232703   2.116   1.978   8.603  0.5648 -2.9119  1.1443
 7081SOL     OW32704   0.694   3.602   0.604 -0.3481 -0.0386 -0.6294
 7081SOL    HW132705   0.707   3.507   0.607 -1.4708 -0.1997 -0.7051
 7081SOL    HW232706   0.787   3.625   0.607  0.1112 -1.6010 -2.6345
 7082SOL     OW32707   0.307   2.595   7.712  0.3016 -0.1164 -0.4514
 7082SOL    HW132708   0.295   2.514   7.663 -0.7460 -0.4688  0.3975
 7082SOL    HW232709   0.398   2.608   7.686  0.8421 -0.9400  1.0007
 7083SOL     OW32710   4.218   0.023   9.413 -0.0464  0.0796  0.0244
 7083SOL    HW132711   4.148   4.700   9.457  0.5450 -0.8594 -0.0580
 7083SOL    HW232712   4.165   0.100   9.391 -0.8690 -1.0853 -2.0161
 7084SOL     OW32713   3.043   2.184   2.313 -0.1181 -0.0076 -0.0626
 7084SOL    HW132714   2.983   2.246   2.274 -1.2231 -0.1553  1.3860
 7084SOL    HW232715   3.116   2.244   2.329  0.8199 -0.4711 -2.7075
 7085SOL     OW32716   1.364   1.216   4.969  0.4496  0.4823 -0.1024
 7085SOL    HW132717   1.361   1.120   4.970  0.4257  0.4784 -0.8049
 7085SOL    HW232718   1.437   1.228   5.030  0.3899 -1.8513  0.4284
 7086SOL     OW32719   2.216   2.688   2.236 -0.2419 -0.2954 -0.2453
 7086SOL    HW132720   2.275   2.614   2.224  0.6183  0.2605  0.6043
 7086SOL    HW232721   2.140   2.644   2.275 -1.9631  1.8096 -1.1904
 7087SOL     OW32722   3.592   3.670   5.375 -0.1937 -0.0927 -0.1013
 7087SOL    HW132723   3.509   3.691   5.332 -0.5952  0.4941  0.9770
 7087SOL    HW232724   3.648   3.703   5.304 -1.1961  0.2239 -0.7351
 7088SOL     OW32725   0.401   3.581  13.624 -0.3657 -0.0128 -0.1912
 7088SOL    HW132726   0.454   3.567  13.702 -1.0740  0.2153  0.3348
 7088SOL    HW232727   0.325   3.625  13.661 -0.4702 -1.1412  0.9395
 7089SOL     OW32728   1.440   0.208   4.100  0.1928 -0.0951  0.8283
 7089SOL    HW132729   1.536   0.210   4.101  0.1298  2.3493  2.4125
 7089SOL    HW232730   1.425   0.192   4.193  0.3454 -0.3912  0.8022
 7090SOL     OW32731   0.041   0.816   8.079 -0.0743  0.0195 -1.0779
 7090SOL    HW132732   4.694   0.853   8.131  1.6380  0.7810  0.7484
 7090SOL    HW232733   0.108   0.880   8.102 -0.9434  0.7447 -0.5653
 7091SOL     OW32734   2.351   2.973   3.572 -0.4418  0.7353  0.5236
 7091SOL    HW132735   2.432   2.947   3.615 -0.4101  1.5176  0.9183
 7091SOL    HW232736   2.290   2.913   3.616  1.4108 -2.2835 -1.0177
 7092SOL     OW32737   0.652   3.292  16.854  0.6091  0.2217  0.2850
 7092SOL    HW132738   0.632   3.269  16.945 -1.0145 -1.0014 -0.3668
 7092SOL    HW232739   0.642   3.385  16.872 -1.4947 -0.1572  1.1509
 7093SOL     OW32740   0.546   0.748  11.202  0.2240 -0.0167 -0.1343
 7093SOL    HW132741   0.568   0.683  11.135  0.8634 -1.6621  1.7155
 7093SOL    HW232742   0.530   0.686  11.273 -0.0349 -1.6649 -1.6272
 7094SOL     OW32743   4.026   0.602   7.805  0.0659  0.0670 -0.0187
 7094SOL    HW132744   4.030   0.696   7.822 -0.0111 -0.1424  1.1801
 7094SOL    HW232745   3.978   0.598   7.723 -1.7602 -0.2543  1.0834
 7095SOL     OW32746   2.933   0.692  14.913 -0.1108 -0.2781 -0.2821
 7095SOL    HW132747   2.940   0.772  14.965 -1.0230 -0.7393  0.5585
 7095SOL    HW232748   2.947   0.716  14.822  1.8364  1.4644  0.4807
 7096SOL     OW32749   0.680   0.045  10.811 -0.6733 -0.6129 -0.4140
 7096SOL    HW132750   0.634   0.034  10.728  3.6468  0.1968 -2.8874
 7096SOL    HW232751   0.660   0.138  10.822  0.8384 -0.2065 -1.0916
 7097SOL     OW32752   3.072   3.347   5.625 -0.3100 -0.3565  1.0381
 7097SOL    HW132753   3.025   3.339   5.708  0.4662 -2.9919  1.2080
 7097SOL    HW232754   3.128   3.419   5.652 -1.6559  1.4133 -0.8233
 7098SOL     OW32755   1.602   0.513   5.277 -0.0585 -0.6880  0.1778
 7098SOL    HW132756   1.549   0.577   5.326  0.4956 -1.4897  1.8393
 7098SOL    HW232757   1.599   0.443   5.343  2.8184  0.5719  1.6598
 7099SOL     OW32758   1.848   2.707   5.411  0.3862  0.3314  0.0686
 7099SOL    HW132759   1.885   2.769   5.349  0.1659  0.0694 -0.3209
 7099SOL    HW232760   1.880   2.619   5.390 -0.5036 -0.3469  1.5064
 7100SOL     OW32761   3.235   1.601   7.281 -0.6067 -0.3058  0.4056
 7100SOL    HW132762   3.226   1.696   7.268 -1.9859 -0.2000  2.1243
 7100SOL    HW232763   3.154   1.578   7.237 -0.4639  1.3521 -0.7052
 7101SOL     OW32764   0.837   1.095  14.948 -0.2074 -0.0226  0.1733
 7101SOL    HW132765   0.836   1.014  14.897 -1.1854 -0.1988  0.4634
 7101SOL    HW232766   0.932   1.103  14.956 -0.1869 -0.4307  0.3335
 7102SOL     OW32767   2.772   2.231  16.245 -0.0207  0.0770 -0.1483
 7102SOL    HW132768   2.755   2.164  16.179  1.0003  0.7890 -1.1291
 7102SOL    HW232769   2.853   2.269  16.211  1.7392 -2.0027  1.7873
 7103SOL     OW32770   1.270   1.181   5.682 -0.0988  0.0612  0.0970
 7103SOL    HW132771   1.347   1.206   5.733  0.2593 -1.9003  0.5159
 7103SOL    HW232772   1.232   1.133   5.756 -0.4390 -0.0901 -0.1772
 7104SOL     OW32773   4.354   2.503   6.700  0.0889  0.0970 -0.2242
 7104SOL    HW132774   4.323   2.588   6.730 -2.3681 -0.1279 -2.1939
 7104SOL    HW232775   4.445   2.495   6.730 -0.2314 -0.0210  0.7023
 7105SOL     OW32776   2.113   2.583   4.567  0.2503  0.3737  1.1270
 7105SOL    HW132777   2.033   2.576   4.515  0.8124  0.9219  0.1801
 7105SOL    HW232778   2.169   2.522   4.519 -0.5869  0.2373  0.3177
 7106SOL     OW32779   2.213   1.742  11.313  0.7102 -0.2247 -0.2340
 7106SOL    HW132780   2.264   1.756  11.393 -0.7968  1.0615  0.5118
 7106SOL    HW232781   2.148   1.811  11.326 -0.0991 -0.6779 -1.8891
 7107SOL     OW32782   3.183   3.546   3.721  0.3808 -0.5405 -0.0605
 7107SOL    HW132783   3.261   3.517   3.674  1.8700  1.3810  1.2065
 7107SOL    HW232784   3.111   3.514   3.667  0.4616 -0.8932  0.0442
 7108SOL     OW32785   0.341   2.958   5.259  0.0939  0.6266 -0.0366
 7108SOL    HW132786   0.286   2.955   5.181  1.7575  0.7934 -1.2132
 7108SOL    HW232787   0.315   2.880   5.308  0.1734 -0.8470 -2.3972
 7109SOL     OW32788   3.389   2.889   4.825  0.5622 -0.3593 -0.1298
 7109SOL    HW132789   3.354   2.973   4.794  1.5990 -0.5668 -1.8674
 7109SOL    HW232790   3.357   2.876   4.914  0.9532  0.5211  0.1393
 7110SOL     OW32791   4.325   3.985   7.964  0.4799  0.1280 -0.1547
 7110SOL    HW132792   4.361   4.023   8.044 -0.9213 -0.0053  0.5291
 7110SOL    HW232793   4.392   3.917   7.953  0.7520  0.0112  2.1773
 7111SOL     OW32794   3.775   3.949   7.963  0.1533 -0.2255 -0.2795
 7111SOL    HW132795   3.758   3.887   8.034 -1.1374  0.8247  0.3228
 7111SOL    HW232796   3.748   4.032   8.002 -2.0710 -1.1061  0.1054
 7112SOL     OW32797   1.440   3.208   9.478 -0.4061 -0.6635 -0.2743
 7112SOL    HW132798   1.456   3.300   9.460 -0.6439 -1.0230 -2.2865
 7112SOL    HW232799   1.389   3.171   9.406  1.0237 -3.5517  0.1577
 7113SOL     OW32800   3.593   3.433   7.952  0.3830  0.3428  0.4124
 7113SOL    HW132801   3.582   3.427   7.857  0.7732  0.3287  0.3666
 7113SOL    HW232802   3.530   3.502   7.975  1.7983  0.6790  3.2310
 7114SOL     OW32803   1.739   2.135   3.221  0.8504  0.3466 -0.2059
 7114SOL    HW132804   1.656   2.127   3.175  1.8232 -1.4454 -1.6337
 7114SOL    HW232805   1.766   2.044   3.208  0.8890  0.3606 -0.2247
 7115SOL     OW32806   4.199   0.484   7.486  0.4630 -0.3810  0.5246
 7115SOL    HW132807   4.173   0.571   7.455 -1.9721 -0.8390  1.1989
 7115SOL    HW232808   4.114   0.440   7.490 -1.0131  2.5054  1.0523
 7116SOL     OW32809   3.630   4.102   9.363  0.0340 -0.2972  0.2945
 7116SOL    HW132810   3.571   4.049   9.310  1.4741 -0.3615 -1.2214
 7116SOL    HW232811   3.578   4.171   9.405  0.4133  0.4948 -0.5326
 7117SOL     OW32812   2.867   2.280   3.331 -0.5525  0.7873  0.5505
 7117SOL    HW132813   2.943   2.328   3.364 -0.5036 -0.3010  2.0049
 7117SOL    HW232814   2.885   2.283   3.237 -2.8111 -3.9201 -0.0306
 7118SOL     OW32815   3.385   1.236  11.923 -0.7421 -0.2142  0.2118
 7118SOL    HW132816   3.354   1.305  11.981  1.8330  3.2259 -2.4868
 7118SOL    HW232817   3.305   1.185  11.934 -0.4706 -0.3719  1.4032
 7119SOL     OW32818   0.611   3.072   2.204  0.2216 -0.1377 -0.0662
 7119SOL    HW132819   0.569   3.124   2.136  1.5157  0.7927 -0.1673
 7119SOL    HW232820   0.671   3.132   2.249 -1.3459  1.0024  0.4665
 7120SOL     OW32821   0.743   2.164   6.639 -0.0463 -0.2520 -0.0496
 7120SOL    HW132822   0.709   2.100   6.577  1.2860 -0.3694 -0.6585
 7120SOL    HW232823   0.837   2.160   6.620 -0.0835  0.2103 -0.3277
 7121SOL     OW32824   0.648   2.775   3.563 -0.0237 -0.6650 -0.4283
 7121SOL    HW132825   0.562   2.816   3.568  1.4748  2.7245 -2.1107
 7121SOL    HW232826   0.634   2.710   3.494  1.1529 -1.6085  0.2251
 7122SOL     OW32827   2.353   2.658   7.383 -0.0499 -0.0978  0.4227
 7122SOL    HW132828   2.390   2.572   7.364  0.7716 -0.0515  1.7827
 7122SOL    HW232829   2.314   2.650   7.471  0.7422  1.1736  0.8847
 7123SOL     OW32830   4.119   2.446   9.736  0.1551  0.6439  0.5133
 7123SOL    HW132831   4.135   2.506   9.663  0.3889 -1.1997 -0.9483
 7123SOL    HW232832   4.055   2.494   9.789  0.2702 -1.8843  2.9651
 7124SOL     OW32833   1.549   4.032   7.483 -0.3356  0.0361 -0.2586
 7124SOL    HW132834   1.529   3.956   7.428 -0.0127  0.8803 -1.5458
 7124SOL    HW232835   1.527   4.101   7.421  1.5058  0.0748 -0.8736
 7125SOL     OW32836   2.032   4.314   7.245  0.1820 -0.4359 -0.0463
 7125SOL    HW132837   2.086   4.382   7.287  0.0764  0.9609 -2.1808
 7125SOL    HW232838   2.015   4.357   7.162  0.4315 -1.4996 -0.6457
 7126SOL     OW32839   1.375   1.455   5.609 -0.5111  0.7860 -0.1639
 7126SOL    HW132840   1.372   1.360   5.621  0.3664  0.8103  0.3097
 7126SOL    HW232841   1.353   1.465   5.517 -1.7311 -0.9600 -0.0558
 7127SOL     OW32842   1.807   3.073   7.977  0.3129  0.0425  0.0823
 7127SOL    HW132843   1.765   3.083   7.891  0.7279  0.0049 -0.1257
 7127SOL    HW232844   1.868   3.146   7.968 -0.6179  0.8445  0.2593
 7128SOL     OW32845   3.535   2.673  14.222  0.8872 -0.1404  0.4707
 7128SOL    HW132846   3.565   2.659  14.132 -0.5257  0.1143 -0.0439
 7128SOL    HW232847   3.599   2.736  14.256  1.4311 -0.1685 -0.5184
 7129SOL     OW32848   2.601   1.330   7.005 -0.3387  0.7672  0.6773
 7129SOL    HW132849   2.550   1.388   7.061 -2.0136 -0.5142  0.4678
 7129SOL    HW232850   2.657   1.299   7.077 -0.0623 -0.5875 -0.1227
 7130SOL     OW32851   4.401   2.700   9.722  0.3326 -0.1435  0.3356
 7130SOL    HW132852   4.348   2.664   9.651  0.4581 -1.2692  0.8052
 7130SOL    HW232853   4.483   2.702   9.672 -1.4656  0.3629 -2.5716
 7131SOL     OW32854   1.551   4.408   7.570  0.6030 -0.6438 -0.1555
 7131SOL    HW132855   1.566   4.334   7.629 -1.2364 -1.3728 -0.5763
 7131SOL    HW232856   1.643   4.422   7.549  0.3853  1.2310  0.1898
 7132SOL     OW32857   4.025   2.799   9.708  0.3666  0.0811 -0.1880
 7132SOL    HW132858   4.110   2.838   9.688  0.9233 -1.7690 -1.3593
 7132SOL    HW232859   3.995   2.779   9.619  1.9809  1.3233 -1.0005
 7133SOL     OW32860   3.127   4.391   7.518 -0.0298 -0.2902 -0.3171
 7133SOL    HW132861   3.191   4.458   7.543 -0.9187  1.6403 -3.1287
 7133SOL    HW232862   3.053   4.435   7.559  0.8069  1.0435 -0.2469
 7134SOL     OW32863   4.492   3.458   8.581  0.5033 -0.1950  0.2954
 7134SOL    HW132864   4.454   3.546   8.586 -0.9150 -0.7642 -0.5206
 7134SOL    HW232865   4.586   3.478   8.579  0.4566 -0.2373 -2.4161
 7135SOL     OW32866   2.268   1.227   0.495  0.2260 -0.4170  0.3594
 7135SOL    HW132867   2.207   1.189   0.430 -0.1116 -1.3106  1.1913
 7135SOL    HW232868   2.217   1.224   0.576  1.1382 -1.3030  0.9022
 7136SOL     OW32869   2.504   4.433  11.100  0.0707  0.6357  0.5851
 7136SOL    HW132870   2.568   4.503  11.089 -0.2231  0.6266 -1.2357
 7136SOL    HW232871   2.521   4.390  11.184  0.1855 -2.6807 -1.1349
 7137SOL     OW32872   1.397   4.285   8.478  0.2390 -0.3708 -0.4862
 7137SOL    HW132873   1.307   4.268   8.506  0.0937 -0.7116 -1.1431
 7137SOL    HW232874   1.395   4.244   8.391  0.0076 -0.0695 -0.6224
 7138SOL     OW32875   4.144   3.134   8.680  0.5472  0.1379  0.4803
 7138SOL    HW132876   4.214   3.169   8.735 -0.1569 -1.6398  2.5242
 7138SOL    HW232877   4.136   3.196   8.607  1.7748 -3.1328 -2.3895
 7139SOL     OW32878   0.435   0.383   0.031  0.0813  0.6451  0.4443
 7139SOL    HW132879   0.496   0.402  17.661  0.9049 -0.4200  0.8735
 7139SOL    HW232880   0.372   0.455   0.028  0.0947  0.4995 -3.9201
 7140SOL     OW32881   0.171   0.494   5.170  0.0212  0.2383 -0.0737
 7140SOL    HW132882   0.214   0.418   5.210 -1.8653  0.3058  2.1266
 7140SOL    HW232883   0.079   0.473   5.186  0.1718 -1.0187 -0.8730
 7141SOL     OW32884   0.904   0.293  10.479  0.3930 -0.3817  0.2913
 7141SOL    HW132885   0.882   0.252  10.396  0.5217  0.9478 -0.3958
 7141SOL    HW232886   0.971   0.232  10.510 -1.3705 -2.1568  0.6203
 7142SOL     OW32887   2.983   0.698  11.642  0.2703 -0.2267  0.5878
 7142SOL    HW132888   2.992   0.754  11.719 -0.7189  1.5951 -0.6222
 7142SOL    HW232889   2.890   0.677  11.638  0.7094 -1.8579 -0.8186
 7143SOL     OW32890   0.383   3.882   2.175 -0.0415 -0.2420 -0.1991
 7143SOL    HW132891   0.440   3.957   2.194  1.7118 -1.0734 -2.1702
 7143SOL    HW232892   0.451   3.814   2.175  0.5627  0.3576  0.4544
 7144SOL     OW32893   1.997   4.398   1.503  0.2892  0.0546 -0.0071
 7144SOL    HW132894   2.091   4.390   1.520  0.4554  1.3674 -0.2852
 7144SOL    HW232895   2.012   4.445   1.421  0.2894 -0.8659 -0.5342
 7145SOL     OW32896   4.322   2.761  13.715 -0.5653 -0.6105 -0.2686
 7145SOL    HW132897   4.272   2.680  13.721 -1.4006 -0.0251  0.7199
 7145SOL    HW232898   4.355   2.788  13.801  0.9480 -1.9258 -0.4484
 7146SOL     OW32899   1.859   0.267   3.788 -0.0965  0.2915 -0.3014
 7146SOL    HW132900   1.799   0.340   3.773  1.0639  1.6847  1.8519
 7146SOL    HW232901   1.837   0.217   3.709  0.6132 -1.9004  0.8984
 7147SOL     OW32902   3.502   1.756   3.423 -0.1108 -0.9206  0.2786
 7147SOL    HW132903   3.416   1.714   3.426  0.1613 -1.4329  1.0365
 7147SOL    HW232904   3.557   1.709   3.486 -0.5946  0.1028  1.4601
 7148SOL     OW32905   2.859   0.342  17.354  0.3385  0.0227 -0.4320
 7148SOL    HW132906   2.797   0.269  17.346 -0.2505  0.5062 -0.2699
 7148SOL    HW232907   2.837   0.358  17.446 -0.4741 -0.4942 -0.5401
 7149SOL     OW32908   2.419   1.484   7.767 -0.1181 -0.0796  0.1932
 7149SOL    HW132909   2.477   1.526   7.831  1.2526 -1.8391  0.0967
 7149SOL    HW232910   2.401   1.401   7.810 -0.2578 -0.2661 -0.2258
 7150SOL     OW32911   3.210   3.853  11.212  0.2930  0.3468 -0.1741
 7150SOL    HW132912   3.244   3.838  11.301  2.1174  3.1072 -0.3978
 7150SOL    HW232913   3.139   3.789  11.210  0.3964  0.1501  2.0894
 7151SOL     OW32914   2.974   0.816   2.482  0.7931 -0.7678 -0.4691
 7151SOL    HW132915   3.053   0.866   2.502  0.4097 -0.1705 -0.4663
 7151SOL    HW232916   2.991   0.773   2.398 -1.1831 -1.4552 -0.5293
 7152SOL     OW32917   1.569   1.358  10.111 -0.4449  0.4382  0.3744
 7152SOL    HW132918   1.549   1.408  10.189  1.7954 -1.6305  2.2625
 7152SOL    HW232919   1.615   1.423  10.057 -1.6318  0.4404 -0.6412
 7153SOL     OW32920   3.344   0.801  15.816  0.3604 -0.7016 -0.0612
 7153SOL    HW132921   3.440   0.799  15.816  0.4130  2.3603  1.6911
 7153SOL    HW232922   3.319   0.728  15.759  0.4279  0.1675 -1.2123
 7154SOL     OW32923   1.207   2.804   9.416  0.0365 -0.2604 -0.3592
 7154SOL    HW132924   1.224   2.886   9.369 -0.6299  0.9415  1.4429
 7154SOL    HW232925   1.210   2.838   9.506  1.3085  0.1934 -0.5715
 7155SOL     OW32926   3.201   3.310   0.395 -0.3113  0.1417 -0.0975
 7155SOL    HW132927   3.201   3.216   0.413 -2.8564 -0.3375 -2.5566
 7155SOL    HW232928   3.215   3.342   0.485 -0.5556  2.8666 -1.0338
 7156SOL     OW32929   2.825   1.776   1.695 -0.4333  0.4713 -0.2775
 7156SOL    HW132930   2.873   1.763   1.777 -1.4783 -2.5502 -0.1159
 7156SOL    HW232931   2.896   1.816   1.646 -2.2585  1.3176 -2.2007
 7157SOL     OW32932   1.221   2.658   8.328 -0.6141  0.0884 -0.1403
 7157SOL    HW132933   1.274   2.715   8.272 -0.5030 -0.7777 -0.9252
 7157SOL    HW232934   1.220   2.586   8.265  1.3630  0.6427 -0.8106
 7158SOL     OW32935   4.664   0.692  16.102  0.6441  0.0653 -0.0499
 7158SOL    HW132936   4.598   0.632  16.137  0.9857 -1.0887 -1.3826
 7158SOL    HW232937   4.601   0.754  16.064 -2.5729 -2.8709  0.5573
 7159SOL     OW32938   0.701   0.289  10.656  0.1232 -0.6962 -0.0296
 7159SOL    HW132939   0.642   0.228  10.612 -0.4648 -0.5745  0.5788
 7159SOL    HW232940   0.785   0.288  10.611 -0.9928 -1.3653 -2.1143
 7160SOL     OW32941   0.349   0.010  11.721  1.0709 -0.6883  0.2502
 7160SOL    HW132942   0.425   0.057  11.687  0.1188  0.9386  0.3378
 7160SOL    HW232943   0.391   4.675  11.782  0.7350 -2.9362 -1.7476
 7161SOL     OW32944   2.847   1.294   4.236  1.4811 -0.0664 -0.1299
 7161SOL    HW132945   2.753   1.315   4.241  1.1587 -1.2868 -0.9616
 7161SOL    HW232946   2.885   1.380   4.255  1.9846 -0.6078  1.2548
 7162SOL     OW32947   4.105   2.683   8.005  0.3682 -0.3337  0.3278
 7162SOL    HW132948   4.069   2.610   7.955 -0.4792  1.0557 -1.0664
 7162SOL    HW232949   4.192   2.704   7.970 -0.2683 -1.2215 -1.8087
 7163SOL     OW32950   1.947   4.015   6.329  0.3830 -0.1358 -1.1519
 7163SOL    HW132951   1.980   3.948   6.389 -0.6492 -0.0716 -0.5186
 7163SOL    HW232952   1.984   4.086   6.381 -0.9589 -0.6672  0.5068
 7164SOL     OW32953   1.948   1.731  13.924 -0.0375  0.3331 -0.1081
 7164SOL    HW132954   1.910   1.793  13.986  0.5752 -2.5517  3.2121
 7164SOL    HW232955   1.892   1.657  13.947 -0.0051  0.4840  0.4710
 7165SOL     OW32956   4.643   2.810  15.148  0.5097 -0.3002  0.2654
 7165SOL    HW132957   4.620   2.722  15.178 -2.1507  1.3940  3.2490
 7165SOL    HW232958   4.572   2.865  15.183  1.3124  1.3293 -0.6678
 7166SOL     OW32959   0.914   3.026   5.803  0.0190 -0.3734 -0.1675
 7166SOL    HW132960   1.009   3.032   5.799  0.0749 -0.5035  1.1006
 7166SOL    HW232961   0.898   2.956   5.867 -2.2600 -2.5676 -3.1530
 7167SOL     OW32962   1.164   1.356   0.763  0.2694 -0.0308  0.3651
 7167SOL    HW132963   1.234   1.377   0.826  0.0320 -2.3576  1.4089
 7167SOL    HW232964   1.114   1.438   0.763  1.6825  0.8279  0.0810
 7168SOL     OW32965   1.406   3.495   9.442 -0.8868  0.2243 -0.3913
 7168SOL    HW132966   1.435   3.574   9.397  0.9894 -0.3858 -0.2265
 7168SOL    HW232967   1.470   3.504   9.513 -0.8465  0.8772 -0.5123
 7169SOL     OW32968   2.132   4.359   4.256  0.0846 -0.4787  0.7399
 7169SOL    HW132969   2.180   4.437   4.284  1.2350 -0.3331 -1.6020
 7169SOL    HW232970   2.078   4.359   4.335  1.1566  0.9569  1.4804
 7170SOL     OW32971   3.397   4.086   2.936  0.1922  0.4876 -0.1561
 7170SOL    HW132972   3.392   4.178   2.911  1.3514  0.8324  0.8302
 7170SOL    HW232973   3.471   4.055   2.883  1.0429  0.9708  0.7382
 7171SOL     OW32974   1.880   2.735   3.528 -0.3400  0.1677  0.2733
 7171SOL    HW132975   1.816   2.667   3.510 -1.9734  1.2989  1.7685
 7171SOL    HW232976   1.829   2.764   3.604  0.7665  0.5728  0.8674
 7172SOL     OW32977   3.459   0.465   3.179 -0.0530 -0.9599 -0.3838
 7172SOL    HW132978   3.553   0.452   3.171  0.1017  0.4184 -0.9226
 7172SOL    HW232979   3.434   0.465   3.087 -1.4028 -3.0620 -0.0103
 7173SOL     OW32980   2.038   3.537   3.794  0.1369 -0.1837  0.5372
 7173SOL    HW132981   1.947   3.508   3.794  0.3402 -0.8359 -1.0081
 7173SOL    HW232982   2.041   3.576   3.706 -2.3667  2.3137  1.5502
 7174SOL     OW32983   0.763   2.691  10.888 -0.3974 -0.0137  0.0120
 7174SOL    HW132984   0.839   2.745  10.909 -0.9929 -0.0048  2.1990
 7174SOL    HW232985   0.785   2.611  10.937  0.1453 -0.1468 -0.4526
 7175SOL     OW32986   1.075   0.948   2.942  0.2653  0.0859 -0.1802
 7175SOL    HW132987   1.087   0.853   2.948  2.1073  0.3175 -0.1481
 7175SOL    HW232988   1.139   0.986   3.002 -0.2656  0.2368  0.2826
 7176SOL     OW32989   0.752   3.208   7.378 -0.5508  0.4217  0.2686
 7176SOL    HW132990   0.727   3.117   7.360 -2.4093  0.8735  0.4918
 7176SOL    HW232991   0.701   3.266   7.322  0.0468  0.3123 -0.3758
 7177SOL     OW32992   2.006   0.612   7.726 -0.3176  0.2519 -0.1857
 7177SOL    HW132993   2.030   0.647   7.640 -1.5330  3.1672  0.6560
 7177SOL    HW232994   2.061   0.664   7.785  1.1421 -0.0457 -1.2929
 7178SOL     OW32995   3.445   1.758  17.164 -0.2404 -0.2748 -0.4317
 7178SOL    HW132996   3.399   1.793  17.088 -2.1262 -1.6521  0.0664
 7178SOL    HW232997   3.430   1.667  17.138 -0.7332 -0.4284  0.3854
 7179SOL     OW32998   2.304   1.655  15.146  0.1548  0.3306 -0.3274
 7179SOL    HW132999   2.377   1.717  15.146  1.7222 -1.5219 -0.5179
 7179SOL    HW233000   2.320   1.610  15.063 -0.1238  0.1826 -0.3015
 7180SOL     OW33001   2.112   3.809   5.735  0.8811  0.0281  0.2933
 7180SOL    HW133002   2.183   3.762   5.778 -1.3006 -1.1793  2.5816
 7180SOL    HW233003   2.083   3.741   5.675  0.8579 -0.1812  0.5429
 7181SOL     OW33004   1.732   0.459   1.115 -0.3617  0.0472 -0.5265
 7181SOL    HW133005   1.783   0.512   1.054  1.3694  1.1944  1.9202
 7181SOL    HW233006   1.803   0.410   1.158  0.8202  1.2087 -1.1586
 7182SOL     OW33007   2.526   0.015  11.873 -0.1012 -0.6060  0.3365
 7182SOL    HW133008   2.580   0.094  11.863 -3.6739  1.5279 -1.8222
 7182SOL    HW233009   2.591   4.671  11.858 -0.9921 -1.4194  0.1967
 7183SOL     OW33010   4.075   3.847  15.618  0.3639  0.2380 -0.3122
 7183SOL    HW133011   4.018   3.821  15.691 -0.1474  1.3040 -0.3216
 7183SOL    HW233012   4.015   3.869  15.547 -1.2378 -2.6851  0.1701
 7184SOL     OW33013   3.378   3.223   4.775  0.0152  0.0561  0.2175
 7184SOL    HW133014   3.439   3.198   4.845  0.7323  1.1502 -0.0186
 7184SOL    HW233015   3.449   3.237   4.713 -0.8791  0.2108 -0.7615
 7185SOL     OW33016   3.235   3.043   0.473  0.1922 -0.5907  0.0481
 7185SOL    HW133017   3.273   3.006   0.552 -0.6387 -0.3401  0.5651
 7185SOL    HW233018   3.296   3.012   0.406  1.1400  1.9363 -0.2615
 7186SOL     OW33019   2.974   0.587   4.239  0.6361  0.1837  0.2578
 7186SOL    HW133020   2.900   0.615   4.184  1.9829  1.3533 -0.9425
 7186SOL    HW233021   2.960   0.493   4.225  1.9043  0.0105  0.2361
 7187SOL     OW33022   3.170   1.040   3.605  0.2160  0.1877  0.4789
 7187SOL    HW133023   3.120   0.974   3.654 -1.2927  0.5990 -0.4977
 7187SOL    HW233024   3.219   0.989   3.541  0.3874  0.8993  0.0418
 7188SOL     OW33025   1.761   0.229   2.489  0.7478 -0.3764 -0.1781
 7188SOL    HW133026   1.679   0.267   2.520  0.9795  0.1664 -0.2392
 7188SOL    HW233027   1.731   0.201   2.403 -0.5030 -0.8795  0.4098
 7189SOL     OW33028   3.489   1.456   5.062  0.4947  0.2476  0.2445
 7189SOL    HW133029   3.488   1.365   5.091 -2.2159 -0.2041 -1.2892
 7189SOL    HW233030   3.407   1.502   5.082  0.5540  0.4292  0.0794
 7190SOL     OW33031   3.046   3.020   5.700  0.3897  0.3824  0.1482
 7190SOL    HW133032   3.132   3.016   5.741  0.5931  0.2216 -0.2911
 7190SOL    HW233033   3.009   3.101   5.734 -0.1105  0.2295 -0.0328
 7191SOL     OW33034   0.280   1.840   5.996 -0.2093 -0.5212  0.7455
 7191SOL    HW133035   0.198   1.880   5.967  1.3082  1.4805 -0.8112
 7191SOL    HW233036   0.338   1.864   5.924 -1.3931 -0.9618 -0.3428
 7192SOL     OW33037   0.961   4.409   0.748 -0.4471  0.8500  0.2182
 7192SOL    HW133038   0.920   4.480   0.698 -0.5197 -0.9361 -2.2648
 7192SOL    HW233039   0.879   4.361   0.755  0.5093 -0.8722 -0.3481
 7193SOL     OW33040   1.543   1.073   7.848 -0.3003 -0.2572 -0.0764
 7193SOL    HW133041   1.484   1.002   7.823 -1.3590  0.1487  1.2738
 7193SOL    HW233042   1.562   1.047   7.938 -2.3339  0.6864  0.6309
 7194SOL     OW33043   2.543   0.454   6.436  0.0292  0.4022 -0.0395
 7194SOL    HW133044   2.487   0.381   6.411  1.1892 -0.2513 -0.6856
 7194SOL    HW233045   2.606   0.461   6.365 -0.1690  2.4595 -0.0146
 7195SOL     OW33046   1.021   0.757   2.144 -0.9693 -0.3175  0.6289
 7195SOL    HW133047   1.028   0.850   2.125  2.1866 -0.3627  1.5638
 7195SOL    HW233048   1.094   0.727   2.089  1.2926  1.7593  2.5031
 7196SOL     OW33049   0.001   2.706   5.424  0.2695 -0.0439 -0.6223
 7196SOL    HW133050   0.095   2.696   5.413  0.5788  0.0332  2.0068
 7196SOL    HW233051   4.693   2.653   5.352 -0.5794 -1.2228  0.6390
 7197SOL     OW33052   2.788   2.546   8.961 -0.0217 -0.1658  0.0841
 7197SOL    HW133053   2.725   2.615   8.941  1.1107  0.5919 -0.9478
 7197SOL    HW233054   2.842   2.533   8.882 -0.1101 -0.1130  0.0155
 7198SOL     OW33055   3.604   2.603   4.234  0.0674  0.1980 -0.4637
 7198SOL    HW133056   3.642   2.683   4.198 -0.8492  1.4334  1.2969
 7198SOL    HW233057   3.520   2.633   4.270  1.2673  0.0182  2.4918
 7199SOL     OW33058   3.984   3.036   7.539 -0.2696 -0.0713 -0.0417
 7199SOL    HW133059   3.945   2.974   7.600 -0.2821 -0.5916 -0.5805
 7199SOL    HW233060   4.007   3.113   7.592  1.4124 -0.2022 -0.5759
 7200SOL     OW33061   4.501   2.148   2.394 -0.6115 -0.9067 -0.3079
 7200SOL    HW133062   4.485   2.207   2.468  0.9385 -0.3854 -0.3945
 7200SOL    HW233063   4.430   2.158   2.332  0.1507  1.3608 -0.7922
 7201SOL     OW33064   1.383   0.164   8.670  0.6627 -0.5642 -0.1015
 7201SOL    HW133065   1.394   0.255   8.641  0.1508 -1.0602 -1.8526
 7201SOL    HW233066   1.327   0.125   8.603 -0.1492  0.8933 -0.2942
 7202SOL     OW33067   3.728   3.505   9.161  0.8529 -0.2838 -0.4627
 7202SOL    HW133068   3.795   3.531   9.224  1.0062 -0.0989 -0.7020
 7202SOL    HW233069   3.686   3.591   9.148 -1.2458 -1.2885 -0.2878
 7203SOL     OW33070   1.883   2.187   7.337 -0.0542  0.6297  0.3267
 7203SOL    HW133071   1.909   2.233   7.417  0.6764 -0.0552  0.4744
 7203SOL    HW233072   1.969   2.148   7.323 -1.2359 -0.4601 -3.8664
 7204SOL     OW33073   3.737   3.301   6.332 -0.0803  0.6051  0.4695
 7204SOL    HW133074   3.792   3.318   6.256 -0.6627 -1.3242 -0.3806
 7204SOL    HW233075   3.720   3.207   6.321  1.9439  0.4730 -1.4533
 7205SOL     OW33076   2.657   4.045   3.230 -0.5746 -0.1375  0.3865
 7205SOL    HW133077   2.682   4.107   3.161  0.2065  0.2508  1.0264
 7205SOL    HW233078   2.569   4.079   3.246 -0.8234 -0.4522 -0.2945
 7206SOL     OW33079   1.543   1.799   8.234  0.1981 -0.5254 -0.1515
 7206SOL    HW133080   1.517   1.874   8.288 -1.8519  0.1512 -2.0563
 7206SOL    HW233081   1.467   1.793   8.176 -1.3564 -2.7059  2.1228
 7207SOL     OW33082   3.475   3.044   5.254  0.1366 -0.0251 -0.1426
 7207SOL    HW133083   3.531   3.038   5.331  0.8846  0.3024 -0.6648
 7207SOL    HW233084   3.408   3.096   5.299  0.5408  1.0778 -0.8172
 7208SOL     OW33085   4.531   1.454   2.712 -0.2356  0.1553  0.0958
 7208SOL    HW133086   4.581   1.372   2.707 -1.2976 -0.5340  1.0053
 7208SOL    HW233087   4.534   1.493   2.799  0.1876  1.3726 -0.4554
 7209SOL     OW33088   3.431   0.949   3.804 -0.4453  0.0057 -0.3957
 7209SOL    HW133089   3.467   0.870   3.844 -2.2049 -0.6125 -0.0054
 7209SOL    HW233090   3.379   0.911   3.733 -0.7254  0.3592 -0.3769
 7210SOL     OW33091   4.022   2.920   2.619 -0.0635  0.5005  0.1110
 7210SOL    HW133092   3.952   2.946   2.560 -0.2754 -0.7738 -0.2028
 7210SOL    HW233093   3.976   2.892   2.699  0.4210 -1.7388 -0.3902
 7211SOL     OW33094   0.425   0.652  10.595 -0.0713 -0.4824  0.0143
 7211SOL    HW133095   0.335   0.669  10.623  0.2118  1.0401 -0.0027
 7211SOL    HW233096   0.422   0.675  10.503  1.9903  0.9728  0.3071
 7212SOL     OW33097   0.007   2.008  12.910  0.0337 -0.6948 -0.0036
 7212SOL    HW133098   0.001   1.938  12.845 -2.7785 -0.9936  0.5955
 7212SOL    HW233099   0.098   1.993  12.935  0.1259  1.7285  1.1105
 7213SOL     OW33100   1.822   3.607   5.715 -0.2031  0.0236  0.3748
 7213SOL    HW133101   1.897   3.607   5.656  1.2060 -2.8099  2.1742
 7213SOL    HW233102   1.847   3.564   5.797  1.7294  1.9793  0.7788
 7214SOL     OW33103   1.187   1.609   4.593 -0.6453  0.2786  0.1233
 7214SOL    HW133104   1.102   1.651   4.602 -1.4229 -0.8992 -1.7712
 7214SOL    HW233105   1.186   1.550   4.668  1.4670 -0.3717 -0.3431
 7215SOL     OW33106   4.141   0.799   1.026  0.6867 -0.1612 -0.2033
 7215SOL    HW133107   4.093   0.718   1.047 -1.4918  1.2668  0.3444
 7215SOL    HW233108   4.187   0.773   0.946  1.2810 -0.5550  0.2707
 7216SOL     OW33109   4.063   2.589   5.559  0.3567 -0.0434  0.3459
 7216SOL    HW133110   4.009   2.593   5.481  1.0592 -1.6135 -0.2414
 7216SOL    HW233111   4.072   2.494   5.570 -0.3038 -0.0969  0.4085
 7217SOL     OW33112   1.968   2.326   5.735 -0.8597 -0.4137  0.2742
 7217SOL    HW133113   1.926   2.254   5.781  0.7589 -1.4855  0.0617
 7217SOL    HW233114   1.925   2.309   5.651 -1.5326  0.9037  0.3548
 7218SOL     OW33115   0.678   1.645   9.472  0.8214 -0.1833  0.1546
 7218SOL    HW133116   0.655   1.631   9.381 -1.2241  0.5153  0.5807
 7218SOL    HW233117   0.751   1.585   9.490  2.3826  2.4405  2.6107
 7219SOL     OW33118   1.733   3.618   2.790 -0.3028  0.6175  0.3725
 7219SOL    HW133119   1.697   3.664   2.866  2.1093  2.9711  0.1044
 7219SOL    HW233120   1.727   3.526   2.812  1.6709  0.1422 -1.0027
 7220SOL     OW33121   1.351   4.008   5.480 -0.3453 -0.0821  0.6834
 7220SOL    HW133122   1.309   4.043   5.401  0.7648  0.3626  0.2864
 7220SOL    HW233123   1.368   4.091   5.524  0.2626  1.3170 -2.1511
 7221SOL     OW33124   1.874   4.002   9.444  0.0689 -0.1063 -0.9221
 7221SOL    HW133125   1.963   4.028   9.467 -0.6027 -1.4038  3.1311
 7221SOL    HW233126   1.843   4.066   9.379 -0.3289 -1.3153 -1.9303
 7222SOL     OW33127   4.372   1.559  15.914 -0.3680  0.2715  0.0920
 7222SOL    HW133128   4.332   1.621  15.853  0.8534  0.5350 -0.4336
 7222SOL    HW233129   4.294   1.523  15.957  0.0268  0.8348  1.2687
 7223SOL     OW33130   4.263   0.997  13.623  0.1170  0.8602 -0.8565
 7223SOL    HW133131   4.313   1.069  13.583 -1.1197  1.5241 -1.2080
 7223SOL    HW233132   4.179   1.007  13.579  0.0830  1.7686 -0.5966
 7224SOL     OW33133   4.161   0.285   3.210 -0.0125  0.0680  0.1198
 7224SOL    HW133134   4.253   0.269   3.233 -0.1464 -1.6557 -0.5012
 7224SOL    HW233135   4.162   0.272   3.116  2.1560 -3.0042  0.5628
 7225SOL     OW33136   0.679   3.977   6.513  0.0329 -0.2402 -0.3354
 7225SOL    HW133137   0.771   3.974   6.538  0.1152  4.3350 -0.0443
 7225SOL    HW233138   0.668   4.067   6.483  0.8545  0.7774  2.3761
 7226SOL     OW33139   0.231   1.510   2.556  0.1821  0.1769 -0.1879
 7226SOL    HW133140   0.273   1.484   2.474  0.5099 -2.4226  0.7961
 7226SOL    HW233141   0.228   1.428   2.606  0.7662  0.0172 -0.4115
 7227SOL     OW33142   4.109   1.876  17.665 -0.5556  0.6857  1.2136
 7227SOL    HW133143   4.044   1.810  17.687 -0.2774  0.0175  0.0300
 7227SOL    HW233144   4.111   1.921   0.048 -1.8517  2.8780  0.0707
 7228SOL     OW33145   1.907   4.519   1.925 -0.2879  0.5604 -0.5727
 7228SOL    HW133146   1.990   4.474   1.939  0.2263  1.4146 -0.8301
 7228SOL    HW233147   1.842   4.453   1.948 -0.8704  0.9081 -1.2100
 7229SOL     OW33148   3.169   0.780   7.400 -0.6285  0.2373  0.1823
 7229SOL    HW133149   3.153   0.799   7.308 -0.4722 -3.0188 -0.5119
 7229SOL    HW233150   3.081   0.774   7.437 -1.0955  2.7635 -0.5442
 7230SOL     OW33151   3.744   2.375   3.824  0.2854 -0.0837  0.0610
 7230SOL    HW133152   3.659   2.396   3.864  0.5252  0.1126  0.4725
 7230SOL    HW233153   3.753   2.442   3.757 -1.4697 -2.0958 -2.1932
 7231SOL     OW33154   1.112   1.134  12.386  0.1528  0.0629  0.4877
 7231SOL    HW133155   1.067   1.118  12.469  4.8758  0.3283  3.1155
 7231SOL    HW233156   1.136   1.044  12.362 -3.0324 -0.4868 -0.6212
 7232SOL     OW33157   0.968   4.227  11.022 -0.5580  0.7585  0.0456
 7232SOL    HW133158   0.986   4.308  10.974  0.9086 -0.2542 -1.1126
 7232SOL    HW233159   1.016   4.173  10.959 -2.8583 -1.1958 -0.0453
 7233SOL     OW33160   2.833   2.008   3.185  0.1923  0.2558  0.0037
 7233SOL    HW133161   2.844   2.095   3.147 -0.1033 -0.3124 -1.3866
 7233SOL    HW233162   2.744   1.982   3.161 -1.2268  3.9285  1.2237
 7234SOL     OW33163   4.478   3.133   7.744  0.1137  0.4605 -0.5293
 7234SOL    HW133164   4.547   3.067   7.739 -0.6024 -0.4426  1.5934
 7234SOL    HW233165   4.407   3.074   7.771  1.1527 -0.8799 -0.7038
 7235SOL     OW33166   0.279   3.861  11.108  0.2336 -0.2415 -0.1621
 7235SOL    HW133167   0.338   3.847  11.034  1.4501 -0.0788  0.7720
 7235SOL    HW233168   0.224   3.783  11.101  0.6852 -0.6245  0.5705
 7236SOL     OW33169   4.340   3.359   8.269 -0.2517  0.1031 -0.0855
 7236SOL    HW133170   4.386   3.440   8.289  0.4260  0.1689 -1.9255
 7236SOL    HW233171   4.412   3.297   8.267  0.0373  0.3446  2.3213
 7237SOL     OW33172   2.467   3.663   2.152 -0.1431  0.3682  0.3364
 7237SOL    HW133173   2.384   3.667   2.201 -0.4599 -1.1565 -0.0575
 7237SOL    HW233174   2.478   3.569   2.137 -1.1058  0.0418  1.6706
 7238SOL     OW33175   3.193   0.998   6.622 -0.2047  0.0039  0.2421
 7238SOL    HW133176   3.232   1.002   6.709 -0.2389 -0.2013  0.2658
 7238SOL    HW233177   3.207   0.910   6.587  0.6813  0.5946 -0.9193
 7239SOL     OW33178   4.194   1.450   0.060  0.2319 -0.1089  0.4223
 7239SOL    HW133179   4.198   1.402  17.679  0.4821  1.2171 -0.3267
 7239SOL    HW233180   4.125   1.405   0.109 -0.2756 -0.8704 -1.0130
 7240SOL     OW33181   2.923   3.581   3.421  0.7736 -0.4968 -0.1033
 7240SOL    HW133182   2.984   3.513   3.451  2.5360  1.1594  0.0835
 7240SOL    HW233183   2.983   3.655   3.408  2.1724 -1.8042 -0.9603
 7241SOL     OW33184   0.315   3.499  12.955 -0.1558 -0.0397 -0.3435
 7241SOL    HW133185   0.301   3.482  13.048 -0.1305  0.1180 -0.3105
 7241SOL    HW233186   0.406   3.471  12.949  0.0699  0.3249  1.5185
 7242SOL     OW33187   0.698   2.808  13.695  0.0953  0.6022 -0.0231
 7242SOL    HW133188   0.761   2.736  13.695 -1.2827 -0.6054 -0.6326
 7242SOL    HW233189   0.658   2.795  13.781 -0.9520 -2.1007 -0.9181
 7243SOL     OW33190   1.260   4.617  16.574 -0.2985  0.5067 -0.3090
 7243SOL    HW133191   1.213   4.593  16.653 -0.1133  0.9902 -0.0524
 7243SOL    HW233192   1.188   4.650  16.520 -0.5372 -1.3050 -1.1010
 7244SOL     OW33193   0.359   3.794   5.132  0.3505 -0.6997  0.7600
 7244SOL    HW133194   0.304   3.719   5.153 -2.9623  0.8918 -2.1252
 7244SOL    HW233195   0.301   3.859   5.172 -1.1399 -2.4173  1.4223
 7245SOL     OW33196   0.491   4.433  14.309  0.2311  0.1496 -0.0350
 7245SOL    HW133197   0.582   4.462  14.306  0.0339  0.4925 -2.3608
 7245SOL    HW233198   0.500   4.339  14.327  0.5913  0.2912  0.5490
 7246SOL     OW33199   1.412   4.590  10.485 -0.5094 -0.2882 -0.1794
 7246SOL    HW133200   1.385   4.656  10.548  0.8580  0.5993 -0.5120
 7246SOL    HW233201   1.444   4.527  10.549 -1.2874  1.3100  1.7718
 7247SOL     OW33202   3.335   0.532   1.277 -0.9014 -0.9693 -0.3711
 7247SOL    HW133203   3.383   0.537   1.194 -1.2337  0.0051 -0.5049
 7247SOL    HW233204   3.378   0.453   1.308  0.5032  0.5066  1.4082
 7248SOL     OW33205   2.714   0.516  14.841 -0.3783 -0.4274  0.3930
 7248SOL    HW133206   2.668   0.556  14.914 -0.5388 -0.2006  0.1682
 7248SOL    HW233207   2.670   0.431  14.840 -4.2784  1.6027 -0.6108
 7249SOL     OW33208   0.950   2.620   6.901  0.1727  0.3045  0.7391
 7249SOL    HW133209   0.949   2.528   6.929 -0.8663 -0.1029 -0.6319
 7249SOL    HW233210   0.977   2.609   6.810 -1.3576 -1.5276  0.4963
 7250SOL     OW33211   3.204   2.243  11.977 -0.1942 -0.0884 -0.1783
 7250SOL    HW133212   3.245   2.191  12.045 -0.8298 -1.0431 -0.5226
 7250SOL    HW233213   3.170   2.180  11.914  1.3805  0.2010 -1.3035
 7251SOL     OW33214   1.574   3.779   0.698 -0.0396 -0.1086  0.2792
 7251SOL    HW133215   1.642   3.718   0.669 -0.3067 -1.5213  2.5666
 7251SOL    HW233216   1.611   3.860   0.664 -2.3195  0.3116 -1.1703
 7252SOL     OW33217   4.059   1.585  11.681  0.0588 -0.2290  0.3244
 7252SOL    HW133218   4.117   1.598  11.606 -0.1855 -0.7232  0.0532
 7252SOL    HW233219   4.082   1.495  11.702  1.6791 -0.1897 -1.2274
 7253SOL     OW33220   3.822   4.142   4.797 -0.3903 -0.3441 -0.4888
 7253SOL    HW133221   3.907   4.127   4.756  0.4545 -0.4693  1.3151
 7253SOL    HW233222   3.759   4.094   4.743  0.8868 -1.0410 -1.3506
 7254SOL     OW33223   0.568   2.569   8.970  0.2857 -0.6285 -0.1698
 7254SOL    HW133224   0.491   2.606   9.014 -0.2719 -0.5735 -1.1983
 7254SOL    HW233225   0.584   2.489   9.021 -0.1722 -0.3276  0.4510
 7255SOL     OW33226   3.049   0.812   3.289  0.3828  0.1042 -0.2923
 7255SOL    HW133227   3.040   0.867   3.211 -0.9026 -1.8296 -1.5052
 7255SOL    HW233228   3.034   0.726   3.251 -1.1381  0.2573 -0.0413
 7256SOL     OW33229   1.801   1.759  16.553  0.5516 -0.1228  0.2428
 7256SOL    HW133230   1.749   1.740  16.631 -0.9542 -2.6112 -1.3980
 7256SOL    HW233231   1.735   1.789  16.491  0.5316 -0.0795  0.2849
 7257SOL     OW33232   2.165   0.792   6.580 -0.0674 -0.0553  0.0611
 7257SOL    HW133233   2.220   0.851   6.632  0.1633  0.0660 -0.3199
 7257SOL    HW233234   2.222   0.718   6.558 -0.2983  0.6896 -2.9060
 7258SOL     OW33235   3.129   3.543   6.005  0.3585  0.6456  0.4852
 7258SOL    HW133236   3.120   3.460   6.053  0.0988  2.0513  2.8848
 7258SOL    HW233237   3.064   3.596   6.051 -0.6412  0.2708 -0.4983
 7259SOL     OW33238   1.988   3.206  13.166 -0.2189 -0.3687  0.2688
 7259SOL    HW133239   1.993   3.287  13.114 -1.9708 -0.7043 -0.4224
 7259SOL    HW233240   1.937   3.157  13.101  0.3625  0.7106 -1.0142
 7260SOL     OW33241   4.118   3.452   8.898  0.1022 -0.5035 -0.2132
 7260SOL    HW133242   4.022   3.450   8.891  0.3740 -0.6340 -3.9635
 7260SOL    HW233243   4.143   3.516   8.965 -0.1206 -0.6950  0.0503
 7261SOL     OW33244   0.743   1.711  15.007  0.5643 -0.3129 -0.2198
 7261SOL    HW133245   0.827   1.691  15.049 -0.6957 -1.2384  1.8754
 7261SOL    HW233246   0.716   1.787  15.057 -2.1132 -2.7582  2.0354
 7262SOL     OW33247   2.995   1.175   4.862  0.2686  0.4106  0.2972
 7262SOL    HW133248   3.082   1.194   4.826  0.0906  0.0085 -0.3427
 7262SOL    HW233249   2.962   1.109   4.801  1.7261 -0.6143  0.6040
 7263SOL     OW33250   0.542   4.306   0.914 -0.6214 -0.6311 -0.1735
 7263SOL    HW133251   0.610   4.353   0.963  0.4048 -1.8756 -0.4031
 7263SOL    HW233252   0.563   4.218   0.944 -5.6364 -2.1230 -1.0455
 7264SOL     OW33253   4.517   4.582  14.659 -0.3414  0.3993 -0.7151
 7264SOL    HW133254   4.592   4.634  14.688 -1.4897  2.0322 -0.6312
 7264SOL    HW233255   4.462   4.658  14.638  1.2036  1.6155 -0.4030
 7265SOL     OW33256   3.257   3.294   3.874 -0.1078 -0.0170  0.8748
 7265SOL    HW133257   3.269   3.385   3.845 -0.6740 -0.6044 -1.1746
 7265SOL    HW233258   3.246   3.257   3.786 -0.3534 -1.6107  1.5803
 7266SOL     OW33259   1.935   3.019  15.623  0.4679  0.0194 -0.0571
 7266SOL    HW133260   1.976   3.020  15.537 -1.0067 -0.7392 -0.7709
 7266SOL    HW233261   1.847   2.987  15.605  0.4782 -0.8829  1.4789
 7267SOL     OW33262   1.315   2.810   5.619  0.4156  0.8425  0.1291
 7267SOL    HW133263   1.240   2.868   5.632 -0.7077  0.1003 -2.8660
 7267SOL    HW233264   1.278   2.722   5.619 -0.8098  1.3475 -0.9988
 7268SOL     OW33265   2.047   1.119   4.561 -0.3734  0.2062 -0.4347
 7268SOL    HW133266   2.088   1.053   4.506 -0.1176  0.7721 -0.9183
 7268SOL    HW233267   1.983   1.069   4.612  0.1366 -0.2901 -0.2725
 7269SOL     OW33268   2.175   0.866  11.771  0.1616  0.5031 -0.2468
 7269SOL    HW133269   2.139   0.825  11.692 -0.6596 -2.0379  1.4169
 7269SOL    HW233270   2.265   0.832  11.777  0.8309  2.7068  1.8483
 7270SOL     OW33271   3.326   2.296  13.116  0.0732 -0.1497  0.1315
 7270SOL    HW133272   3.274   2.344  13.051 -1.8065 -1.3430  0.7533
 7270SOL    HW233273   3.378   2.370  13.148  0.5957  0.3903 -1.9684
 7271SOL     OW33274   3.018   1.761  16.020 -0.7412 -0.2554 -0.4931
 7271SOL    HW133275   3.000   1.822  16.091  1.1045  2.4801 -2.3822
 7271SOL    HW233276   3.053   1.811  15.946 -2.6723  3.7634  1.3446
 7272SOL     OW33277   3.860   0.766   8.495 -0.7757 -0.0569  0.3642
 7272SOL    HW133278   3.950   0.749   8.524 -0.4068  0.8481 -0.2508
 7272SOL    HW233279   3.815   0.685   8.519  0.1847 -0.6695  0.0700
 7273SOL     OW33280   4.486   3.430  17.290 -0.3912 -0.0477 -0.2926
 7273SOL    HW133281   4.401   3.467  17.265  0.6369  1.3356 -1.7536
 7273SOL    HW233282   4.537   3.452  17.212 -0.8119 -0.2497 -0.6215
 7274SOL     OW33283   3.538   1.254   7.787  0.0278 -0.2010  0.0016
 7274SOL    HW133284   3.523   1.313   7.713 -0.3069 -3.5522 -2.5946
 7274SOL    HW233285   3.608   1.299   7.833  0.1727  0.1326 -0.5535
 7275SOL     OW33286   4.158   3.136   7.308  0.5096 -0.2300 -0.1342
 7275SOL    HW133287   4.147   3.227   7.336 -0.9202  0.0188 -1.5436
 7275SOL    HW233288   4.251   3.122   7.322  0.7302  0.0328 -1.3226
 7276SOL     OW33289   1.882   0.965  10.439 -0.1335 -0.2921  0.1499
 7276SOL    HW133290   1.831   1.037  10.477 -1.0175 -1.6668  1.5762
 7276SOL    HW233291   1.905   0.910  10.514 -1.4373  0.0095  0.7836
 7277SOL     OW33292   0.314   4.479   3.239  0.2109  0.4991 -0.3639
 7277SOL    HW133293   0.321   4.388   3.265  1.2910  0.6731 -0.0484
 7277SOL    HW233294   0.402   4.495   3.204  0.6301  0.2624  0.5853
 7278SOL     OW33295   0.024   2.236   9.302  0.6793 -0.1418 -0.0075
 7278SOL    HW133296   0.061   2.227   9.214  1.1876  0.6640  0.1236
 7278SOL    HW233297   0.023   2.150   9.342 -1.2956 -0.7655 -1.3937
 7279SOL     OW33298   1.013   2.961   9.183  0.1066  0.3475  0.2103
 7279SOL    HW133299   0.977   3.048   9.163  0.3686  0.7443  1.4638
 7279SOL    HW233300   1.103   2.993   9.181  0.2394  0.0083  0.6532
 7280SOL     OW33301   1.725   1.247   8.478 -0.0556 -0.1332 -0.0318
 7280SOL    HW133302   1.733   1.277   8.568  1.1441 -0.0977 -0.1383
 7280SOL    HW233303   1.805   1.281   8.437  0.9011 -0.0669  1.9079
 7281SOL     OW33304   0.236   2.068   4.098  0.2794  0.0322  0.0469
 7281SOL    HW133305   0.326   2.097   4.115  0.7074 -0.1789 -1.8359
 7281SOL    HW233306   0.217   2.110   4.014  0.9360  0.6335  0.1993
 7282SOL     OW33307   4.700   3.485   4.561 -0.1703  0.2064  0.1989
 7282SOL    HW133308   4.636   3.531   4.615 -0.8213 -1.8133  1.1761
 7282SOL    HW233309   4.655   3.401   4.548  1.2933 -0.5328 -0.1028
 7283SOL     OW33310   1.527   0.206   9.255 -0.2104  0.0023 -0.6763
 7283SOL    HW133311   1.446   0.258   9.249 -0.3173 -0.0386  0.5447
 7283SOL    HW233312   1.566   0.246   9.332 -0.0137  0.6700 -1.1228
 7284SOL     OW33313   1.307   4.170   6.608 -0.3835 -0.6688  0.7464
 7284SOL    HW133314   1.241   4.174   6.678 -0.3388  0.1229  0.7492
 7284SOL    HW233315   1.259   4.230   6.550  2.7446  1.0636 -0.0206
 7285SOL     OW33316   3.487   2.177   2.849 -0.0236  0.5607  0.3709
 7285SOL    HW133317   3.410   2.200   2.797  0.3099 -0.7753 -0.6875
 7285SOL    HW233318   3.464   2.091   2.884  1.1297 -0.1998 -0.7458
 7286SOL     OW33319   4.083   0.944   2.528  0.1382 -0.4157 -0.5758
 7286SOL    HW133320   4.019   1.015   2.531 -0.2343 -0.8851  2.2607
 7286SOL    HW233321   4.028   0.870   2.501 -2.2503  0.0825  2.9804
 7287SOL     OW33322   1.513   2.387   3.136  0.2031 -0.2833 -0.0732
 7287SOL    HW133323   1.592   2.442   3.131  0.1567 -0.2336 -0.2384
 7287SOL    HW233324   1.490   2.405   3.227  1.5876 -0.8484  0.3978
 7288SOL     OW33325   4.432   3.036  16.296  0.0894 -0.0338  0.0704
 7288SOL    HW133326   4.500   3.093  16.260  1.0471 -1.0989  0.1850
 7288SOL    HW233327   4.378   3.093  16.350  0.8391 -1.4599  2.3321
 7289SOL     OW33328   3.551   2.731   5.535  0.3643 -0.6250  0.0751
 7289SOL    HW133329   3.645   2.745   5.521  0.4662  3.2558  4.3448
 7289SOL    HW233330   3.534   2.792   5.607 -0.5871 -0.1475 -0.5570
 7290SOL     OW33331   2.212   1.285  11.068 -0.0324 -0.2856  0.0591
 7290SOL    HW133332   2.296   1.259  11.105  0.1467 -1.2355 -0.9828
 7290SOL    HW233333   2.158   1.211  11.095 -1.1618  0.5900  0.1820
 7291SOL     OW33334   3.296   1.706   6.856 -0.0321  0.6148 -0.1627
 7291SOL    HW133335   3.298   1.798   6.826 -0.1569  1.1406  1.4615
 7291SOL    HW233336   3.292   1.660   6.772 -0.9526 -1.7032  1.1719
 7292SOL     OW33337   4.713   2.443   3.176  0.1103 -0.3538 -0.0449
 7292SOL    HW133338   0.082   2.427   3.179  0.2760  0.5833 -0.1353
 7292SOL    HW233339   4.708   2.529   3.217 -2.0684  0.5182 -2.1220
 7293SOL     OW33340   4.477   1.902   8.327 -0.4051  0.3505  0.1900
 7293SOL    HW133341   4.560   1.886   8.282 -0.4078  2.7213 -0.7050
 7293SOL    HW233342   4.420   1.830   8.300 -0.0147 -0.6660  2.1095
 7294SOL     OW33343   3.054   2.624   8.841  0.1939  0.2148  0.0131
 7294SOL    HW133344   3.089   2.604   8.754  0.1526  0.1541  0.0106
 7294SOL    HW233345   3.127   2.600   8.898 -0.8374 -1.4624  0.6364
 7295SOL     OW33346   3.364   1.094   2.778 -0.0795 -0.2698  0.3168
 7295SOL    HW133347   3.406   1.009   2.778  0.1602 -0.1564 -1.3444
 7295SOL    HW233348   3.439   1.154   2.783  2.1496 -3.1405  0.8701
 7296SOL     OW33349   3.213   3.381   0.745 -0.1173  0.4604 -0.0759
 7296SOL    HW133350   3.134   3.417   0.784 -1.7439 -1.2620 -1.8222
 7296SOL    HW233351   3.212   3.424   0.659 -0.2353  1.2406  0.3164
 7297SOL     OW33352   3.571   3.808   6.388  0.3049 -0.3399  0.1129
 7297SOL    HW133353   3.613   3.851   6.462 -1.7508 -0.7273  1.5108
 7297SOL    HW233354   3.623   3.842   6.315 -0.0559 -0.6017 -0.2631
 7298SOL     OW33355   1.924   3.644  16.187  0.5261  0.1135  0.2334
 7298SOL    HW133356   2.009   3.610  16.159 -0.8719 -1.8354 -1.6559
 7298SOL    HW233357   1.927   3.730  16.145 -0.2289 -0.6758 -1.4230
 7299SOL     OW33358   0.029   3.313  12.670 -0.3492  0.0584 -0.8113
 7299SOL    HW133359   4.686   3.252  12.641  0.9329 -1.7521  0.0005
 7299SOL    HW233360   4.707   3.396  12.663 -0.4112  0.0910  0.0839
 7300SOL     OW33361   4.363   1.088   7.709 -0.3369  0.2303 -0.7200
 7300SOL    HW133362   4.382   1.029   7.637 -0.0240  1.8708 -1.9892
 7300SOL    HW233363   4.345   1.027   7.781  1.1037  0.2124 -0.3752
 7301SOL     OW33364   3.429   3.910   4.287 -0.1518  0.0920  0.3755
 7301SOL    HW133365   3.358   3.967   4.317  0.0197  0.1261  0.7280
 7301SOL    HW233366   3.400   3.872   4.204 -1.1244 -0.6396  1.0448
 7302SOL     OW33367   2.011   2.894   7.457  0.0525  0.2808  0.5097
 7302SOL    HW133368   1.984   2.952   7.386  1.0401 -1.3754 -1.2296
 7302SOL    HW233369   1.965   2.812   7.438 -0.1065  1.0502 -2.4801
 7303SOL     OW33370   2.952   2.042   4.510  0.0471  0.1792 -0.2749
 7303SOL    HW133371   3.000   1.994   4.442 -0.2513 -1.1743  0.4665
 7303SOL    HW233372   2.863   2.014   4.486 -0.0747  0.8099 -0.5629
 7304SOL     OW33373   3.161   4.201  13.537 -0.4959  0.2683 -0.1116
 7304SOL    HW133374   3.077   4.247  13.533 -0.2225  0.4539 -3.6247
 7304SOL    HW233375   3.224   4.221  13.468  1.8923  2.0358  2.5528
 7305SOL     OW33376   0.812   1.500   7.192 -0.1564  0.3741  0.5003
 7305SOL    HW133377   0.781   1.577   7.144 -0.3843  1.0942  1.8171
 7305SOL    HW233378   0.901   1.474   7.168 -0.3658  0.1743 -0.0469
 7306SOL     OW33379   4.237   2.951   8.495  0.3780  0.3469  0.1618
 7306SOL    HW133380   4.210   3.016   8.559 -2.1551  0.5927 -1.1611
 7306SOL    HW233381   4.333   2.954   8.492  0.2730  1.6182 -2.0052
 7307SOL     OW33382   4.323   4.387   7.309 -0.6405 -0.4839  0.6705
 7307SOL    HW133383   4.281   4.374   7.394  0.4483 -1.2099  1.0847
 7307SOL    HW233384   4.286   4.468   7.274 -0.6753  0.7353  3.5428
 7308SOL     OW33385   2.686   0.789   2.594 -0.0699 -0.0466  0.3247
 7308SOL    HW133386   2.726   0.846   2.660 -2.6666  1.7753  0.3187
 7308SOL    HW233387   2.761   0.741   2.558 -0.6813 -3.4580  3.6378
 7309SOL     OW33388   1.164   4.442  13.524  0.1575 -0.1174 -0.0234
 7309SOL    HW133389   1.214   4.520  13.500 -1.7383  1.0351 -0.1973
 7309SOL    HW233390   1.072   4.465  13.517  0.5861  1.3619 -0.7670
 7310SOL     OW33391   2.113   0.987   3.997  0.2037 -0.7508  0.3347
 7310SOL    HW133392   2.137   0.906   3.952 -1.1738 -0.3162 -1.1467
 7310SOL    HW233393   2.022   1.008   3.977  0.5257  0.5488  0.2360
 7311SOL     OW33394   0.044   2.085   2.506 -0.6006 -0.3238  0.2781
 7311SOL    HW133395   4.694   2.120   2.458 -0.6737  0.7389  1.1567
 7311SOL    HW233396   4.719   2.031   2.568 -0.2516  0.8995  1.6377
 7312SOL     OW33397   3.217   3.303   0.085  0.2542  0.3319 -0.5079
 7312SOL    HW133398   3.128   3.331   0.061  0.9288  1.9155 -1.1226
 7312SOL    HW233399   3.196   3.323   0.176  0.8824 -1.0802 -0.0515
 7313SOL     OW33400   0.026   0.635  10.349 -0.2245  0.4068  0.1484
 7313SOL    HW133401   4.717   0.724  10.343 -0.3209  0.4974  2.2044
 7313SOL    HW233402   4.711   0.604  10.267  1.7386 -1.0389 -0.2587
 7314SOL     OW33403   3.988   1.215   6.396  0.1401 -0.2108 -0.5406
 7314SOL    HW133404   3.915   1.180   6.346  1.5089  0.1087 -2.7358
 7314SOL    HW233405   4.031   1.135   6.427 -1.1723 -1.2748 -1.4668
 7315SOL     OW33406   3.648   2.006   6.305 -0.3052  0.3545 -0.0126
 7315SOL    HW133407   3.573   1.963   6.264 -0.7346  0.0675  1.0786
 7315SOL    HW233408   3.645   1.969   6.394  0.2775  0.9173  0.2409
 7316SOL     OW33409   0.550   2.655   9.409  0.4056  0.0964  0.6481
 7316SOL    HW133410   0.586   2.568   9.427  0.5788  0.1103  0.3787
 7316SOL    HW233411   0.569   2.712   9.484 -0.3091  0.5563  0.4779
 7317SOL     OW33412   1.874   1.573   6.079 -0.2833 -0.2635 -0.8945
 7317SOL    HW133413   1.906   1.647   6.028 -0.6294  0.0443 -0.6636
 7317SOL    HW233414   1.784   1.602   6.090 -0.4375 -0.5457 -1.3709
 7318SOL     OW33415   2.516   0.325  12.568  0.3202  0.4967 -0.5520
 7318SOL    HW133416   2.526   0.376  12.649 -0.4333  0.7127 -0.5959
 7318SOL    HW233417   2.502   0.241  12.613  2.2928 -0.1066 -1.0324
 7319SOL     OW33418   2.177   2.739   5.083  0.1888 -0.0368 -0.3771
 7319SOL    HW133419   2.249   2.706   5.029  0.2004  0.2648 -0.5437
 7319SOL    HW233420   2.101   2.753   5.026 -0.3402 -0.3494  0.2564
 7320SOL     OW33421   2.114   0.881   7.263  0.2884  0.3690 -0.1500
 7320SOL    HW133422   2.105   0.882   7.168 -0.7846 -2.3164 -0.0531
 7320SOL    HW233423   2.204   0.851   7.273  0.1954  1.1657  3.0884
 7321SOL     OW33424   1.537   0.806   8.735 -0.0348 -0.9914  0.5703
 7321SOL    HW133425   1.511   0.748   8.807 -1.1626 -0.6057  0.4757
 7321SOL    HW233426   1.487   0.887   8.741  1.1375 -0.1679 -0.8024
 7322SOL     OW33427   2.087   1.259   3.729  0.1413 -0.4968  0.2578
 7322SOL    HW133428   2.065   1.185   3.671 -1.5887  1.5927 -1.7684
 7322SOL    HW233429   2.176   1.239   3.756  0.3668 -0.9442 -0.8084
 7323SOL     OW33430   3.497   2.491  13.208  0.7618 -0.0022  0.2214
 7323SOL    HW133431   3.546   2.561  13.165  0.5720  0.8140  1.3420
 7323SOL    HW233432   3.496   2.525  13.297  1.7099  0.5714  0.0213
 7324SOL     OW33433   3.440   3.299   0.888 -0.3254 -0.6774  0.0870
 7324SOL    HW133434   3.349   3.306   0.859 -0.9848 -0.1917  2.2119
 7324SOL    HW233435   3.423   3.254   0.971  1.2999  0.6875  1.1895
 7325SOL     OW33436   0.520   4.189  17.004  0.0436 -0.5180 -0.2424
 7325SOL    HW133437   0.583   4.182  17.076 -0.4279  0.1972  0.2430
 7325SOL    HW233438   0.562   4.268  16.970 -1.3637  0.9796  1.4982
 7326SOL     OW33439   0.919   3.309   1.100  0.0102  0.6881  0.5734
 7326SOL    HW133440   0.829   3.336   1.087  0.1528 -0.0203 -1.9288
 7326SOL    HW233441   0.910   3.232   1.156 -1.1733  0.9316  0.7089
 7327SOL     OW33442   0.402   1.895   8.142 -0.3498  0.1519 -0.5213
 7327SOL    HW133443   0.352   1.894   8.224  1.8443  1.7336  0.8446
 7327SOL    HW233444   0.467   1.959   8.169 -1.5616  1.4779 -0.7224
 7328SOL     OW33445   3.043   1.821  11.521  0.0274  0.0142 -0.8767
 7328SOL    HW133446   3.106   1.887  11.492 -0.4326  1.1529  0.6854
 7328SOL    HW233447   2.955   1.852  11.497 -0.6240 -0.0111  1.5026
 7329SOL     OW33448   3.350   2.383  15.754 -0.0779 -0.3371 -0.3769
 7329SOL    HW133449   3.303   2.460  15.785  0.4615  0.2361 -0.9892
 7329SOL    HW233450   3.393   2.420  15.677 -0.9890 -1.5840 -1.4882
 7330SOL     OW33451   2.887   1.215  14.943 -0.4918  0.4844  0.2489
 7330SOL    HW133452   2.920   1.203  14.854  2.8323  0.3014  1.5117
 7330SOL    HW233453   2.864   1.307  14.956 -1.3202  0.7170 -2.7924
 7331SOL     OW33454   2.095   3.728   6.879  0.0760  0.0400  0.2945
 7331SOL    HW133455   2.069   3.811   6.918  3.9475 -0.1829  3.3004
 7331SOL    HW233456   2.157   3.761   6.814 -0.5260 -1.6499 -1.1506
 7332SOL     OW33457   0.196   1.444   8.787 -0.2170 -0.6517 -0.5209
 7332SOL    HW133458   0.108   1.461   8.754  0.3171  0.1813 -1.5225
 7332SOL    HW233459   0.191   1.417   8.879 -1.6390 -1.2339 -0.7683
 7333SOL     OW33460   0.947   3.281   3.856  0.6439 -0.4020 -0.2071
 7333SOL    HW133461   0.904   3.359   3.891 -1.2865 -0.5270 -2.2931
 7333SOL    HW233462   0.960   3.223   3.932  1.4898  2.2611  1.6739
 7334SOL     OW33463   2.288   0.116   0.982  0.3709 -0.6566 -0.1538
 7334SOL    HW133464   2.342   0.037   0.985  1.4071  0.0378 -0.1785
 7334SOL    HW233465   2.212   0.081   0.936  0.2753 -1.1321  0.3656
 7335SOL     OW33466   2.546   3.577   5.863 -0.5608 -0.4473  0.2691
 7335SOL    HW133467   2.636   3.604   5.844 -0.5845  0.2816  1.1765
 7335SOL    HW233468   2.524   3.598   5.954  0.4477  1.0520  0.1727
 7336SOL     OW33469   1.607   0.521   4.854 -0.1550  0.1891  0.0883
 7336SOL    HW133470   1.697   0.506   4.826 -0.1475  2.6039 -1.2203
 7336SOL    HW233471   1.587   0.605   4.814  0.5776  0.0228 -0.6355
 7337SOL     OW33472   4.122   1.805   2.349 -0.0882 -0.5790 -0.0529
 7337SOL    HW133473   4.216   1.788   2.359  0.3619  0.7255 -1.9021
 7337SOL    HW233474   4.096   1.792   2.440  0.5433 -1.6469 -0.0316
 7338SOL     OW33475   0.851   0.728   5.174 -0.4067  0.1155  1.2640
 7338SOL    HW133476   0.781   0.785   5.206  0.3805  0.9316  1.5242
 7338SOL    HW233477   0.919   0.755   5.236 -0.4299 -0.3083  1.4803
 7339SOL     OW33478   4.459   1.607  15.513 -0.5362  0.2225  0.0011
 7339SOL    HW133479   4.456   1.649  15.427 -1.7499  0.4624  0.1590
 7339SOL    HW233480   4.368   1.576  15.517 -0.9387  0.9056 -4.0708
 7340SOL     OW33481   4.425   2.126  13.966 -0.0015 -0.2005 -0.0547
 7340SOL    HW133482   4.456   2.204  13.921  1.4852 -0.8897 -0.2058
 7340SOL    HW233483   4.351   2.103  13.910  0.7705 -0.3633 -0.9938
 7341SOL     OW33484   4.086   1.749  11.916  0.3346 -0.2818  0.1931
 7341SOL    HW133485   4.030   1.824  11.897  1.4309  0.4459 -0.0921
 7341SOL    HW233486   4.080   1.708  11.830  0.8594  1.6383 -0.7376
 7342SOL     OW33487   2.697   0.343   4.159  0.0881  0.3869 -0.0635
 7342SOL    HW133488   2.711   0.255   4.195  0.5474  0.0690 -1.0120
 7342SOL    HW233489   2.652   0.389   4.229  1.3546  0.4219  0.7201
 7343SOL     OW33490   0.588   0.059  13.205 -0.0618 -0.4597  0.3427
 7343SOL    HW133491   0.585   0.045  13.299  0.1332  0.3078  0.4637
 7343SOL    HW233492   0.494   0.068  13.191 -0.0113 -2.5720 -1.2438
 7344SOL     OW33493   4.133   3.339   5.392  0.2936  0.2543  0.3225
 7344SOL    HW133494   4.057   3.281   5.385  0.9204 -0.1518 -2.9062
 7344SOL    HW233495   4.098   3.411   5.445  1.0732  0.8428  0.0317
 7345SOL     OW33496   1.473   0.621   9.308  0.1153  0.4537 -0.6368
 7345SOL    HW133497   1.511   0.694   9.258  0.0908  0.9915  0.1290
 7345SOL    HW233498   1.500   0.640   9.398  1.3177 -1.5279 -0.6087
 7346SOL     OW33499   0.660   3.984   7.689  0.1184  0.1853 -0.7223
 7346SOL    HW133500   0.572   3.952   7.672  0.1257  0.1926 -0.7733
 7346SOL    HW233501   0.669   4.046   7.616 -0.4151 -0.5132 -1.3825
 7347SOL     OW33502   2.003   0.578  17.640  0.0794  0.2428 -0.0262
 7347SOL    HW133503   2.049   0.648  17.685  0.0446  0.2805 -0.0499
 7347SOL    HW233504   1.938   0.634  17.598 -0.2135 -0.7955 -0.9593
 7348SOL     OW33505   0.238   2.928  15.207 -0.1884  0.8472  0.0465
 7348SOL    HW133506   0.328   2.896  15.201  0.5360  2.5467  1.7350
 7348SOL    HW233507   0.184   2.850  15.204 -2.2494  2.3130 -0.9104
 7349SOL     OW33508   1.030   4.357   2.365  0.5369 -0.0922 -0.0994
 7349SOL    HW133509   1.015   4.263   2.354  0.6502 -0.2096  0.7047
 7349SOL    HW233510   0.941   4.392   2.364  0.0829 -1.2636  0.0946
 7350SOL     OW33511   0.159   3.230   1.709 -0.9851 -0.3039 -0.4754
 7350SOL    HW133512   0.071   3.267   1.702  0.1716  2.6753  0.6564
 7350SOL    HW233513   0.134   3.140   1.687  0.4572 -0.4470 -1.5269
 7351SOL     OW33514   2.323   0.674   7.488 -0.2562  0.2927  0.4205
 7351SOL    HW133515   2.347   0.674   7.396 -0.3293 -0.1009  0.4026
 7351SOL    HW233516   2.234   0.707   7.481 -0.5995 -0.9171 -0.6893
 7352SOL     OW33517   1.531   1.041   6.193 -0.1070  0.1099 -0.0912
 7352SOL    HW133518   1.437   1.022   6.183 -0.0902  0.8374 -1.7636
 7352SOL    HW233519   1.531   1.136   6.179  0.4481  0.3077  1.3258
 7353SOL     OW33520   1.377   4.485   3.945 -0.8846  0.2887 -0.0715
 7353SOL    HW133521   1.462   4.441   3.943 -0.5109  1.0159 -0.3822
 7353SOL    HW233522   1.366   4.467   4.038  0.6167 -0.5350 -0.0533
 7354SOL     OW33523   1.916   3.366   4.340  0.2792 -0.0050 -0.5795
 7354SOL    HW133524   1.988   3.417   4.303 -1.0233  3.3015  1.4670
 7354SOL    HW233525   1.958   3.320   4.413  2.2305  0.0037 -1.6731
 7355SOL     OW33526   0.535   4.624  13.962 -0.9779 -0.6376  0.4573
 7355SOL    HW133527   0.522   4.715  13.992  1.6045 -0.5615  1.3435
 7355SOL    HW233528   0.595   4.587  14.026 -1.5723 -1.5444  0.4876
 7356SOL     OW33529   3.970   1.354   7.203  0.0739  0.6553 -0.7738
 7356SOL    HW133530   3.942   1.369   7.112 -1.0385 -2.1485 -0.9012
 7356SOL    HW233531   3.916   1.276   7.214 -1.0914  1.3927 -1.2059
 7357SOL     OW33532   1.277   4.169   0.429  0.1822 -0.2701 -0.2517
 7357SOL    HW133533   1.358   4.188   0.476  0.2478 -1.7258  0.2441
 7357SOL    HW233534   1.241   4.257   0.418  0.4567 -0.0376  0.6345
 7358SOL     OW33535   4.325   2.019   8.530  0.7621 -0.0950  0.0037
 7358SOL    HW133536   4.390   1.976   8.474 -0.6926  1.4593 -2.9393
 7358SOL    HW233537   4.264   1.956   8.568  1.0991  0.9225  2.1789
 7359SOL     OW33538   2.337   1.961   6.424  0.4120  0.2288  0.1258
 7359SOL    HW133539   2.285   2.034   6.457 -0.1625  0.8119 -2.0593
 7359SOL    HW233540   2.278   1.888   6.443 -1.0451  0.9610 -1.5712
 7360SOL     OW33541   0.099   3.615   5.688 -0.0085  0.1025  0.3064
 7360SOL    HW133542   0.108   3.521   5.705 -1.1782  0.1695  1.1913
 7360SOL    HW233543   0.010   3.627   5.657 -0.4892  0.8678  2.0468
 7361SOL     OW33544   3.481   0.971  12.077 -0.2135  0.3683  0.3960
 7361SOL    HW133545   3.563   1.022  12.069  0.2363 -0.3166  0.6476
 7361SOL    HW233546   3.516   0.890  12.040  1.3911  2.0735 -1.8449
 7362SOL     OW33547   2.328   4.435   4.680  0.3474  0.4939 -0.0280
 7362SOL    HW133548   2.279   4.505   4.723 -1.0720  0.4364 -1.5694
 7362SOL    HW233549   2.290   4.453   4.594 -0.1778 -1.7649 -0.2715
 7363SOL     OW33550   2.862   4.379   9.517 -0.3721 -0.3822  0.0390
 7363SOL    HW133551   2.862   4.474   9.503  3.2185 -0.5928 -1.5755
 7363SOL    HW233552   2.814   4.365   9.599  0.1023 -1.1503  0.1828
 7364SOL     OW33553   1.421   2.146   5.501 -0.1397  0.0572 -0.0751
 7364SOL    HW133554   1.457   2.226   5.540 -1.1484  0.6475 -0.3325
 7364SOL    HW233555   1.355   2.189   5.445  1.3476  0.3714 -1.5661
 7365SOL     OW33556   2.106   0.483   5.749 -0.2459 -0.0315 -0.1284
 7365SOL    HW133557   2.121   0.391   5.724 -1.9702  0.0385 -1.3662
 7365SOL    HW233558   2.193   0.523   5.751  0.6464 -1.7910 -3.2632
 7366SOL     OW33559   3.469   0.493   2.885  0.2358  0.0619  0.2096
 7366SOL    HW133560   3.551   0.470   2.842 -0.9136 -3.1482 -0.3300
 7366SOL    HW233561   3.420   0.425   2.838 -0.1596  1.3512 -1.2353
 7367SOL     OW33562   0.501   0.803   3.781  0.1816 -0.4262  0.0238
 7367SOL    HW133563   0.521   0.778   3.871  0.0109  1.4779  0.5907
 7367SOL    HW233564   0.407   0.784   3.778  0.2330 -0.5663 -0.8870
 7368SOL     OW33565   3.147   1.351   4.276  0.3135 -0.3501 -0.2975
 7368SOL    HW133566   3.164   1.440   4.309  0.9019 -0.2612 -0.8294
 7368SOL    HW233567   3.099   1.307   4.346  1.6078 -0.6698  0.4052
 7369SOL     OW33568   1.595   1.095  10.786  0.3268 -0.4111  0.7786
 7369SOL    HW133569   1.619   1.019  10.733 -1.8375  0.9770 -2.2191
 7369SOL    HW233570   1.640   1.159  10.730 -1.3280 -1.0275 -1.2651
 7370SOL     OW33571   1.891   3.186   1.019 -0.2754  0.3759  0.0432
 7370SOL    HW133572   1.870   3.236   1.098  1.2303  0.7267  0.2127
 7370SOL    HW233573   1.961   3.245   0.992 -2.1764  2.1808 -1.0176
 7371SOL     OW33574   1.824   2.917   2.831  0.0166  0.0522 -0.1278
 7371SOL    HW133575   1.822   2.938   2.738  1.9204  0.2724 -0.1154
 7371SOL    HW233576   1.820   2.822   2.825  0.8103  0.0974 -1.4565
 7372SOL     OW33577   2.277   3.916   7.408  0.2283  0.1654  0.0154
 7372SOL    HW133578   2.281   4.011   7.400 -1.5824  0.2382 -0.0211
 7372SOL    HW233579   2.281   3.891   7.315 -2.4097  0.0699 -0.0636
 7373SOL     OW33580   1.943   0.829  14.285 -0.1768 -0.3301 -0.2761
 7373SOL    HW133581   1.931   0.901  14.347  0.5926  0.8128 -1.4549
 7373SOL    HW233582   1.970   0.754  14.338 -0.1238  0.4519  0.8146
 7374SOL     OW33583   3.471   1.391  15.851  0.2016 -0.9556 -0.1370
 7374SOL    HW133584   3.560   1.386  15.816  0.3843  0.7006  0.1072
 7374SOL    HW233585   3.432   1.474  15.824  1.8306  0.1540  0.8971
 7375SOL     OW33586   4.631   2.159  11.898 -0.1744 -0.2355 -0.0351
 7375SOL    HW133587   4.547   2.203  11.888  0.2997 -0.0198 -2.9567
 7375SOL    HW233588   4.645   2.155  11.993  0.6086 -0.6950 -0.1639
 7376SOL     OW33589   1.706   3.770  11.165 -0.1014  0.7411  0.3095
 7376SOL    HW133590   1.722   3.696  11.106 -0.7589  1.5828 -0.9394
 7376SOL    HW233591   1.649   3.738  11.234 -0.8813  0.2182 -0.5791
 7377SOL     OW33592   4.330   4.708   7.573 -0.2169  0.5043  0.2555
 7377SOL    HW133593   4.283   4.631   7.604  0.4134  0.5594  1.3649
 7377SOL    HW233594   4.273   4.713   7.496 -0.3778 -0.5340  0.3066
 7378SOL     OW33595   1.997   3.731  13.075  0.2581 -0.0608  0.4194
 7378SOL    HW133596   2.027   3.820  13.090  0.9672  0.1560 -2.2415
 7378SOL    HW233597   1.929   3.746  13.009 -0.8362  1.6633  1.9349
 7379SOL     OW33598   2.382   0.604   1.084  0.3950 -0.4676  0.3578
 7379SOL    HW133599   2.383   0.672   1.151  0.9949 -0.4793  0.3608
 7379SOL    HW233600   2.445   0.645   1.025  0.7356 -2.3226 -0.5826
 7380SOL     OW33601   3.628   0.733   7.046  0.7632 -0.0235  0.5386
 7380SOL    HW133602   3.580   0.650   7.047  0.3768  0.1956  0.3464
 7380SOL    HW233603   3.561   0.797   7.069  1.4369  1.4109 -1.4510
 7381SOL     OW33604   0.316   4.351   6.257 -0.0311  0.6443 -0.1904
 7381SOL    HW133605   0.403   4.329   6.223 -0.7077 -0.6042 -1.1358
 7381SOL    HW233606   0.258   4.326   6.185  0.3364 -0.9072  0.0574
 7382SOL     OW33607   1.210   0.816   5.766 -0.1538  0.0906 -0.5494
 7382SOL    HW133608   1.117   0.795   5.765 -0.1737  0.1722 -0.4289
 7382SOL    HW233609   1.220   0.840   5.674  0.7305 -2.2278 -1.0504
 7383SOL     OW33610   0.177   3.853   8.251 -0.3367 -0.5602 -0.0449
 7383SOL    HW133611   0.150   3.944   8.267  1.5816 -0.5155  3.0282
 7383SOL    HW233612   0.159   3.821   8.340 -1.2976 -0.7517 -0.3123
 7384SOL     OW33613   4.221   1.422   8.130  0.0460  0.2553  0.5537
 7384SOL    HW133614   4.166   1.360   8.177  0.0670 -0.1781  0.0146
 7384SOL    HW233615   4.245   1.357   8.063  0.3072 -0.1310  1.0215
 7385SOL     OW33616   4.133   3.443  14.292 -0.0305  0.7706  0.6317
 7385SOL    HW133617   4.179   3.468  14.211 -1.9239  1.1951 -0.3271
 7385SOL    HW233618   4.155   3.517  14.348  1.1115  1.5793 -0.8901
 7386SOL     OW33619   4.098   2.496  15.765  0.2536 -0.4929  0.3280
 7386SOL    HW133620   4.113   2.588  15.790 -0.5408 -0.2365 -0.1360
 7386SOL    HW233621   4.117   2.507  15.671 -1.1139  0.4692  0.1700
 7387SOL     OW33622   1.828   1.527   6.938 -0.0324 -0.1637  0.1563
 7387SOL    HW133623   1.750   1.545   6.992 -0.0469  0.9964 -0.2649
 7387SOL    HW233624   1.891   1.527   7.010  2.0788  1.0391 -1.6923
 7388SOL     OW33625   3.757   0.180   4.273  0.0584 -0.1110 -0.8903
 7388SOL    HW133626   3.676   0.136   4.245 -1.1696  0.6093  1.5209
 7388SOL    HW233627   3.800   0.127   4.340 -4.8350  0.1147  2.4763
 7389SOL     OW33628   3.607   1.535  17.363  0.3644 -0.2980 -0.0380
 7389SOL    HW133629   3.647   1.465  17.310 -0.2972 -1.4904  1.0323
 7389SOL    HW233630   3.671   1.552  17.431 -0.5757 -0.4980  0.9004
 7390SOL     OW33631   1.129   2.291   2.370 -0.2303 -0.0873 -0.3418
 7390SOL    HW133632   1.050   2.326   2.329 -0.6460  0.1555  0.6665
 7390SOL    HW233633   1.178   2.370   2.347  0.3988  0.0834  1.6396
 7391SOL     OW33634   2.800   0.468   8.857  0.5232 -0.6655 -0.4887
 7391SOL    HW133635   2.876   0.505   8.902 -0.4599 -1.6031  1.9559
 7391SOL    HW233636   2.807   0.375   8.880  0.0510 -0.3974  0.7451
 7392SOL     OW33637   2.221   0.201   5.482 -0.3033 -0.7064 -0.2289
 7392SOL    HW133638   2.184   0.178   5.567  0.9080  1.2867  0.8256
 7392SOL    HW233639   2.145   0.250   5.449 -0.3301 -0.0019  0.8665
 7393SOL     OW33640   0.121   4.669   3.732 -0.0961  0.1091  0.3403
 7393SOL    HW133641   0.116   4.588   3.682  1.2683  1.0549 -1.3406
 7393SOL    HW233642   0.039   4.716   3.717 -0.1934  0.3665  1.6512
 7394SOL     OW33643   4.278   3.996  10.849  0.3716 -0.4342 -0.3983
 7394SOL    HW133644   4.186   3.980  10.869  0.4874  0.6623  1.0129
 7394SOL    HW233645   4.318   3.918  10.888 -1.3445  0.0131  2.2230
 7395SOL     OW33646   0.598   3.624   8.907 -0.2001  0.7063  0.0908
 7395SOL    HW133647   0.559   3.711   8.899  0.2528  0.7879 -1.1375
 7395SOL    HW233648   0.686   3.643   8.941 -0.0605 -0.8862  0.6432
 7396SOL     OW33649   0.015   0.235   8.635  0.0042  0.2371 -0.2988
 7396SOL    HW133650   4.702   0.270   8.716 -0.9419 -3.6309  0.9459
 7396SOL    HW233651   0.098   0.283   8.627  0.3843 -0.4216 -0.3206
 7397SOL     OW33652   0.859   0.537   7.270  0.0563  0.3466  0.4986
 7397SOL    HW133653   0.876   0.511   7.179 -3.1825 -1.8155  0.4823
 7397SOL    HW233654   0.916   0.612   7.287  0.1178  0.1049  1.3593
 7398SOL     OW33655   0.717   3.491   6.606 -0.5868  0.3147  0.0249
 7398SOL    HW133656   0.797   3.442   6.627 -3.1672 -2.7733  2.7880
 7398SOL    HW233657   0.719   3.565   6.667  2.5583  0.0517  0.2080
 7399SOL     OW33658   0.816   0.713   6.885  0.0051 -0.1812 -0.0165
 7399SOL    HW133659   0.848   0.636   6.931 -0.6557 -1.4139 -1.6241
 7399SOL    HW233660   0.903   0.738   6.854 -0.6740  0.4928 -1.3608
 7400SOL     OW33661   1.616   2.826   3.072 -0.0974  0.0076 -0.0100
 7400SOL    HW133662   1.550   2.794   3.011  0.3510 -0.9701  0.0223
 7400SOL    HW233663   1.686   2.762   3.063  1.8684  2.2766 -0.8776
 7401SOL     OW33664   2.972   3.609   8.741 -0.1907  0.0094  0.2730
 7401SOL    HW133665   3.009   3.521   8.743 -1.7279 -0.5778  2.4177
 7401SOL    HW233666   2.911   3.619   8.814 -0.0736  0.1922  0.3467
 7402SOL     OW33667   0.202   0.885   3.199 -0.3414  0.4443  0.1472
 7402SOL    HW133668   0.296   0.892   3.216 -0.5798 -1.1510  2.0678
 7402SOL    HW233669   0.207   0.827   3.123 -2.7554  0.9125 -0.3799
 7403SOL     OW33670   2.341   3.738   5.397  0.1676 -0.2474 -0.8844
 7403SOL    HW133671   2.358   3.656   5.444 -3.3983  1.0294  2.5777
 7403SOL    HW233672   2.428   3.777   5.409  0.6746 -0.9643 -2.2709
 7404SOL     OW33673   3.511   3.266   6.960  0.3171  0.2243 -0.4742
 7404SOL    HW133674   3.456   3.335   6.922 -0.2427 -1.4110 -2.5938
 7404SOL    HW233675   3.446   3.196   6.951 -0.6531  1.3171 -2.0270
 7405SOL     OW33676   1.181   3.349   6.875  0.2257  0.2912 -0.0810
 7405SOL    HW133677   1.244   3.345   6.803 -0.6675  3.9315 -1.0860
 7405SOL    HW233678   1.200   3.272   6.928 -0.4668 -0.7943 -1.4087
 7406SOL     OW33679   2.255   3.396   7.961 -0.0804 -0.0517 -0.4491
 7406SOL    HW133680   2.269   3.442   7.878 -0.4261  0.5456 -0.1820
 7406SOL    HW233681   2.279   3.457   8.030 -1.7780 -0.8868  0.8833
 7407SOL     OW33682   2.641   1.637   7.844 -0.5151 -0.4102 -0.7535
 7407SOL    HW133683   2.683   1.603   7.766  0.8055  1.8395 -0.9953
 7407SOL    HW233684   2.690   1.711   7.878 -3.1289  1.5195 -1.1970
 7408SOL     OW33685   1.082   2.036   2.282  0.7879 -0.1238 -0.5436
 7408SOL    HW133686   1.110   2.084   2.204  1.2885  1.6590  0.7534
 7408SOL    HW233687   1.134   2.082   2.348  0.9829  1.5618 -1.8605
 7409SOL     OW33688   1.009   2.546   7.251  1.1315 -0.2680  0.3631
 7409SOL    HW133689   1.082   2.603   7.273  1.0850 -0.3062  0.6160
 7409SOL    HW233690   1.046   2.465   7.217  0.0739 -0.7571  0.3525
 7410SOL     OW33691   4.475   0.633  15.720  0.2014 -0.9103 -0.5655
 7410SOL    HW133692   4.533   0.586  15.661 -0.2240  0.7316 -2.2938
 7410SOL    HW233693   4.484   0.726  15.699 -1.5624 -0.9573 -1.5329
 7411SOL     OW33694   2.654   2.396   2.050  0.4160 -0.5128  0.3598
 7411SOL    HW133695   2.680   2.323   1.993  1.7739 -0.0204  0.3465
 7411SOL    HW233696   2.621   2.461   1.988 -0.1525 -0.8692  0.2861
 7412SOL     OW33697   3.073   2.132   2.703 -0.5623 -0.2071 -0.1901
 7412SOL    HW133698   3.025   2.180   2.770 -0.5174  0.9321 -0.9663
 7412SOL    HW233699   3.020   2.150   2.625 -1.4492 -2.1291 -0.0305
 7413SOL     OW33700   3.614   1.290   4.422  0.0341 -0.0200  0.1781
 7413SOL    HW133701   3.643   1.254   4.338 -0.1873  0.2125  0.0001
 7413SOL    HW233702   3.581   1.374   4.389  0.9369  0.9024  1.6031
 7414SOL     OW33703   0.982   4.457  13.062 -0.6159  0.4896 -0.0166
 7414SOL    HW133704   1.003   4.550  13.063  0.1756  0.2916  1.0807
 7414SOL    HW233705   0.968   4.453  12.967 -1.2447  1.3351  0.0407
 7415SOL     OW33706   2.520   3.511  13.573  0.2647 -0.1504  0.1912
 7415SOL    HW133707   2.592   3.574  13.567 -1.7228  1.9450 -1.6329
 7415SOL    HW233708   2.492   3.508  13.482 -2.2962 -0.5647  1.0052
 7416SOL     OW33709   4.218   3.656   9.075  0.5361  0.4437  0.4989
 7416SOL    HW133710   4.312   3.661   9.058  0.8770 -3.0363  1.3589
 7416SOL    HW233711   4.212   3.627   9.166  1.7786 -0.1128  0.3929
 7417SOL     OW33712   1.452   0.496  16.029  0.9558  0.0614  0.5363
 7417SOL    HW133713   1.371   0.542  16.051  0.8039  0.2353 -0.3658
 7417SOL    HW233714   1.437   0.490  15.934 -1.2364  0.4477  0.8630
 7418SOL     OW33715   3.255   4.539  11.890 -0.1614 -0.0457  0.6780
 7418SOL    HW133716   3.247   4.579  11.977  0.6251 -1.0938  1.2312
 7418SOL    HW233717   3.344   4.554  11.860 -0.2837 -0.4771  0.1004
 7419SOL     OW33718   3.106   2.246  16.554 -0.5350  0.5074 -0.3314
 7419SOL    HW133719   3.041   2.180  16.530 -0.9526  0.7308  0.1963
 7419SOL    HW233720   3.110   2.236  16.649  2.0053 -2.3302 -0.7225
 7420SOL     OW33721   3.927   1.713   5.278  0.1559 -0.4177 -0.3493
 7420SOL    HW133722   3.979   1.772   5.332  1.7337 -0.1993 -2.0947
 7420SOL    HW233723   3.869   1.782   5.245  0.0282 -0.2665  0.1918
 7421SOL     OW33724   4.376   1.926   4.580  0.2203 -0.1492 -0.2064
 7421SOL    HW133725   4.470   1.908   4.583  0.6467  2.3496  1.4303
 7421SOL    HW233726   4.357   1.925   4.486  2.8917  1.2848 -0.7616
 7422SOL     OW33727   4.488   1.550   7.153 -0.4053 -0.1329  0.6366
 7422SOL    HW133728   4.521   1.634   7.188 -4.6651  1.3634  1.0162
 7422SOL    HW233729   4.402   1.570   7.118 -1.5576 -1.3702  2.7502
 7423SOL     OW33730   3.449   3.361   7.338  0.6785  0.1697  0.5944
 7423SOL    HW133731   3.501   3.325   7.267 -1.9003 -0.2269 -1.1003
 7423SOL    HW233732   3.363   3.367   7.295  1.0991 -0.2831 -0.3139
 7424SOL     OW33733   3.865   1.472  13.621 -0.9920 -0.5595 -0.4721
 7424SOL    HW133734   3.825   1.527  13.554 -0.0746 -0.1088 -0.6432
 7424SOL    HW233735   3.884   1.392  13.571 -0.8618 -1.1977  0.6064
 7425SOL     OW33736   4.065   2.488  10.272 -0.1847 -0.1728 -0.4278
 7425SOL    HW133737   4.119   2.431  10.217 -0.0288 -2.6030  2.2762
 7425SOL    HW233738   3.982   2.442  10.264 -1.1759  1.6565 -0.7762
 7426SOL     OW33739   3.593   3.451   3.474  0.4884  0.5596  0.2738
 7426SOL    HW133740   3.666   3.396   3.503  0.1961 -1.1760 -2.2805
 7426SOL    HW233741   3.637   3.535   3.461  0.1303  0.4823 -1.4746
 7427SOL     OW33742   1.765   4.249   9.304 -0.6179 -0.5462 -0.0971
 7427SOL    HW133743   1.689   4.244   9.247  0.7617 -1.6179 -1.8493
 7427SOL    HW233744   1.806   4.335   9.287  0.0043 -0.6882  0.6930
 7428SOL     OW33745   1.362   2.296   4.517 -0.0722 -0.0178  0.2125
 7428SOL    HW133746   1.331   2.278   4.428 -0.6862 -0.0534  0.4288
 7428SOL    HW233747   1.324   2.382   4.535 -0.5641 -0.4118  1.0651
 7429SOL     OW33748   0.333   0.737   5.261 -0.4870  0.0183 -0.0584
 7429SOL    HW133749   0.276   0.791   5.316  0.8430  0.7363  0.6290
 7429SOL    HW233750   0.280   0.658   5.248 -0.1811 -0.1012 -0.5579
 7430SOL     OW33751   1.800   0.627   1.992  0.3583  0.5304 -0.6808
 7430SOL    HW133752   1.753   0.556   2.037  0.3755  0.6667 -0.4475
 7430SOL    HW233753   1.826   0.683   2.065 -0.1295 -1.4510  1.0106
 7431SOL     OW33754   3.437   0.026   5.789  0.5308  0.2102  0.7963
 7431SOL    HW133755   3.511   0.073   5.752  1.0670  0.1550  1.8081
 7431SOL    HW233756   3.451   0.005   5.881  3.2707 -0.0300  0.3188
 7432SOL     OW33757   1.415   1.738   4.666 -0.0865 -0.0749 -0.7398
 7432SOL    HW133758   1.325   1.706   4.656 -0.6232  0.9680  0.6978
 7432SOL    HW233759   1.467   1.662   4.638  2.6901  0.6109  2.5621
 7433SOL     OW33760   3.028   0.544  11.395  0.3264 -0.1405  0.1179
 7433SOL    HW133761   2.963   0.602  11.357  0.7894  1.6769  2.1330
 7433SOL    HW233762   3.031   0.586  11.481 -1.4874  1.5692 -0.6748
 7434SOL     OW33763   4.049   3.380   2.415 -0.1828 -0.4183  0.4859
 7434SOL    HW133764   3.968   3.359   2.461 -0.1122 -0.6711  0.4916
 7434SOL    HW233765   4.041   3.305   2.356 -2.5543 -0.2751  0.6284
 7435SOL     OW33766   2.997   0.475   9.600 -0.3346  0.2658 -0.7338
 7435SOL    HW133767   3.066   0.485   9.535 -0.7068 -0.7719 -1.2917
 7435SOL    HW233768   3.040   0.501   9.682  0.6929 -1.2632 -0.7766
 7436SOL     OW33769   3.045   0.150  11.259 -0.1023 -0.4573  0.0837
 7436SOL    HW133770   2.988   0.085  11.300 -0.6544  2.1262  3.3834
 7436SOL    HW233771   3.035   0.123  11.168  0.9900 -1.3702  0.2284
 7437SOL     OW33772   3.920   2.541   5.054 -0.3368 -0.1752 -0.6235
 7437SOL    HW133773   3.837   2.505   5.021 -1.4874  3.2680 -1.5024
 7437SOL    HW233774   3.978   2.513   4.983 -0.7937 -0.5414 -0.8521
 7438SOL     OW33775   4.420   2.195   6.005  0.1608  0.1438 -0.7877
 7438SOL    HW133776   4.370   2.276   6.020 -1.4473 -1.0253  0.1101
 7438SOL    HW233777   4.506   2.237   6.011 -1.5044  3.1047  2.9548
 7439SOL     OW33778   1.664   4.700   7.499  0.0658  0.0723 -0.3588
 7439SOL    HW133779   1.699   4.621   7.540  1.7949  0.7531 -0.5352
 7439SOL    HW233780   1.578   4.709   7.542 -0.3835  0.3693 -1.3117
 7440SOL     OW33781   4.397   1.303  16.241  0.3111  0.3118  0.2839
 7440SOL    HW133782   4.396   1.313  16.146  2.4053 -4.3316 -0.2663
 7440SOL    HW233783   4.468   1.364  16.262  0.4891  0.4501 -0.7262
 7441SOL     OW33784   4.316   4.587  13.467  0.4097 -0.1478  0.1946
 7441SOL    HW133785   4.252   4.654  13.442 -0.4137 -0.1414  2.3821
 7441SOL    HW233786   4.398   4.637  13.473 -0.5620  1.6370 -1.0829
 7442SOL     OW33787   0.321   3.566   3.601  0.0872 -0.0545  0.5286
 7442SOL    HW133788   0.365   3.495   3.554 -1.1167  0.4660 -1.4006
 7442SOL    HW233789   0.283   3.622   3.533 -1.4557 -1.3044  0.3704
 7443SOL     OW33790   2.419   3.290   7.738 -0.4210  0.4214 -0.6663
 7443SOL    HW133791   2.509   3.263   7.721 -0.3544  0.4764 -0.4099
 7443SOL    HW233792   2.430   3.384   7.730 -0.4867  0.5260  0.4000
 7444SOL     OW33793   3.636   0.856  10.295 -0.0467  0.0396 -0.2551
 7444SOL    HW133794   3.547   0.845  10.261  0.3709 -1.9679 -0.6726
 7444SOL    HW233795   3.672   0.908  10.222  2.1313  0.7436  1.3300
 7445SOL     OW33796   1.610   0.290  16.120 -0.1444  0.1050  0.1019
 7445SOL    HW133797   1.558   0.363  16.084  0.8505  0.3851 -0.7562
 7445SOL    HW233798   1.556   0.219  16.085  1.4758 -0.5980 -0.9418
 7446SOL     OW33799   2.672   3.957   8.038 -0.3111 -0.2575 -0.2077
 7446SOL    HW133800   2.719   3.883   7.999 -0.2402 -1.1567  1.6167
 7446SOL    HW233801   2.664   4.017   7.963  1.2590 -1.3853 -1.2856
 7447SOL     OW33802   2.237   4.502   2.216  0.4600  0.1207 -0.3176
 7447SOL    HW133803   2.214   4.410   2.235 -0.6012  0.4487  0.0069
 7447SOL    HW233804   2.166   4.558   2.247 -0.7299 -1.1071 -0.7771
 7448SOL     OW33805   3.543   0.868   6.688  0.2508  0.3872 -0.2148
 7448SOL    HW133806   3.489   0.898   6.761  0.3301  0.3279 -0.1307
 7448SOL    HW233807   3.633   0.878   6.718  0.1471  1.4254 -0.2493
 7449SOL     OW33808   0.429   1.054   6.694  0.0627  0.5192 -0.1679
 7449SOL    HW133809   0.364   1.102   6.746 -0.7119  1.2470 -1.7863
 7449SOL    HW233810   0.415   0.965   6.724  0.5334  1.2052  2.0735
 7450SOL     OW33811   0.703   1.602  11.088  0.3894  0.2893  0.0229
 7450SOL    HW133812   0.611   1.627  11.095  0.7369  1.3014  1.0865
 7450SOL    HW233813   0.738   1.689  11.107  1.0763  0.0596 -0.1909
 7451SOL     OW33814   1.808   1.066   2.151  0.1021 -0.4330  0.4566
 7451SOL    HW133815   1.861   1.139   2.118  1.0067 -1.5005 -0.4880
 7451SOL    HW233816   1.803   1.076   2.246 -0.4157 -0.3933  0.4243
 7452SOL     OW33817   4.433   3.667   7.804  0.3790 -0.2300 -0.2665
 7452SOL    HW133818   4.425   3.573   7.788 -0.5924 -0.1323 -0.3747
 7452SOL    HW233819   4.403   3.704   7.722 -2.9051 -0.2656  0.9100
 7453SOL     OW33820   2.797   4.539  11.042  0.2921 -0.3824 -0.4990
 7453SOL    HW133821   2.809   4.614  10.984  1.7762 -0.4240 -0.2323
 7453SOL    HW233822   2.860   4.475  11.009  1.1255  0.7149 -1.0173
 7454SOL     OW33823   4.143   0.478   2.418  0.3842  0.3903 -0.0134
 7454SOL    HW133824   4.179   0.389   2.414 -0.9342 -0.1209 -0.6241
 7454SOL    HW233825   4.105   0.479   2.330  0.5456 -0.1203 -0.0896
 7455SOL     OW33826   1.188   2.218   4.277 -0.2053 -0.0780 -0.1957
 7455SOL    HW133827   1.206   2.135   4.231  0.4402 -0.8048  1.3594
 7455SOL    HW233828   1.144   2.266   4.207 -0.2161  0.7256  0.3662
 7456SOL     OW33829   3.600   0.460  10.132  0.0436  0.6028  0.0842
 7456SOL    HW133830   3.592   0.431  10.223 -1.8752  1.6601  0.2370
 7456SOL    HW233831   3.696   0.466  10.130  0.0566  0.5292  0.4361
 7457SOL     OW33832   2.541   4.336  12.608 -0.3157  0.2272 -0.3510
 7457SOL    HW133833   2.607   4.348  12.677 -0.8608  3.4488 -0.4071
 7457SOL    HW233834   2.572   4.269  12.547  1.2644  0.0608  0.6239
 7458SOL     OW33835   2.886   1.865  14.921  0.0180  0.2043 -0.1865
 7458SOL    HW133836   2.955   1.891  14.982  0.5581 -0.1773 -0.6393
 7458SOL    HW233837   2.872   1.773  14.943  0.3928  0.1884 -0.0209
 7459SOL     OW33838   1.542   4.347   6.630 -0.1153  0.1941  0.1150
 7459SOL    HW133839   1.539   4.332   6.536 -0.9129 -0.8933  0.3055
 7459SOL    HW233840   1.462   4.295   6.647 -1.4136  2.0663 -0.2961
 7460SOL     OW33841   2.565   3.567   6.156 -0.7605  0.8918  0.2605
 7460SOL    HW133842   2.619   3.612   6.221  2.3123  0.7937 -2.2620
 7460SOL    HW233843   2.539   3.491   6.208 -1.7309  2.1363  1.5861
 7461SOL     OW33844   3.675   4.653   3.253 -0.6703 -0.4744  0.1464
 7461SOL    HW133845   3.758   4.612   3.228 -0.1784  0.9622 -0.5615
 7461SOL    HW233846   3.638   4.688   3.172  1.2178  1.6579  0.2201
 7462SOL     OW33847   2.742   0.570  16.089 -0.0562 -0.4053 -0.3522
 7462SOL    HW133848   2.681   0.643  16.078 -1.0602 -1.0085  1.2999
 7462SOL    HW233849   2.818   0.628  16.100 -0.7860  0.4126  0.3942
 7463SOL     OW33850   1.781   0.880   5.466  0.1780 -0.4783  0.3799
 7463SOL    HW133851   1.834   0.821   5.412  2.7153  1.8903  0.2321
 7463SOL    HW233852   1.850   0.890   5.531  1.8728  0.9367 -1.6167
 7464SOL     OW33853   3.274   3.519   5.779  0.1794  0.0547 -0.1908
 7464SOL    HW133854   3.226   3.545   5.858 -0.1832  1.3059 -0.8198
 7464SOL    HW233855   3.323   3.599   5.760 -0.2624 -0.3735 -3.0817
 7465SOL     OW33856   1.920   1.835   9.118 -0.5757  0.1039  0.4352
 7465SOL    HW133857   1.953   1.897   9.053 -2.0264  0.1335 -0.2787
 7465SOL    HW233858   1.885   1.758   9.072  1.0103  0.3894 -1.2606
 7466SOL     OW33859   1.608   2.303   9.021 -0.0963 -0.3232 -0.3621
 7466SOL    HW133860   1.524   2.346   9.038  0.1497  1.0547 -2.4853
 7466SOL    HW233861   1.644   2.296   9.109  3.8188 -0.5706 -1.9827
 7467SOL     OW33862   2.082   0.720   6.163 -0.1987 -0.0750 -0.0187
 7467SOL    HW133863   2.058   0.629   6.181 -2.8569  0.6311  0.0775
 7467SOL    HW233864   2.136   0.752   6.235  0.9968 -0.5015 -0.7315
 7468SOL     OW33865   2.387   3.799  17.377  0.7644  0.7216  0.3993
 7468SOL    HW133866   2.447   3.728  17.397 -0.0789  0.4447  1.8683
 7468SOL    HW233867   2.448   3.858  17.332  0.5676  1.6688  1.3841
 7469SOL     OW33868   0.333   4.175   8.110  0.4657 -0.4379  0.5671
 7469SOL    HW133869   0.333   4.127   8.027  1.4986  2.6966 -1.2364
 7469SOL    HW233870   0.407   4.234   8.095  1.1020 -1.1349  0.9721
 7470SOL     OW33871   0.341   0.177   5.634 -0.1413  0.5653  0.5295
 7470SOL    HW133872   0.349   0.095   5.683  1.5654  1.1926  1.2887
 7470SOL    HW233873   0.338   0.252   5.693  3.1904  2.2681 -1.4572
 7471SOL     OW33874   1.549   2.537   2.448 -0.6598 -0.5505 -0.4058
 7471SOL    HW133875   1.628   2.493   2.416  0.7499  0.8624  1.0886
 7471SOL    HW233876   1.579   2.618   2.490  1.0154 -0.9004 -0.9063
 7472SOL     OW33877   0.699   0.562   8.826  0.3098  0.9932  0.1099
 7472SOL    HW133878   0.739   0.585   8.910  2.2642  1.1524 -0.8808
 7472SOL    HW233879   0.768   0.523   8.772 -1.2912  0.5869 -1.6690
 7473SOL     OW33880   4.597   0.000   8.167 -0.0803 -0.0753 -0.3844
 7473SOL    HW133881   4.571   4.720   8.258 -3.2648  0.7644 -1.2667
 7473SOL    HW233882   4.523   4.697   8.113  0.9034  0.7083 -2.1720
 7474SOL     OW33883   3.024   2.171   6.557 -0.0342 -0.3534  0.2154
 7474SOL    HW133884   2.973   2.147   6.480  0.6602 -0.6371 -0.1538
 7474SOL    HW233885   3.087   2.098   6.557  0.3697 -0.0012 -1.5555
 7475SOL     OW33886   2.151   2.164   8.183 -0.2450 -0.0350 -0.5451
 7475SOL    HW133887   2.060   2.183   8.204 -0.4423 -1.5560 -0.0522
 7475SOL    HW233888   2.153   2.215   8.102 -0.0029  1.3196  0.3095
 7476SOL     OW33889   4.664   2.045   3.391  0.1336 -0.1522 -0.0438
 7476SOL    HW133890   4.672   2.027   3.485 -0.2433 -1.0485 -0.1770
 7476SOL    HW233891   0.031   2.062   3.371  0.1182 -0.8183 -0.6991
 7477SOL     OW33892   0.876   0.439   8.643 -0.0050  0.5439  0.0160
 7477SOL    HW133893   0.922   0.511   8.600  3.0375 -0.9038  0.8812
 7477SOL    HW233894   0.945   0.374   8.631 -0.6913  0.0188 -1.1888
 7478SOL     OW33895   2.746   1.966  16.147  0.7068  0.1205 -0.3102
 7478SOL    HW133896   2.745   1.898  16.080 -2.2689 -2.2178  2.1124
 7478SOL    HW233897   2.828   1.940  16.189  0.8259  1.5010  0.3364
 7479SOL     OW33898   1.731   1.349   7.439  0.0105  0.0688  0.1312
 7479SOL    HW133899   1.764   1.260   7.428  0.3554 -0.0416  2.1493
 7479SOL    HW233900   1.672   1.325   7.510  1.6002  1.2295  1.8369
 7480SOL     OW33901   3.786   1.807  16.164  0.0259  0.0762 -0.3148
 7480SOL    HW133902   3.746   1.892  16.149 -2.7295 -1.0384  0.6498
 7480SOL    HW233903   3.842   1.817  16.087  0.4878 -1.3126 -0.1637
 7481SOL     OW33904   1.547   3.200  13.157 -0.3215 -0.1004 -0.4566
 7481SOL    HW133905   1.460   3.196  13.197 -1.1130  1.1679 -2.0470
 7481SOL    HW233906   1.598   3.207  13.237  3.7493  0.1658 -3.0903
 7482SOL     OW33907   3.158   1.188   7.380 -0.4755  0.2089  0.6987
 7482SOL    HW133908   3.144   1.182   7.475  1.1516  0.9716  0.9772
 7482SOL    HW233909   3.253   1.199   7.376 -0.6263  1.2362 -0.0919
 7483SOL     OW33910   1.371   4.145   2.535 -0.5758  0.0054 -0.5073
 7483SOL    HW133911   1.322   4.186   2.464 -0.1908 -1.2103 -1.4677
 7483SOL    HW233912   1.405   4.223   2.579  1.1577  0.3374 -2.4578
 7484SOL     OW33913   4.719   4.013   8.496  0.0090  0.4847 -0.2883
 7484SOL    HW133914   4.721   4.047   8.586 -2.5487 -1.2598  0.4376
 7484SOL    HW233915   0.029   3.926   8.515  2.7295  1.2996 -1.5587
 7485SOL     OW33916   0.958   4.588   1.435  0.2883  0.1574 -0.1245
 7485SOL    HW133917   0.946   4.607   1.343 -0.2657 -1.1495 -0.3353
 7485SOL    HW233918   0.951   4.672   1.481 -3.4508 -0.5093  0.5092
 7486SOL     OW33919   2.564   0.589   0.281 -0.4225  0.4294 -0.5282
 7486SOL    HW133920   2.482   0.566   0.238 -1.4208  0.6390  1.2706
 7486SOL    HW233921   2.629   0.532   0.238 -0.4708  0.8221 -1.1277
 7487SOL     OW33922   1.974   2.963  16.922  0.8594 -0.1549 -0.1885
 7487SOL    HW133923   1.929   3.019  16.985 -0.4351 -1.0316 -0.3333
 7487SOL    HW233924   1.934   2.980  16.837 -3.3703 -3.7864  1.0636
 7488SOL     OW33925   0.915   2.631  16.059  0.2586  0.2264  0.1828
 7488SOL    HW133926   0.820   2.634  16.056  0.0645 -3.1807  3.0416
 7488SOL    HW233927   0.930   2.537  16.072  0.5028  0.3602  0.8729
 7489SOL     OW33928   1.447   4.718   7.650 -0.4857 -0.3177  0.1857
 7489SOL    HW133929   1.373   0.038   7.690 -0.8591  0.5731 -1.4914
 7489SOL    HW233930   1.445   4.628   7.683  2.7977 -0.5686 -0.2884
 7490SOL     OW33931   4.649   1.568   6.662 -0.8644 -0.8755  0.1948
 7490SOL    HW133932   0.006   1.617   6.664 -1.0725 -0.5224  0.1911
 7490SOL    HW233933   4.580   1.631   6.686  1.3022  1.7147 -0.3799
 7491SOL     OW33934   2.950   1.771  17.052 -0.3094 -0.2439  0.1483
 7491SOL    HW133935   3.007   1.702  17.086 -0.5874 -0.2641  0.5768
 7491SOL    HW233936   2.862   1.735  17.062 -0.5933  0.2889 -0.4442
 7492SOL     OW33937   3.392   1.908   4.397  0.0571 -0.2490 -0.0659
 7492SOL    HW133938   3.453   1.873   4.463 -0.3105 -1.1197 -0.1812
 7492SOL    HW233939   3.329   1.840   4.374  0.2022 -0.0949 -0.8958
 7493SOL     OW33940   4.238   2.440   6.095  0.5095  0.5480 -0.1842
 7493SOL    HW133941   4.156   2.415   6.139  1.0291  0.0982  0.5162
 7493SOL    HW233942   4.270   2.508   6.154 -0.0777 -0.5813  1.4383
 7494SOL     OW33943   1.079   4.088   8.560  0.0628 -0.2558  0.0390
 7494SOL    HW133944   1.095   4.057   8.649  0.0535  4.1642  1.5809
 7494SOL    HW233945   1.131   4.028   8.506  0.4069  0.0419  0.0350
 7495SOL     OW33946   4.680   1.140  17.248 -0.0551 -0.4308  0.4815
 7495SOL    HW133947   4.642   1.064  17.203 -0.8607  0.1064  0.2595
 7495SOL    HW233948   4.633   1.211  17.205  1.2921 -0.7750 -1.5593
 7496SOL     OW33949   3.548   0.618  15.187  0.6172  0.1895  0.3622
 7496SOL    HW133950   3.620   0.663  15.143  0.6655 -0.6587 -0.4215
 7496SOL    HW233951   3.469   0.633  15.135  0.0683 -2.9252  0.2814
 7497SOL     OW33952   0.496   2.217   2.287 -0.3166 -0.6028  0.0026
 7497SOL    HW133953   0.573   2.235   2.233 -0.0943 -3.3412 -0.5958
 7497SOL    HW233954   0.420   2.265   2.255 -1.6453 -2.7427 -0.0746
 7498SOL     OW33955   4.451   0.802   3.568 -0.5123 -0.1111 -0.1067
 7498SOL    HW133956   4.390   0.729   3.559  0.0723 -0.7050  0.6911
 7498SOL    HW233957   4.485   0.785   3.480  0.2583  0.3551  0.1017
 7499SOL     OW33958   0.787   4.605   0.416 -0.2665 -0.7954 -0.2121
 7499SOL    HW133959   0.701   4.565   0.427 -0.5440 -0.1523 -0.1124
 7499SOL    HW233960   0.794   4.643   0.503 -1.6025 -0.6400 -0.1749
 7500SOL     OW33961   4.498   2.746   4.132 -0.6905 -0.1482 -0.1207
 7500SOL    HW133962   4.582   2.703   4.148 -1.8168 -2.1052  0.5354
 7500SOL    HW233963   4.459   2.752   4.220  0.7710  0.1446  0.5122
 7501SOL     OW33964   1.901   1.628   5.708  0.0737 -0.2066  0.0760
 7501SOL    HW133965   1.976   1.569   5.694  1.2877  1.7305 -1.5702
 7501SOL    HW233966   1.836   1.578   5.659 -0.2828  1.2229 -0.9041
 7502SOL     OW33967   1.937   1.542   3.434  0.2957 -0.1892 -0.2087
 7502SOL    HW133968   1.912   1.634   3.420 -2.8796 -1.3081 -2.0430
 7502SOL    HW233969   1.881   1.510   3.505 -1.3232  2.4955 -0.2592
 7503SOL     OW33970   4.270   2.412   8.939 -0.4745  0.3237 -0.3967
 7503SOL    HW133971   4.209   2.405   9.013 -0.4048  0.8839 -0.2856
 7503SOL    HW233972   4.327   2.483   8.970 -2.4714  0.9243  1.8676
 7504SOL     OW33973   2.244   4.496  10.214  0.0788  0.1986 -0.3211
 7504SOL    HW133974   2.231   4.423  10.154  0.8396  0.7217 -1.1146
 7504SOL    HW233975   2.321   4.457  10.255 -0.5500 -2.3282 -1.5980
 7505SOL     OW33976   4.609   3.677  11.369  0.3564  0.2868 -0.5763
 7505SOL    HW133977   4.541   3.709  11.429  1.2264  0.4542  0.3349
 7505SOL    HW233978   4.685   3.681  11.428 -0.4075  1.6086  0.3309
 7506SOL     OW33979   2.587   1.665   4.773 -0.0705  0.0821  0.1358
 7506SOL    HW133980   2.621   1.677   4.684  0.7627 -0.0366  0.4446
 7506SOL    HW233981   2.539   1.744   4.801  0.1058 -0.6493  2.4797
 7507SOL     OW33982   3.025   3.511   0.310 -1.1215 -0.5509 -0.0436
 7507SOL    HW133983   2.954   3.448   0.300 -0.6187 -1.2307  0.6468
 7507SOL    HW233984   3.089   3.446   0.339 -0.1341  0.2672 -0.4124
 7508SOL     OW33985   4.709   3.638   7.072  0.0609 -0.0674  0.9772
 7508SOL    HW133986   4.635   3.578   7.083 -0.8123  0.5083 -1.6921
 7508SOL    HW233987   4.661   3.720   7.068  1.5349  0.7315 -0.4558
 7509SOL     OW33988   0.502   0.740   6.475 -0.0392 -0.0154 -0.4895
 7509SOL    HW133989   0.417   0.761   6.515 -0.9198  2.3692 -3.6310
 7509SOL    HW233990   0.488   0.646   6.468  1.3673 -0.2389 -0.1334
 7510SOL     OW33991   4.686   1.117   7.401 -0.4714 -0.3331  0.0097
 7510SOL    HW133992   0.009   1.155   7.328 -0.4497  0.6934  0.5531
 7510SOL    HW233993   4.598   1.120   7.364 -1.2359  0.5364  1.8762
 7511SOL     OW33994   3.191   0.306   8.644 -0.2977 -0.1383 -0.1495
 7511SOL    HW133995   3.178   0.383   8.699  0.0693 -0.6844  0.7007
 7511SOL    HW233996   3.272   0.272   8.684 -0.7953  1.4311  2.1918
 7512SOL     OW33997   1.153   2.501   2.853 -0.3077 -0.1713  0.0633
 7512SOL    HW133998   1.105   2.575   2.890  0.7515  0.6467 -0.1651
 7512SOL    HW233999   1.141   2.525   2.761 -3.2724 -0.0824  0.4910
 7513SOL     OW34000   2.857   4.467   8.589 -0.6515 -0.1638  0.4481
 7513SOL    HW134001   2.940   4.472   8.541 -0.3876 -0.7717  0.8476
 7513SOL    HW234002   2.805   4.403   8.540 -2.4432  1.2427  0.4863
 7514SOL     OW34003   3.395   0.909   7.182 -0.2497  0.2147 -0.8104
 7514SOL    HW134004   3.301   0.915   7.165 -0.7887  1.7311  2.6492
 7514SOL    HW234005   3.403   0.850   7.258  2.0916  2.5024  0.7268
 7515SOL     OW34006   1.606   4.630   6.638 -0.3044 -0.5646  0.0931
 7515SOL    HW134007   1.578   4.543   6.667  1.5387 -0.9244  0.7817
 7515SOL    HW234008   1.521   4.662   6.610 -1.2003 -1.2698  2.0014
 7516SOL     OW34009   0.462   1.736   6.538 -0.0538  0.4713  0.2175
 7516SOL    HW134010   0.554   1.735   6.563  0.3705 -0.6508 -1.4004
 7516SOL    HW234011   0.469   1.655   6.487 -3.3641 -0.5189  1.3339
 7517SOL     OW34012   2.352   0.950   6.767 -0.2325  0.0598  0.2878
 7517SOL    HW134013   2.315   1.038   6.759  1.7459  0.8042 -0.7456
 7517SOL    HW234014   2.414   0.958   6.695  0.3699  0.1882  0.8143
 7518SOL     OW34015   3.018   3.430   2.790  0.3914 -0.1437  0.1729
 7518SOL    HW134016   3.067   3.355   2.758 -0.6074 -1.1364  0.9590
 7518SOL    HW234017   3.079   3.503   2.776 -0.9611  0.5670 -1.9531
 7519SOL     OW34018   0.395   1.034   5.047 -0.4029  0.2575  0.6125
 7519SOL    HW134019   0.331   1.038   5.118 -1.3514  2.7687 -0.3748
 7519SOL    HW234020   0.413   1.127   5.033  0.6365 -0.0731 -0.2034
 7520SOL     OW34021   3.195   0.423   6.482 -0.1264  0.0294 -1.0063
 7520SOL    HW134022   3.183   0.406   6.576  0.7313 -0.8402 -1.0487
 7520SOL    HW234023   3.289   0.440   6.474 -0.3536  1.1906 -1.1478
 7521SOL     OW34024   1.290   4.192   2.261  0.0594  0.4817 -0.0571
 7521SOL    HW134025   1.263   4.106   2.228 -0.2640  0.5016  0.1541
 7521SOL    HW234026   1.375   4.157   2.290 -0.7002 -0.2765  1.2762
 7522SOL     OW34027   4.126   1.841  11.262 -0.1639  0.4966  0.1061
 7522SOL    HW134028   4.133   1.927  11.221 -0.6076 -0.1999 -1.4113
 7522SOL    HW234029   4.065   1.791  11.208 -2.0621  1.0841  1.7054
 7523SOL     OW34030   2.841   1.619   1.245 -0.4809  0.0754  0.1072
 7523SOL    HW134031   2.791   1.668   1.310  0.3539 -0.8977  1.4713
 7523SOL    HW234032   2.833   1.680   1.171  0.0415 -1.4547 -1.2120
 7524SOL     OW34033   4.201   0.213   2.318  0.1695  0.6951 -0.4760
 7524SOL    HW134034   4.239   0.236   2.233 -1.6669  1.3118 -1.1443
 7524SOL    HW234035   4.281   0.214   2.370 -0.9651  1.0438  1.2646
 7525SOL     OW34036   2.607   1.146   7.355 -0.1073 -0.1545  0.0669
 7525SOL    HW134037   2.602   1.165   7.449  0.3076  0.0787  0.0441
 7525SOL    HW234038   2.515   1.126   7.340 -0.6586  3.4203 -1.2848
 7526SOL     OW34039   0.309   0.533   4.365  0.8197 -0.3288 -0.2652
 7526SOL    HW134040   0.348   0.566   4.447 -0.3735  1.9688 -0.6221
 7526SOL    HW234041   0.223   0.502   4.393 -0.2133 -0.9690 -4.1463
 7527SOL     OW34042   3.185   1.859   9.036  1.0911 -0.1372 -0.5780
 7527SOL    HW134043   3.230   1.817   8.963  0.9108  0.9470 -1.3103
 7527SOL    HW234044   3.262   1.856   9.092  0.5087  2.3875  0.3489
 7528SOL     OW34045   2.702   1.520   4.990 -0.7490 -0.0617 -0.2606
 7528SOL    HW134046   2.783   1.497   4.944  0.4731  1.3004  1.2042
 7528SOL    HW234047   2.661   1.571   4.920 -0.5258  1.3563  0.6366
 7529SOL     OW34048   3.143   0.664   7.687  0.3913  0.2360 -0.3845
 7529SOL    HW134049   3.202   0.740   7.687  0.0597  0.4910  0.5047
 7529SOL    HW234050   3.165   0.633   7.600  1.9571 -0.1932  0.1723
 7530SOL     OW34051   2.595   4.423   4.675  0.1954 -0.6036 -0.1830
 7530SOL    HW134052   2.599   4.459   4.587  2.9048 -1.3489 -0.3552
 7530SOL    HW234053   2.502   4.415   4.694  1.0254 -1.5398  3.5745
 7531SOL     OW34054   3.939   2.368   8.235 -0.3954 -0.0191  1.0984
 7531SOL    HW134055   4.033   2.369   8.219 -0.5651 -0.4140  0.0431
 7531SOL    HW234056   3.911   2.279   8.215  0.9854 -0.2699  0.3080
 7532SOL     OW34057   1.719   0.560   0.809  0.2174 -0.0125 -0.2789
 7532SOL    HW134058   1.752   0.650   0.814 -0.3548  0.3301 -2.4178
 7532SOL    HW234059   1.638   0.561   0.860  0.1480  0.3818 -0.3952
 7533SOL     OW34060   4.043   3.062   8.249  0.3440  0.3761  0.1009
 7533SOL    HW134061   4.102   3.084   8.321 -0.5344  0.4002  0.8237
 7533SOL    HW234062   3.964   3.114   8.269  0.6848 -0.5494  3.9226
 7534SOL     OW34063   0.321   2.206   1.832  0.2040  0.2602 -0.2273
 7534SOL    HW134064   0.225   2.207   1.837  0.3462  0.9871  2.0820
 7534SOL    HW234065   0.346   2.154   1.909  3.1711 -1.4158 -2.3169
 7535SOL     OW34066   2.396   0.754   6.372 -0.1400  0.1287  0.4932
 7535SOL    HW134067   2.487   0.733   6.392  0.1996  1.3454  0.2462
 7535SOL    HW234068   2.399   0.841   6.332 -2.1303 -0.1376 -0.2150
 7536SOL     OW34069   1.809   0.173   3.548  0.7029  0.0360 -0.1401
 7536SOL    HW134070   1.874   0.226   3.502  0.7597  1.3669  1.4943
 7536SOL    HW234071   1.759   0.141   3.474  0.3852 -0.0122  0.0970
 7537SOL     OW34072   2.716   1.920  17.284 -0.2576 -0.3195  0.1955
 7537SOL    HW134073   2.643   1.920  17.222  0.1593  2.0030 -0.2782
 7537SOL    HW234074   2.684   1.853  17.345  1.9003  1.0408  2.8373
 7538SOL     OW34075   0.524   2.686   2.407  0.5566 -0.4766  0.5261
 7538SOL    HW134076   0.445   2.659   2.455  0.4652  2.9238  2.2398
 7538SOL    HW234077   0.488   2.772   2.387 -1.9612 -2.2061 -2.4415
 7539SOL     OW34078   4.112   4.349   5.175  0.3775  0.3262 -0.0081
 7539SOL    HW134079   4.028   4.307   5.155 -0.1700  0.2828  2.4381
 7539SOL    HW234080   4.178   4.280   5.163 -0.3909 -0.1349 -1.6201
 7540SOL     OW34081   0.716   2.412   2.782  0.0496 -0.1716  0.2279
 7540SOL    HW134082   0.708   2.465   2.703  0.8439 -0.9251 -0.3551
 7540SOL    HW234083   0.674   2.331   2.751 -2.2601  1.9073 -2.0793
 7541SOL     OW34084   2.922   0.987   4.685 -0.3122 -0.2689 -0.0177
 7541SOL    HW134085   2.867   1.054   4.645  0.4319  0.8608  0.8081
 7541SOL    HW234086   2.893   0.916   4.629 -1.8376  0.6580 -0.4121
 7542SOL     OW34087   2.713   1.105   0.037  0.3467  0.3042  0.4526
 7542SOL    HW134088   2.668   1.022   0.048 -0.4985  1.1089  2.9498
 7542SOL    HW234089   2.642   1.169   0.029  1.8603  1.8981 -0.3277
 7543SOL     OW34090   2.854   0.501   2.600  0.1666 -0.2937 -0.0623
 7543SOL    HW134091   2.911   0.567   2.639 -0.4176 -0.3377  0.8562
 7543SOL    HW234092   2.813   0.463   2.678  0.4819  0.4113  0.4480
 7544SOL     OW34093   1.076   3.993  15.268 -0.1880  0.0084  0.8065
 7544SOL    HW134094   1.021   3.915  15.258  0.2030 -0.3384  1.4495
 7544SOL    HW234095   1.108   3.995  15.178 -0.5677 -1.7534  0.6379
 7545SOL     OW34096   0.550   3.641   2.159 -0.0809  0.2881 -0.9040
 7545SOL    HW134097   0.586   3.617   2.244 -1.8662  0.6302 -0.0680
 7545SOL    HW234098   0.553   3.556   2.115  0.6310 -0.1200 -0.0661
 7546SOL     OW34099   3.987   3.156  12.136 -0.3309 -0.0038  0.2595
 7546SOL    HW134100   4.004   3.249  12.121  2.1569 -0.8575 -2.0632
 7546SOL    HW234101   4.074   3.119  12.126 -0.2859 -0.2231  1.4580
 7547SOL     OW34102   1.425   1.038   1.548 -0.3151 -0.5807 -0.2549
 7547SOL    HW134103   1.469   0.972   1.494  1.3544  1.5943 -1.5645
 7547SOL    HW234104   1.490   1.091   1.594 -0.7961  1.5181 -1.9841
 7548SOL     OW34105   4.698   4.600  12.010 -0.2644 -0.2266  0.0302
 7548SOL    HW134106   0.016   4.521  11.979  1.7619  1.0450 -0.4078
 7548SOL    HW234107   0.022   4.662  11.955  0.4324 -0.1606  0.7329
 7549SOL     OW34108   3.578   3.769   5.986  0.1170  0.0270 -0.2784
 7549SOL    HW134109   3.488   3.757   6.017  0.3242 -0.8715 -0.0477
 7549SOL    HW234110   3.580   3.698   5.922  1.1066 -0.6884  0.5750
 7550SOL     OW34111   3.231   4.200   8.680  0.4770  0.8722 -0.3130
 7550SOL    HW134112   3.312   4.247   8.658  1.1388  0.0044  0.2485
 7550SOL    HW234113   3.207   4.141   8.609 -1.5013  0.5942  0.5793
 7551SOL     OW34114   3.534   0.627  11.790 -0.1373 -0.1446  0.4054
 7551SOL    HW134115   3.573   0.569  11.724  1.2383  0.4038  0.7391
 7551SOL    HW234116   3.451   0.643  11.746 -0.5166 -0.3723  1.0496
 7552SOL     OW34117   3.317   0.713   3.113  0.2626 -0.3582 -0.3020
 7552SOL    HW134118   3.303   0.694   3.205 -1.3192  1.1050 -0.2468
 7552SOL    HW234119   3.396   0.661   3.097 -0.9030 -1.6895 -1.8264
 7553SOL     OW34120   4.664   2.738   9.949 -0.0574  0.5078  0.7912
 7553SOL    HW134121   4.569   2.748   9.944 -0.4594 -2.0755  3.1382
 7553SOL    HW234122   4.679   2.718   9.857 -1.4072 -0.7782  0.8475
 7554SOL     OW34123   4.091   2.180   9.152 -0.2734 -0.6956  0.2300
 7554SOL    HW134124   4.035   2.252   9.123  0.7207 -0.2909 -0.6663
 7554SOL    HW234125   4.077   2.178   9.247 -0.0349 -1.6499  0.2507
 7555SOL     OW34126   0.664   4.433   6.799  0.4936 -0.4467 -0.1065
 7555SOL    HW134127   0.753   4.424   6.765 -0.5377 -1.3758 -2.6045
 7555SOL    HW234128   0.624   4.363   6.748  3.1197 -0.3516 -2.2848
 7556SOL     OW34129   0.156   2.610   4.524 -0.4212 -0.4855  0.0443
 7556SOL    HW134130   0.239   2.586   4.565 -0.9744 -0.8756  0.9349
 7556SOL    HW234131   0.109   2.629   4.605 -1.2653  3.5939 -1.3938
 7557SOL     OW34132   1.363   2.839  15.734  0.0111 -0.2962 -0.9320
 7557SOL    HW134133   1.449   2.804  15.712 -1.1923 -3.7191 -0.1574
 7557SOL    HW234134   1.320   2.760  15.767 -2.1225  0.6186 -1.5007
 7558SOL     OW34135   2.581   3.582   6.535  0.9265  0.1973 -0.0173
 7558SOL    HW134136   2.606   3.490   6.537  1.4889  0.3774  1.4065
 7558SOL    HW234137   2.492   3.573   6.571  0.6413 -1.5017 -1.1563
 7559SOL     OW34138   1.889   0.857   9.332 -0.1497 -0.0007 -0.4960
 7559SOL    HW134139   1.976   0.884   9.304  0.3552 -0.2315  0.8576
 7559SOL    HW234140   1.893   0.890   9.422  3.3614 -1.4580 -0.1118
 7560SOL     OW34141   1.807   2.203   6.248  0.0706  1.0105  0.4131
 7560SOL    HW134142   1.887   2.235   6.290 -0.0622  0.4581  1.0864
 7560SOL    HW234143   1.752   2.270   6.289  1.1967  3.4871 -2.1807
 7561SOL     OW34144   2.196   1.806  12.720 -0.3191 -0.1380  1.0044
 7561SOL    HW134145   2.269   1.847  12.768  0.2110  0.3659 -0.2283
 7561SOL    HW234146   2.238   1.728  12.685 -1.4245  0.4947 -1.7003
 7562SOL     OW34147   4.533   0.020   0.625  0.2241 -0.8795  0.4252
 7562SOL    HW134148   4.528   0.078   0.701  0.3645 -0.0838 -0.1789
 7562SOL    HW234149   4.452   0.055   0.587  0.0833 -1.0477  0.5698
 7563SOL     OW34150   3.608   2.474   6.298  0.2620 -0.0904  0.3333
 7563SOL    HW134151   3.651   2.392   6.273 -0.5644 -1.4116  3.2236
 7563SOL    HW234152   3.578   2.504   6.212  0.4187 -1.0681 -0.0730
 7564SOL     OW34153   1.496   1.675   5.700  0.1443 -0.2050  0.1479
 7564SOL    HW134154   1.460   1.594   5.665 -1.0947  1.0291 -1.4255
 7564SOL    HW234155   1.415   1.727   5.698  0.6151  0.4647 -1.4017
 7565SOL     OW34156   0.715   1.083   3.044 -0.1956 -0.2411 -0.5001
 7565SOL    HW134157   0.717   1.031   2.963  4.1565  0.0075 -0.5080
 7565SOL    HW234158   0.774   1.032   3.099  0.1518 -0.5471 -1.1570
 7566SOL     OW34159   3.610   0.011   2.334 -0.3692  0.2336  0.1614
 7566SOL    HW134160   3.704   4.724   2.343 -0.2742 -0.0503 -1.1671
 7566SOL    HW234161   3.571   4.659   2.293 -1.5534  0.8636  0.0720
 7567SOL     OW34162   2.751   0.293  11.382  0.5760  0.5982 -0.2777
 7567SOL    HW134163   2.685   0.320  11.445 -0.7614  0.9879 -1.8363
 7567SOL    HW234164   2.709   0.309  11.297  0.3010  0.5189 -0.1586
 7568SOL     OW34165   3.510   4.112   7.018  0.3820 -0.2117 -0.3923
 7568SOL    HW134166   3.420   4.126   6.989  0.6101 -0.2779 -1.1263
 7568SOL    HW234167   3.526   4.203   7.043  0.4765  0.0419 -1.3885
 7569SOL     OW34168   0.337   4.027   7.848 -0.8238  0.0417  0.3118
 7569SOL    HW134169   0.357   3.957   7.910 -1.8245  0.6450  1.3379
 7569SOL    HW234170   0.307   3.976   7.773  0.5752  0.5945 -0.6170
 7570SOL     OW34171   3.917   4.495  11.186 -0.1145 -0.1421  0.0894
 7570SOL    HW134172   3.843   4.537  11.144 -0.5284  1.9406  2.8878
 7570SOL    HW234173   3.919   4.555  11.261  0.6699 -0.8830  0.6766
 7571SOL     OW34174   4.093   2.487  13.505 -0.1494 -0.2759 -0.1922
 7571SOL    HW134175   4.058   2.398  13.499 -1.6510  0.6467 -4.9387
 7571SOL    HW234176   4.130   2.470  13.592 -1.4030 -2.8595 -0.1538
 7572SOL     OW34177   2.865   0.241   5.800  0.0458 -0.3496 -0.2075
 7572SOL    HW134178   2.912   0.166   5.836 -1.5506 -0.2160  2.1406
 7572SOL    HW234179   2.903   0.241   5.712  0.2880  2.7863 -0.0824
 7573SOL     OW34180   3.932   4.651   6.182 -0.1214 -0.0555  0.0388
 7573SOL    HW134181   3.876   4.605   6.120 -0.9740 -0.4857  1.1325
 7573SOL    HW234182   3.999   4.687   6.123 -0.4691  0.6301  0.0564
 7574SOL     OW34183   3.913   1.738   6.882 -0.1737 -0.3117  0.4700
 7574SOL    HW134184   3.948   1.652   6.907 -1.1693 -0.9744 -0.4428
 7574SOL    HW234185   3.827   1.715   6.848 -0.1987  1.1346 -0.4680
 7575SOL     OW34186   3.577   1.379   5.613  0.1732 -0.6818 -0.1568
 7575SOL    HW134187   3.552   1.323   5.540  2.0605 -1.2370 -0.3729
 7575SOL    HW234188   3.500   1.436   5.616  0.7487  0.0838  0.0751
 7576SOL     OW34189   1.623   3.250   9.162  0.1985  0.3517  0.0188
 7576SOL    HW134190   1.658   3.247   9.073 -0.7289 -0.5365 -0.3164
 7576SOL    HW234191   1.578   3.166   9.161 -4.0686  2.6075  2.6450
 7577SOL     OW34192   2.281   1.951   9.257  0.0894  1.0833  0.1215
 7577SOL    HW134193   2.329   1.886   9.207 -0.0371  1.7455 -0.8745
 7577SOL    HW234194   2.292   1.926   9.349 -0.4188 -1.4333 -0.5223
 7578SOL     OW34195   1.461   2.303   9.796 -0.0184 -0.3914  0.0463
 7578SOL    HW134196   1.438   2.215   9.764  0.8209 -0.3633 -0.6285
 7578SOL    HW234197   1.409   2.358   9.737 -2.6275 -1.3576  1.4202
 7579SOL     OW34198   4.471   2.620   0.694  0.0450 -0.5508  0.5729
 7579SOL    HW134199   4.495   2.692   0.636  0.1621 -2.3522 -1.6297
 7579SOL    HW234200   4.549   2.566   0.709 -0.8683 -1.5344  1.8757
 7580SOL     OW34201   2.049   2.054  12.629  0.0140 -0.1102  0.4025
 7580SOL    HW134202   2.046   2.036  12.535  0.1328 -0.5265  0.4782
 7580SOL    HW234203   2.057   1.964  12.660  1.3060 -0.1016  0.1069
 7581SOL     OW34204   1.649   2.240  11.182 -0.5316 -0.6438  0.7057
 7581SOL    HW134205   1.706   2.222  11.108 -1.3249  0.8941 -0.2878
 7581SOL    HW234206   1.644   2.336  11.175  1.0272 -0.5643  0.7270
 7582SOL     OW34207   2.667   1.942  13.761 -0.1233 -0.8598 -0.4079
 7582SOL    HW134208   2.628   1.976  13.680 -1.0624 -0.4550  0.2095
 7582SOL    HW234209   2.760   1.957  13.749 -0.5942 -0.0995 -3.0745
 7583SOL     OW34210   2.593   3.153  16.126 -0.2918 -0.6735  0.3349
 7583SOL    HW134211   2.679   3.175  16.091 -0.6556 -0.5524 -0.4783
 7583SOL    HW234212   2.617   3.147  16.219  0.9822  0.0052  0.0447
 7584SOL     OW34213   1.844   1.356   1.426  0.0328  0.2462  0.1634
 7584SOL    HW134214   1.755   1.324   1.408 -0.5016  1.3029  0.8861
 7584SOL    HW234215   1.870   1.400   1.346  1.2197 -0.5685  0.1064
 7585SOL     OW34216   1.178   4.639  10.212 -0.1950  0.3202 -0.2991
 7585SOL    HW134217   1.152   4.698  10.142 -1.2296 -0.7270 -0.7983
 7585SOL    HW234218   1.249   4.602  10.158 -0.3177  0.7474 -0.7521
 7586SOL     OW34219   1.899   1.405  14.344  0.6086 -0.0623 -0.0239
 7586SOL    HW134220   1.820   1.369  14.385  0.7731 -1.4115 -0.8988
 7586SOL    HW234221   1.940   1.433  14.426 -0.0744  2.4825 -0.5344
 7587SOL     OW34222   0.542   0.203   4.433  0.1175  0.4110 -0.4568
 7587SOL    HW134223   0.550   0.297   4.418  1.1243  0.5074  0.6272
 7587SOL    HW234224   0.625   0.165   4.406  0.6275 -0.3081  2.0690
 7588SOL     OW34225   3.754   1.552   3.221 -0.9729 -0.1138  0.2233
 7588SOL    HW134226   3.674   1.575   3.172  0.2625  0.1062 -1.6853
 7588SOL    HW234227   3.826   1.574   3.163 -0.4489 -1.2206  0.4515
 7589SOL     OW34228   4.063   2.748   8.522 -0.0212  0.7656 -0.0481
 7589SOL    HW134229   4.125   2.821   8.524  0.5914  0.2989 -2.0743
 7589SOL    HW234230   4.025   2.763   8.435  1.3847  0.3446 -0.7418
 7590SOL     OW34231   4.116   4.645   0.451  0.0201  0.0392 -0.3655
 7590SOL    HW134232   4.048   4.660   0.517 -1.4422  1.7055 -2.2247
 7590SOL    HW234233   4.100   4.712   0.385  1.8491  1.1423  0.3154
 7591SOL     OW34234   3.546   4.394   6.744  0.4872  0.0041  0.0299
 7591SOL    HW134235   3.635   4.366   6.726  1.7233  2.3399  2.5252
 7591SOL    HW234236   3.540   4.473   6.689  0.2062 -0.3090 -0.3937
 7592SOL     OW34237   2.739   0.404  17.608 -0.7787 -0.0448 -0.1806
 7592SOL    HW134238   2.747   0.438  17.697 -0.3863  3.6668 -1.6349
 7592SOL    HW234239   2.679   0.332  17.627 -0.4113  0.0999  1.4655
 7593SOL     OW34240   4.294   3.589   7.236  0.0991 -0.5620 -0.0397
 7593SOL    HW134241   4.285   3.520   7.302  2.9156  0.8995  1.8588
 7593SOL    HW234242   4.202   3.603   7.212 -0.5456  0.3659  3.0019
 7594SOL     OW34243   4.514   1.768  12.621  0.3173 -0.1755  0.0885
 7594SOL    HW134244   4.607   1.790  12.629  1.0263 -2.7444 -1.0081
 7594SOL    HW234245   4.515   1.769  12.526  0.5921 -1.4476  0.0731
 7595SOL     OW34246   1.153   3.157   7.508  0.0567 -0.1451 -0.0698
 7595SOL    HW134247   1.204   3.235   7.530  0.1655 -0.3642  0.4483
 7595SOL    HW234248   1.157   3.108   7.590  1.6610  0.7476  0.3852
 7596SOL     OW34249   0.744   2.927  10.331 -0.2166 -0.0922 -0.5021
 7596SOL    HW134250   0.676   2.941  10.397  0.9864  1.9204  0.3262
 7596SOL    HW234251   0.786   2.847  10.362 -0.4095 -0.6519 -1.6912
 7597SOL     OW34252   2.160   0.961   2.384  0.5024  0.1282  0.1625
 7597SOL    HW134253   2.212   0.933   2.459 -0.6400 -1.1177  0.5020
 7597SOL    HW234254   2.137   0.881   2.336  0.0642 -0.0923  0.7355
 7598SOL     OW34255   2.528   0.744   9.493 -0.2444  0.0124 -0.1406
 7598SOL    HW134256   2.498   0.735   9.583  0.6306 -0.0084  0.1485
 7598SOL    HW234257   2.588   0.671   9.478  1.7878  1.6189  0.1552
 7599SOL     OW34258   2.801   0.240   7.042 -0.2332  0.6383 -0.7357
 7599SOL    HW134259   2.729   0.181   7.019 -1.2885  1.7209 -0.1694
 7599SOL    HW234260   2.861   0.168   7.020  0.8344  1.3173 -0.0818
 7600SOL     OW34261   0.192   2.874  16.933  0.2568 -0.0781 -0.0490
 7600SOL    HW134262   0.112   2.822  16.943 -0.3975  0.8420 -0.4842
 7600SOL    HW234263   0.245   2.860  17.012 -0.6270  4.5178  1.3372
 7601SOL     OW34264   0.846   2.848   1.834  0.1794 -0.0932 -0.6048
 7601SOL    HW134265   0.761   2.834   1.876  0.5040  0.3585  0.1959
 7601SOL    HW234266   0.846   2.944   1.828 -0.1605  0.0129  1.0817
 7602SOL     OW34267   2.388   2.671   4.941  0.4899 -0.0335 -0.1097
 7602SOL    HW134268   2.463   2.656   4.884  0.9393 -1.3531  0.8242
 7602SOL    HW234269   2.336   2.593   4.922  1.2374 -0.0708 -1.9321
 7603SOL     OW34270   2.536   1.172  11.837 -0.2882 -0.2898 -0.5129
 7603SOL    HW134271   2.571   1.084  11.848  0.1438  0.2164  2.0978
 7603SOL    HW234272   2.505   1.174  11.746 -1.5697  0.8765 -0.0581
 7604SOL     OW34273   1.056   4.327   4.823  0.6361 -0.4376  0.1370
 7604SOL    HW134274   0.971   4.371   4.829 -0.5937 -2.9425  1.4925
 7604SOL    HW234275   1.067   4.293   4.735  0.3348  1.1336 -0.4960
 7605SOL     OW34276   3.332   1.310   8.950 -0.0111  0.0235  0.3605
 7605SOL    HW134277   3.295   1.306   9.038  3.3421  0.9083  1.7824
 7605SOL    HW234278   3.250   1.318   8.901  1.4399  2.0857 -1.7328
 7606SOL     OW34279   1.972   4.645   8.376  0.3026 -0.3890 -0.2018
 7606SOL    HW134280   2.064   4.669   8.365  0.5880 -1.6639 -0.6105
 7606SOL    HW234281   1.968   4.608   8.464 -0.0188  0.9676  0.3494
 7607SOL     OW34282   4.179   1.456  12.226 -0.1389 -0.5849  0.1132
 7607SOL    HW134283   4.209   1.546  12.213  0.5032 -0.9235 -0.7763
 7607SOL    HW234284   4.128   1.430  12.150 -0.1841 -0.8708  0.2400
 7608SOL     OW34285   3.838   0.564  11.771 -0.2707  0.9102 -0.0891
 7608SOL    HW134286   3.758   0.584  11.723 -1.2888  3.4599  2.6072
 7608SOL    HW234287   3.875   0.490  11.723  0.9917  0.8132  1.0270
 7609SOL     OW34288   2.466   1.275   6.555 -0.0525 -0.4573 -0.9927
 7609SOL    HW134289   2.498   1.190   6.524  5.2756  1.2183  0.0590
 7609SOL    HW234290   2.382   1.261   6.600  0.8245  2.6229  1.5551
 7610SOL     OW34291   2.784   3.012   5.375  0.2141 -0.4777 -0.1502
 7610SOL    HW134292   2.715   3.030   5.438 -1.4650  1.3907 -2.4917
 7610SOL    HW234293   2.853   3.069   5.408 -1.6848  1.7624 -0.0828
 7611SOL     OW34294   4.093   1.123   5.364 -0.1520  0.2592 -0.1536
 7611SOL    HW134295   4.034   1.107   5.291  0.2803 -0.7457 -0.2846
 7611SOL    HW234296   4.102   1.040   5.410 -0.7291 -0.4641 -1.3444
 7612SOL     OW34297   4.496   2.663  16.753  0.1737  0.2833  0.5462
 7612SOL    HW134298   4.443   2.608  16.810 -0.4372 -0.5859 -0.8609
 7612SOL    HW234299   4.454   2.650  16.668 -2.7891  3.2174  1.5224
 7613SOL     OW34300   4.229   0.426   6.422  0.1915  0.4504  0.0838
 7613SOL    HW134301   4.252   0.398   6.333 -0.6179 -0.8047  0.2637
 7613SOL    HW234302   4.135   0.407   6.425  0.1226  0.4927 -1.5599
 7614SOL     OW34303   2.234   1.507  12.665 -0.7979  0.0291  0.0532
 7614SOL    HW134304   2.311   1.462  12.629  1.7313  3.0234  1.7694
 7614SOL    HW234305   2.201   1.431  12.714 -0.0670 -0.8991 -0.8766
 7615SOL     OW34306   3.731   3.467   8.298 -0.5978  0.3188  0.9192
 7615SOL    HW134307   3.762   3.410   8.227 -1.0778  2.5493 -1.0825
 7615SOL    HW234308   3.695   3.401   8.357  0.1479 -0.7887  0.1502
 7616SOL     OW34309   3.987   4.447   4.161 -0.3740 -0.5113  0.3632
 7616SOL    HW134310   3.999   4.414   4.072 -1.8135 -1.3385  0.4752
 7616SOL    HW234311   4.017   4.536   4.141  0.7420 -1.2611 -1.2592
 7617SOL     OW34312   3.886   4.046   8.593  0.0296 -0.0892 -0.2454
 7617SOL    HW134313   3.899   3.960   8.634 -0.4922 -0.6452 -1.2261
 7617SOL    HW234314   3.798   4.060   8.628  1.1201  1.3809  1.8937
 7618SOL     OW34315   0.096   1.328   6.354 -0.3506 -0.0448 -0.5062
 7618SOL    HW134316   0.163   1.274   6.396 -1.9079  0.3222  2.4664
 7618SOL    HW234317   0.025   1.316   6.417 -1.0299 -2.1556 -1.6587
 7619SOL     OW34318   0.683   2.030   3.835  0.0751 -0.1786 -0.0493
 7619SOL    HW134319   0.624   2.097   3.801  1.0889  0.2478 -0.9889
 7619SOL    HW234320   0.651   2.012   3.923 -1.0807 -2.2822 -0.8971
 7620SOL     OW34321   4.567   3.997   7.424 -0.1289 -0.2964  0.2802
 7620SOL    HW134322   4.492   3.970   7.478 -0.4112 -0.1929 -0.0580
 7620SOL    HW234323   4.523   4.007   7.340  1.3608  1.6991 -0.2388
 7621SOL     OW34324   2.072   3.730  11.391  0.8362  0.5823 -0.0888
 7621SOL    HW134325   2.082   3.695  11.302 -1.1194  0.5658 -0.3137
 7621SOL    HW234326   2.056   3.823  11.379 -0.7065  0.3595  0.2219
 7622SOL     OW34327   1.209   1.944   8.585  0.1782  0.2727  0.3997
 7622SOL    HW134328   1.209   1.890   8.506  0.0026 -0.4497  0.8892
 7622SOL    HW234329   1.295   1.986   8.590 -1.1638  2.7768  2.2726
 7623SOL     OW34330   1.508   0.880   2.668  0.3451 -0.5884 -0.4686
 7623SOL    HW134331   1.417   0.855   2.655  0.8138 -1.7511 -1.4326
 7623SOL    HW234332   1.495   0.973   2.648  3.3279  0.0448  0.4009
 7624SOL     OW34333   1.921   0.065  17.039  0.6456  0.8483 -0.0992
 7624SOL    HW134334   1.834   0.048  17.005  0.5276  0.0840  0.5806
 7624SOL    HW234335   1.891   0.127  17.105 -2.2205 -1.9827  1.2560
 7625SOL     OW34336   3.837   4.150  15.886  0.0849 -0.9411  0.0604
 7625SOL    HW134337   3.808   4.198  15.808  0.0078 -1.4527 -0.2239
 7625SOL    HW234338   3.837   4.219  15.953  0.1841 -0.1095 -0.7933
 7626SOL     OW34339   2.777   1.041   1.540  0.0803 -0.3409  0.1281
 7626SOL    HW134340   2.872   1.026   1.536  0.3529  1.9552 -1.7245
 7626SOL    HW234341   2.740   1.054   1.453  1.1771  1.0451 -0.1356
 7627SOL     OW34342   2.886   0.512   7.580 -0.5444  0.0143 -0.3042
 7627SOL    HW134343   2.895   0.589   7.523  0.2168  1.1626  1.3724
 7627SOL    HW234344   2.977   0.492   7.601 -1.2948 -2.1919  0.8997
 7628SOL     OW34345   3.095   1.355   8.797 -0.6943  0.6375  0.2147
 7628SOL    HW134346   3.035   1.418   8.837  0.0052 -0.4268  2.9380
 7628SOL    HW234347   3.051   1.270   8.797  0.4730  0.0410 -1.0113
 7629SOL     OW34348   1.200   3.377   2.402 -0.3181  0.3313  0.2266
 7629SOL    HW134349   1.268   3.330   2.450  0.0284  2.1068  1.5069
 7629SOL    HW234350   1.207   3.331   2.319  0.3618 -0.2609  0.6145
 7630SOL     OW34351   3.745   2.460  10.015 -0.3670 -0.5061  0.3931
 7630SOL    HW134352   3.694   2.479  10.094 -0.7444 -3.2265  0.7997
 7630SOL    HW234353   3.754   2.548   9.977 -2.4211 -1.0016 -1.1952
 7631SOL     OW34354   3.267   3.212   2.267  0.2443  0.2816 -0.2742
 7631SOL    HW134355   3.361   3.192   2.266  0.0983 -0.4386  0.7633
 7631SOL    HW234356   3.232   3.130   2.232 -2.3196  1.6690 -0.9527
 7632SOL     OW34357   2.455   1.981   7.552 -0.2084 -0.2281 -0.3754
 7632SOL    HW134358   2.421   1.950   7.636 -2.9642 -0.6387 -1.6367
 7632SOL    HW234359   2.395   2.049   7.522  0.0155  0.5757  1.0063
 7633SOL     OW34360   1.953   1.429   1.138  0.4603  0.0144  0.0150
 7633SOL    HW134361   1.876   1.479   1.110 -0.6848 -0.5378  2.1689
 7633SOL    HW234362   2.019   1.456   1.075  0.2480  0.8745  0.1617
 7634SOL     OW34363   3.413   0.451   9.262 -0.2265 -0.0006  0.3937
 7634SOL    HW134364   3.503   0.426   9.284 -0.9014 -2.0856  0.8042
 7634SOL    HW234365   3.427   0.544   9.244  1.3294 -0.3751 -0.3352
 7635SOL     OW34366   1.957   0.083   0.875  0.3747 -0.0113 -0.9670
 7635SOL    HW134367   1.970   4.714   0.869 -0.6382 -0.0323 -2.8931
 7635SOL    HW234368   1.889   0.096   0.941  1.5782  2.2931 -0.1643
 7636SOL     OW34369   3.374   1.760   8.647 -0.2194 -0.5759 -0.2230
 7636SOL    HW134370   3.301   1.815   8.620  0.2563  0.5858  0.8623
 7636SOL    HW234371   3.440   1.777   8.580  1.2139  0.2520  1.3954
 7637SOL     OW34372   0.574   0.745  17.442 -0.2635 -0.6117 -0.1555
 7637SOL    HW134373   0.649   0.718  17.495 -1.0468 -0.6816  0.9049
 7637SOL    HW234374   0.512   0.692  17.492 -0.4106 -0.1287  0.1708
 7638SOL     OW34375   4.396   1.098   8.429  0.1806 -0.0708 -0.2717
 7638SOL    HW134376   4.353   1.014   8.414 -0.6414  0.5482 -1.3751
 7638SOL    HW234377   4.336   1.125   8.499  1.7166 -1.6367  1.6511
 7639SOL     OW34378   1.263   1.894   6.223 -0.3958  0.6913  0.2298
 7639SOL    HW134379   1.290   1.870   6.135 -2.3857 -1.9139  0.3443
 7639SOL    HW234380   1.267   1.990   6.219  2.7398  0.6190  1.4251
 7640SOL     OW34381   1.715   0.106   4.489 -0.5430  0.5973  0.1259
 7640SOL    HW134382   1.703   0.083   4.397  1.3255  0.0849  0.0249
 7640SOL    HW234383   1.684   0.023   4.528  0.4015  0.7206  1.1470
 7641SOL     OW34384   4.612   0.335   8.837  0.0341 -0.4673  0.0627
 7641SOL    HW134385   4.608   0.275   8.912  1.1817  0.2939  0.7284
 7641SOL    HW234386   4.589   0.411   8.890 -1.5390 -0.8023 -0.1360
 7642SOL     OW34387   0.192   2.071   3.221  0.0520 -0.2642 -0.0619
 7642SOL    HW134388   0.199   2.163   3.195 -1.6563 -0.6330 -1.8355
 7642SOL    HW234389   0.199   2.029   3.135 -0.7082 -1.0205  0.2506
 7643SOL     OW34390   3.963   2.958   8.796  0.1811 -0.7050  0.5391
 7643SOL    HW134391   3.929   3.013   8.866  1.0307 -0.3442  0.6670
 7643SOL    HW234392   4.022   3.019   8.752 -1.4518  0.3795 -0.1098
 7644SOL     OW34393   4.128   3.059   9.942 -0.2968 -0.0789 -0.3858
 7644SOL    HW134394   4.135   3.092  10.032  0.3116  1.1614 -0.8971
 7644SOL    HW234395   4.218   3.050   9.912 -0.1362 -2.9850  0.9751
 7645SOL     OW34396   4.626   1.028  15.956 -0.7479 -0.5762 -0.7309
 7645SOL    HW134397   4.605   1.109  15.909  0.5773 -0.2179 -0.7074
 7645SOL    HW234398   4.538   1.001  15.984 -0.8674 -0.8618 -1.3778
 7646SOL     OW34399   2.182   3.798   2.463 -0.1918  0.6486 -0.3871
 7646SOL    HW134400   2.131   3.745   2.525  0.4743 -0.5478 -0.8602
 7646SOL    HW234401   2.115   3.855   2.426  0.2864  0.5888 -1.3561
 7647SOL     OW34402   3.330   3.670   4.177  0.1407 -0.4382  0.0033
 7647SOL    HW134403   3.321   3.645   4.269  2.2046 -0.9040  0.0668
 7647SOL    HW234404   3.269   3.608   4.136  1.1578 -0.5869 -1.2534
 7648SOL     OW34405   0.005   2.054   3.916  0.0281  0.4957  0.0765
 7648SOL    HW134406   0.076   2.102   3.873  0.4216  0.0936  0.2891
 7648SOL    HW234407   4.702   2.121   3.979 -1.4794 -0.1234  0.0656
 7649SOL     OW34408   2.679   1.564   1.660  0.0614  0.5675 -0.3275
 7649SOL    HW134409   2.691   1.656   1.684 -0.1975  0.4607  0.2037
 7649SOL    HW234410   2.634   1.564   1.576 -3.8489 -1.2368  1.7724
 7650SOL     OW34411   4.048   4.217  14.295 -0.2124  0.1497  0.5684
 7650SOL    HW134412   4.092   4.148  14.245  0.2104  1.1474 -0.4365
 7650SOL    HW234413   3.984   4.246  14.230 -0.4308 -3.0370 -0.6288
 7651SOL     OW34414   2.954   0.239   9.411  0.2182  0.2030  0.5531
 7651SOL    HW134415   2.897   0.207   9.341  1.4693 -0.3953 -0.1777
 7651SOL    HW234416   2.987   0.316   9.367 -1.1110  0.8126  0.6107
 7652SOL     OW34417   2.240   2.354   5.702  0.4390  0.0614  0.5342
 7652SOL    HW134418   2.255   2.338   5.609  0.1647  0.4459  0.4242
 7652SOL    HW234419   2.146   2.337   5.697  0.5901 -0.6031 -0.1056
 7653SOL     OW34420   1.182   0.771   4.480  0.4560  0.1501  0.3789
 7653SOL    HW134421   1.208   0.723   4.401 -0.8517 -0.1059  0.0976
 7653SOL    HW234422   1.088   0.759   4.490  0.5676 -0.1057  1.1246
 7654SOL     OW34423   1.226   2.947   4.411 -0.2635 -0.5763 -0.3210
 7654SOL    HW134424   1.242   3.031   4.453 -0.2981 -0.0519 -1.3775
 7654SOL    HW234425   1.135   2.956   4.385 -0.4521  0.0019  0.5583
 7655SOL     OW34426   0.355   4.156   2.022 -0.4227  0.1273 -0.4140
 7655SOL    HW134427   0.361   4.123   1.933 -3.0612  1.6773 -1.1790
 7655SOL    HW234428   0.421   4.108   2.073 -0.3546  1.3319  0.6514
 7656SOL     OW34429   3.798   0.767   6.821  0.1871 -0.0108 -0.4817
 7656SOL    HW134430   3.763   0.754   6.909 -1.0942 -2.3115 -1.3523
 7656SOL    HW234431   3.828   0.678   6.804 -0.7001  0.1520 -2.9183
 7657SOL     OW34432   0.895   3.771   7.054  0.1551 -0.1979 -0.4718
 7657SOL    HW134433   0.967   3.768   7.117  1.1595 -1.0474 -1.6769
 7657SOL    HW234434   0.885   3.866   7.065 -0.6038 -0.9184  4.7151
 7658SOL     OW34435   3.995   0.221   5.089 -0.1640 -0.1737  0.1051
 7658SOL    HW134436   4.010   0.265   5.005  0.0787  0.7320  0.6244
 7658SOL    HW234437   3.965   0.301   5.132 -2.4733  0.0440 -1.8881
 7659SOL     OW34438   0.033   3.403   7.914 -0.4800  0.6713 -0.8537
 7659SOL    HW134439   0.050   3.372   7.825 -1.3159  2.2730 -1.5686
 7659SOL    HW234440   0.079   3.487   7.906 -1.2276  1.1534  0.0013
 7660SOL     OW34441   1.363   4.617   1.715 -0.1139 -0.4876  0.1866
 7660SOL    HW134442   1.424   4.543   1.724 -0.9774 -1.3426 -1.0512
 7660SOL    HW234443   1.318   4.623   1.799 -0.4603 -0.1059 -0.0266
 7661SOL     OW34444   3.716   3.893   8.304  0.2797  0.2343  0.1266
 7661SOL    HW134445   3.737   3.841   8.381  0.3158 -0.7106 -0.5249
 7661SOL    HW234446   3.719   3.828   8.234 -0.9414 -0.8740  1.1344
 7662SOL     OW34447   3.788   4.100  17.007 -0.0425 -0.0496  0.3060
 7662SOL    HW134448   3.750   4.188  16.997 -0.8515 -0.3558  0.7284
 7662SOL    HW234449   3.834   4.105  16.923 -2.1335 -0.9226 -0.9079
 7663SOL     OW34450   1.226   3.533   3.286  0.6520  0.2061  0.3190
 7663SOL    HW134451   1.214   3.521   3.381  0.1860 -0.6055  0.1630
 7663SOL    HW234452   1.225   3.628   3.298  0.4163  0.1130  1.0515
 7664SOL     OW34453   2.736   4.377   5.499  0.8739  0.2409 -0.7172
 7664SOL    HW134454   2.672   4.346   5.435  1.9849 -0.3024 -1.5654
 7664SOL    HW234455   2.780   4.439   5.441  1.7135 -1.5018 -1.9454
 7665SOL     OW34456   1.845   4.510   9.640 -0.4719 -0.4128 -0.5177
 7665SOL    HW134457   1.781   4.569   9.599 -0.3839  1.4221  2.0077
 7665SOL    HW234458   1.843   4.544   9.729  1.2442  1.3481 -1.1397
 7666SOL     OW34459   2.859   3.284   0.347 -0.0455 -0.2363  0.1136
 7666SOL    HW134460   2.926   3.248   0.289  2.4772  1.1959  2.1088
 7666SOL    HW234461   2.891   3.240   0.426  0.3209  1.7401  1.0800
 7667SOL     OW34462   0.117   0.526   3.569  0.3356  0.6710 -0.0017
 7667SOL    HW134463   0.083   0.438   3.585  0.9988 -0.0487 -2.6156
 7667SOL    HW234464   0.045   0.582   3.601  0.4453 -0.0830  1.5805
 7668SOL     OW34465   3.209   1.847   8.019 -0.2380 -0.3628  0.0138
 7668SOL    HW134466   3.181   1.930   7.980 -0.0996  0.2023  1.1317
 7668SOL    HW234467   3.173   1.783   7.958 -0.7338 -2.1752  2.2201
 7669SOL     OW34468   4.455   0.074   7.195  0.4926 -0.5884  0.0732
 7669SOL    HW134469   4.387   0.140   7.210  0.0661 -1.2862  1.2231
 7669SOL    HW234470   4.526   0.138   7.200 -0.2995  0.6539 -4.1795
 7670SOL     OW34471   0.551   3.694   4.062  0.3367  0.3583 -0.5062
 7670SOL    HW134472   0.489   3.766   4.055 -0.8805 -0.4603  1.8328
 7670SOL    HW234473   0.542   3.663   3.971 -1.9712 -2.3996  0.6427
 7671SOL     OW34474   3.672   0.388   1.430  0.1812  0.1555 -0.2963
 7671SOL    HW134475   3.728   0.393   1.507 -0.8053  0.0793  0.4226
 7671SOL    HW234476   3.646   0.480   1.443 -0.7097 -0.1029 -0.2249
 7672SOL     OW34477   3.368   2.116  15.646 -0.6476 -0.5494 -0.2577
 7672SOL    HW134478   3.312   2.136  15.721  0.9200  1.4844  0.4007
 7672SOL    HW234479   3.336   2.189  15.592  0.2837 -2.0838 -2.8739
 7673SOL     OW34480   0.149   2.795   7.330  0.2390  0.1203  0.7086
 7673SOL    HW134481   0.182   2.737   7.399  0.1846  1.7418  2.0845
 7673SOL    HW234482   0.145   2.727   7.262  2.5082  0.9886 -0.2687
 7674SOL     OW34483   3.255   0.398  14.995  0.0869 -0.2921 -0.7506
 7674SOL    HW134484   3.319   0.331  15.018  0.6290  0.7038  0.6695
 7674SOL    HW234485   3.310   0.476  15.004  0.3300 -0.1881 -3.1670
 7675SOL     OW34486   3.763   4.598   7.558  0.1126 -0.4459  0.1047
 7675SOL    HW134487   3.711   4.519   7.569 -1.1454  0.0164 -2.3693
 7675SOL    HW234488   3.739   4.619   7.468  2.8937  1.4499 -0.2238
 7676SOL     OW34489   0.938   0.991  14.608  0.2687 -0.0499 -1.2856
 7676SOL    HW134490   0.913   0.986  14.700  1.9338 -0.5158 -0.8574
 7676SOL    HW234491   0.929   0.902  14.574 -0.4909 -1.0202  1.4528
 7677SOL     OW34492   1.583   1.636   6.043  0.4409 -0.3330 -0.1711
 7677SOL    HW134493   1.537   1.655   6.125  0.0354 -0.3285 -0.3964
 7677SOL    HW234494   1.518   1.683   5.990 -1.2347 -3.1684 -0.6558
 7678SOL     OW34495   4.356   2.129   5.377 -0.2758 -0.2413 -0.2632
 7678SOL    HW134496   4.380   2.216   5.410 -1.4397 -0.4881  1.2415
 7678SOL    HW234497   4.392   2.071   5.445 -1.9667 -0.6728  0.2486
 7679SOL     OW34498   2.899   3.338   7.883 -0.3001  0.3108 -0.0712
 7679SOL    HW134499   2.961   3.280   7.927 -0.0964  0.7813  0.2664
 7679SOL    HW234500   2.815   3.314   7.923 -0.3122  0.4417 -0.0178
 7680SOL     OW34501   3.219   1.731   3.380  0.2540 -0.1345 -0.4380
 7680SOL    HW134502   3.218   1.643   3.343  0.2549 -0.6392  0.7734
 7680SOL    HW234503   3.138   1.766   3.342 -0.3895 -1.4105 -0.2330
 7681SOL     OW34504   3.547   1.433   8.466 -0.5522  0.2450  0.1621
 7681SOL    HW134505   3.587   1.396   8.545 -0.5475 -0.9199 -0.3873
 7681SOL    HW234506   3.458   1.437   8.503 -0.2923  1.2217  0.6723
 7682SOL     OW34507   2.447   1.018   5.271 -0.4825 -0.1860 -0.1497
 7682SOL    HW134508   2.364   1.064   5.258 -0.4517  0.3438  1.5290
 7682SOL    HW234509   2.487   1.058   5.348  0.6693  0.9560 -1.3445
 7683SOL     OW34510   4.442   3.167   3.621 -0.2832 -0.2165  0.4883
 7683SOL    HW134511   4.400   3.081   3.615 -1.7010  0.5398 -0.5434
 7683SOL    HW234512   4.536   3.150   3.624  0.2602  1.9017 -3.9869
 7684SOL     OW34513   0.681   1.308  11.184 -0.3275 -0.5254  0.1347
 7684SOL    HW134514   0.709   1.227  11.226  1.5320 -0.2338 -0.5369
 7684SOL    HW234515   0.586   1.300  11.181 -0.5027  2.1285 -1.6385
 7685SOL     OW34516   1.468   0.357   5.528  0.2657  0.1141  0.7054
 7685SOL    HW134517   1.562   0.343   5.538  0.8027  3.5754  0.6106
 7685SOL    HW234518   1.457   0.404   5.611  0.4338  0.7939  0.3423
 7686SOL     OW34519   3.391   0.315   7.662 -0.1946 -0.5876 -0.0954
 7686SOL    HW134520   3.432   0.301   7.576  0.1083  0.8808 -0.1846
 7686SOL    HW234521   3.435   0.391   7.699 -1.1021 -0.0907 -0.0295
 7687SOL     OW34522   0.482   2.818   4.919  0.5447  0.1547 -0.1009
 7687SOL    HW134523   0.532   2.870   4.982  0.3655  0.3139 -0.0918
 7687SOL    HW234524   0.484   2.856   4.832  1.2990 -2.0603 -1.0441
 7688SOL     OW34525   0.034   2.753   6.430 -0.0285  0.3022  0.3784
 7688SOL    HW134526   0.069   2.719   6.348 -0.5878 -1.5673  0.9050
 7688SOL    HW234527   4.684   2.800   6.395 -0.0395 -1.4522 -1.9720
 7689SOL     OW34528   1.452   1.484   6.671  0.1394 -0.4505 -0.3297
 7689SOL    HW134529   1.427   1.501   6.581  1.4576 -0.9154 -0.7862
 7689SOL    HW234530   1.463   1.573   6.706  1.9405 -0.2416 -1.4484
 7690SOL     OW34531   1.372   0.331   8.885 -0.0738 -0.5359  0.3274
 7690SOL    HW134532   1.361   0.261   8.820 -0.3409  1.0324 -1.3121
 7690SOL    HW234533   1.466   0.346   8.877 -0.1712  0.4361  1.1315
 7691SOL     OW34534   1.005   0.479  16.700 -0.0613 -0.5408  0.0835
 7691SOL    HW134535   0.979   0.568  16.679  0.0099 -0.5348  0.0198
 7691SOL    HW234536   1.100   0.477  16.684  0.0768 -2.9679  1.1270
 7692SOL     OW34537   1.143   2.695   7.790 -0.5586 -0.1024  0.2184
 7692SOL    HW134538   1.154   2.770   7.850 -0.7026 -0.6575  0.9438
 7692SOL    HW234539   1.221   2.709   7.737  0.2663  0.7376  1.6536
 7693SOL     OW34540   0.667   3.063   4.450 -0.0745 -0.5990 -0.0730
 7693SOL    HW134541   0.746   3.012   4.433  0.2166  0.0697 -0.7018
 7693SOL    HW234542   0.648   3.116   4.373 -0.2790  0.3344  0.6082
 7694SOL     OW34543   3.101   2.975   2.972  0.0101 -0.1465  0.2128
 7694SOL    HW134544   3.180   2.935   2.935  0.2251  1.2780 -0.8968
 7694SOL    HW234545   3.065   2.895   3.009 -0.5313 -0.1160 -0.2404
 7695SOL     OW34546   2.962   3.166  13.105  0.1651 -1.0015 -0.1312
 7695SOL    HW134547   2.887   3.199  13.056  0.1650  0.9389  1.1558
 7695SOL    HW234548   2.988   3.088  13.058 -0.8383  0.4180 -3.0232
 7696SOL     OW34549   3.795   0.331   5.444 -0.9152  0.3818  0.6650
 7696SOL    HW134550   3.884   0.364   5.429 -0.2172 -1.6028  0.4726
 7696SOL    HW234551   3.742   0.397   5.399 -0.2917 -1.3406 -2.6202
 7697SOL     OW34552   1.379   1.311  16.594 -0.9625 -0.7532  0.0255
 7697SOL    HW134553   1.418   1.390  16.629 -1.0864 -1.6259  2.1733
 7697SOL    HW234554   1.381   1.262  16.676  0.9037 -0.5558  0.0894
 7698SOL     OW34555   3.839   4.290   1.537  0.2645 -0.2456 -0.1372
 7698SOL    HW134556   3.901   4.280   1.465 -1.2263  0.5001 -1.4926
 7698SOL    HW234557   3.761   4.333   1.502 -0.8845 -1.7107  0.6461
 7699SOL     OW34558   1.576   0.375   8.237  0.5770 -0.1898  0.0644
 7699SOL    HW134559   1.628   0.312   8.286  1.3544  1.4192  1.3171
 7699SOL    HW234560   1.547   0.441   8.301  0.1609  1.3518 -1.7262
 7700SOL     OW34561   3.279   4.518   9.446  0.3366  0.2170  0.0638
 7700SOL    HW134562   3.346   4.453   9.423 -1.9739 -1.7222 -1.1214
 7700SOL    HW234563   3.300   4.594   9.392  3.1356 -0.8369 -0.3561
 7701SOL     OW34564   1.478   4.573   9.452  0.1790  0.1369 -0.4645
 7701SOL    HW134565   1.401   4.516   9.448  0.4701 -0.2395 -0.6687
 7701SOL    HW234566   1.476   4.601   9.544  0.0706  0.0931 -0.4544
 7702SOL     OW34567   2.738   4.588  10.632  0.5630  0.1462 -0.1155
 7702SOL    HW134568   2.750   4.497  10.657  1.0073  0.9642  2.7014
 7702SOL    HW234569   2.701   4.569  10.546  2.9803 -0.9514 -0.9019
 7703SOL     OW34570   2.761   1.517   3.858  0.3227 -0.0251  0.0419
 7703SOL    HW134571   2.824   1.448   3.879  0.0561 -0.2666  0.0582
 7703SOL    HW234572   2.808   1.585   3.906 -2.1092  1.5069  0.2661
 7704SOL     OW34573   3.668   3.591   5.036 -0.4098 -0.1234  0.8668
 7704SOL    HW134574   3.664   3.520   5.100  1.1177 -0.6652  0.3720
 7704SOL    HW234575   3.602   3.554   4.977  0.0402 -0.4019  0.5376
 7705SOL     OW34576   3.549   3.156   2.342  0.1305  0.0891  0.0339
 7705SOL    HW134577   3.580   3.242   2.371  0.1636 -0.2311  0.9732
 7705SOL    HW234578   3.563   3.174   2.249  1.1316  0.8760  0.3331
 7706SOL     OW34579   0.591   0.087  15.609  0.1897 -0.4819 -0.9245
 7706SOL    HW134580   0.639   0.031  15.670 -0.3618  2.3148  2.1083
 7706SOL    HW234581   0.657   0.156  15.599 -0.6756  0.6084  0.8077
 7707SOL     OW34582   3.029   2.838   4.804 -0.2313  0.3783  0.1954
 7707SOL    HW134583   3.078   2.911   4.766  2.3096 -2.4220 -1.9117
 7707SOL    HW234584   3.085   2.824   4.881  0.7345  2.9251 -0.0411
 7708SOL     OW34585   2.695   3.080   5.003 -0.3758  0.2168  0.2167
 7708SOL    HW134586   2.623   3.021   5.026 -1.2468  1.7305  1.3503
 7708SOL    HW234587   2.665   3.162   5.041 -0.0972  0.1399  0.6003
 7709SOL     OW34588   0.715   0.955   5.457  0.1302 -0.7805 -0.1179
 7709SOL    HW134589   0.727   1.034   5.403  0.3287 -0.7496 -0.0278
 7709SOL    HW234590   0.704   0.889   5.388 -2.3522  0.8630 -1.2708
 7710SOL     OW34591   0.606   1.722   8.409 -0.7206  0.5027  0.2457
 7710SOL    HW134592   0.606   1.725   8.504  2.8282 -0.2650  0.2809
 7710SOL    HW234593   0.534   1.659   8.395 -0.9491  0.4534  1.6776
 7711SOL     OW34594   1.015   0.714   7.353 -0.0204 -0.0559 -0.2609
 7711SOL    HW134595   1.072   0.790   7.340  0.4270 -0.2954  0.2454
 7711SOL    HW234596   1.003   0.718   7.448 -0.5962  2.0529 -0.4259
 7712SOL     OW34597   2.777   4.310   3.609 -0.3673  0.5233  0.5760
 7712SOL    HW134598   2.757   4.340   3.520  2.2940 -0.3387 -0.3272
 7712SOL    HW234599   2.854   4.367   3.616 -0.8291  1.5518 -2.5530
 7713SOL     OW34600   1.912   3.313   7.656  0.5286 -0.6097  0.0454
 7713SOL    HW134601   1.923   3.395   7.607  1.1031 -1.4709 -1.2785
 7713SOL    HW234602   1.835   3.341   7.706 -1.2125 -1.6966 -1.9937
 7714SOL     OW34603   1.877   2.150  16.432 -0.6377 -0.0727  0.0822
 7714SOL    HW134604   1.788   2.121  16.411 -0.9035  1.7563 -1.3260
 7714SOL    HW234605   1.913   2.203  16.361 -1.2415  1.7030  1.1060
 7715SOL     OW34606   1.742   4.420   2.195  0.3930 -0.5392  0.4482
 7715SOL    HW134607   1.704   4.358   2.256  0.1216 -0.1580  0.6671
 7715SOL    HW234608   1.769   4.355   2.130  1.0672 -0.1474  0.3395
 7716SOL     OW34609   4.068   2.682  16.974 -0.3631  0.0894  0.1959
 7716SOL    HW134610   4.011   2.758  16.989 -0.0577  0.1517  1.0622
 7716SOL    HW234611   4.070   2.687  16.879  0.2190  0.9828  0.2561
 7717SOL     OW34612   1.459   4.596   8.470  0.0127 -0.0960 -0.0511
 7717SOL    HW134613   1.500   4.665   8.522  1.6378 -1.1575  0.0640
 7717SOL    HW234614   1.488   4.520   8.521 -0.2657  0.4989  0.9984
 7718SOL     OW34615   0.771   4.028   5.674  0.0704  0.2664 -0.2963
 7718SOL    HW134616   0.748   3.935   5.684  1.2409 -0.0657 -0.6390
 7718SOL    HW234617   0.695   4.079   5.702 -0.1527 -0.7411  0.9135
 7719SOL     OW34618   0.267   3.771   3.416  0.1961  0.4896  0.2245
 7719SOL    HW134619   0.243   3.795   3.326 -0.0320  1.0150  0.4252
 7719SOL    HW234620   0.361   3.787   3.424  0.1916  0.0633  1.1369
 7720SOL     OW34621   3.801   0.447  12.119  0.2362  0.2485  0.1326
 7720SOL    HW134622   3.868   0.418  12.181  0.0937  0.6238  0.4585
 7720SOL    HW234623   3.836   0.531  12.091 -0.2036 -0.6174 -2.9835
 7721SOL     OW34624   0.437   3.212   4.933  0.3162  0.2753  0.1538
 7721SOL    HW134625   0.454   3.185   4.842  1.1075 -0.0552  0.4027
 7721SOL    HW234626   0.342   3.223   4.928  0.3450 -0.2660 -1.7680
 7722SOL     OW34627   0.871   0.920   3.185  0.2425  0.0515  0.0895
 7722SOL    HW134628   0.885   0.834   3.224  2.9330  0.1096 -0.7418
 7722SOL    HW234629   0.918   0.978   3.245  0.7323 -2.1581  1.8335
 7723SOL     OW34630   3.024   2.554  16.017 -0.3438  0.1510  0.1042
 7723SOL    HW134631   3.085   2.569  15.944  1.7123 -2.1329  1.3564
 7723SOL    HW234632   3.016   2.460  16.005 -2.1109  0.0774  2.0481
 7724SOL     OW34633   2.454   3.243   3.392  0.2531  0.3159 -0.2391
 7724SOL    HW134634   2.482   3.169   3.445 -2.0564 -0.6834 -0.3954
 7724SOL    HW234635   2.362   3.251   3.418  1.2873  2.3989  2.6651
 7725SOL     OW34636   1.325   2.269   1.829  0.3919 -0.2350  0.3203
 7725SOL    HW134637   1.340   2.340   1.767  0.1408 -1.2641 -0.9158
 7725SOL    HW234638   1.410   2.226   1.821  0.1918 -0.6346  0.3324
 7726SOL     OW34639   1.918   4.141   4.857  0.0261 -0.4810  0.0538
 7726SOL    HW134640   1.935   4.062   4.907  2.2664 -1.8756 -2.8874
 7726SOL    HW234641   1.994   4.153   4.800 -0.0855 -0.9889 -0.1989
 7727SOL     OW34642   1.033   3.280   4.812  0.0862  0.5613  0.6700
 7727SOL    HW134643   1.090   3.213   4.774  1.8463  1.9242  0.8852
 7727SOL    HW234644   0.953   3.278   4.759 -0.4920 -2.3968  1.6789
 7728SOL     OW34645   4.121   1.772   2.997 -0.8592  0.2244  0.5199
 7728SOL    HW134646   4.116   1.835   3.069 -0.1459 -0.8472  1.5030
 7728SOL    HW234647   4.216   1.759   3.001 -0.9740 -1.5410 -2.2313
 7729SOL     OW34648   2.824   3.928   5.245  0.1074 -0.0203 -0.6852
 7729SOL    HW134649   2.801   3.906   5.336  0.2381 -0.6163 -0.7923
 7729SOL    HW234650   2.754   3.987   5.217  0.2594  0.0669 -0.8811
 7730SOL     OW34651   3.938   0.330   4.061  0.8711 -0.4554  0.0894
 7730SOL    HW134652   4.002   0.327   4.133 -0.5030 -0.7539  1.3035
 7730SOL    HW234653   3.865   0.282   4.100 -1.0249  0.5313 -2.2985
 7731SOL     OW34654   2.147   0.202   3.185  0.0884 -0.6137  0.0598
 7731SOL    HW134655   2.089   0.160   3.122  0.6842 -1.7516  0.2540
 7731SOL    HW234656   2.183   0.126   3.231 -0.1930 -0.9232 -0.2327
 7732SOL     OW34657   0.713   0.094   7.819  0.1423  0.1847 -0.0750
 7732SOL    HW134658   0.648   0.067   7.754  1.1900 -1.0889 -0.5695
 7732SOL    HW234659   0.789   0.039   7.804  0.0804  0.3500 -0.9794
 7733SOL     OW34660   0.737   1.082   6.642  0.6637  0.0954 -0.2597
 7733SOL    HW134661   0.748   0.991   6.614  0.7172  0.4513 -1.3901
 7733SOL    HW234662   0.650   1.085   6.681  0.9808 -0.2668  0.4763
 7734SOL     OW34663   4.399   4.158   4.872  0.6370  0.0758 -0.0708
 7734SOL    HW134664   4.478   4.178   4.822  0.6823  0.4835  0.1630
 7734SOL    HW234665   4.376   4.073   4.834  0.0003 -0.4749  1.5510
 7735SOL     OW34666   2.812   3.043   8.019  0.6237 -0.4184 -0.2879
 7735SOL    HW134667   2.886   3.104   8.024 -0.5634  0.8943  1.5433
 7735SOL    HW234668   2.784   3.034   8.110  0.3331 -0.2769 -0.3635
 7736SOL     OW34669   2.699   0.346   6.687  0.8654 -0.1314 -0.9822
 7736SOL    HW134670   2.685   0.252   6.689  1.2821 -0.1071  3.4005
 7736SOL    HW234671   2.711   0.358   6.593  2.1086  2.0474 -0.5501
 7737SOL     OW34672   1.665   3.134  16.363 -0.2022 -0.1669 -0.3916
 7737SOL    HW134673   1.639   3.204  16.422 -2.3502 -0.6372 -0.8028
 7737SOL    HW234674   1.690   3.069  16.428 -0.4140 -2.1031 -2.2270
 7738SOL     OW34675   3.202   2.492   2.783  0.4655 -0.4026 -0.4214
 7738SOL    HW134676   3.231   2.429   2.849  2.9974  1.0528 -0.1453
 7738SOL    HW234677   3.220   2.435   2.708  1.1433  0.3144 -0.8135
 7739SOL     OW34678   4.237   3.043   7.833 -0.2320  0.5047 -0.2823
 7739SOL    HW134679   4.235   3.117   7.893 -2.8113  2.3289 -2.6260
 7739SOL    HW234680   4.187   3.080   7.760 -0.0463 -0.6298 -0.9914
 7740SOL     OW34681   2.020   2.654   8.516 -0.2029  0.4979 -0.4461
 7740SOL    HW134682   1.958   2.674   8.586  2.2312  0.4196  1.7165
 7740SOL    HW234683   2.061   2.736   8.489  0.3111  0.4550  0.1864
 7741SOL     OW34684   1.594   1.497   1.793 -0.3516 -0.1982  0.8126
 7741SOL    HW134685   1.622   1.465   1.878 -1.3768  3.0575  2.4023
 7741SOL    HW234686   1.667   1.462   1.742 -0.2527 -0.9712  1.4780
 7742SOL     OW34687   2.645   0.821   8.737  0.3121 -0.8957  0.4097
 7742SOL    HW134688   2.656   0.733   8.700 -3.2094 -1.3373  0.3469
 7742SOL    HW234689   2.699   0.822   8.816  0.8217  0.7262  0.0393
 7743SOL     OW34690   4.438   3.841  11.536 -0.0711  0.3932  0.6989
 7743SOL    HW134691   4.410   3.883  11.454 -1.1863 -1.7055  0.0153
 7743SOL    HW234692   4.489   3.914  11.573 -2.0586  0.8070  2.6121
 7744SOL     OW34693   0.927   1.194   7.145 -0.1477  0.5891  0.0793
 7744SOL    HW134694   0.839   1.180   7.110  0.4517 -1.1789 -0.7351
 7744SOL    HW234695   0.986   1.142   7.091  2.1828  2.7403  0.5741
 7745SOL     OW34696   4.655   2.839   6.751 -0.8859  0.1743  0.4071
 7745SOL    HW134697   0.024   2.845   6.771 -0.2290 -0.3434 -2.6166
 7745SOL    HW234698   4.635   2.750   6.782 -1.4175 -0.0504 -0.5760
 7746SOL     OW34699   2.825   0.856   7.923 -0.4074 -0.0970 -0.3418
 7746SOL    HW134700   2.738   0.883   7.892 -0.8086 -0.6695  0.2688
 7746SOL    HW234701   2.812   0.761   7.928 -0.7022 -0.0401 -0.0489
 7747SOL     OW34702   0.741   3.296   4.742 -0.0094  0.1219  0.0099
 7747SOL    HW134703   0.682   3.252   4.804  0.9815 -0.1342  0.7617
 7747SOL    HW234704   0.710   3.246   4.666  1.8794  1.3248 -1.5282
 7748SOL     OW34705   3.987   4.459  16.977  0.9255  0.4076  0.3634
 7748SOL    HW134706   3.984   4.500  17.063 -3.1596  0.2007  0.3354
 7748SOL    HW234707   3.971   4.528  16.913  2.3803  0.7098  0.3287
 7749SOL     OW34708   2.321   4.020   2.105  0.0873 -0.3843  0.4655
 7749SOL    HW134709   2.337   4.010   2.199  1.5664  3.6147  0.6437
 7749SOL    HW234710   2.236   3.976   2.096 -0.5117  0.3840  2.2750
 7750SOL     OW34711   4.566   2.661   2.739 -0.3787  0.0693 -0.0558
 7750SOL    HW134712   4.476   2.641   2.713  0.1770  0.1509 -2.0836
 7750SOL    HW234713   4.587   2.588   2.797 -1.1144 -1.8405 -2.1633
 7751SOL     OW34714   0.880   0.664  14.595  1.0430 -1.0057  0.1679
 7751SOL    HW134715   0.815   0.714  14.545  1.5004 -0.8961 -0.3039
 7751SOL    HW234716   0.834   0.581  14.610 -0.5853 -0.0010  0.8412
 7752SOL     OW34717   1.363   3.551  11.684 -0.0106  0.2826  0.5272
 7752SOL    HW134718   1.378   3.627  11.628 -0.5902 -0.2807 -0.3935
 7752SOL    HW234719   1.422   3.498  11.631 -1.1877 -0.1315 -0.3715
 7753SOL     OW34720   0.467   0.527   3.232  0.2258  0.6351  0.0415
 7753SOL    HW134721   0.424   0.535   3.317  0.2823 -1.1392  0.2409
 7753SOL    HW234722   0.390   0.524   3.175 -0.5292 -2.3169  1.2246
 7754SOL     OW34723   3.529   0.380   1.696 -0.1282  0.4614 -0.1377
 7754SOL    HW134724   3.589   0.446   1.662  0.4335  0.7699  1.4626
 7754SOL    HW234725   3.443   0.408   1.664 -1.1669 -1.7134  0.7104
 7755SOL     OW34726   3.433   3.785  14.491  0.5734  0.3871  0.2171
 7755SOL    HW134727   3.480   3.865  14.514 -1.2250  1.0603  1.5382
 7755SOL    HW234728   3.511   3.729  14.489 -0.1010 -0.5437 -0.0902
 7756SOL     OW34729   1.169   2.174   8.753  0.1845  0.0952 -0.1936
 7756SOL    HW134730   1.232   2.246   8.747 -3.3307  3.3668  1.7395
 7756SOL    HW234731   1.203   2.101   8.702 -2.2756 -0.9045 -0.4009
 7757SOL     OW34732   4.363   3.394   4.045 -0.3890 -0.1079 -0.4051
 7757SOL    HW134733   4.418   3.443   3.985 -1.1439 -0.2790 -1.2308
 7757SOL    HW234734   4.274   3.416   4.017 -0.8755  0.1448  1.3134
 7758SOL     OW34735   1.703   0.525  17.392  0.3273 -0.5436  0.0109
 7758SOL    HW134736   1.640   0.453  17.389  0.9278 -1.1263  0.9156
 7758SOL    HW234737   1.744   0.503  17.476 -1.8424  1.8530  1.6938
 7759SOL     OW34738   2.849   0.957   3.508  1.4425  0.2614  0.0807
 7759SOL    HW134739   2.918   0.892   3.494 -0.0764 -1.3306 -0.0415
 7759SOL    HW234740   2.787   0.893   3.545  2.5644  1.0076  3.2827
 7760SOL     OW34741   2.145   1.417   3.160 -0.7417 -0.2393  0.2380
 7760SOL    HW134742   2.225   1.415   3.108 -2.0676  2.1860 -1.8821
 7760SOL    HW234743   2.137   1.512   3.173 -2.5458 -0.1456 -1.5626
 7761SOL     OW34744   2.875   0.006  17.302  0.6069  0.0418  0.0105
 7761SOL    HW134745   2.840   4.662  17.246  2.5370  0.0092 -1.1332
 7761SOL    HW234746   2.913   0.061  17.232  0.8637  0.6934  0.6604
 7762SOL     OW34747   2.908   0.048   8.194 -0.4621  0.2686 -0.1503
 7762SOL    HW134748   2.845   0.088   8.135 -1.0962 -1.4796 -0.6691
 7762SOL    HW234749   2.956   4.718   8.132 -1.7974 -1.9846  0.8263
 7763SOL     OW34750   3.098   3.142  10.600 -0.3751 -0.0759  0.4322
 7763SOL    HW134751   3.060   3.202  10.536 -0.1802  0.7889  1.1199
 7763SOL    HW234752   3.108   3.201  10.675  0.1725  0.5993 -0.1743
 7764SOL     OW34753   0.635   1.168   6.111 -0.0691 -0.0597 -0.0784
 7764SOL    HW134754   0.630   1.259   6.140 -1.8331 -0.2342  0.1372
 7764SOL    HW234755   0.606   1.133   6.195  0.2777 -1.5657 -0.5927
 7765SOL     OW34756   1.671   2.923   5.879 -0.0702  0.6116 -0.4192
 7765SOL    HW134757   1.645   2.839   5.915  0.2990  0.7259  0.1153
 7765SOL    HW234758   1.738   2.887   5.821  1.5850  4.0582 -0.6592
 7766SOL     OW34759   1.519   2.409   7.110  0.1504  0.0782 -0.1966
 7766SOL    HW134760   1.487   2.494   7.080 -0.2016  0.0653  0.1484
 7766SOL    HW234761   1.538   2.362   7.028  1.2995  1.9208 -0.9778
 7767SOL     OW34762   1.444   2.186   9.446 -0.0803 -0.2843 -0.6819
 7767SOL    HW134763   1.404   2.144   9.522 -0.7184  0.6398 -0.5103
 7767SOL    HW234764   1.442   2.115   9.382 -1.4194 -3.2598  2.5961
 7768SOL     OW34765   2.174   4.722   2.031  0.4421 -0.8601  0.4709
 7768SOL    HW134766   2.248   0.058   2.027  1.7305 -2.3249  1.9315
 7768SOL    HW234767   2.213   4.649   2.079  3.1171  0.3110  0.1016
 7769SOL     OW34768   4.471   0.692   1.026  0.0002  0.1450 -0.0053
 7769SOL    HW134769   4.409   0.690   1.099  1.1958 -2.5009  0.9572
 7769SOL    HW234770   4.483   0.786   1.020  0.3117  0.1638  0.8330
 7770SOL     OW34771   3.171   3.185   3.620 -0.2064  0.2952 -0.0640
 7770SOL    HW134772   3.102   3.118   3.621 -0.2154  0.2846 -1.3900
 7770SOL    HW234773   3.244   3.159   3.564  0.4511 -0.0844  0.9781
 7771SOL     OW34774   2.210   3.114   7.799 -0.5780 -0.3704  0.3299
 7771SOL    HW134775   2.247   3.202   7.791 -1.5240  0.1080  1.1464
 7771SOL    HW234776   2.290   3.064   7.813 -0.6306 -0.7429 -0.6803
 7772SOL     OW34777   0.568   1.804   8.726 -0.0006 -0.1947  0.0071
 7772SOL    HW134778   0.575   1.898   8.738 -0.7049 -0.5691  3.5295
 7772SOL    HW234779   0.545   1.765   8.811  0.8638 -0.5653  0.0742
 7773SOL     OW34780   4.281   1.914   4.328  0.5533 -0.0034  0.1515
 7773SOL    HW134781   4.235   1.986   4.286  1.7983  1.0837  0.6305
 7773SOL    HW234782   4.222   1.839   4.328  0.6472 -0.0915 -2.7572
 7774SOL     OW34783   2.769   2.181   0.358  0.2157  0.1329 -0.5929
 7774SOL    HW134784   2.722   2.190   0.441  0.1395  0.1723 -0.6413
 7774SOL    HW234785   2.702   2.145   0.301  0.2031  0.3668 -0.7257
 7775SOL     OW34786   2.745   1.394   8.522 -0.2718 -0.5094  0.4148
 7775SOL    HW134787   2.764   1.413   8.614 -0.3660  1.6944 -0.0248
 7775SOL    HW234788   2.790   1.310   8.514 -0.6207 -0.6128 -0.4306
 7776SOL     OW34789   1.303   4.249  10.708 -0.0451  0.2651 -0.5245
 7776SOL    HW134790   1.325   4.228  10.799  1.3899  0.3310 -0.8602
 7776SOL    HW234791   1.368   4.315  10.682  0.0366  0.8018  1.0448
 7777SOL     OW34792   3.257   4.085   4.394  0.8053 -0.5319  0.2410
 7777SOL    HW134793   3.168   4.120   4.393  0.0127 -2.5600  0.0118
 7777SOL    HW234794   3.307   4.150   4.443  2.2033 -0.7605 -0.8612
 7778SOL     OW34795   1.694   2.010   3.677 -0.4234 -0.4176  0.4384
 7778SOL    HW134796   1.747   1.941   3.715 -1.9405 -0.7757  1.9470
 7778SOL    HW234797   1.758   2.036   3.611 -2.8027  0.4203 -1.5292
 7779SOL     OW34798   0.095   1.121   4.442 -0.6998 -0.2672  0.3055
 7779SOL    HW134799   0.064   1.050   4.387 -0.5283 -0.8314  0.9366
 7779SOL    HW234800   0.078   1.089   4.531  2.1531 -0.5566  0.7425
 7780SOL     OW34801   3.480   0.063   7.681  0.0851 -0.1875 -0.5248
 7780SOL    HW134802   3.549   0.090   7.621  0.4905 -2.3532 -1.0393
 7780SOL    HW234803   3.429   0.142   7.665 -0.6846 -0.8462 -1.3757
 7781SOL     OW34804   2.612   3.210  12.148 -0.1439 -0.4339  0.2447
 7781SOL    HW134805   2.592   3.141  12.210  0.4393  0.0196  0.9370
 7781SOL    HW234806   2.682   3.259  12.192 -1.4502  0.6387  1.1394
 7782SOL     OW34807   3.482   4.652   8.689 -0.2469  0.1283  0.1310
 7782SOL    HW134808   3.441   4.572   8.722  1.2401 -0.9227 -0.5482
 7782SOL    HW234809   3.497   4.622   8.599  2.3315 -0.5681  0.7808
 7783SOL     OW34810   4.178   4.467  10.120 -0.2861  0.2582  0.3298
 7783SOL    HW134811   4.183   4.535  10.186 -4.2221 -0.2736  1.1190
 7783SOL    HW234812   4.244   4.409  10.158  0.5221  1.2675  0.4657
 7784SOL     OW34813   2.417   0.216   5.110 -0.4880 -0.0722 -0.1230
 7784SOL    HW134814   2.511   0.212   5.092 -0.6620  0.4483 -1.1137
 7784SOL    HW234815   2.404   0.128   5.146 -1.3597  0.6135  1.2468
 7785SOL     OW34816   1.349   3.982   7.681 -1.0062 -0.0718  0.5246
 7785SOL    HW134817   1.403   4.005   7.757  0.2251 -1.4029  0.0583
 7785SOL    HW234818   1.410   3.958   7.611 -1.5438  0.7262 -0.2086
 7786SOL     OW34819   4.032   3.699  10.166  0.7539  0.5323 -0.1023
 7786SOL    HW134820   4.099   3.639  10.132 -0.0854 -1.0027  0.9378
 7786SOL    HW234821   3.986   3.642  10.228 -0.1885 -0.5384 -1.7507
 7787SOL     OW34822   3.304   0.651  14.277  0.4323 -0.5179  0.8932
 7787SOL    HW134823   3.391   0.691  14.287  0.1686  0.1267  0.6183
 7787SOL    HW234824   3.330   0.561  14.258  0.8995 -0.4397  1.1683
 7788SOL     OW34825   0.343   2.919   9.401  0.0347  0.1477 -0.0571
 7788SOL    HW134826   0.319   3.009   9.424  0.4085  0.6761 -1.7004
 7788SOL    HW234827   0.438   2.932   9.395  0.1572 -1.1336 -0.9073
 7789SOL     OW34828   2.039   1.163  11.741  0.4362  0.5340 -0.2155
 7789SOL    HW134829   1.983   1.106  11.688  0.7807 -1.0276  1.0973
 7789SOL    HW234830   2.112   1.167  11.679 -0.7721 -0.7612 -1.7165
 7790SOL     OW34831   1.326   0.688   0.348 -0.0597 -0.2647  0.3703
 7790SOL    HW134832   1.241   0.644   0.341  0.2872 -0.7096 -1.0310
 7790SOL    HW234833   1.327   0.729   0.434  1.6359 -0.6789  0.5461
 7791SOL     OW34834   1.484   0.673   7.616 -0.1253  0.5037  0.2185
 7791SOL    HW134835   1.436   0.616   7.676  0.4290  0.7970  0.9309
 7791SOL    HW234836   1.569   0.663   7.660  0.1466  2.1939  0.0716
 7792SOL     OW34837   1.084   2.087   0.724 -0.0655 -0.2736  0.2382
 7792SOL    HW134838   1.020   2.142   0.678  1.8011  1.5856 -0.1524
 7792SOL    HW234839   1.089   2.147   0.799 -0.1604  0.9299 -0.7137
 7793SOL     OW34840   1.649   2.128   8.813  0.0057  0.0080 -0.1926
 7793SOL    HW134841   1.648   2.157   8.904 -2.2596 -1.6266  0.3119
 7793SOL    HW234842   1.668   2.214   8.775 -1.8286  0.6624  0.4097
 7794SOL     OW34843   1.623   0.643  10.766  0.0235  0.2754  0.8478
 7794SOL    HW134844   1.662   0.683  10.844 -0.4198 -0.1884  1.3099
 7794SOL    HW234845   1.671   0.560  10.762  1.8941  1.4099 -0.3206
 7795SOL     OW34846   3.530   0.360   3.871 -0.3049 -0.0800 -0.4763
 7795SOL    HW134847   3.607   0.305   3.882 -2.0146 -2.4599 -0.3840
 7795SOL    HW234848   3.470   0.316   3.931 -0.7930  1.6177  0.2695
 7796SOL     OW34849   0.796   4.708  15.782 -0.4279 -0.1503  0.2444
 7796SOL    HW134850   0.837   4.640  15.728  0.7052  0.5618  0.2135
 7796SOL    HW234851   0.835   4.703  15.869 -0.5983  2.3301  0.4726
 7797SOL     OW34852   3.679   3.046   5.910 -0.7640  0.2068 -0.1376
 7797SOL    HW134853   3.752   3.091   5.867  1.4626 -1.0644  2.3075
 7797SOL    HW234854   3.640   3.114   5.965 -2.0039  0.2906 -1.1088
 7798SOL     OW34855   4.218   3.827   5.882  0.3720  0.3092  0.3926
 7798SOL    HW134856   4.285   3.885   5.847  0.4803 -0.4173 -0.6033
 7798SOL    HW234857   4.188   3.785   5.801 -1.9143 -1.2171  2.0327
 7799SOL     OW34858   2.417   4.512  17.107  0.4033 -0.5725  0.0012
 7799SOL    HW134859   2.428   4.501  17.202 -0.1970  0.9927  0.2460
 7799SOL    HW234860   2.324   4.488  17.104  0.5570 -0.9305 -1.5639
 7800SOL     OW34861   3.133   3.760   6.361  0.2910 -0.1369  0.3250
 7800SOL    HW134862   3.178   3.769   6.445  1.2268 -1.2260 -0.0528
 7800SOL    HW234863   3.096   3.848   6.365  1.4754  0.4456 -1.7021
 7801SOL     OW34864   4.300   0.497   4.490  0.2709  0.5531 -0.1213
 7801SOL    HW134865   4.289   0.582   4.533  2.5544  0.4272  0.6629
 7801SOL    HW234866   4.388   0.500   4.454  0.5738  1.2633  0.6899
 7802SOL     OW34867   1.496   3.022   6.442 -0.5932 -0.2256 -0.7684
 7802SOL    HW134868   1.406   3.052   6.455 -0.7470 -1.3806  0.7949
 7802SOL    HW234869   1.492   2.958   6.371  1.9975 -0.2165 -0.9295
 7803SOL     OW34870   2.914   2.797   7.908  0.6452 -0.1946 -0.4998
 7803SOL    HW134871   2.856   2.864   7.943  0.4494  0.2280 -1.6582
 7803SOL    HW234872   2.937   2.742   7.983 -1.6588 -1.2932 -0.5986
 7804SOL     OW34873   2.596   4.138   5.928  0.6295  0.3437  0.1870
 7804SOL    HW134874   2.589   4.206   5.995 -1.1476  3.2280 -2.9331
 7804SOL    HW234875   2.575   4.193   5.852 -1.3374  1.0150  1.2024
 7805SOL     OW34876   2.961   1.236   7.795 -0.2015  0.0787 -0.4993
 7805SOL    HW134877   2.975   1.236   7.890 -0.5378 -0.0641 -0.4510
 7805SOL    HW234878   3.038   1.290   7.777  0.5915 -0.7748  0.3163
 7806SOL     OW34879   3.634   1.491   3.540  0.4787 -0.4140 -0.2449
 7806SOL    HW134880   3.673   1.411   3.506  1.3974 -0.9707  2.1742
 7806SOL    HW234881   3.709   1.550   3.541 -0.1282  0.3290  0.6601
 7807SOL     OW34882   4.050   1.808  12.518 -0.0941 -0.3318 -0.8141
 7807SOL    HW134883   4.098   1.738  12.562 -1.2109 -0.8406 -0.4190
 7807SOL    HW234884   3.991   1.761  12.459 -1.8965 -1.7116  2.0720
 7808SOL     OW34885   3.942   1.131   5.151  0.0129  0.4782  0.1468
 7808SOL    HW134886   3.889   1.193   5.100 -0.0249 -1.8205 -2.5476
 7808SOL    HW234887   3.936   1.049   5.104  0.9451  0.9743 -0.8321
 7809SOL     OW34888   3.846   2.360   2.494 -0.0468  0.9233  0.1415
 7809SOL    HW134889   3.847   2.362   2.589 -0.2043  0.7603  0.1450
 7809SOL    HW234890   3.762   2.405   2.483 -0.8074 -0.5102  0.1765
 7810SOL     OW34891   0.237   3.702  17.583 -0.4465  0.1145  0.5537
 7810SOL    HW134892   0.315   3.650  17.601 -0.8712 -0.6287  0.2101
 7810SOL    HW234893   0.233   3.755  17.663 -0.4052 -0.6705  1.0755
 7811SOL     OW34894   2.664   0.137   3.725 -0.2410 -0.5026 -0.0333
 7811SOL    HW134895   2.580   0.173   3.751 -2.5550 -4.6710 -1.7689
 7811SOL    HW234896   2.652   0.048   3.757  0.1726 -1.7906 -3.5032
 7812SOL     OW34897   3.332   0.339   8.936  0.0151 -0.1257  0.2962
 7812SOL    HW134898   3.309   0.295   9.018 -0.9645 -0.6058 -0.2469
 7812SOL    HW234899   3.307   0.427   8.966  2.7904  0.6749  0.2597
 7813SOL     OW34900   4.537   2.008   4.165 -0.1285  0.1120 -0.2176
 7813SOL    HW134901   4.464   1.987   4.224 -0.9244  2.0328 -0.5161
 7813SOL    HW234902   4.487   2.019   4.085  0.2973  1.0849 -0.3432
 7814SOL     OW34903   0.251   4.421   6.689  0.2186  0.3796  0.6851
 7814SOL    HW134904   0.234   4.483   6.760 -0.7915 -0.4647  1.1768
 7814SOL    HW234905   0.253   4.479   6.613 -0.1933 -2.6112 -1.5799
 7815SOL     OW34906   0.026   0.666  16.645 -0.2547  0.2864 -0.1300
 7815SOL    HW134907   0.042   0.671  16.551 -1.0098  0.1698 -0.2654
 7815SOL    HW234908   0.064   0.749  16.674  3.2782 -1.2318 -0.4966
 7816SOL     OW34909   0.203   2.439   4.975  0.6962 -0.1477 -0.1515
 7816SOL    HW134910   0.114   2.447   4.943  0.2929  0.8236  1.1889
 7816SOL    HW234911   0.245   2.496   4.911  0.6838  1.1868  1.0142
 7817SOL     OW34912   3.472   2.034  11.272 -0.2581 -0.3590 -0.1418
 7817SOL    HW134913   3.455   2.120  11.310 -2.4406 -0.7276 -0.2886
 7817SOL    HW234914   3.388   2.002  11.237  1.2138 -0.6708 -3.4401
 7818SOL     OW34915   3.594   0.424  11.076 -0.2684  0.2486  0.3418
 7818SOL    HW134916   3.521   0.441  11.135  1.6953 -2.2503  3.4488
 7818SOL    HW234917   3.580   0.333  11.052  1.8501  0.2916 -1.0673
 7819SOL     OW34918   1.122   0.090   0.540  0.1499 -0.4855  0.3981
 7819SOL    HW134919   1.082   0.156   0.598  2.2185 -0.5346  1.8929
 7819SOL    HW234920   1.205   0.070   0.584 -0.3384 -0.1835  1.4687
 7820SOL     OW34921   1.191   0.413   5.126  0.7998  0.1285  0.1354
 7820SOL    HW134922   1.281   0.441   5.109  0.6727 -1.4798 -3.0905
 7820SOL    HW234923   1.195   0.318   5.119  2.2719  0.2394 -0.4932
 7821SOL     OW34924   4.265   0.595  16.234 -0.2071  0.8524  0.3420
 7821SOL    HW134925   4.272   0.614  16.141 -1.0267  0.0827  0.1119
 7821SOL    HW234926   4.358   0.595  16.258  0.1716 -0.1613 -1.1501
 7822SOL     OW34927   0.950   2.403   5.881  0.4146  0.2095  0.1885
 7822SOL    HW134928   1.019   2.449   5.929  0.0671  0.1645  0.7257
 7822SOL    HW234929   0.966   2.316   5.916 -0.5679 -0.1452 -0.2393
 7823SOL     OW34930   3.194   0.641   5.177  0.6987 -0.1201  0.3002
 7823SOL    HW134931   3.165   0.607   5.092 -0.1951  2.6135 -0.4869
 7823SOL    HW234932   3.113   0.686   5.203  0.3120  0.9633 -2.7990
 7824SOL     OW34933   1.137   4.573   4.867  0.6717 -0.3627 -0.1727
 7824SOL    HW134934   1.189   4.596   4.944 -0.1406 -0.7381  0.4885
 7824SOL    HW234935   1.141   4.478   4.858  4.8095 -0.0331 -1.7809
 7825SOL     OW34936   2.148   2.516   3.181 -0.2334 -0.0394 -0.4859
 7825SOL    HW134937   2.076   2.579   3.182 -0.9542 -0.8538 -0.6503
 7825SOL    HW234938   2.106   2.433   3.156 -1.8397 -0.0444  2.2176
 7826SOL     OW34939   0.473   1.732   2.784 -0.9812  0.5137  0.7346
 7826SOL    HW134940   0.530   1.694   2.851 -1.8075  0.8379  1.6334
 7826SOL    HW234941   0.491   1.671   2.713 -0.8442 -1.2389  2.2702
 7827SOL     OW34942   0.395   0.380   7.955  0.4642 -0.3391 -0.0627
 7827SOL    HW134943   0.467   0.437   7.929  0.1251 -0.1618 -0.6145
 7827SOL    HW234944   0.334   0.452   7.976  0.0285 -0.2981 -1.4908
 7828SOL     OW34945   3.213   3.786  12.482  0.5162 -0.6697 -0.5251
 7828SOL    HW134946   3.169   3.785  12.567 -1.2092  1.3589 -1.3855
 7828SOL    HW234947   3.225   3.692  12.468 -0.3354 -0.7244 -0.8661
 7829SOL     OW34948   0.298   1.066   6.067  0.1740  0.1396  0.0683
 7829SOL    HW134949   0.218   1.021   6.039 -0.0028  0.1587  0.5265
 7829SOL    HW234950   0.364   1.006   6.032  1.2190  0.4611  1.5077
 7830SOL     OW34951   4.080   2.698  13.093  0.1834 -0.0134  0.0857
 7830SOL    HW134952   4.029   2.775  13.118 -0.5755 -0.3966 -0.2720
 7830SOL    HW234953   4.035   2.630  13.143  1.0070 -1.3254 -0.9599
 7831SOL     OW34954   2.608   4.391   5.036 -0.0677  0.1046  0.3905
 7831SOL    HW134955   2.661   4.448   4.980 -2.6794  2.8843  0.7263
 7831SOL    HW234956   2.582   4.320   4.978  1.9545  1.0908 -1.7053
 7832SOL     OW34957   1.248   3.194   6.416  0.4232 -0.8930 -1.0772
 7832SOL    HW134958   1.213   3.178   6.504  0.2424 -3.5001 -1.6363
 7832SOL    HW234959   1.164   3.228   6.384 -0.4295 -2.8273 -0.9184
 7833SOL     OW34960   4.656   3.211  10.209 -0.8269 -0.3684 -0.2946
 7833SOL    HW134961   4.650   3.120  10.238 -2.1324 -1.0025 -2.5358
 7833SOL    HW234962   4.599   3.244  10.278  2.1480  1.6305  1.1840
 7834SOL     OW34963   2.973   0.350   8.212 -0.1668 -0.1877 -0.2925
 7834SOL    HW134964   2.882   0.361   8.236  0.4007  0.1988  1.6763
 7834SOL    HW234965   2.981   0.255   8.202  2.6678  0.1451 -1.3371
 7835SOL     OW34966   2.348   3.749   6.133  0.7166  0.6083  0.7137
 7835SOL    HW134967   2.423   3.697   6.104  0.0409  0.3841 -0.6205
 7835SOL    HW234968   2.340   3.810   6.060 -0.2408 -2.1264 -1.4378
 7836SOL     OW34969   4.024   4.270   1.950  0.1032 -0.2549 -0.6883
 7836SOL    HW134970   3.949   4.273   2.010 -0.6173  0.8968 -1.6537
 7836SOL    HW234971   3.996   4.203   1.888 -0.6491 -1.2111  0.6800
 7837SOL     OW34972   0.806   2.992   8.421  0.4355 -0.1043 -0.0213
 7837SOL    HW134973   0.841   2.979   8.509 -1.0991  1.2239  0.7822
 7837SOL    HW234974   0.813   2.904   8.383 -0.0693 -0.2712  0.2722
 7838SOL     OW34975   0.596   3.014   6.249  0.0530  0.0013  0.5467
 7838SOL    HW134976   0.523   2.958   6.224 -0.2634  0.1886  1.0557
 7838SOL    HW234977   0.650   3.001   6.171 -1.2016  2.7524 -0.7927
 7839SOL     OW34978   2.305   4.654   8.145 -0.0453 -0.3097 -0.0019
 7839SOL    HW134979   2.308   4.719   8.075 -0.8899  0.2815  0.5150
 7839SOL    HW234980   2.290   4.717   8.215 -0.9378  0.5864 -0.9938
 7840SOL     OW34981   3.717   4.495  14.739 -0.4218  0.0368  0.2821
 7840SOL    HW134982   3.671   4.411  14.734 -1.6101  0.6957  0.2118
 7840SOL    HW234983   3.807   4.470  14.716 -0.7078 -0.6106 -0.1390
 7841SOL     OW34984   3.355   2.857   0.653 -0.2334  0.3954  0.0591
 7841SOL    HW134985   3.342   2.846   0.747 -2.2569  1.5044 -0.1087
 7841SOL    HW234986   3.439   2.813   0.642 -0.8572 -0.3217 -1.8104
 7842SOL     OW34987   0.413   2.450   1.624  0.3046  0.1915  0.0327
 7842SOL    HW134988   0.357   2.514   1.667  1.5895  0.3643  1.4669
 7842SOL    HW234989   0.452   2.485   1.544  0.9510  0.7521  0.5915
 7843SOL     OW34990   2.763   0.145  11.062 -0.4174  0.1886  0.5406
 7843SOL    HW134991   2.716   0.222  11.096 -1.8338  0.2209 -1.4759
 7843SOL    HW234992   2.749   0.145  10.967  0.3933 -0.8350  0.4308
 7844SOL     OW34993   0.977   4.548   1.127 -0.0574 -0.2579  0.4487
 7844SOL    HW134994   1.067   4.514   1.125 -0.9588 -2.5600 -0.6562
 7844SOL    HW234995   0.987   4.632   1.172  2.6853 -0.9844  1.2257
 7845SOL     OW34996   1.330   3.187   2.567 -0.1868 -0.3920  0.1515
 7845SOL    HW134997   1.264   3.123   2.595 -1.9044  1.5037  0.3923
 7845SOL    HW234998   1.345   3.246   2.640 -3.1836  0.5416 -0.0135
 7846SOL     OW34999   1.758   1.292   3.967 -0.1817 -0.3003 -0.7132
 7846SOL    HW135000   1.668   1.263   3.986 -0.0131 -1.4184 -1.6465
 7846SOL    HW235001   1.803   1.227   4.020  0.0262 -0.2554 -0.8349
 7847SOL     OW35002   3.240   1.318  16.491  0.4825 -0.7880 -0.2709
 7847SOL    HW135003   3.217   1.411  16.489 -1.0748 -1.1762  0.0545
 7847SOL    HW235004   3.335   1.318  16.503  0.4810  1.5415 -0.2032
 7848SOL     OW35005   1.004   2.131   6.574  0.5193  0.0105  0.1728
 7848SOL    HW135006   1.097   2.124   6.598  0.5872 -1.6081 -0.5402
 7848SOL    HW235007   0.993   2.062   6.508 -1.6085  0.7352 -0.2024
 7849SOL     OW35008   3.548   4.453  10.122 -0.0991 -0.0028  0.1715
 7849SOL    HW135009   3.643   4.463  10.116 -0.2125  0.4290 -0.7779
 7849SOL    HW235010   3.526   4.409  10.040 -1.1192  0.3709  0.2421
 7850SOL     OW35011   4.321   2.097   9.661  0.0275  0.4334 -0.4179
 7850SOL    HW135012   4.399   2.044   9.644  1.6509  2.9641 -0.8467
 7850SOL    HW235013   4.305   2.114   9.568 -1.0165 -0.5618 -0.4291
 7851SOL     OW35014   3.524   0.041   1.207 -0.3878  0.0777  0.1730
 7851SOL    HW135015   3.601   0.004   1.164 -1.0799 -0.7879 -0.3154
 7851SOL    HW235016   3.454   4.706   1.181 -2.2250  0.9285  3.0616
 7852SOL     OW35017   1.225   0.987   4.065 -0.3734 -0.0844 -0.1820
 7852SOL    HW135018   1.265   0.961   3.982 -1.0464 -1.5301 -0.0506
 7852SOL    HW235019   1.173   0.909   4.084  2.3590 -1.8001  0.1785
 7853SOL     OW35020   0.055   3.456   8.546 -0.8869 -0.1740 -0.4749
 7853SOL    HW135021   0.078   3.386   8.607  0.6651  2.1878  1.6627
 7853SOL    HW235022   0.106   3.434   8.468 -0.1483 -0.3078  0.0404
 7854SOL     OW35023   3.029   0.211  16.381 -0.0801 -0.3574  0.5167
 7854SOL    HW135024   2.959   0.223  16.316  1.7234  1.0586 -1.1842
 7854SOL    HW235025   3.081   0.151  16.327 -0.5728  0.0562 -0.4370
 7855SOL     OW35026   0.677   4.584   7.246  0.6121 -0.2481 -0.0066
 7855SOL    HW135027   0.607   4.556   7.187  1.5026 -2.2565 -0.0957
 7855SOL    HW235028   0.642   4.642   7.313  0.2629  0.7939 -1.0746
 7856SOL     OW35029   2.745   3.861  10.390 -0.2369  0.1988  0.6760
 7856SOL    HW135030   2.747   3.931  10.324  3.9046  0.3035  0.9225
 7856SOL    HW235031   2.653   3.848  10.410 -0.3831  0.3354  0.1125
 7857SOL     OW35032   3.779   4.321   9.718  0.1566  0.4612 -0.0202
 7857SOL    HW135033   3.818   4.257   9.777 -1.3651 -0.8582 -0.4569
 7857SOL    HW235034   3.856   4.366   9.683  0.3700 -0.2121 -0.4264
 7858SOL     OW35035   1.901   2.726  15.319 -0.0942 -0.3415  0.1497
 7858SOL    HW135036   1.879   2.636  15.344 -0.4819 -0.1719  0.4304
 7858SOL    HW235037   1.872   2.730  15.228  1.3667  0.6073 -0.2681
 7859SOL     OW35038   3.476   0.466   6.459  0.4560  0.2848  0.4998
 7859SOL    HW135039   3.548   0.412   6.427 -0.2975 -1.1636  1.2073
 7859SOL    HW235040   3.497   0.547   6.413 -0.0566  0.3849  0.4430
 7860SOL     OW35041   3.102   0.066  10.952  0.7903  0.5571 -0.6109
 7860SOL    HW135042   3.133   0.119  10.879  1.4947 -0.0704 -0.7750
 7860SOL    HW235043   3.017   0.038  10.921  0.7770  2.3952 -2.1984
 7861SOL     OW35044   1.174   3.161   6.099  0.6624  0.4889  0.2632
 7861SOL    HW135045   1.263   3.148   6.065  0.4695 -0.2103  0.0229
 7861SOL    HW235046   1.178   3.256   6.109  0.6468  0.6425 -1.2230
 7862SOL     OW35047   0.667   0.134   5.617  0.5898  0.0385  0.6935
 7862SOL    HW135048   0.585   0.092   5.592  0.9993  0.5754 -1.5879
 7862SOL    HW235049   0.728   0.092   5.556  0.7416 -0.5099  1.2200
 7863SOL     OW35050   3.500   3.846   7.497  0.2396 -0.2001 -0.1806
 7863SOL    HW135051   3.553   3.876   7.423  1.9702  0.9647  1.5416
 7863SOL    HW235052   3.440   3.784   7.455  1.3202 -0.2801 -1.5880
 7864SOL     OW35053   0.957   4.515  17.372 -0.3093  0.0212 -0.0455
 7864SOL    HW135054   0.936   4.527  17.465  0.2030  0.6583 -0.0111
 7864SOL    HW235055   1.006   4.594  17.349  0.4293 -1.6368 -4.0897
 7865SOL     OW35056   4.215   0.087  16.152  0.1475 -0.6195 -0.1417
 7865SOL    HW135057   4.124   0.117  16.160 -0.1061 -1.0057 -1.5667
 7865SOL    HW235058   4.258   0.172  16.137 -1.1351 -0.1903 -1.4093
 7866SOL     OW35059   2.543   1.164   5.482  0.7913 -0.3852 -0.3262
 7866SOL    HW135060   2.454   1.140   5.510  0.8081  1.1830  1.0662
 7866SOL    HW235061   2.588   1.142   5.563 -1.0249 -2.0572  0.2394
 7867SOL     OW35062   3.307   2.307   6.324  0.5300  0.0224  0.0357
 7867SOL    HW135063   3.361   2.251   6.379 -1.9379 -1.3796  0.9816
 7867SOL    HW235064   3.335   2.268   6.241  0.0040  0.0435 -0.1469
 7868SOL     OW35065   4.073   3.487  12.861 -0.4426 -0.9059 -0.7772
 7868SOL    HW135066   4.004   3.546  12.892  0.5158 -0.7829  1.0530
 7868SOL    HW235067   4.135   3.545  12.818 -2.4975  1.2054 -0.9174
 7869SOL     OW35068   2.607   4.106  12.476 -0.4259 -0.4718  0.2680
 7869SOL    HW135069   2.525   4.057  12.466 -1.1533  1.0318 -1.2368
 7869SOL    HW235070   2.659   4.058  12.540 -1.0717 -0.2407  0.9623
 7870SOL     OW35071   2.002   4.029   9.813  0.0234  0.4672  0.0516
 7870SOL    HW135072   2.058   4.027   9.891  0.4983  0.4850 -0.2871
 7870SOL    HW235073   1.984   4.122   9.807 -0.4952  0.4224  0.9851
 7871SOL     OW35074   1.047   2.996  14.084 -0.0858  0.6890 -0.9420
 7871SOL    HW135075   1.063   2.919  14.029 -2.3984  0.0351 -0.6681
 7871SOL    HW235076   1.113   3.061  14.057  0.6743  0.8379  1.2594
 7872SOL     OW35077   2.993   4.216   8.799 -0.2977  0.3773 -0.2444
 7872SOL    HW135078   3.075   4.184   8.760  1.0957  3.5536  0.0961
 7872SOL    HW235079   3.000   4.306   8.769  1.2911  0.2246 -0.3329
 7873SOL     OW35080   1.174   1.087   7.498  0.2854  0.6443  0.6134
 7873SOL    HW135081   1.099   1.047   7.454  0.0787  1.6860 -0.0034
 7873SOL    HW235082   1.124   1.154   7.545 -0.9707  0.1383  0.0009
 7874SOL     OW35083   2.379   0.931   0.342  0.1462 -0.3498  0.0281
 7874SOL    HW135084   2.333   0.847   0.334  0.0312 -0.4400  1.6678
 7874SOL    HW235085   2.314   0.980   0.391 -0.0626 -1.1736  0.5845
 7875SOL     OW35086   1.171   2.590   2.564  0.6210  0.2205  0.2047
 7875SOL    HW135087   1.092   2.574   2.512  0.8897 -0.0304 -0.1290
 7875SOL    HW235088   1.245   2.569   2.507  1.1387 -1.6150  1.5424
 7876SOL     OW35089   3.704   4.018   3.780 -0.2089  0.0796 -0.4500
 7876SOL    HW135090   3.738   4.103   3.755  0.2292 -0.0885 -0.4176
 7876SOL    HW235091   3.632   4.036   3.841 -0.2807  0.6829 -0.7154
 7877SOL     OW35092   0.952   4.233   7.557 -0.5829 -0.1212 -0.1566
 7877SOL    HW135093   0.917   4.314   7.522 -0.8755  0.9333  2.5730
 7877SOL    HW235094   1.036   4.228   7.511 -0.2268  3.2016  0.1238
 7878SOL     OW35095   2.974   1.670   6.662  0.7362 -0.5019 -0.2975
 7878SOL    HW135096   2.948   1.597   6.719  1.9771  1.1532  2.3688
 7878SOL    HW235097   2.917   1.660   6.586 -0.5998  0.1677  0.6139
 7879SOL     OW35098   3.394   3.166   2.917 -0.0508 -0.7020  0.5492
 7879SOL    HW135099   3.433   3.252   2.932 -0.8100 -0.6321  2.1167
 7879SOL    HW235100   3.422   3.121   2.997 -3.3639 -4.0983 -0.1961
 7880SOL     OW35101   1.140   0.020  17.369 -0.2993 -0.1034  0.0795
 7880SOL    HW135102   1.223   0.068  17.377  0.2607 -1.0922  0.1207
 7880SOL    HW235103   1.108   0.021  17.459 -3.1014  0.8922 -0.9070
 7881SOL     OW35104   2.623   2.752   8.911  0.7487 -0.2257 -0.2194
 7881SOL    HW135105   2.595   2.829   8.960 -0.6208  0.1267 -1.5743
 7881SOL    HW235106   2.562   2.697   8.961  1.7775 -0.8507  0.3617
 7882SOL     OW35107   1.701   0.319   1.682 -0.5164 -0.2361 -0.0068
 7882SOL    HW135108   1.715   0.270   1.601 -0.1201  0.0173 -0.0946
 7882SOL    HW235109   1.682   0.408   1.650 -2.6267 -1.0960 -1.1471
 7883SOL     OW35110   2.650   3.229   5.644 -0.2426  0.2857  0.9178
 7883SOL    HW135111   2.688   3.288   5.580 -0.3946 -0.5141  0.0965
 7883SOL    HW235112   2.698   3.242   5.727  1.3033  0.1277  0.0467
 7884SOL     OW35113   1.202   1.637   0.415  0.7625  0.2749 -0.3440
 7884SOL    HW135114   1.268   1.646   0.485 -0.7963 -1.3617  1.3161
 7884SOL    HW235115   1.183   1.544   0.419  1.1809  0.2872  2.0253
 7885SOL     OW35116   4.605   4.712   5.405  0.4747  0.6821  0.4119
 7885SOL    HW135117   4.580   0.019   5.318 -0.0281 -1.2149 -0.1316
 7885SOL    HW235118   4.698   4.705   5.382  0.2047 -0.3846 -0.3270
 7886SOL     OW35119   0.785   3.624   5.404 -0.6151  1.1684  0.7099
 7886SOL    HW135120   0.710   3.670   5.367 -0.5289  0.2642 -0.5915
 7886SOL    HW235121   0.852   3.690   5.386  0.8416 -0.7463 -0.9400
 7887SOL     OW35122   0.219   3.068  15.785  0.4748 -0.3454  0.1835
 7887SOL    HW135123   0.228   3.136  15.851  0.4289  0.8323 -1.0191
 7887SOL    HW235124   0.184   3.106  15.704 -2.5180 -0.4730  1.3947
 7888SOL     OW35125   1.346   1.413   1.719  0.2069 -0.4468 -0.2123
 7888SOL    HW135126   1.340   1.317   1.729  1.2453 -0.5153 -0.1974
 7888SOL    HW235127   1.434   1.429   1.755 -0.5106 -0.4989  1.5908
 7889SOL     OW35128   3.809   3.960  13.066  0.3589  0.0439  0.1854
 7889SOL    HW135129   3.804   4.040  13.014 -0.5407 -0.6739 -0.8418
 7889SOL    HW235130   3.893   3.984  13.105 -0.8034  0.6226  2.3628
 7890SOL     OW35131   2.716   2.219   1.871 -0.2242  0.2496  0.1569
 7890SOL    HW135132   2.810   2.233   1.858 -0.2801  0.9384  0.5307
 7890SOL    HW235133   2.687   2.170   1.794 -0.1198 -1.7635  1.3737
 7891SOL     OW35134   0.616   4.251   8.968  0.5625  0.2411 -0.3964
 7891SOL    HW135135   0.597   4.157   8.971  1.4036  0.1173  1.3047
 7891SOL    HW235136   0.600   4.279   8.878  2.1178  0.2225 -0.6878
 7892SOL     OW35137   0.932   1.035   1.359  0.0828 -0.4144 -0.0188
 7892SOL    HW135138   0.962   0.960   1.410 -1.0361 -2.2655 -2.1230
 7892SOL    HW235139   1.003   1.026   1.295  0.9262 -1.4749  1.0557
 7893SOL     OW35140   1.832   2.129  17.472  0.3022 -0.4301 -0.3562
 7893SOL    HW135141   1.872   2.212  17.497  1.6005 -0.8707 -0.9531
 7893SOL    HW235142   1.888   2.095  17.402  2.0508  0.3767  0.6447
 7894SOL     OW35143   2.388   4.165   6.642 -0.1560 -0.9682 -0.3238
 7894SOL    HW135144   2.425   4.228   6.704 -1.4195  0.9626 -1.5081
 7894SOL    HW235145   2.433   4.196   6.563  2.0342 -0.2557  1.1918
 7895SOL     OW35146   4.591   3.230   8.292  0.0893  0.8636  0.3748
 7895SOL    HW135147   4.606   3.285   8.215  0.0390 -2.4954 -2.0338
 7895SOL    HW235148   4.679   3.214   8.325 -0.7101 -2.0633  1.0319
 7896SOL     OW35149   1.331   2.861  13.831 -0.4377  1.2795  0.8709
 7896SOL    HW135150   1.416   2.835  13.794 -1.9968  1.2762 -2.7811
 7896SOL    HW235151   1.364   2.911  13.905 -2.0592 -0.0123  2.4749
 7897SOL     OW35152   3.076   3.024  14.626  0.2025  0.0439  0.1393
 7897SOL    HW135153   3.067   3.108  14.671 -0.1239  0.0290  0.1021
 7897SOL    HW235154   3.121   3.042  14.544 -0.8145 -1.5126 -0.7604
 7898SOL     OW35155   0.595   4.050  10.946 -0.1702 -0.2749  0.3690
 7898SOL    HW135156   0.640   4.065  11.029 -2.8345  3.3955  1.1507
 7898SOL    HW235157   0.666   4.013  10.894  0.9776  1.8341  0.4131
 7899SOL     OW35158   2.923   0.930   6.618 -0.0787 -0.5524 -0.1890
 7899SOL    HW135159   2.936   0.839   6.643 -0.4607 -0.6482 -0.3340
 7899SOL    HW235160   3.013   0.960   6.625 -0.3204  0.5436 -1.5319
 7900SOL     OW35161   0.593   1.387  10.841  0.0909 -0.0985  0.5573
 7900SOL    HW135162   0.579   1.420  10.752 -0.8921 -1.1212  0.3249
 7900SOL    HW235163   0.542   1.306  10.834 -0.8898  0.5453  0.2256
 7901SOL     OW35164   2.653   2.489   4.569 -0.2062 -0.6700 -0.2252
 7901SOL    HW135165   2.705   2.409   4.574 -0.5309 -0.8610  0.0910
 7901SOL    HW235166   2.704   2.555   4.522  0.3616  0.3497  1.8110
 7902SOL     OW35167   2.342   2.780   1.653 -0.7142  0.2471  0.3762
 7902SOL    HW135168   2.327   2.867   1.690 -1.4016  0.4749 -0.4400
 7902SOL    HW235169   2.293   2.725   1.715  1.5914 -0.7207  1.3151
 7903SOL     OW35170   1.539   0.692  15.081 -0.2153  0.4534  0.2725
 7903SOL    HW135171   1.509   0.777  15.050 -2.6878 -0.5823 -0.2291
 7903SOL    HW235172   1.456   0.646  15.097  0.8666 -2.1271 -1.4897
 7904SOL     OW35173   3.909   1.747   8.665  0.1005 -0.0398  0.1467
 7904SOL    HW135174   3.897   1.832   8.707 -2.6152 -1.5470  2.3718
 7904SOL    HW235175   3.827   1.705   8.690 -0.3664  0.9875  0.3023
 7905SOL     OW35176   1.627   0.396   8.705  0.6419  0.0910  0.2418
 7905SOL    HW135177   1.640   0.358   8.792  2.8220  1.2640  0.4397
 7905SOL    HW235178   1.697   0.461   8.714 -0.9780  1.7370  0.9076
 7906SOL     OW35179   0.242   2.439   9.404 -0.1071  0.4566  0.2522
 7906SOL    HW135180   0.183   2.420   9.477  1.2117  2.7026  1.9092
 7906SOL    HW235181   0.312   2.498   9.432  1.8490 -1.9344  0.3091
 7907SOL     OW35182   1.367   3.795   6.745 -0.1386  0.5606  0.0531
 7907SOL    HW135183   1.284   3.799   6.697  0.3836 -0.8002 -0.9608
 7907SOL    HW235184   1.325   3.738   6.811  0.9961  0.4187  0.6582
 7908SOL     OW35185   2.395   4.516   9.074  0.3691 -0.6136 -0.2881
 7908SOL    HW135186   2.460   4.460   9.032 -0.0328  1.1229 -3.2240
 7908SOL    HW235187   2.420   4.513   9.167  0.5720 -0.9997 -0.3552
 7909SOL     OW35188   0.727   4.015  11.183  0.1101 -0.7394  0.0580
 7909SOL    HW135189   0.646   4.019  11.234 -0.2483  1.4019 -0.6757
 7909SOL    HW235190   0.739   3.920  11.182 -0.7220 -0.8363 -0.1744
 7910SOL     OW35191   0.189   1.015   6.859  0.0231 -0.0675 -0.0269
 7910SOL    HW135192   0.103   1.053   6.840 -0.8612 -2.2837 -0.5356
 7910SOL    HW235193   0.186   1.004   6.954 -1.1625 -0.1779 -0.0685
 7911SOL     OW35194   3.802   1.944   5.236  0.5842  0.1171 -0.0697
 7911SOL    HW135195   3.707   1.940   5.247  0.5987 -0.8372 -0.2386
 7911SOL    HW235196   3.814   2.038   5.222  2.2595 -0.1803 -0.6743
 7912SOL     OW35197   1.366   2.604   8.574  0.5342  0.5490  0.0667
 7912SOL    HW135198   1.300   2.606   8.504 -0.3168 -1.4012  0.8097
 7912SOL    HW235199   1.305   2.589   8.647 -1.0215  0.6142 -1.2038
 7913SOL     OW35200   0.803   0.681   1.273 -0.1449  0.2976 -0.2007
 7913SOL    HW135201   0.814   0.663   1.366  0.6173 -1.4465 -0.6283
 7913SOL    HW235202   0.751   0.760   1.281  0.4832  0.6502  0.4232
 7914SOL     OW35203   1.560   3.365   2.960 -0.2617  0.1653  0.1089
 7914SOL    HW135204   1.630   3.299   2.957 -0.3290  0.0652  0.7078
 7914SOL    HW235205   1.518   3.362   3.046 -0.3700 -1.8948 -0.0095
 7915SOL     OW35206   3.600   0.323   4.963  0.4809  0.2197 -0.5039
 7915SOL    HW135207   3.566   0.352   5.048  1.8714 -0.2048  0.1846
 7915SOL    HW235208   3.569   0.232   4.955  0.8934 -0.0249  0.6911
 7916SOL     OW35209   0.027   4.621   4.703 -0.0151 -0.0633  0.1330
 7916SOL    HW135210   4.682   4.562   4.676 -1.3681  1.6788 -0.1854
 7916SOL    HW235211   0.093   4.617   4.634  0.1460 -0.6477  0.3202
 7917SOL     OW35212   0.577   3.498   3.831 -0.6320  0.2050 -0.9043
 7917SOL    HW135213   0.565   3.432   3.763 -0.0717  0.8213 -1.5915
 7917SOL    HW235214   0.626   3.451   3.899  1.5132  2.0383 -1.2125
 7918SOL     OW35215   2.185   0.800   5.874 -0.3896 -0.3683 -0.1971
 7918SOL    HW135216   2.177   0.747   5.953 -0.9425 -0.8485 -0.5753
 7918SOL    HW235217   2.250   0.748   5.827 -1.5207  0.1095 -2.3175
 7919SOL     OW35218   1.826   4.670   2.176  0.3883 -0.1883  0.2499
 7919SOL    HW135219   1.792   4.580   2.184  1.8324 -0.6545  1.0906
 7919SOL    HW235220   1.872   4.670   2.259  0.2646  0.0207  0.3176
 7920SOL     OW35221   2.114   2.561  16.173 -0.5220  0.4780  0.0062
 7920SOL    HW135222   2.093   2.595  16.086 -3.1318  0.0162  0.4413
 7920SOL    HW235223   2.203   2.528  16.169  0.7905  4.3014 -2.3407
 7921SOL     OW35224   1.817   2.255   5.058  0.6941  0.3674  0.1803
 7921SOL    HW135225   1.770   2.221   4.982  0.6659  1.0612 -0.1079
 7921SOL    HW235226   1.787   2.346   5.055  0.4245  0.2474 -0.8063
 7922SOL     OW35227   2.222   3.163   7.513  0.3759  0.1734  0.2720
 7922SOL    HW135228   2.130   3.181   7.529  0.7974  0.7393  2.0510
 7922SOL    HW235229   2.262   3.236   7.561 -0.1013  0.6755 -0.0861
 7923SOL     OW35230   2.574   0.956   4.634  0.1158  0.0793  0.1540
 7923SOL    HW135231   2.591   1.021   4.703 -1.2797  2.1795 -1.4965
 7923SOL    HW235232   2.575   1.021   4.565  0.0040  0.7547  0.7914
 7924SOL     OW35233   0.915   1.805   6.203  0.1313  0.6144 -0.3438
 7924SOL    HW135234   0.825   1.775   6.190  0.6254 -0.9094 -0.1711
 7924SOL    HW235235   0.965   1.727   6.184 -1.5911 -1.2874  2.8490
 7925SOL     OW35236   3.391   2.744   4.363  0.4986 -0.0980 -0.6569
 7925SOL    HW135237   3.432   2.812   4.416  4.0645 -1.2279 -2.0052
 7925SOL    HW235238   3.320   2.715   4.420  0.3310  0.9120 -0.3456
 7926SOL     OW35239   3.830   0.309  16.004 -0.0749  0.0826 -0.3090
 7926SOL    HW135240   3.881   0.237  16.042 -0.0364  0.3874  0.2193
 7926SOL    HW235241   3.902   0.342  15.951 -0.4641  0.6447 -0.4861
 7927SOL     OW35242   1.711   2.123   0.572 -0.3586  0.3765  0.3555
 7927SOL    HW135243   1.791   2.100   0.621 -0.4610 -1.7038 -0.4381
 7927SOL    HW235244   1.737   2.111   0.481 -0.4217  1.6748  0.1648
 7928SOL     OW35245   2.066   4.712   6.573 -0.3795 -0.0349  0.0665
 7928SOL    HW135246   2.106   0.012   6.490 -1.3544 -1.3230 -0.7948
 7928SOL    HW235247   2.036   0.073   6.602  1.5261  0.8666 -0.6328
 7929SOL     OW35248   4.239   1.283   6.516 -0.1929  0.2797 -0.1071
 7929SOL    HW135249   4.270   1.359   6.565  0.0138  0.2334 -0.1663
 7929SOL    HW235250   4.177   1.326   6.458  1.3572  1.8380 -0.6230
 7930SOL     OW35251   2.323   3.190   3.116  0.3444 -0.0858  0.3357
 7930SOL    HW135252   2.388   3.225   3.176 -1.8644  1.4158  1.8556
 7930SOL    HW235253   2.288   3.131   3.184 -1.4363  2.1189  1.3264
 7931SOL     OW35254   0.942   0.463  17.368  0.2173  0.0756 -0.0126
 7931SOL    HW135255   0.921   0.381  17.323  0.7698  0.4422 -0.9484
 7931SOL    HW235256   0.956   0.433  17.458  1.0644 -0.2062 -0.2349
 7932SOL     OW35257   3.864   3.896   3.951 -0.0543 -0.1682  0.0444
 7932SOL    HW135258   3.798   3.927   3.889  1.0867 -0.1638 -1.1784
 7932SOL    HW235259   3.821   3.925   4.032  0.6475  0.3250  0.2454
 7933SOL     OW35260   1.684   0.433  12.413  0.4979 -0.0999  0.0482
 7933SOL    HW135261   1.754   0.462  12.471 -0.3716  0.4544  0.8296
 7933SOL    HW235262   1.730   0.411  12.332  0.9916 -1.7846  0.7965
 7934SOL     OW35263   3.440   0.614   5.526  0.1300  0.0392  0.0048
 7934SOL    HW135264   3.426   0.686   5.588 -0.6304  0.8452 -1.1161
 7934SOL    HW235265   3.366   0.554   5.530 -0.6536  1.0786  1.0505
 7935SOL     OW35266   2.918   2.050  12.139 -0.0360  0.1696  0.0793
 7935SOL    HW135267   2.912   2.145  12.146 -2.0152  0.2844 -3.3141
 7935SOL    HW235268   2.889   2.013  12.222  0.2022 -2.8785 -1.1973
 7936SOL     OW35269   1.989   0.273   5.305  0.3914 -0.5691  0.1054
 7936SOL    HW135270   1.943   0.336   5.250  1.6721  1.4019  1.3127
 7936SOL    HW235271   1.926   0.201   5.301 -0.9147  0.5894  0.1463
 7937SOL     OW35272   2.654   4.287  10.067  0.0009 -0.3350  0.2582
 7937SOL    HW135273   2.726   4.324  10.118  0.3093 -0.5922  0.0055
 7937SOL    HW235274   2.603   4.238  10.132 -2.0970  0.2588 -0.9447
 7938SOL     OW35275   0.383   1.319   3.549  0.0548  0.0359  0.2113
 7938SOL    HW135276   0.320   1.248   3.561  0.8244 -0.7457 -0.3214
 7938SOL    HW235277   0.436   1.282   3.477  0.8204 -0.2323  0.9118
 7939SOL     OW35278   3.264   0.351   8.370 -0.2631 -0.0919 -0.1004
 7939SOL    HW135279   3.178   0.351   8.328  0.1010 -0.6544 -0.8475
 7939SOL    HW235280   3.233   0.330   8.459 -2.5919 -0.2784 -0.9510
 7940SOL     OW35281   3.271   2.234   3.799 -0.1777 -0.0703 -0.9092
 7940SOL    HW135282   3.277   2.309   3.739  1.0011 -0.4392 -1.2483
 7940SOL    HW235283   3.180   2.241   3.827 -1.2867  1.0426 -4.8874
 7941SOL     OW35284   0.365   1.307  12.126  0.7006  0.3216 -0.2758
 7941SOL    HW135285   0.441   1.331  12.179  0.7309 -0.7071  0.1351
 7941SOL    HW235286   0.322   1.387  12.094  0.2130 -0.2580 -1.0431
 7942SOL     OW35287   2.404   2.786   8.130 -0.3893 -0.1092  0.0133
 7942SOL    HW135288   2.375   2.872   8.162  0.6355 -0.4201  1.7278
 7942SOL    HW235289   2.463   2.804   8.056  2.2426 -3.0648  1.4124
 7943SOL     OW35290   1.366   4.477   6.305 -0.4662  0.0942 -0.2256
 7943SOL    HW135291   1.277   4.446   6.321 -0.4567  0.5482  0.7022
 7943SOL    HW235292   1.374   4.532   6.383 -2.0814  0.4777 -0.3213
 7944SOL     OW35293   3.891   0.555   7.570 -0.4835 -0.5308  0.5853
 7944SOL    HW135294   3.817   0.527   7.622 -1.0187 -0.1625  0.0195
 7944SOL    HW235295   3.846   0.610   7.506  0.3728 -0.0832  0.3598
 7945SOL     OW35296   1.226   4.409   0.519  0.4889 -0.1444  0.0465
 7945SOL    HW135297   1.245   4.500   0.541  2.6354 -0.6987  0.4779
 7945SOL    HW235298   1.213   4.365   0.603 -0.1058  0.8889  0.4844
 7946SOL     OW35299   3.916   2.624   5.811 -0.3736 -0.3775 -0.5708
 7946SOL    HW135300   3.959   2.655   5.731 -2.3230  1.4774 -0.8900
 7946SOL    HW235301   3.986   2.627   5.876 -3.1870 -1.0133  2.4930
 7947SOL     OW35302   4.135   2.908  15.603 -0.7169  0.3683  0.3887
 7947SOL    HW135303   4.208   2.946  15.555 -0.9714  0.4253  0.0476
 7947SOL    HW235304   4.102   2.854  15.531 -1.6983 -2.2373  2.7942
 7948SOL     OW35305   0.772   2.798   0.230  0.4591  0.3828  0.2354
 7948SOL    HW135306   0.695   2.757   0.193  0.7052  1.3384 -1.3347
 7948SOL    HW235307   0.801   2.859   0.162 -2.5064 -1.1578 -2.3745
 7949SOL     OW35308   3.532   1.854   8.432 -0.0633  0.0044  0.0185
 7949SOL    HW135309   3.468   1.900   8.378 -1.4533 -0.9953  0.7917
 7949SOL    HW235310   3.536   1.773   8.381  2.3447 -0.0280  0.2471
 7950SOL     OW35311   4.109   2.521   1.072 -0.2783 -0.1488  0.3170
 7950SOL    HW135312   4.057   2.601   1.062 -0.4845 -0.3518 -0.2234
 7950SOL    HW235313   4.098   2.479   0.987  0.2447 -0.8739  0.6122
 7951SOL     OW35314   1.103   2.725  13.160  0.2324  0.1539 -0.5199
 7951SOL    HW135315   1.085   2.784  13.087  0.4591 -0.3908 -1.0103
 7951SOL    HW235316   1.111   2.636  13.126  1.9292  0.2415 -0.3218
 7952SOL     OW35317   3.548   2.517   6.906  0.2243  0.1835  0.2411
 7952SOL    HW135318   3.546   2.519   7.002 -2.1215  1.8877  0.1849
 7952SOL    HW235319   3.638   2.540   6.884  0.7605  0.6841  2.9462
 7953SOL     OW35320   1.246   4.485   8.332 -0.5341 -0.6452  0.1482
 7953SOL    HW135321   1.331   4.500   8.374 -1.1695  3.2048  0.0727
 7953SOL    HW235322   1.199   4.431   8.396 -2.5348  0.3049 -0.5342
 7954SOL     OW35323   4.355   2.337   9.791  0.2591 -0.7167  0.2084
 7954SOL    HW135324   4.275   2.369   9.750 -0.7309 -1.7239  1.3750
 7954SOL    HW235325   4.352   2.251   9.749 -1.1138  0.1704 -1.5090
 7955SOL     OW35326   3.186   0.347   3.750  0.1914  0.1541  0.0123
 7955SOL    HW135327   3.189   0.350   3.845 -2.9634  0.0987  0.1090
 7955SOL    HW235328   3.279   0.368   3.741  0.1520  0.2591 -0.1529
 7956SOL     OW35329   1.034   0.984   7.033  0.5282 -0.6491  0.3584
 7956SOL    HW135330   1.058   1.030   6.952 -0.7583 -1.9496 -0.7771
 7956SOL    HW235331   1.029   0.893   7.003 -1.5692  0.3189 -2.3492
 7957SOL     OW35332   4.598   4.596   4.968 -0.2440 -0.3870 -0.6046
 7957SOL    HW135333   4.513   4.574   4.930 -0.2007 -1.0268 -0.3274
 7957SOL    HW235334   4.647   4.628   4.892 -2.7687  0.3557 -1.9149
 7958SOL     OW35335   4.014   3.613   7.237 -0.3116 -0.3374 -0.5500
 7958SOL    HW135336   3.988   3.693   7.283  1.3025  0.5508 -1.1975
 7958SOL    HW235337   3.970   3.540   7.281  1.0305 -1.3143 -0.8349
 7959SOL     OW35338   2.641   3.957   2.637  0.7086 -0.2498 -0.1225
 7959SOL    HW135339   2.586   3.926   2.565  2.0467 -0.0499 -1.2285
 7959SOL    HW235340   2.728   3.961   2.598  0.6402 -1.7583 -0.4216
 7960SOL     OW35341   2.590   3.718   5.454  0.1245  0.1394  0.7430
 7960SOL    HW135342   2.648   3.757   5.519 -0.6037 -0.5541  1.8099
 7960SOL    HW235343   2.639   3.636   5.439  1.2251  0.7948  0.7447
 7961SOL     OW35344   0.048   0.021   7.379 -0.6633 -0.0616 -0.4971
 7961SOL    HW135345   4.718   4.669   7.395  1.9956 -2.0716 -0.8228
 7961SOL    HW235346   0.128   4.715   7.423  0.9611  1.6539 -2.2438
 7962SOL     OW35347   1.781   3.162   5.671  0.9842  0.2176 -0.1426
 7962SOL    HW135348   1.700   3.117   5.696  0.3890  1.4711  0.2109
 7962SOL    HW235349   1.754   3.251   5.648  2.0262  0.1708 -1.5154
 7963SOL     OW35350   4.343   1.821   5.434 -0.2762 -0.2811 -0.3361
 7963SOL    HW135351   4.369   1.737   5.472  1.6119  1.8630  3.1401
 7963SOL    HW235352   4.409   1.869   5.484 -1.1484  0.8723 -0.2697
 7964SOL     OW35353   2.984   1.047  11.573  0.7160  0.1836  0.4407
 7964SOL    HW135354   2.991   1.003  11.658  1.9427  3.4734  2.0149
 7964SOL    HW235355   3.024   1.132  11.591  0.3732  0.5110 -0.3379
 7965SOL     OW35356   4.462   3.399   9.291 -0.1998 -0.6150 -0.0542
 7965SOL    HW135357   4.514   3.321   9.273 -0.7500 -1.1262  0.5864
 7965SOL    HW235358   4.400   3.404   9.219 -0.7482  1.0401  0.5259
 7966SOL     OW35359   4.694   0.796  12.684  0.2853 -0.0341  0.4155
 7966SOL    HW135360   4.679   0.876  12.735 -0.0404 -1.6926  2.9528
 7966SOL    HW235361   4.705   0.831  12.596  2.5616 -1.6503  0.0610
 7967SOL     OW35362   2.094   1.154  17.369  0.0322  0.0202 -0.4168
 7967SOL    HW135363   2.041   1.140  17.447 -2.5634 -0.1405 -2.2413
 7967SOL    HW235364   2.135   1.068  17.361 -1.0695 -0.6717  1.5588
 7968SOL     OW35365   3.328   1.778   4.901 -0.0839 -0.1765 -0.0847
 7968SOL    HW135366   3.399   1.766   4.838 -0.5803  2.5440 -1.1755
 7968SOL    HW235367   3.254   1.733   4.861  1.3022 -2.0428 -0.5877
 7969SOL     OW35368   0.601   3.213   4.232 -0.4545  0.1203 -0.1271
 7969SOL    HW135369   0.554   3.289   4.200  0.7046 -0.5936 -3.4795
 7969SOL    HW235370   0.542   3.148   4.195 -1.0598 -0.1640  1.3404
 7970SOL     OW35371   1.613   3.735   1.953 -0.0103  0.8462 -0.1113
 7970SOL    HW135372   1.524   3.750   1.922 -1.0712 -3.5678  0.6915
 7970SOL    HW235373   1.594   3.697   2.038 -1.3977  0.8926 -0.3955
 7971SOL     OW35374   2.647   0.729   7.281  0.2775  0.1277 -0.3086
 7971SOL    HW135375   2.724   0.766   7.324  0.9703 -0.3454 -1.1296
 7971SOL    HW235376   2.681   0.742   7.192 -2.7763  1.5313 -1.2608
 7972SOL     OW35377   1.032   2.840   5.552  0.2142  0.5966 -0.1471
 7972SOL    HW135378   1.024   2.861   5.645 -1.9138  1.0777 -0.4281
 7972SOL    HW235379   0.984   2.758   5.538 -0.7288  1.4584 -1.8963
 7973SOL     OW35380   0.200   4.057  10.630 -0.0144  0.0633  0.3318
 7973SOL    HW135381   0.274   4.062  10.690 -1.3899 -1.2756  2.1280
 7973SOL    HW235382   0.241   4.048  10.544  0.4698 -1.2531  0.7048
 7974SOL     OW35383   2.158   4.603  15.424  0.1333 -0.0408 -0.1701
 7974SOL    HW135384   2.095   4.556  15.478  0.0984  1.3416  1.0016
 7974SOL    HW235385   2.125   4.585  15.336 -0.2927  2.3556 -0.5057
 7975SOL     OW35386   2.275   3.976   4.404  0.3147  0.3538  0.2714
 7975SOL    HW135387   2.316   3.996   4.488  1.4058  0.1900 -0.2322
 7975SOL    HW235388   2.316   4.045   4.352  0.5237  0.6898  0.8896
 7976SOL     OW35389   2.887   0.773   4.468  1.0519  0.1509 -0.1627
 7976SOL    HW135390   2.896   0.853   4.416  3.5442 -0.0935 -0.1234
 7976SOL    HW235391   2.934   0.703   4.423  1.4388  1.0907 -1.2208
 7977SOL     OW35392   0.616   1.851   0.108  0.1535 -0.0749  0.9523
 7977SOL    HW135393   0.600   1.791   0.181  0.3329 -1.5238 -0.1964
 7977SOL    HW235394   0.545   1.915   0.121  0.3887  0.2712  0.5289
 7978SOL     OW35395   2.649   2.516   7.705  0.0818 -0.0294  0.3657
 7978SOL    HW135396   2.584   2.525   7.635 -0.0700  1.0162  0.6345
 7978SOL    HW235397   2.631   2.427   7.734  1.0014 -0.4038 -0.2116
 7979SOL     OW35398   0.863   0.590  10.718 -0.0496  0.0081 -0.2736
 7979SOL    HW135399   0.864   0.589  10.622  1.3131 -1.4357 -0.2415
 7979SOL    HW235400   0.793   0.652  10.739 -0.7634 -0.8594 -0.0986
 7980SOL     OW35401   0.185   3.715   4.111  0.4921  0.3545  0.0462
 7980SOL    HW135402   0.267   3.681   4.076  0.6592  0.3965  0.3951
 7980SOL    HW235403   0.176   3.800   4.067  3.3904  0.3278 -0.5725
 7981SOL     OW35404   2.582   2.674   5.828 -0.3695 -0.4094  0.3314
 7981SOL    HW135405   2.502   2.704   5.785 -0.2663 -1.5539 -0.6697
 7981SOL    HW235406   2.647   2.717   5.773 -0.5777  0.2038  0.5646
 7982SOL     OW35407   4.186   1.239  15.623  0.3203 -0.1508 -0.2778
 7982SOL    HW135408   4.215   1.197  15.704 -1.9432 -2.3053 -0.5820
 7982SOL    HW235409   4.106   1.188  15.613 -0.3912  0.2291  3.5841
 7983SOL     OW35410   4.272   1.452   2.648 -0.0534  0.3571 -0.2059
 7983SOL    HW135411   4.367   1.453   2.663 -0.4492 -0.4801  2.2899
 7983SOL    HW235412   4.252   1.543   2.626 -0.3635 -0.1009 -1.7776
 7984SOL     OW35413   4.189   0.965   4.695 -0.5871  0.0457  0.3575
 7984SOL    HW135414   4.229   1.003   4.773  2.5737 -0.7657 -0.8445
 7984SOL    HW235415   4.211   1.042   4.643  1.2698 -1.1473 -0.6547
 7985SOL     OW35416   4.367   0.028   9.882  0.2087  0.0291  0.1906
 7985SOL    HW135417   4.366   0.044   9.787  0.3007 -0.0908  0.1700
 7985SOL    HW235418   4.273   0.032   9.899  0.0614 -1.3864 -0.2493
 7986SOL     OW35419   2.180   3.158  15.627  0.5752  0.0230 -0.1677
 7986SOL    HW135420   2.123   3.082  15.635 -0.9399  1.1248 -0.5817
 7986SOL    HW235421   2.154   3.181  15.538  1.0699  0.4911 -0.1930
 7987SOL     OW35422   0.441   2.690   9.907  0.4104  0.3068  0.1135
 7987SOL    HW135423   0.488   2.678   9.989 -0.8187 -0.6717  0.6742
 7987SOL    HW235424   0.351   2.685   9.938  0.1180  0.4235 -0.7271
 7988SOL     OW35425   0.393   2.616  17.299  0.8090 -0.2056 -0.4148
 7988SOL    HW135426   0.480   2.618  17.258  0.6352 -1.1265 -0.8095
 7988SOL    HW235427   0.408   2.552  17.369  0.6283 -0.4369 -0.5931
 7989SOL     OW35428   1.286   0.372   2.280  0.3155 -0.3210  0.2930
 7989SOL    HW135429   1.190   0.379   2.275  0.2515 -2.4578 -1.8950
 7989SOL    HW235430   1.309   0.461   2.255 -0.2233  0.7884  3.8884
 7990SOL     OW35431   0.616   0.464   7.379 -0.3383 -0.5624 -0.4061
 7990SOL    HW135432   0.683   0.498   7.320 -1.2031 -0.5977 -1.4138
 7990SOL    HW235433   0.562   0.416   7.316 -1.9516  0.0101  0.5674
 7991SOL     OW35434   3.653   0.393   8.359 -0.3334 -0.1982  0.3853
 7991SOL    HW135435   3.598   0.322   8.392  2.3023 -1.4692  2.0465
 7991SOL    HW235436   3.720   0.338   8.318 -1.1913 -0.2180 -0.9773
 7992SOL     OW35437   4.193   1.858   3.527 -0.1950  0.3437  0.1316
 7992SOL    HW135438   4.234   1.809   3.455 -0.8286  1.2845 -0.8597
 7992SOL    HW235439   4.188   1.800   3.603  1.4111 -0.7335 -0.5698
 7993SOL     OW35440   2.954   0.287   7.283  0.0941  0.3999 -0.0783
 7993SOL    HW135441   2.889   0.340   7.329  0.5157 -0.1286  1.1347
 7993SOL    HW235442   2.921   0.274   7.194 -0.9609  0.1575  0.3418
 7994SOL     OW35443   1.340   1.017  10.857  0.2870  0.8687 -0.3409
 7994SOL    HW135444   1.296   0.969  10.787 -0.4074  0.0180  0.6828
 7994SOL    HW235445   1.417   1.053  10.812 -0.1280  4.5371  1.9509
 7995SOL     OW35446   4.155   0.157   6.562 -0.1781  0.0483 -0.6710
 7995SOL    HW135447   4.191   0.161   6.473 -0.1704 -1.0385 -0.7073
 7995SOL    HW235448   4.163   0.251   6.582 -1.0375 -0.5455  2.3232
 7996SOL     OW35449   4.032   4.525   4.873  0.1693  0.6165 -0.3751
 7996SOL    HW135450   3.994   4.549   4.788 -0.9720 -0.0562 -0.0533
 7996SOL    HW235451   3.986   4.443   4.890  0.1391  0.1559 -2.7293
 7997SOL     OW35452   3.586   1.453  14.091 -0.2900  0.3597  0.0329
 7997SOL    HW135453   3.661   1.479  14.037 -0.7736 -0.8595 -1.2055
 7997SOL    HW235454   3.517   1.489  14.035  0.9572  0.9611 -1.1283
 7998SOL     OW35455   3.099   0.522   3.321  0.3284  0.4044  0.0435
 7998SOL    HW135456   3.131   0.433   3.333 -0.7378  0.3052  2.0836
 7998SOL    HW235457   3.089   0.524   3.226  0.4737 -0.8886 -0.0045
 7999SOL     OW35458   1.828   0.053   5.359 -0.1967  0.0704 -0.7793
 7999SOL    HW135459   1.761   0.001   5.316  0.3767 -0.7202 -0.7035
 7999SOL    HW235460   1.818   0.006   5.442 -0.4140 -0.0157 -0.8567
 8000SOL     OW35461   1.396   1.730   5.304 -0.0074 -0.6636 -0.3511
 8000SOL    HW135462   1.478   1.778   5.318 -0.1744 -0.7159  0.8411
 8000SOL    HW235463   1.338   1.785   5.356  1.0242  0.6827 -0.6270
 8001SOL     OW35464   2.780   4.040   3.724 -0.4947 -0.8764 -0.4822
 8001SOL    HW135465   2.690   4.007   3.718 -0.9260  0.3876 -1.1906
 8001SOL    HW235466   2.767   4.130   3.691 -0.4322 -2.0004 -3.5565
 8002SOL     OW35467   4.314   1.744  16.228  0.2272 -0.1562  0.0157
 8002SOL    HW135468   4.282   1.754  16.138  1.5045 -0.0499 -0.4401
 8002SOL    HW235469   4.345   1.834  16.236  0.5859 -0.4376  1.6676
 8003SOL     OW35470   1.050   1.283   3.884 -0.1089  0.0304 -0.4261
 8003SOL    HW135471   1.007   1.213   3.835 -1.2533  1.4516 -1.4311
 8003SOL    HW235472   0.985   1.311   3.949 -1.1106 -1.3661 -0.8322
 8004SOL     OW35473   0.077   1.442   6.104  0.3850  0.3597  0.1150
 8004SOL    HW135474   0.120   1.378   6.048 -0.2112 -0.1440  0.2327
 8004SOL    HW235475   0.084   1.402   6.191  0.2165 -1.3908 -0.6820
 8005SOL     OW35476   1.668   4.656   8.940  0.4174  0.6356  0.0721
 8005SOL    HW135477   1.691   4.566   8.916  0.9140  0.1711  2.2756
 8005SOL    HW235478   1.647   4.645   9.033  1.8307  0.9403  0.4291
 8006SOL     OW35479   1.908   1.030   8.509 -0.9010 -0.4352 -0.3637
 8006SOL    HW135480   1.954   1.066   8.585 -0.4470  2.5922 -2.0614
 8006SOL    HW235481   1.824   1.069   8.533 -0.1726  0.5863  0.5376
 8007SOL     OW35482   0.010   3.304  13.339  0.8579 -0.5925 -0.2160
 8007SOL    HW135483   0.079   3.295  13.273  0.5120 -2.2188 -0.3620
 8007SOL    HW235484   4.665   3.356  13.300  0.3212 -0.2543  1.2033
 8008SOL     OW35485   3.713   1.488   3.872  0.0310 -0.2737 -0.2021
 8008SOL    HW135486   3.720   1.418   3.807  0.4960 -2.8128  2.5750
 8008SOL    HW235487   3.799   1.475   3.911  0.5486 -0.3477 -1.3557
 8009SOL     OW35488   2.471   1.692   8.475 -0.0009 -0.6055  0.3519
 8009SOL    HW135489   2.533   1.714   8.545  1.6472 -2.7355 -0.4512
 8009SOL    HW235490   2.502   1.760   8.415  0.2477  0.2609  1.4512
 8010SOL     OW35491   3.166   3.661   4.631  0.7173  0.2961  0.0731
 8010SOL    HW135492   3.228   3.635   4.562 -0.4349 -2.3734  0.0495
 8010SOL    HW235493   3.198   3.751   4.639 -1.6850  1.1805 -0.4078
 8011SOL     OW35494   3.054   3.116  12.678 -0.0742 -0.5600  0.2272
 8011SOL    HW135495   3.074   3.055  12.607  2.1580 -1.1598  1.3851
 8011SOL    HW235496   3.112   3.189  12.655 -2.5145  0.3559 -3.0835
 8012SOL     OW35497   0.238   0.711  12.741 -0.1523 -0.2955  0.1653
 8012SOL    HW135498   0.149   0.745  12.739  0.2004  0.5863 -0.3591
 8012SOL    HW235499   0.277   0.776  12.799 -2.5419 -0.2128  1.6928
 8013SOL     OW35500   3.587   1.253   3.113  0.0536  0.7458 -0.2234
 8013SOL    HW135501   3.667   1.281   3.157 -0.1289 -1.6405  1.6271
 8013SOL    HW235502   3.566   1.332   3.063 -0.9086  0.4267 -0.3222
 8014SOL     OW35503   2.576   1.440  12.560  0.3592  0.1331  0.7711
 8014SOL    HW135504   2.637   1.370  12.584 -1.4626 -1.6087  0.2793
 8014SOL    HW235505   2.514   1.397  12.501  1.8737  0.6521 -1.1840
 8015SOL     OW35506   1.344   4.006   8.846 -0.2977  0.5352  0.9914
 8015SOL    HW135507   1.362   3.939   8.781  0.4752  1.0029  0.7233
 8015SOL    HW235508   1.408   3.997   8.917 -0.5520  1.8885  1.3918
 8016SOL     OW35509   0.975   2.339   4.800 -0.4333  0.2821 -0.3964
 8016SOL    HW135510   1.024   2.389   4.734 -1.2995  2.0787  0.3220
 8016SOL    HW235511   1.016   2.252   4.798  0.4022  0.6943 -1.1266
 8017SOL     OW35512   2.161   1.518   7.733 -0.1796  0.0639  0.1046
 8017SOL    HW135513   2.255   1.510   7.747 -0.5570 -0.2742  2.5563
 8017SOL    HW235514   2.134   1.460   7.804 -1.5509 -1.4233 -1.6321
 8018SOL     OW35515   0.782   0.568   5.974 -0.0091  0.1710 -0.0741
 8018SOL    HW135516   0.847   0.497   5.974  0.0265  0.2038 -1.0214
 8018SOL    HW235517   0.732   0.541   5.898 -0.5190 -0.0299  0.3350
 8019SOL     OW35518   4.480   3.276   1.296  0.1746  0.2579  0.3891
 8019SOL    HW135519   4.464   3.273   1.390  0.0663 -0.8492  0.3398
 8019SOL    HW235520   4.570   3.245   1.303  1.1447  2.6946 -1.5700
 8020SOL     OW35521   4.213   3.402   6.456  0.5495 -0.4704 -0.2577
 8020SOL    HW135522   4.247   3.333   6.399 -1.5083 -0.0896 -1.9651
 8020SOL    HW235523   4.293   3.404   6.508  0.2941 -1.5217  0.1587
 8021SOL     OW35524   0.838   2.735   1.584 -0.1051 -0.8483 -0.4051
 8021SOL    HW135525   0.862   2.777   1.666  0.3761  0.6472 -1.3017
 8021SOL    HW235526   0.778   2.669   1.619 -1.5411  1.2402  1.0730
 8022SOL     OW35527   1.417   0.174  13.462  0.0860  0.4140  0.1085
 8022SOL    HW135528   1.384   0.177  13.552 -0.8577 -1.4183 -0.1857
 8022SOL    HW235529   1.406   0.267  13.440  0.6477  0.5635  0.4418
 8023SOL     OW35530   1.014   4.075   0.925  0.3262  0.2844  0.0123
 8023SOL    HW135531   0.990   3.985   0.905 -0.5231  0.1276  1.7992
 8023SOL    HW235532   0.975   4.126   0.854  0.7603 -2.4332 -2.1926
 8024SOL     OW35533   2.997   4.102  15.608  0.8860  0.3631 -0.6990
 8024SOL    HW135534   3.080   4.105  15.655 -0.6351 -1.4768  2.0770
 8024SOL    HW235535   3.002   4.188  15.565 -0.1444  0.7677  0.0052
 8025SOL     OW35536   2.726   2.301  13.638  0.4073  0.8953  0.6783
 8025SOL    HW135537   2.771   2.277  13.718 -0.6588  0.6567  1.2054
 8025SOL    HW235538   2.749   2.227  13.582  0.3779  0.9651  0.5724
 8026SOL     OW35539   2.185   3.993   3.342 -0.7652 -0.3108 -0.0429
 8026SOL    HW135540   2.111   3.960   3.392 -0.3897 -0.3956  0.4554
 8026SOL    HW235541   2.260   3.966   3.394  0.5719  0.6674 -1.4381
 8027SOL     OW35542   1.719   0.299   9.468 -0.3462  0.1031 -0.4223
 8027SOL    HW135543   1.769   0.281   9.547 -0.7380 -0.8918 -0.4089
 8027SOL    HW235544   1.747   0.390   9.460  0.8627 -0.1865  0.5280
 8028SOL     OW35545   0.796   3.243   8.875  0.2816  0.0902  0.4422
 8028SOL    HW135546   0.770   3.323   8.830  2.2748 -0.5886 -1.9254
 8028SOL    HW235547   0.864   3.204   8.820 -2.5041  0.2076 -3.0767
 8029SOL     OW35548   1.295   1.201   0.573 -0.5786  0.1110 -0.3071
 8029SOL    HW135549   1.257   1.240   0.651  0.3667 -1.2926  0.8460
 8029SOL    HW235550   1.387   1.226   0.584 -0.9175  0.3772  1.7960
 8030SOL     OW35551   2.212   1.153  11.523  0.0583 -0.1268 -0.4003
 8030SOL    HW135552   2.145   1.163  11.455  0.5073 -3.6925 -1.3850
 8030SOL    HW235553   2.272   1.086  11.491  1.1411 -0.3059  1.9874
 8031SOL     OW35554   0.241   3.710   0.889 -0.1958  0.0487  0.2154
 8031SOL    HW135555   0.249   3.642   0.956  0.9493 -1.3028 -1.3167
 8031SOL    HW235556   0.191   3.777   0.936 -0.2823 -0.3049  0.6287
 8032SOL     OW35557   2.776   1.109   6.733  0.2152  0.7891 -0.0318
 8032SOL    HW135558   2.816   1.027   6.705 -1.2815 -1.0232  3.0946
 8032SOL    HW235559   2.846   1.166   6.702  3.2904 -2.2937  1.3606
 8033SOL     OW35560   3.985   2.616   9.889  0.2779 -0.0545  0.3640
 8033SOL    HW135561   4.026   2.655   9.966  0.3777  1.0482 -0.2520
 8033SOL    HW235562   4.007   2.682   9.823 -1.5129  0.2676  0.0899
 8034SOL     OW35563   4.697   4.245  17.575  0.0741  0.1034 -0.8148
 8034SOL    HW135564   4.677   4.273  17.486 -2.2263 -0.6197 -0.5228
 8034SOL    HW235565   4.661   4.314  17.631  2.5728 -0.3763  1.3591
 8035SOL     OW35566   3.287   0.856   3.469 -0.7681  0.0355  0.3088
 8035SOL    HW135567   3.219   0.828   3.408  0.1224 -0.4729 -0.4459
 8035SOL    HW235568   3.348   0.782   3.466  0.9555  1.4982 -0.9223
 8036SOL     OW35569   1.804   3.457  17.260 -0.6764  0.5871  0.1581
 8036SOL    HW135570   1.870   3.408  17.210 -1.8571 -0.1984 -0.6159
 8036SOL    HW235571   1.804   3.421  17.348 -1.9268  0.2321  0.0130
 8037SOL     OW35572   0.518   0.835   4.110 -0.0548 -0.5797 -0.1029
 8037SOL    HW135573   0.513   0.930   4.103 -0.3322 -0.4609  1.5375
 8037SOL    HW235574   0.433   0.819   4.152 -0.4879  2.4375  0.1509
 8038SOL     OW35575   1.035   0.312   3.451  0.4441  0.1808 -0.2091
 8038SOL    HW135576   1.111   0.360   3.482  0.0139 -1.0294  2.6871
 8038SOL    HW235577   0.968   0.376   3.474  1.1635  0.7377  0.3036
 8039SOL     OW35578   2.228   1.893   7.979 -0.0713 -0.1947 -0.4127
 8039SOL    HW135579   2.225   1.839   8.057  1.1989  0.2151 -0.0883
 8039SOL    HW235580   2.157   1.861   7.923  0.0764 -1.2463  0.0049
 8040SOL     OW35581   0.584   0.035  10.274  0.0637 -0.0241 -0.2494
 8040SOL    HW135582   0.528   0.100  10.231  0.9807 -0.7149 -2.4754
 8040SOL    HW235583   0.665   0.077  10.247  0.4606 -0.1463  0.7655
 8041SOL     OW35584   0.890   0.408   7.611  0.5153  0.6252 -0.3009
 8041SOL    HW135585   0.827   0.401   7.682  0.8956  0.7428  0.0443
 8041SOL    HW235586   0.891   0.499   7.582 -0.1315  0.3456 -1.2387
 8042SOL     OW35587   2.016   0.365   0.508 -0.5840  0.3380 -0.1225
 8042SOL    HW135588   1.921   0.380   0.502 -0.4549  0.0314 -3.0875
 8042SOL    HW235589   2.015   0.270   0.519 -1.0363  0.2345 -1.0650
 8043SOL     OW35590   3.239   4.315  17.656 -0.5594  0.0490  0.1432
 8043SOL    HW135591   3.271   4.314   0.044  2.2783  1.5203 -0.8690
 8043SOL    HW235592   3.238   4.223  17.631  0.4962  0.1095 -0.1268
 8044SOL     OW35593   0.103   4.587  11.658 -0.2829 -0.2617  1.2757
 8044SOL    HW135594   0.152   4.507  11.680  3.5889  1.1437 -2.2283
 8044SOL    HW235595   0.156   4.652  11.703  1.0944 -1.1565  0.9416
 8045SOL     OW35596   0.670   2.485   3.749  0.2442 -0.0770 -0.8635
 8045SOL    HW135597   0.731   2.475   3.676  1.5046 -0.2440  0.1904
 8045SOL    HW235598   0.585   2.485   3.707 -1.1962  0.9387  2.0335
 8046SOL     OW35599   3.946   3.369   7.894 -0.1495 -0.3078  0.6231
 8046SOL    HW135600   3.903   3.308   7.954 -2.2158  1.8095  1.3028
 8046SOL    HW235601   3.938   3.457   7.932 -1.2717  0.2922 -1.0022
 8047SOL     OW35602   2.833   0.474   4.611 -0.2992  0.6267 -0.4594
 8047SOL    HW135603   2.917   0.507   4.643  0.1917 -0.6453 -0.4292
 8047SOL    HW235604   2.808   0.554   4.564 -1.0804 -0.4312 -1.8905
 8048SOL     OW35605   0.807   1.068   7.971 -0.1347  0.6134 -0.0716
 8048SOL    HW135606   0.719   1.057   7.934 -0.7187 -0.0538  1.4951
 8048SOL    HW235607   0.800   1.039   8.062  2.0772 -0.0519 -0.1199
 8049SOL     OW35608   0.552   4.028   8.273  0.8895  0.3203 -0.4975
 8049SOL    HW135609   0.559   3.945   8.227  1.1750 -0.3238  0.7092
 8049SOL    HW235610   0.489   4.066   8.212 -0.6767 -1.5990 -0.0954
 8050SOL     OW35611   0.886   2.621   8.132  0.7430  0.0975  0.6092
 8050SOL    HW135612   0.795   2.605   8.156  0.0829  0.5367 -1.5639
 8050SOL    HW235613   0.919   2.535   8.158  1.0015  0.2735  0.8638
 8051SOL     OW35614   2.865   0.689   2.897  0.1829 -0.0055 -0.0797
 8051SOL    HW135615   2.791   0.748   2.883  1.4401  1.1928 -1.7972
 8051SOL    HW235616   2.922   0.735   2.835 -0.1115  1.9406  1.0897
 8052SOL     OW35617   1.976   4.545  11.539 -0.0765 -0.1278  0.2735
 8052SOL    HW135618   1.887   4.521  11.562  0.9672 -2.9345  1.4315
 8052SOL    HW235619   2.014   4.560  11.625 -0.0171  0.0163  0.2211
 8053SOL     OW35620   0.914   0.953   4.533  0.1507  0.1127  0.1588
 8053SOL    HW135621   0.960   1.008   4.470 -0.6083 -1.1620 -1.5164
 8053SOL    HW235622   0.844   0.921   4.476 -0.0025  1.0825 -0.1913
 8054SOL     OW35623   1.165   1.612   2.454 -0.3327 -0.2137  0.5452
 8054SOL    HW135624   1.256   1.634   2.475 -0.3863  0.0594  0.4971
 8054SOL    HW235625   1.133   1.559   2.527 -0.7876 -1.4451 -0.5393
 8055SOL     OW35626   4.443   1.978   9.188  0.3831  0.0335  0.8410
 8055SOL    HW135627   4.421   1.903   9.132 -1.8062  1.6343 -0.3921
 8055SOL    HW235628   4.538   1.972   9.199  0.6902  1.5684 -0.9812
 8056SOL     OW35629   3.299   4.575   7.627  0.5362 -0.1984 -0.5372
 8056SOL    HW135630   3.384   4.620   7.620  1.1104 -1.1652  0.3179
 8056SOL    HW235631   3.266   4.619   7.705  1.4542  0.0441 -0.2756
 8057SOL     OW35632   4.665   1.230   2.631 -0.2367  0.1533 -0.2359
 8057SOL    HW135633   0.019   1.272   2.597 -0.8696  0.2436 -1.5951
 8057SOL    HW235634   4.624   1.188   2.555 -2.0880  2.0349 -0.2491
 8058SOL     OW35635   2.912   4.660   3.994 -0.0332  0.0073  0.6094
 8058SOL    HW135636   2.825   4.624   4.007 -0.1158  0.0169  0.0756
 8058SOL    HW235637   2.951   4.576   3.973 -1.7494 -0.6771  0.1779
 8059SOL     OW35638   4.650   2.260   5.107  0.2290  0.0953 -0.1136
 8059SOL    HW135639   4.647   2.187   5.045 -1.2832  0.5054 -0.5304
 8059SOL    HW235640   4.563   2.255   5.146 -0.4425 -1.8636 -1.8560
 8060SOL     OW35641   3.647   4.216   5.248  0.3483 -0.0763 -0.3700
 8060SOL    HW135642   3.581   4.159   5.286 -0.2243  0.7154 -0.1867
 8060SOL    HW235643   3.588   4.269   5.195  0.4097  1.2927  0.9550
 8061SOL     OW35644   0.052   4.152   7.387 -0.2992 -0.4798 -0.1519
 8061SOL    HW135645   0.051   4.169   7.481  3.1556 -1.3375  0.0360
 8061SOL    HW235646   4.699   4.097   7.385  0.4041 -1.4263 -1.7156
 8062SOL     OW35647   3.829   2.312  10.230 -0.0266 -0.4420  0.3195
 8062SOL    HW135648   3.806   2.369  10.157  1.1998  0.8653  0.9560
 8062SOL    HW235649   3.848   2.232  10.181 -1.9093 -1.9996  2.1277
 8063SOL     OW35650   4.102   3.505   9.849  0.2170  0.1514  0.1067
 8063SOL    HW135651   4.068   3.594   9.850 -1.5123 -0.5127  1.2690
 8063SOL    HW235652   4.130   3.492   9.940 -3.3493 -0.0612  1.1755
 8064SOL     OW35653   4.507   4.195   1.643 -0.1177 -0.3380  0.6462
 8064SOL    HW135654   4.471   4.232   1.724 -1.9722 -2.5032  0.7745
 8064SOL    HW235655   4.445   4.235   1.583 -0.1996 -1.1304  0.2049
 8065SOL     OW35656   4.372   0.858   7.836 -0.3202  0.0389 -0.4388
 8065SOL    HW135657   4.333   0.778   7.801 -0.6829  0.0519 -0.0712
 8065SOL    HW235658   4.465   0.838   7.841 -0.4214 -0.2000  0.5328
 8066SOL     OW35659   2.144   1.946   0.859 -0.0236 -0.3307 -0.5222
 8066SOL    HW135660   2.082   1.935   0.931 -1.1103 -0.1338 -1.4236
 8066SOL    HW235661   2.218   1.901   0.899  0.1251  0.2747 -0.1230
 8067SOL     OW35662   1.820   4.622  10.601  0.3601  0.2963 -0.0445
 8067SOL    HW135663   1.738   4.672  10.608  1.3064  1.6580  1.1772
 8067SOL    HW235664   1.796   4.529  10.600  1.3035  0.0429  1.0615
 8068SOL     OW35665   4.114   4.014  13.807  0.3568 -0.4647 -0.3165
 8068SOL    HW135666   4.082   4.103  13.789  0.3104 -0.2902  0.6263
 8068SOL    HW235667   4.063   3.962  13.745 -0.9139 -0.5939  0.8396
 8069SOL     OW35668   0.285   4.581   7.178  0.4759 -0.0606  0.2593
 8069SOL    HW135669   0.270   4.492   7.210  0.2112 -0.0311  0.2192
 8069SOL    HW235670   0.300   4.621   7.264  0.3258 -0.0646  0.2871
 8070SOL     OW35671   2.710   4.354  13.286 -0.1387 -0.5239  0.1020
 8070SOL    HW135672   2.719   4.260  13.301  0.6864 -0.6750 -1.3464
 8070SOL    HW235673   2.680   4.384  13.372 -1.0258 -3.0235  0.6617
 8071SOL     OW35674   3.778   3.658   9.723  0.1204 -0.2324 -0.4072
 8071SOL    HW135675   3.840   3.703   9.779  0.7581  1.0443 -2.1489
 8071SOL    HW235676   3.749   3.721   9.657 -0.3184 -0.5489 -0.5235
 8072SOL     OW35677   1.005   4.293   1.410 -0.2846 -0.0357  0.2537
 8072SOL    HW135678   0.985   4.384   1.433 -1.1488  0.8099 -3.7762
 8072SOL    HW235679   0.927   4.261   1.364 -0.1788  0.5052 -0.3111
 8073SOL     OW35680   4.493   1.194  15.293 -0.2550 -0.2862 -0.0585
 8073SOL    HW135681   4.488   1.237  15.378 -0.7191 -1.3510  0.4549
 8073SOL    HW235682   4.584   1.208  15.266 -0.8015  2.8787 -0.2163
 8074SOL     OW35683   2.506   3.726  14.956  0.1076 -0.4023 -0.5109
 8074SOL    HW135684   2.504   3.709  14.862 -1.9803 -2.9281 -0.0111
 8074SOL    HW235685   2.432   3.787  14.953  1.0428  0.6779 -1.4179
 8075SOL     OW35686   1.368   2.417  12.644 -0.1241  0.0092  0.2087
 8075SOL    HW135687   1.382   2.326  12.670 -2.3433 -0.1455  0.8814
 8075SOL    HW235688   1.275   2.404  12.624 -0.6305  1.0005  1.8998
 8076SOL     OW35689   1.663   1.405   5.959 -0.1558  0.3860  0.2000
 8076SOL    HW135690   1.636   1.489   5.996  1.5658  1.6664 -1.4143
 8076SOL    HW235691   1.759   1.415   5.961  0.2701 -3.3304 -0.6934
 8077SOL     OW35692   1.823   0.664   3.022 -0.2569  0.3579 -0.2023
 8077SOL    HW135693   1.752   0.640   2.962 -0.4978  1.2928 -0.2996
 8077SOL    HW235694   1.773   0.706   3.093  1.4182  0.3384  0.9654
 8078SOL     OW35695   2.699   1.628  14.329  0.1322 -0.1331  0.0693
 8078SOL    HW135696   2.700   1.625  14.234  1.6450  0.4960  0.0784
 8078SOL    HW235697   2.626   1.567  14.342 -1.8298  2.1337 -0.2990
 8079SOL     OW35698   1.834   1.070   4.106 -0.1887  0.0388 -0.0821
 8079SOL    HW135699   1.827   0.994   4.048 -4.3230  0.8580 -0.6504
 8079SOL    HW235700   1.808   1.026   4.187 -0.6233  1.3335  0.4785
 8080SOL     OW35701   2.136   4.406   9.106  1.0201 -0.2373 -0.0732
 8080SOL    HW135702   2.110   4.402   9.198 -0.4313 -0.6101 -0.5046
 8080SOL    HW235703   2.213   4.463   9.107  0.3223  0.7283 -1.8433
 8081SOL     OW35704   3.936   2.297   4.694  0.5312 -0.1567 -0.2427
 8081SOL    HW135705   3.996   2.224   4.675 -2.9453 -1.8905 -4.6242
 8081SOL    HW235706   3.923   2.276   4.786 -1.5848 -0.2532 -0.5689
 8082SOL     OW35707   4.498   1.527   5.790  0.3978 -0.1129  0.4090
 8082SOL    HW135708   4.580   1.528   5.742  0.2928  0.6137  0.2471
 8082SOL    HW235709   4.475   1.439   5.762 -0.1976 -0.3389  1.5875
 8083SOL     OW35710   3.007   2.939  12.888  0.3332  0.7136  0.5722
 8083SOL    HW135711   2.988   2.995  12.813 -1.5099  0.6433  0.9945
 8083SOL    HW235712   3.103   2.950  12.889  0.5765 -1.3879 -0.1335
 8084SOL     OW35713   0.738   4.335  12.806  0.1743  0.2189  0.2834
 8084SOL    HW135714   0.703   4.414  12.764  1.9388  1.5510  1.3206
 8084SOL    HW235715   0.702   4.350  12.894 -1.9148  0.2746 -0.5646
 8085SOL     OW35716   1.741   1.476   4.304 -0.3074  0.1391  0.4017
 8085SOL    HW135717   1.763   1.526   4.226  1.3214 -0.2502  0.6259
 8085SOL    HW235718   1.809   1.413   4.325  1.4132  1.9505  0.2132
 8086SOL     OW35719   0.847   1.366   2.999 -0.0930  0.3741 -0.2536
 8086SOL    HW135720   0.866   1.433   2.933 -0.7772  0.0424 -0.7860
 8086SOL    HW235721   0.915   1.378   3.065 -0.1716 -1.5362  0.1601
 8087SOL     OW35722   4.690   2.649  14.402 -0.2108 -0.0810 -0.5909
 8087SOL    HW135723   0.060   2.640  14.413 -0.0145 -0.1918 -2.2449
 8087SOL    HW235724   4.669   2.558  14.383  0.6694 -0.3358 -0.3532
 8088SOL     OW35725   3.989   3.085   7.023  0.0773 -0.4617  0.0512
 8088SOL    HW135726   3.918   3.047   6.972  0.0151 -2.2459  1.4551
 8088SOL    HW235727   3.971   3.179   7.018 -0.6229 -0.7228 -2.0062
 8089SOL     OW35728   0.819   4.413   7.392  0.0707  0.1116 -0.1571
 8089SOL    HW135729   0.763   4.470   7.340 -2.2665 -0.4489  1.7410
 8089SOL    HW235730   0.869   4.477   7.443 -0.1040  0.2835 -0.2038
 8090SOL     OW35731   3.834   0.800  16.220 -0.4589 -0.1671 -0.1979
 8090SOL    HW135732   3.742   0.778  16.207  0.1475 -3.3413  0.9497
 8090SOL    HW235733   3.853   0.732  16.284  0.4588 -1.2021 -1.5940
 8091SOL     OW35734   0.724   2.482   3.227 -0.0021 -0.4311  0.5732
 8091SOL    HW135735   0.782   2.464   3.153 -0.3608 -1.8437  0.6309
 8091SOL    HW235736   0.675   2.554   3.188  0.7222  0.1986  0.8409
 8092SOL     OW35737   4.286   3.628  12.748 -0.0361 -0.5071 -0.3455
 8092SOL    HW135738   4.283   3.681  12.669  1.1815  0.5296  0.3170
 8092SOL    HW235739   4.307   3.700  12.807  0.2501 -0.8677 -0.0080
 8093SOL     OW35740   1.394   4.285   4.603  0.9291  0.6448  0.1889
 8093SOL    HW135741   1.365   4.245   4.685  0.1968  1.0768  0.1465
 8093SOL    HW235742   1.450   4.355   4.637  0.0440  0.3389  2.2508
 8094SOL     OW35743   0.077   1.978   4.301  0.3554 -0.0741  0.0143
 8094SOL    HW135744   4.716   1.958   4.264  0.7071 -0.2519 -0.7152
 8094SOL    HW235745   0.132   2.004   4.226 -1.5817  0.2460 -1.2906
 8095SOL     OW35746   0.655   1.356   4.018 -0.1251 -0.1518  0.8157
 8095SOL    HW135747   0.642   1.336   3.925  0.8695 -1.0687  0.8737
 8095SOL    HW235748   0.567   1.383   4.045  0.2377  0.8726  0.9837
 8096SOL     OW35749   4.075   1.048  10.422 -0.1363  0.2500  0.1303
 8096SOL    HW135750   4.036   0.969  10.460  0.0738  0.8958  1.6506
 8096SOL    HW235751   4.167   1.028  10.438  0.0729 -0.0116 -1.3641
 8097SOL     OW35752   0.840   2.672   5.795  0.0873 -0.4652  0.3826
 8097SOL    HW135753   0.801   2.618   5.865  0.2929  0.9921  1.6083
 8097SOL    HW235754   0.915   2.716   5.833 -0.4166 -0.0308  0.8749
 8098SOL     OW35755   2.165   0.847   5.083 -0.0286  0.3217 -0.0609
 8098SOL    HW135756   2.177   0.915   5.017  0.6690  1.0884  0.8677
 8098SOL    HW235757   2.106   0.785   5.041 -0.5483  1.7758 -1.4733
 8099SOL     OW35758   4.698   2.364   5.475 -0.3729 -0.4153  0.2902
 8099SOL    HW135759   4.696   2.269   5.472  0.8522 -0.3857 -1.5555
 8099SOL    HW235760   0.012   2.387   5.391  0.2174 -0.7854  0.4675
 8100SOL     OW35761   0.884   1.359   4.438 -0.4780 -0.2395 -0.4267
 8100SOL    HW135762   0.954   1.415   4.406  0.2884 -2.1058 -1.9926
 8100SOL    HW235763   0.843   1.317   4.362 -1.2777  0.3504 -0.3192
 8101SOL     OW35764   4.452   2.928   1.485 -0.5450  0.1176  0.1942
 8101SOL    HW135765   4.514   2.987   1.441 -0.2916 -0.7915 -0.6521
 8101SOL    HW235766   4.450   2.975   1.569  2.1946  0.8598 -0.1544
 8102SOL     OW35767   4.343   4.643   4.719  0.1382  0.0264  0.4848
 8102SOL    HW135768   4.272   4.644   4.783  0.4409 -2.5058  0.8346
 8102SOL    HW235769   4.326   4.564   4.668  0.8202  1.0524 -1.3470
 8103SOL     OW35770   4.420   0.420   3.982 -0.2835 -0.7194  0.2717
 8103SOL    HW135771   4.468   0.500   3.960 -1.2723  0.3977  2.2080
 8103SOL    HW235772   4.405   0.388   3.893  1.4690 -2.5798  0.6341
 8104SOL     OW35773   0.641   3.806   4.855  0.2737 -0.1897 -0.0686
 8104SOL    HW135774   0.658   3.895   4.823 -0.3096  0.1479  0.5649
 8104SOL    HW235775   0.640   3.759   4.772  0.3459 -1.2678  0.5494
 8105SOL     OW35776   3.978   2.690   4.014  0.0852  0.5582 -0.0980
 8105SOL    HW135777   4.071   2.688   3.990 -0.5318 -0.7397 -2.3495
 8105SOL    HW235778   3.970   2.598   4.036  1.0386  0.3043 -0.7981
 8106SOL     OW35779   1.455   4.583   4.414 -0.0952  0.3792  0.4275
 8106SOL    HW135780   1.524   4.573   4.480  1.0516 -0.0663 -0.8197
 8106SOL    HW235781   1.476   4.666   4.371  1.9531 -1.3653 -2.0099
 8107SOL     OW35782   3.398   3.753   7.749  0.0460 -0.0595 -0.2257
 8107SOL    HW135783   3.453   3.675   7.748 -2.5021 -1.8787  0.1806
 8107SOL    HW235784   3.419   3.799   7.668 -0.8887  1.1007  0.1946
 8108SOL     OW35785   2.767   3.531   7.697 -0.0216 -0.0507 -1.2640
 8108SOL    HW135786   2.833   3.483   7.747 -1.0131  1.1110  1.1791
 8108SOL    HW235787   2.725   3.463   7.645  0.0112 -1.7887  0.9935
 8109SOL     OW35788   1.592   0.131   0.124  0.0857 -0.0579  0.1822
 8109SOL    HW135789   1.571   0.224   0.133  1.1697  0.2718 -0.7100
 8109SOL    HW235790   1.687   0.120   0.119  0.3775  1.3798  2.4928
 8110SOL     OW35791   4.593   2.983   9.027  0.0718  0.0212 -0.9250
 8110SOL    HW135792   4.665   2.978   8.964  0.5042 -1.9639 -0.2687
 8110SOL    HW235793   4.586   2.893   9.059 -2.7770  0.3833 -0.5300
 8111SOL     OW35794   3.828   3.501   6.078  0.1009 -0.0819 -0.5882
 8111SOL    HW135795   3.845   3.430   6.016  1.4384 -1.6225  1.5164
 8111SOL    HW235796   3.794   3.568   6.019 -0.9889 -0.8930 -0.8912
 8112SOL     OW35797   4.092   0.018   8.682  0.6207 -0.1258  0.2974
 8112SOL    HW135798   4.168   4.710   8.730  0.7215  0.3385  0.4587
 8112SOL    HW235799   4.115   0.110   8.674 -1.8319  0.3306 -1.2267
 8113SOL     OW35800   3.582   4.046   7.681  0.5410 -0.0859  0.2622
 8113SOL    HW135801   3.488   4.042   7.693  0.5817  0.8041  0.9485
 8113SOL    HW235802   3.592   3.961   7.639  1.5879  0.2592 -0.2023
 8114SOL     OW35803   0.128   4.048  11.470 -0.1958 -0.5263  0.3428
 8114SOL    HW135804   0.217   4.025  11.497  0.1060 -1.9732 -1.8628
 8114SOL    HW235805   0.129   4.039  11.374 -0.6936  0.1769  0.2685
 8115SOL     OW35806   0.626   0.804  14.951 -0.0489 -0.2842  0.4488
 8115SOL    HW135807   0.543   0.808  14.903 -0.9785 -0.2039  2.0671
 8115SOL    HW235808   0.624   0.871  15.019 -2.3705  1.4399 -1.2917
 8116SOL     OW35809   4.008   2.491   4.310  0.3246  0.1305  0.0365
 8116SOL    HW135810   3.925   2.442   4.302 -0.3237  1.0802  0.9766
 8116SOL    HW235811   4.065   2.445   4.249 -0.0334  1.7934 -1.5108
 8117SOL     OW35812   2.635   0.891   9.148  0.1914 -0.0038 -0.0562
 8117SOL    HW135813   2.674   0.804   9.142 -3.4914 -1.7510  0.9354
 8117SOL    HW235814   2.562   0.893   9.085  0.8649 -2.1767 -0.8850
 8118SOL     OW35815   4.218   2.253   7.868 -0.5932 -0.3155  0.2380
 8118SOL    HW135816   4.193   2.161   7.874 -2.1647 -0.0861 -2.7092
 8118SOL    HW235817   4.275   2.246   7.791 -0.6380  0.6247  0.1204
 8119SOL     OW35818   0.417   3.737  14.570  0.3961  0.0106  0.3229
 8119SOL    HW135819   0.344   3.747  14.631 -0.0281 -0.9397 -0.0362
 8119SOL    HW235820   0.433   3.824  14.533 -2.3794  0.0749 -0.8046
 8120SOL     OW35821   4.513   4.306  14.709 -0.0007 -0.1347 -0.0135
 8120SOL    HW135822   4.544   4.396  14.721 -2.6071  0.6351  1.2401
 8120SOL    HW235823   4.596   4.265  14.731 -1.6710 -3.7874 -0.5323
 8121SOL     OW35824   4.224   2.927   4.583 -0.1542 -0.0670  0.1569
 8121SOL    HW135825   4.193   3.005   4.536 -1.4804 -0.4147  0.4307
 8121SOL    HW235826   4.139   2.895   4.614 -0.4132 -0.2195 -0.7272
 8122SOL     OW35827   1.177   2.268   5.571 -0.3523 -0.2276  0.0158
 8122SOL    HW135828   1.108   2.292   5.633  1.3152  0.5313  1.5845
 8122SOL    HW235829   1.144   2.306   5.489 -0.0564 -0.0271 -0.0106
 8123SOL     OW35830   1.608   2.061   4.139  0.0642  0.1222  0.0292
 8123SOL    HW135831   1.616   2.145   4.184 -0.6446 -0.8856  2.0398
 8123SOL    HW235832   1.626   1.989   4.200 -0.3574 -0.5628 -0.6491
 8124SOL     OW35833   1.125   2.297   5.088 -0.0768  0.1027 -0.6832
 8124SOL    HW135834   1.040   2.282   5.048 -0.4934  0.2330  0.1565
 8124SOL    HW235835   1.187   2.273   5.019  1.6850  2.1527  0.1673
 8125SOL     OW35836   2.809   3.249  14.539  0.2135 -0.0788  0.1668
 8125SOL    HW135837   2.831   3.225  14.629 -0.5788 -2.1255 -0.2010
 8125SOL    HW235838   2.882   3.218  14.486  1.1876  1.8642  0.3660
 8126SOL     OW35839   2.123   1.838  16.612 -0.0892 -0.1857  0.0827
 8126SOL    HW135840   2.160   1.845  16.700 -0.1756  1.7288 -0.0418
 8126SOL    HW235841   2.032   1.847  16.640 -0.0384  2.7204 -0.7567
 8127SOL     OW35842   2.619   2.167   5.722 -0.2143  0.3739 -0.0214
 8127SOL    HW135843   2.693   2.215   5.762  0.8153 -0.2065 -1.2360
 8127SOL    HW235844   2.567   2.243   5.697 -0.8121 -0.9822 -2.9084
 8128SOL     OW35845   0.715   0.034  17.153 -0.2438  0.4405 -0.3373
 8128SOL    HW135846   0.655   0.047  17.080  0.8779  0.6376 -1.2200
 8128SOL    HW235847   0.717   4.663  17.155 -3.6313  0.3442 -0.8031
 8129SOL     OW35848   4.046   3.611  13.265 -0.0573  0.3504  0.0352
 8129SOL    HW135849   3.980   3.655  13.319  0.0099  0.1014  0.3151
 8129SOL    HW235850   4.130   3.646  13.295 -1.0251  1.3604  1.5933
 8130SOL     OW35851   1.281   2.925   4.928 -0.5460  0.0658 -0.2479
 8130SOL    HW135852   1.297   3.018   4.940 -0.2998 -0.3596  2.6344
 8130SOL    HW235853   1.189   2.927   4.901 -0.4428 -1.8246 -0.7766
 8131SOL     OW35854   2.055   3.746   7.400 -0.2465  0.5912 -0.1625
 8131SOL    HW135855   2.149   3.734   7.392 -0.4431 -1.2105  0.1503
 8131SOL    HW235856   2.038   3.797   7.320  0.3603 -0.8931 -1.2504
 8132SOL     OW35857   2.825   2.555  12.320  0.2302 -0.1609 -1.0179
 8132SOL    HW135858   2.865   2.632  12.279 -0.4962 -0.5677 -2.5018
 8132SOL    HW235859   2.828   2.581  12.412  1.2924 -2.1893 -0.4800
 8133SOL     OW35860   2.033   1.823   9.369  0.3630  0.4245 -0.0290
 8133SOL    HW135861   2.029   1.862   9.281 -2.0308  2.3058  0.9022
 8133SOL    HW235862   2.083   1.742   9.358  1.3631  1.1802 -1.0342
 8134SOL     OW35863   4.359   3.567  15.405 -0.1458  0.6267 -0.8242
 8134SOL    HW135864   4.341   3.493  15.347 -2.3977  1.7711 -1.5744
 8134SOL    HW235865   4.272   3.583  15.442  0.9072  1.5156  1.2810
 8135SOL     OW35866   0.063   0.944   4.239 -0.7158 -0.3327 -0.6551
 8135SOL    HW135867   0.055   0.937   4.143 -0.6493  1.1462 -0.7657
 8135SOL    HW235868   0.158   0.943   4.251 -0.8472 -0.9104  0.3457
 8136SOL     OW35869   4.512   4.316   6.489 -0.2586  0.3473  0.3333
 8136SOL    HW135870   4.569   4.358   6.554 -2.7218  0.8057  2.1856
 8136SOL    HW235871   4.513   4.225   6.516  0.1768  0.8021  1.8806
 8137SOL     OW35872   2.384   0.388  13.672  0.1163 -0.0242  1.1214
 8137SOL    HW135873   2.410   0.478  13.652 -1.8031  0.4489  0.7399
 8137SOL    HW235874   2.456   0.342  13.630 -1.3403 -1.4965  0.2244
 8138SOL     OW35875   3.836   2.696   0.387 -0.0086  0.4144  0.3055
 8138SOL    HW135876   3.821   2.744   0.305  0.6529  2.8688  1.6042
 8138SOL    HW235877   3.758   2.727   0.433  1.5254  3.7089  0.6970
 8139SOL     OW35878   0.904   1.554   6.910  0.5689 -0.2545 -0.0594
 8139SOL    HW135879   0.992   1.516   6.904  0.2347 -1.1316  0.5909
 8139SOL    HW235880   0.863   1.471   6.886 -2.4971  1.0910  0.5965
 8140SOL     OW35881   2.977   4.164   2.950 -0.2087 -0.3623 -0.0742
 8140SOL    HW135882   2.890   4.190   2.982  0.1261  1.1415 -0.3974
 8140SOL    HW235883   3.031   4.214   3.012  0.0403 -2.3923  1.3358
 8141SOL     OW35884   2.023   0.019   1.689 -0.0810 -0.0771  0.6945
 8141SOL    HW135885   1.978   0.013   1.604  0.7924 -1.5221  0.3287
 8141SOL    HW235886   2.074   0.100   1.690 -1.0157  0.4925  1.7751
 8142SOL     OW35887   0.283   2.211   0.951  0.2525  0.0373  0.0384
 8142SOL    HW135888   0.362   2.165   0.923 -1.1195 -1.7699 -0.8236
 8142SOL    HW235889   0.296   2.210   1.046 -3.3166 -0.6186  0.5084
 8143SOL     OW35890   4.087   0.065  13.062 -0.4114 -0.0565  0.0138
 8143SOL    HW135891   4.022   4.721  13.070 -0.8831  0.4282  0.3128
 8143SOL    HW235892   4.146   0.023  13.000 -2.3807 -0.0952 -1.8249
 8144SOL     OW35893   4.345   0.377   7.272  0.0737  0.5597  0.3757
 8144SOL    HW135894   4.275   0.431   7.236 -0.3765 -1.5424 -1.9468
 8144SOL    HW235895   4.334   0.396   7.365  0.1856 -1.1229  0.7475
 8145SOL     OW35896   3.027   1.658  10.093  0.4121  0.6599  0.3721
 8145SOL    HW135897   3.020   1.577  10.043 -0.6216  0.1340  1.3950
 8145SOL    HW235898   2.943   1.647  10.138  0.7553  0.7142  1.0196
 8146SOL     OW35899   2.919   3.884  13.294 -1.1438 -0.5560 -0.1602
 8146SOL    HW135900   2.925   3.852  13.384 -0.5014  0.1853  0.0643
 8146SOL    HW235901   2.952   3.811  13.241 -2.5569 -0.2924 -1.3929
 8147SOL     OW35902   2.174   4.504   7.414  1.0666  0.7090  0.0749
 8147SOL    HW135903   2.140   4.585   7.451 -2.3979 -0.5503 -0.3621
 8147SOL    HW235904   2.208   4.467   7.496 -0.4122  0.3987  0.5462
 8148SOL     OW35905   1.747   2.866   7.023 -0.0296  0.4912  0.1351
 8148SOL    HW135906   1.752   2.961   7.012 -1.7719  0.5356 -0.3018
 8148SOL    HW235907   1.817   2.833   6.966  0.1827 -2.5645  2.1657
 8149SOL     OW35908   1.185   4.016   3.708 -0.3213 -0.3502 -0.5163
 8149SOL    HW135909   1.189   4.074   3.631  0.3906 -1.5553 -1.3855
 8149SOL    HW235910   1.094   4.034   3.729  0.1597  0.7799  0.6471
 8150SOL     OW35911   3.027   3.460   4.374  0.1139  0.6521 -0.0088
 8150SOL    HW135912   3.105   3.457   4.318 -0.4627  0.3077 -0.8002
 8150SOL    HW235913   3.034   3.371   4.410 -1.7325  0.9032  0.9769
 8151SOL     OW35914   3.384   0.072   6.857  0.1070 -0.3816 -0.4537
 8151SOL    HW135915   3.469   0.098   6.892  0.3061 -0.9101 -0.5361
 8151SOL    HW235916   3.394   0.106   6.768  1.6719  0.3894  0.0250
 8152SOL     OW35917   1.088   2.320   8.446 -0.4633 -0.4721 -0.7171
 8152SOL    HW135918   1.084   2.232   8.484  3.5340 -0.3196  0.0345
 8152SOL    HW235919   1.180   2.342   8.457 -0.7505  0.9796 -1.1375
 8153SOL     OW35920   3.552   2.831   3.835  0.4489  0.2654  0.0045
 8153SOL    HW135921   3.490   2.793   3.897  0.4120  1.1063  0.4819
 8153SOL    HW235922   3.606   2.756   3.812  1.0706  1.5219 -2.5978
 8154SOL     OW35923   1.719   2.396   7.290 -0.3230  0.2539 -0.0471
 8154SOL    HW135924   1.659   2.387   7.216  1.3480 -0.1860 -1.3611
 8154SOL    HW235925   1.771   2.315   7.287  0.6376  0.9084 -1.4379
 8155SOL     OW35926   4.336   3.315   8.857 -0.2676 -0.2055 -0.1265
 8155SOL    HW135927   4.410   3.372   8.837 -1.2228  1.2407  0.4406
 8155SOL    HW235928   4.260   3.374   8.853 -0.9622 -0.9676  2.2436
 8156SOL     OW35929   4.122   4.332   8.532 -0.0555 -0.1015 -0.2001
 8156SOL    HW135930   4.117   4.236   8.537 -0.7386 -0.0080  0.9474
 8156SOL    HW235931   4.145   4.361   8.620  0.3533 -2.6441  0.5233
 8157SOL     OW35932   3.516   2.595   2.963 -0.6978 -0.0471  0.2759
 8157SOL    HW135933   3.554   2.644   2.890 -0.3713 -2.1006 -0.9359
 8157SOL    HW235934   3.570   2.517   2.950 -1.3113 -0.3535 -0.4058
 8158SOL     OW35935   3.221   3.704   9.283  0.3529 -0.2025 -0.0502
 8158SOL    HW135936   3.157   3.748   9.339 -0.7883 -0.9452 -0.7679
 8158SOL    HW235937   3.173   3.683   9.202 -0.6904 -1.4421  0.8915
 8159SOL     OW35938   1.131   4.120  13.625  0.3818  0.2487  0.3114
 8159SOL    HW135939   1.172   4.197  13.665 -1.5040  1.5253 -0.2214
 8159SOL    HW235940   1.124   4.157  13.537 -0.6009 -0.2930  0.1681
 8160SOL     OW35941   1.544   1.178  11.383  0.0038  0.4951  0.1081
 8160SOL    HW135942   1.556   1.201  11.291 -2.3023 -1.1316 -0.6155
 8160SOL    HW235943   1.470   1.118  11.373 -0.1565  0.6646  0.2836
 8161SOL     OW35944   4.681   0.701   3.682 -0.1336  0.2208  0.0145
 8161SOL    HW135945   4.655   0.699   3.774 -1.7788  2.0610 -0.4149
 8161SOL    HW235946   4.607   0.743   3.640 -0.7742 -0.8691  0.0391
 8162SOL     OW35947   1.990   2.267   9.264 -0.1625 -0.0444 -0.2502
 8162SOL    HW135948   1.909   2.283   9.312  0.7923  1.0036  0.9903
 8162SOL    HW235949   2.042   2.221   9.330 -0.5826 -0.8860 -0.5007
 8163SOL     OW35950   0.529   0.096   2.966  0.2772  0.3128 -0.2724
 8163SOL    HW135951   0.569   0.123   3.049  1.2294 -1.1286 -0.2625
 8163SOL    HW235952   0.556   0.163   2.903  0.5771  1.0205  0.6045
 8164SOL     OW35953   0.674   4.097  12.105  0.0963  0.3143 -0.1216
 8164SOL    HW135954   0.721   4.135  12.031 -1.4154  1.8855 -0.2826
 8164SOL    HW235955   0.589   4.133  12.078 -0.2798 -0.5719 -0.1233
 8165SOL     OW35956   3.147   2.399  12.459 -0.4530 -0.1551 -0.0689
 8165SOL    HW135957   3.084   2.328  12.468 -2.7469  1.7240 -1.1443
 8165SOL    HW235958   3.123   2.447  12.379  2.3787 -1.1858 -1.5171
 8166SOL     OW35959   0.644   2.765   2.770  0.0477  0.0545 -0.0535
 8166SOL    HW135960   0.679   2.711   2.699  0.3264  0.9475 -0.6052
 8166SOL    HW235961   0.700   2.843   2.764  0.7010 -0.4329 -0.2249
 8167SOL     OW35962   4.033   0.212   0.579 -0.5508  0.6373 -0.3673
 8167SOL    HW135963   4.027   0.123   0.614  2.2200  0.7360  0.3349
 8167SOL    HW235964   3.947   0.236   0.543 -0.3861 -1.4013 -2.1059
 8168SOL     OW35965   2.920   0.432   0.787 -0.4029  0.0026 -0.1695
 8168SOL    HW135966   2.960   0.345   0.787 -0.7367 -0.1583  0.3407
 8168SOL    HW235967   2.983   0.476   0.843  0.0003 -0.7662 -0.0118
 8169SOL     OW35968   2.432   0.938  13.105 -0.3533 -0.2951 -0.4187
 8169SOL    HW135969   2.481   1.013  13.139 -0.6663 -0.0475 -0.5117
 8169SOL    HW235970   2.471   0.931  13.018 -0.3309  1.8571 -0.5879
 8170SOL     OW35971   2.277   3.050   1.738 -0.2758  0.0881 -0.1943
 8170SOL    HW135972   2.306   3.141   1.747 -0.3963  0.1311 -0.2392
 8170SOL    HW235973   2.211   3.044   1.807  0.9347 -1.7190  0.8015
 8171SOL     OW35974   2.252   0.837   5.543 -0.1973 -0.5583 -0.5931
 8171SOL    HW135975   2.284   0.755   5.505  1.1708 -1.5270  2.6320
 8171SOL    HW235976   2.158   0.820   5.548 -0.3970  1.1063  1.1421
 8172SOL     OW35977   2.821   2.430   0.791  0.4110  0.8344 -0.3005
 8172SOL    HW135978   2.812   2.494   0.862 -0.4083  1.5431 -1.0440
 8172SOL    HW235979   2.735   2.447   0.753 -0.7094 -0.1389  1.7850
 8173SOL     OW35980   1.749   1.600   7.670  0.5109 -0.0300 -0.1836
 8173SOL    HW135981   1.783   1.685   7.698  1.6739 -0.3413 -0.6405
 8173SOL    HW235982   1.766   1.595   7.576  0.1500  0.1393 -0.2593
 8174SOL     OW35983   4.101   4.127  13.502  0.0873 -0.2139  0.1674
 8174SOL    HW135984   4.075   4.214  13.532  0.1023 -0.4076  0.7415
 8174SOL    HW235985   4.196   4.139  13.495  0.7465 -3.9401  2.5844
 8175SOL     OW35986   4.411   0.030   8.601  0.0112  0.0730  0.3766
 8175SOL    HW135987   4.375   0.118   8.611  0.2976  0.2585 -0.2275
 8175SOL    HW235988   4.481   0.043   8.537  0.8944 -1.5812  0.9978
 8176SOL     OW35989   2.854   2.785   4.600 -0.8022  0.2024  0.3445
 8176SOL    HW135990   2.920   2.771   4.668  1.8996 -0.5069 -2.3891
 8176SOL    HW235991   2.791   2.850   4.632 -0.5236  0.6504 -0.0069
 8177SOL     OW35992   0.965   4.061   6.582 -0.2544 -0.2807 -0.0126
 8177SOL    HW135993   1.009   4.079   6.665 -1.7910 -0.0616  0.7509
 8177SOL    HW235994   1.004   4.128   6.526  1.2168 -0.4538  0.8261
 8178SOL     OW35995   1.174   0.313   6.432 -0.3005  0.5005  0.0448
 8178SOL    HW135996   1.184   0.406   6.452  2.2747  0.3746 -0.5996
 8178SOL    HW235997   1.189   0.312   6.338  0.6964  0.5581  0.2012
 8179SOL     OW35998   3.328   0.380   2.386 -0.2466 -0.1781  0.1131
 8179SOL    HW135999   3.253   0.397   2.444  1.0908  2.0646  1.1778
 8179SOL    HW236000   3.340   0.285   2.385 -0.9676 -0.2519 -0.7685
 8180SOL     OW36001   0.889   1.477   4.050 -0.1421 -0.4086 -0.0364
 8180SOL    HW136002   0.798   1.446   4.046  0.3586 -1.8346 -0.0754
 8180SOL    HW236003   0.898   1.517   3.963  0.8765  1.6895  1.0321
 8181SOL     OW36004   3.993   1.626   0.357  0.2127  0.1930  0.0904
 8181SOL    HW136005   4.045   1.604   0.434 -1.2292 -2.8054  0.2012
 8181SOL    HW236006   3.995   1.722   0.357  2.1197  0.1335  1.3040
 8182SOL     OW36007   4.510   0.060  16.125 -0.2466  0.2008 -0.0909
 8182SOL    HW136008   4.454   0.009  16.067  1.4775  0.2553 -1.8109
 8182SOL    HW236009   4.592   0.012  16.135  0.5096  1.5382  0.2235
 8183SOL     OW36010   2.358   2.271   6.481 -0.3517 -0.2499 -0.5133
 8183SOL    HW136011   2.423   2.254   6.549 -2.0029  1.6345  1.5584
 8183SOL    HW236012   2.415   2.242   6.410  0.9462  1.2172 -0.0766
 8184SOL     OW36013   1.171   3.422   9.641 -0.2400  0.2089  0.2707
 8184SOL    HW136014   1.251   3.442   9.593 -1.0600  1.5479 -0.5597
 8184SOL    HW236015   1.200   3.360   9.708  0.4659  0.6667  0.3889
 8185SOL     OW36016   1.312   0.812   9.140 -0.5625  0.7921 -0.3564
 8185SOL    HW136017   1.230   0.763   9.154  0.9061 -2.5638 -3.5103
 8185SOL    HW236018   1.347   0.753   9.074 -1.2109 -0.0414  0.0326
 8186SOL     OW36019   1.808   1.955   6.545 -0.0152 -0.2500  0.5317
 8186SOL    HW136020   1.830   1.862   6.547 -3.2612 -1.0247 -0.0505
 8186SOL    HW236021   1.888   1.989   6.505 -0.1766  0.1396  0.5403
 8187SOL     OW36022   2.872   0.378  11.634 -0.7065  0.5325 -0.1223
 8187SOL    HW136023   2.800   0.439  11.617 -1.3396 -0.7863 -2.2056
 8187SOL    HW236024   2.843   0.330  11.711 -0.9059  1.5422  0.4374
 8188SOL     OW36025   2.391   2.602   8.952 -0.6871 -0.2010  1.0937
 8188SOL    HW136026   2.307   2.639   8.979 -1.0001  0.1048 -0.3015
 8188SOL    HW236027   2.373   2.508   8.941  2.6048 -0.7359  0.3249
 8189SOL     OW36028   3.979   0.847   0.608 -0.4706  0.2678  0.3654
 8189SOL    HW136029   3.912   0.805   0.662  0.1937 -2.0013 -0.5597
 8189SOL    HW236030   4.039   0.773   0.596 -0.2176  0.7458 -1.2604
 8190SOL     OW36031   2.959   4.032   3.915  0.2737 -0.1501  0.1480
 8190SOL    HW136032   2.901   4.038   3.839 -1.9204  0.7008  1.8708
 8190SOL    HW236033   2.936   4.100   3.978  0.3768  1.0464 -1.1006
 8191SOL     OW36034   1.081   1.452   7.910 -0.3334 -0.0167  0.4522
 8191SOL    HW136035   1.127   1.518   7.858 -1.6848 -0.8829 -1.8210
 8191SOL    HW236036   1.129   1.448   7.993 -2.0893 -1.0596  1.4269
 8192SOL     OW36037   4.653   1.551   0.217 -0.0817  0.4743 -0.1670
 8192SOL    HW136038   4.677   1.534   0.308 -1.0960  0.6443  0.1362
 8192SOL    HW236039   4.557   1.555   0.223 -0.1365 -1.0486 -0.2033
 8193SOL     OW36040   1.655   4.704   3.752 -0.2979 -0.2510  0.1874
 8193SOL    HW136041   1.738   4.669   3.719 -0.5457 -1.2393  0.6040
 8193SOL    HW236042   1.624   0.037   3.682 -0.1184  0.3270  0.5856
 8194SOL     OW36043   4.543   0.742   1.557  0.3645 -0.0116  0.3076
 8194SOL    HW136044   4.612   0.687   1.520  0.3847 -0.4852  1.0578
 8194SOL    HW236045   4.511   0.787   1.478  1.5383 -1.8924 -1.2511
 8195SOL     OW36046   0.982   1.054   4.775  0.2158 -0.9331  0.2077
 8195SOL    HW136047   0.957   1.000   4.700 -0.4557  0.3744 -0.5056
 8195SOL    HW236048   1.037   1.115   4.726 -1.4723 -0.6468 -1.3149
 8196SOL     OW36049   2.162   4.204   2.325  0.8484 -0.1498 -0.0919
 8196SOL    HW136050   2.142   4.193   2.232 -1.3653  0.8090  0.2672
 8196SOL    HW236051   2.073   4.194   2.359  0.1982  2.2325 -1.0261
 8197SOL     OW36052   1.053   2.225   3.522 -0.6440  0.1384 -0.0677
 8197SOL    HW136053   0.966   2.227   3.561 -0.1092 -0.8239  1.1716
 8197SOL    HW236054   1.064   2.313   3.486  0.4124 -0.2162 -0.6255
 8198SOL     OW36055   2.508   0.680  17.291  0.0508  0.2343 -0.2282
 8198SOL    HW136056   2.418   0.695  17.263  0.2627 -1.1002 -1.6436
 8198SOL    HW236057   2.509   0.585  17.298  1.2199  0.1171 -1.7427
 8199SOL     OW36058   2.471   1.257   0.329  0.5019  0.0120 -0.0243
 8199SOL    HW136059   2.401   1.262   0.393 -1.1473  0.6061 -1.8772
 8199SOL    HW236060   2.457   1.173   0.285 -0.4209  1.2715 -2.1843
 8200SOL     OW36061   2.072   0.844   0.811 -0.4691  0.2976  0.0347
 8200SOL    HW136062   2.159   0.883   0.800  0.3800 -1.3147  0.8587
 8200SOL    HW236063   2.096   0.785   0.883 -2.1114  0.3970  0.6693
 8201SOL     OW36064   4.681   0.369   6.214  0.7349 -0.6261  0.0175
 8201SOL    HW136065   4.614   0.327   6.266 -0.6398  0.8546 -0.5531
 8201SOL    HW236066   0.033   0.377   6.271 -0.1841  1.0849  1.0300
 8202SOL     OW36067   3.423   0.499   6.077 -0.3336 -0.2142 -0.1968
 8202SOL    HW136068   3.427   0.406   6.101  2.0368 -0.0401  0.0696
 8202SOL    HW236069   3.513   0.511   6.046 -0.0188  1.7166  1.3824
 8203SOL     OW36070   0.456   2.803  16.805 -0.0752  0.2195 -0.6660
 8203SOL    HW136071   0.500   2.888  16.801 -1.6803  0.9913 -1.9289
 8203SOL    HW236072   0.382   2.826  16.749 -0.0309  1.7878 -0.0854
 8204SOL     OW36073   0.906   2.134   8.587 -0.3248  0.1106 -0.1907
 8204SOL    HW136074   0.957   2.154   8.666  1.2154  0.1358 -1.2023
 8204SOL    HW236075   0.892   2.041   8.602 -1.1273  0.3097  0.2965
 8205SOL     OW36076   4.372   3.599   6.930 -0.4098  0.5399  0.1004
 8205SOL    HW136077   4.368   3.593   7.025 -1.7130  0.2642  0.0210
 8205SOL    HW236078   4.403   3.511   6.906 -1.4249  0.6565 -1.6242
 8206SOL     OW36079   0.407   0.877   7.684  0.2836  0.2750  0.9725
 8206SOL    HW136080   0.481   0.835   7.639 -0.4330  0.0761 -0.0320
 8206SOL    HW236081   0.355   0.906   7.609 -0.4824 -0.5715  1.1708
 8207SOL     OW36082   1.938   2.438  16.318 -1.0079  0.1008 -0.5853
 8207SOL    HW136083   1.991   2.492  16.260 -0.1533  1.2666  1.2709
 8207SOL    HW236084   1.858   2.428  16.267 -0.7495  0.8087 -1.1261
 8208SOL     OW36085   3.604   1.552   5.323  0.1232  0.1654  0.5487
 8208SOL    HW136086   3.653   1.624   5.284 -1.1414  0.8071  0.1533
 8208SOL    HW236087   3.543   1.531   5.253  3.1103 -2.9710 -1.1378
 8209SOL     OW36088   4.298   3.223   1.829  0.3536 -0.7190  0.2756
 8209SOL    HW136089   4.273   3.177   1.909  0.4302  1.2335  1.4323
 8209SOL    HW236090   4.223   3.283   1.833  0.3821 -0.4142 -4.1050
 8210SOL     OW36091   2.924   1.460   5.886  0.1667  0.5679 -0.4990
 8210SOL    HW136092   2.954   1.430   5.800  0.0981  1.2737 -0.7747
 8210SOL    HW236093   2.940   1.380   5.936 -2.4965  0.4067  0.0905
 8211SOL     OW36094   2.902   2.153   5.042  0.5035  0.0363  0.0423
 8211SOL    HW136095   2.877   2.103   5.119 -0.8712 -0.7575 -0.9234
 8211SOL    HW236096   2.977   2.102   5.012 -0.1176  0.1412 -1.6814
 8212SOL     OW36097   2.738   2.063   8.083 -0.0885  0.2152 -0.1636
 8212SOL    HW136098   2.741   2.022   7.996 -1.5305 -0.9247  0.3139
 8212SOL    HW236099   2.645   2.083   8.096 -0.2428 -1.4062  1.2655
 8213SOL     OW36100   1.484   4.691   7.177 -0.1032  0.1061 -0.3665
 8213SOL    HW136101   1.442   4.648   7.252  0.7639  0.4561  0.3289
 8213SOL    HW236102   1.493   0.059   7.198 -2.0545  0.3180 -0.5059
 8214SOL     OW36103   2.867   3.021   6.476 -0.0581 -0.3334  0.6853
 8214SOL    HW136104   2.792   2.987   6.427  0.7324 -0.2261 -0.6042
 8214SOL    HW236105   2.895   3.102   6.433  1.5068 -0.8853  0.6335
 8215SOL     OW36106   3.438   2.187   2.087 -0.3201 -0.1577  0.2779
 8215SOL    HW136107   3.465   2.146   2.169  0.7702 -0.1915 -0.0992
 8215SOL    HW236108   3.516   2.175   2.033 -1.6286 -1.2082 -1.4048
 8216SOL     OW36109   3.373   0.606   4.838 -0.0916  0.2778 -0.1248
 8216SOL    HW136110   3.344   0.520   4.870 -1.3243  0.7971  0.1423
 8216SOL    HW236111   3.411   0.595   4.751 -1.7068  1.4969 -0.9718
 8217SOL     OW36112   1.039   1.209   7.753  0.3572 -0.2565 -0.6060
 8217SOL    HW136113   1.057   1.162   7.834  1.5223 -0.4498 -0.9779
 8217SOL    HW236114   1.057   1.295   7.790 -1.1196 -0.6410  1.0121
 8218SOL     OW36115   1.112   3.722   4.140  0.0308  0.2657  0.6081
 8218SOL    HW136116   1.136   3.737   4.049 -1.9242 -1.3349 -0.1618
 8218SOL    HW236117   1.188   3.672   4.171  0.3519 -0.1320 -0.8227
 8219SOL     OW36118   2.923   2.621   8.466 -0.1335 -0.0920  0.2617
 8219SOL    HW136119   2.905   2.608   8.560  0.5324  0.9036  0.5239
 8219SOL    HW236120   2.859   2.691   8.453  1.0697  0.9399 -0.0389
 8220SOL     OW36121   0.084   1.698   9.048  0.4962  0.1084 -0.0463
 8220SOL    HW136122   0.165   1.665   9.010  1.5751  1.6499  0.9082
 8220SOL    HW236123   0.023   1.628   9.023  0.2024  0.7522 -1.1431
 8221SOL     OW36124   1.918   0.693   4.983  0.3353 -0.6247 -0.0274
 8221SOL    HW136125   1.832   0.721   5.016 -0.3725 -1.2184 -1.3698
 8221SOL    HW236126   1.898   0.642   4.905 -1.1489  0.4944 -0.3833
 8222SOL     OW36127   2.255   4.216   4.831 -0.2012 -0.5054 -0.1802
 8222SOL    HW136128   2.263   4.254   4.919 -1.3876 -0.1945 -0.2075
 8222SOL    HW236129   2.273   4.298   4.786  0.8145 -0.2932  0.6208
 8223SOL     OW36130   2.633   3.796  13.777 -0.0570  0.7300 -0.2302
 8223SOL    HW136131   2.613   3.716  13.826  0.2672  1.0547  0.4195
 8223SOL    HW236132   2.651   3.756  13.691  0.2554 -0.0621  0.2020
 8224SOL     OW36133   0.964   1.845   0.725 -0.2156  0.2238 -0.1755
 8224SOL    HW136134   1.025   1.919   0.724 -1.3959  1.2000 -0.4489
 8224SOL    HW236135   0.904   1.858   0.652  0.3705 -0.4277 -0.7737
 8225SOL     OW36136   3.801   1.140   1.588 -0.5505 -0.1183  0.0607
 8225SOL    HW136137   3.805   1.158   1.682  2.7291  1.7109 -0.4120
 8225SOL    HW236138   3.884   1.095   1.574  1.1824  2.7665  0.9920
 8226SOL     OW36139   2.685   3.389   3.295  0.1008  0.0647  0.0567
 8226SOL    HW136140   2.604   3.347   3.324  0.4701 -0.3120  0.5276
 8226SOL    HW236141   2.713   3.333   3.222  0.9268 -1.3332  1.4452
 8227SOL     OW36142   1.408   3.465   9.027  0.3139  0.3553  0.2436
 8227SOL    HW136143   1.470   3.457   8.955 -0.4192 -0.6867 -0.2670
 8227SOL    HW236144   1.376   3.554   9.013  0.4774  0.4911  0.7188
 8228SOL     OW36145   0.480   2.056   3.340  0.1320  0.0539  0.0048
 8228SOL    HW136146   0.546   2.007   3.291 -0.7533 -1.5464  0.4231
 8228SOL    HW236147   0.419   1.987   3.366  1.7345 -1.2545  0.3122
 8229SOL     OW36148   1.343   0.275   8.418  0.3556 -0.9546  0.0086
 8229SOL    HW136149   1.362   0.238   8.332  1.1078  1.6014 -0.9014
 8229SOL    HW236150   1.303   0.359   8.396 -0.2025 -1.2724 -0.1994
 8230SOL     OW36151   2.220   3.635  15.105 -0.2266 -0.3853 -0.3445
 8230SOL    HW136152   2.145   3.575  15.103 -0.7577  0.2503  0.7596
 8230SOL    HW236153   2.276   3.606  15.032  0.3666  0.6317 -0.2999
 8231SOL     OW36154   0.623   2.732   5.409  0.4327  0.6792 -0.3454
 8231SOL    HW136155   0.663   2.806   5.363  0.1395  1.2447  0.3126
 8231SOL    HW236156   0.615   2.767   5.498 -0.9603 -0.0372 -0.1878
 8232SOL     OW36157   0.967   1.780  11.597  0.6278  0.2868  0.0602
 8232SOL    HW136158   0.923   1.717  11.539 -1.4368  0.5338  1.3684
 8232SOL    HW236159   1.047   1.792  11.545  0.2646  1.8927 -0.1128
 8233SOL     OW36160   3.859   3.460   4.179 -0.0595  0.1487 -0.4934
 8233SOL    HW136161   3.936   3.448   4.234 -0.9748  0.0098  0.7818
 8233SOL    HW236162   3.837   3.547   4.212 -0.5453 -0.3593  0.5379
 8234SOL     OW36163   2.310   4.560   6.957  0.0827  0.2711 -0.4745
 8234SOL    HW136164   2.220   4.583   6.981 -0.1417 -0.7774 -0.2861
 8234SOL    HW236165   2.314   4.604   6.873  2.2192  2.8155  0.9663
 8235SOL     OW36166   3.685   1.889  13.721 -0.2199  0.4802  0.0670
 8235SOL    HW136167   3.692   1.795  13.706  1.3815  0.9444 -1.9767
 8235SOL    HW236168   3.590   1.902  13.717  0.1190  1.9201 -3.3006
 8236SOL     OW36169   1.498   2.319   5.283  0.2455 -0.0284 -0.7566
 8236SOL    HW136170   1.450   2.402   5.280 -0.6271 -0.5000  0.1730
 8236SOL    HW236171   1.538   2.326   5.370  0.5118  1.8253 -1.0363
 8237SOL     OW36172   3.149   2.039  11.794  0.8294  0.8162  0.3958
 8237SOL    HW136173   3.058   2.061  11.775  0.0430 -0.5986  2.4712
 8237SOL    HW236174   3.195   2.103  11.740  0.4326 -0.8720 -1.9635
 8238SOL     OW36175   0.223   0.006  10.462 -0.2092  0.1874  0.3524
 8238SOL    HW136176   0.211   0.099  10.484 -2.5108 -0.3803  1.4443
 8238SOL    HW236177   0.189   4.718  10.374 -1.9145  2.7379  0.6168
 8239SOL     OW36178   1.756   1.018   8.989 -0.3240  0.5298  0.2806
 8239SOL    HW136179   1.708   0.943   9.025  0.8289 -1.0501 -1.4603
 8239SOL    HW236180   1.734   1.080   9.059  0.7290  0.0759  1.0111
 8240SOL     OW36181   1.580   4.200   7.135 -0.7489  0.3117  0.0002
 8240SOL    HW136182   1.601   4.244   7.053 -2.3869  0.6720 -0.2297
 8240SOL    HW236183   1.667   4.185   7.172 -0.6095 -0.7554 -0.7463
 8241SOL     OW36184   4.445   0.339   3.722 -0.2332 -0.6073 -0.0306
 8241SOL    HW136185   4.439   0.395   3.644 -1.7758 -0.3845  0.2483
 8241SOL    HW236186   4.538   0.319   3.730  0.1746  1.3760  0.1374
 8242SOL     OW36187   2.761   4.390   3.946 -0.5744 -0.3152 -0.4361
 8242SOL    HW136188   2.711   4.314   3.973  2.2698 -1.4174  1.7657
 8242SOL    HW236189   2.843   4.384   3.995 -0.9572  0.5412  0.3011
 8243SOL     OW36190   4.350   4.009   7.252 -0.1297 -0.6404  0.1239
 8243SOL    HW136191   4.315   4.086   7.206  0.8259 -0.0440  0.4066
 8243SOL    HW236192   4.277   3.947   7.252 -0.2190 -0.5389 -1.8764
 8244SOL     OW36193   2.640   1.091  12.579 -0.1365 -0.1716  0.0933
 8244SOL    HW136194   2.654   1.146  12.657  0.5232 -1.4879  0.8972
 8244SOL    HW236195   2.553   1.056  12.596  0.7270 -2.5274 -0.3061
 8245SOL     OW36196   0.095   1.802   7.648 -0.4425 -0.2385  0.2355
 8245SOL    HW136197   0.116   1.856   7.724 -1.8501  1.2309 -0.4133
 8245SOL    HW236198   0.033   1.742   7.690 -0.2462 -0.2302  0.5334
 8246SOL     OW36199   3.441   0.713   5.229 -0.1199 -0.1941 -0.1354
 8246SOL    HW136200   3.450   0.704   5.324  0.9629  0.7921 -0.1403
 8246SOL    HW236201   3.353   0.680   5.213 -1.0590  1.9028  0.6427
 8247SOL     OW36202   4.122   4.026   8.212 -0.3975 -0.4317 -0.3947
 8247SOL    HW136203   4.130   4.021   8.307 -1.4153 -1.7891 -0.3920
 8247SOL    HW236204   4.141   3.935   8.189  0.3560  0.1906 -2.2296
 8248SOL     OW36205   0.366   3.480   7.141 -0.1878  0.2357  0.3101
 8248SOL    HW136206   0.296   3.544   7.149 -0.4187  0.2617 -1.8686
 8248SOL    HW236207   0.386   3.466   7.234 -0.6555  2.1977  0.7100
 8249SOL     OW36208   2.840   4.437   7.565  0.2616 -0.0663 -0.2175
 8249SOL    HW136209   2.803   4.460   7.650 -0.0806  0.2225 -0.4476
 8249SOL    HW236210   2.782   4.484   7.506  1.9285  2.6788  0.3325
 8250SOL     OW36211   2.521   2.707  15.289 -0.3403 -0.0530  0.2896
 8250SOL    HW136212   2.444   2.665  15.329 -0.2435 -0.3885  0.1275
 8250SOL    HW236213   2.486   2.795  15.275 -0.9468 -0.1305  1.2639
 8251SOL     OW36214   4.525   0.191   4.824  0.0118 -0.3023 -0.0329
 8251SOL    HW136215   4.560   0.263   4.771  1.8973 -0.4693  0.9842
 8251SOL    HW236216   4.487   0.137   4.755 -0.3277 -1.0162  0.7150
 8252SOL     OW36217   1.009   1.747   7.907 -0.1174  0.2502 -0.2623
 8252SOL    HW136218   1.055   1.731   7.824  0.6899 -0.3369  0.3016
 8252SOL    HW236219   0.935   1.800   7.876 -0.8139  0.6482  2.1226
 8253SOL     OW36220   3.469   0.004   6.564 -0.0870 -0.0876  0.5266
 8253SOL    HW136221   3.554   4.695   6.535 -0.2163  0.6600 -0.7305
 8253SOL    HW236222   3.484   0.097   6.548  0.5627 -1.0683 -4.6447
 8254SOL     OW36223   0.505   3.571  13.864 -0.3890  0.0890  0.1167
 8254SOL    HW136224   0.421   3.577  13.910 -0.7094 -1.8583 -0.2400
 8254SOL    HW236225   0.541   3.490  13.899  0.6865  0.7368  0.5285
 8255SOL     OW36226   3.201   4.131   7.005 -0.6521  0.2367 -0.2524
 8255SOL    HW136227   3.225   4.114   7.096  1.1188  2.5594 -0.2788
 8255SOL    HW236228   3.184   4.225   7.008  1.6750  0.6028  1.7620
 8256SOL     OW36229   3.214   2.880   3.382 -0.0215 -0.1150 -0.7720
 8256SOL    HW136230   3.201   2.799   3.333  1.0546  0.1606 -1.5221
 8256SOL    HW236231   3.209   2.950   3.317  3.9359 -0.4238 -1.4427
 8257SOL     OW36232   3.665   3.664   3.274 -0.6827 -0.0026 -0.2480
 8257SOL    HW136233   3.611   3.600   3.229  2.1740 -2.8388  0.3300
 8257SOL    HW236234   3.657   3.725   3.200  0.7694  0.6120  0.0939
 8258SOL     OW36235   3.527   3.172  10.744  0.3943  0.0030  0.4801
 8258SOL    HW136236   3.613   3.200  10.776  0.1254 -0.4194  1.5774
 8258SOL    HW236237   3.490   3.258  10.763 -2.3449 -1.8616  3.5220
 8259SOL     OW36238   3.721   4.474   1.702  0.1727  0.0116  0.4529
 8259SOL    HW136239   3.781   4.435   1.639 -1.1554 -0.7617 -0.3395
 8259SOL    HW236240   3.748   4.419   1.775  0.8400 -0.4554 -0.1506
 8260SOL     OW36241   2.648   4.576   7.386  0.0839 -0.7582 -0.0550
 8260SOL    HW136242   2.585   4.626   7.437  2.2847  1.0252  0.8821
 8260SOL    HW236243   2.577   4.529   7.341 -0.3445  0.8787 -1.0811
 8261SOL     OW36244   2.569   2.705  16.421  0.3075 -0.2737  0.0169
 8261SOL    HW136245   2.517   2.705  16.340 -1.2681  0.2443  1.0106
 8261SOL    HW236246   2.541   2.795  16.440  0.3112 -0.7675  2.2915
 8262SOL     OW36247   0.758   3.460   8.415  0.6305  0.2118  0.0740
 8262SOL    HW136248   0.749   3.367   8.392  1.4832  0.2903 -0.5859
 8262SOL    HW236249   0.760   3.439   8.509  0.6818 -1.1962 -0.2422
 8263SOL     OW36250   2.202   1.400   4.591 -0.0453  0.2010 -0.6645
 8263SOL    HW136251   2.135   1.469   4.590  1.4512  1.6024 -2.8503
 8263SOL    HW236252   2.151   1.320   4.605  0.9418 -0.0239  1.6354
 8264SOL     OW36253   0.597   4.578   1.203 -0.1970 -0.4574  0.3857
 8264SOL    HW136254   0.535   4.566   1.131 -2.5436 -0.3858  2.3992
 8264SOL    HW236255   0.680   4.546   1.168  0.3704 -0.0918  1.3704
 8265SOL     OW36256   0.003   4.289  16.537  0.2914  0.6426  0.2022
 8265SOL    HW136257   4.713   4.383  16.549  0.3207  0.7059 -0.2523
 8265SOL    HW236258   0.083   4.282  16.485  1.1088 -3.6994  2.0504
 8266SOL     OW36259   1.924   4.222   9.019  0.4396 -0.4817 -0.0342
 8266SOL    HW136260   1.977   4.284   9.068 -2.7266  1.7212  0.6297
 8266SOL    HW236261   1.914   4.153   9.085  0.2678  0.7295  1.1939
 8267SOL     OW36262   4.011   1.422   6.701  0.0375  0.2246 -0.1771
 8267SOL    HW136263   4.000   1.475   6.621 -0.3324 -0.5468 -0.6372
 8267SOL    HW236264   3.934   1.366   6.706  0.5125 -0.4549 -0.4199
 8268SOL     OW36265   3.248   0.791   2.334 -0.0925 -0.1153  0.3686
 8268SOL    HW136266   3.204   0.706   2.330  2.8581 -1.6483  0.4276
 8268SOL    HW236267   3.309   0.791   2.407 -0.8624 -1.1060  1.0029
 8269SOL     OW36268   0.822   1.556   7.578 -0.1893 -0.2674  0.1572
 8269SOL    HW136269   0.805   1.469   7.613  0.7224  0.5046  2.5042
 8269SOL    HW236270   0.865   1.531   7.496  1.8822 -1.3491  1.5949
 8270SOL     OW36271   0.358   4.368   8.447  0.5052  0.0759 -0.1299
 8270SOL    HW136272   0.453   4.372   8.438  0.4390  2.5317  0.1800
 8270SOL    HW236273   0.347   4.450   8.496  1.0718 -0.5358  1.0187
 8271SOL     OW36274   2.169   4.271  10.553  0.2000  0.0194 -0.4625
 8271SOL    HW136275   2.103   4.331  10.519  1.1566  0.2962 -1.8244
 8271SOL    HW236276   2.165   4.287  10.648  2.6757  0.6524 -0.4461
 8272SOL     OW36277   1.334   2.743   3.615 -0.4764 -0.5076  0.3018
 8272SOL    HW136278   1.283   2.695   3.680 -1.5025  0.4545  0.1918
 8272SOL    HW236279   1.292   2.719   3.532  0.8887 -0.2501 -0.4631
 8273SOL     OW36280   2.964   3.124   4.506 -0.3594  0.1737 -0.4571
 8273SOL    HW136281   2.881   3.150   4.547  0.2598  0.3166  0.7017
 8273SOL    HW236282   2.945   3.116   4.412 -2.8047 -0.1669  0.0463
 8274SOL     OW36283   0.934   3.525   8.888  0.2934  0.1448 -0.5387
 8274SOL    HW136284   1.009   3.477   8.923  0.4305  0.1986 -0.7597
 8274SOL    HW236285   0.928   3.595   8.953  0.3181 -1.0167  0.7175
 8275SOL     OW36286   2.980   4.324  15.834  0.4175  0.2603 -0.4747
 8275SOL    HW136287   3.019   4.247  15.793  1.0709  1.4334 -2.0752
 8275SOL    HW236288   2.984   4.383  15.758  1.5284 -1.6574 -1.9232
 8276SOL     OW36289   1.141   2.900   6.395  0.0181  0.1832  0.0406
 8276SOL    HW136290   1.186   2.819   6.373  0.8442  0.5607  0.3201
 8276SOL    HW236291   1.154   2.915   6.488 -1.1508  0.0902  0.2104
 8277SOL     OW36292   1.521   0.352   7.900 -0.0966  0.3839  0.4458
 8277SOL    HW136293   1.611   0.362   7.931  0.0702 -0.9777  0.3861
 8277SOL    HW236294   1.514   0.261   7.873 -0.7725  0.8908 -1.1199
 8278SOL     OW36295   1.062   2.705   5.029  0.0816 -0.1426  0.5621
 8278SOL    HW136296   1.144   2.706   5.078 -0.7570 -1.1282  1.9853
 8278SOL    HW236297   0.997   2.678   5.094  1.2855  0.0655  1.8552
 8279SOL     OW36298   3.390   1.608   2.175 -0.2471  0.2199 -0.2417
 8279SOL    HW136299   3.448   1.650   2.111 -1.0108  1.4542 -0.1334
 8279SOL    HW236300   3.389   1.665   2.253  0.7330 -0.6364  0.3992
 8280SOL     OW36301   2.241   1.994   1.496 -0.3879 -0.5183 -0.1668
 8280SOL    HW136302   2.150   1.993   1.467 -0.4054 -0.9878 -0.0981
 8280SOL    HW236303   2.248   2.071   1.552 -1.4413 -1.1785  0.8705
 8281SOL     OW36304   0.867   3.889  12.140 -0.1994  0.0193  0.0008
 8281SOL    HW136305   0.824   3.974  12.149  1.4031  0.9984 -1.5766
 8281SOL    HW236306   0.958   3.920  12.135 -0.6637  1.7621  2.3980
 8282SOL     OW36307   3.409   1.933  13.697 -0.6102  0.3264 -0.0668
 8282SOL    HW136308   3.320   1.943  13.732 -0.5036  3.3836 -0.6646
 8282SOL    HW236309   3.443   2.016  13.730 -0.2391  0.7371 -1.4567
 8283SOL     OW36310   4.606   1.073   0.731  0.2685 -0.8428  0.5327
 8283SOL    HW136311   4.623   1.070   0.637  2.1960  0.8104  0.8218
 8283SOL    HW236312   4.609   0.980   0.753 -2.1378 -0.6334  1.8090
 8284SOL     OW36313   2.935   2.673   3.977 -0.1058 -0.3486  0.2922
 8284SOL    HW136314   3.011   2.615   3.968  3.4825  3.9029  3.2696
 8284SOL    HW236315   2.861   2.613   3.985  0.9129 -1.6307  0.1762
 8285SOL     OW36316   3.447   2.243   7.813 -0.6241  0.6811  0.3674
 8285SOL    HW136317   3.506   2.312   7.842  0.2061  1.9460 -4.2726
 8285SOL    HW236318   3.408   2.282   7.734 -0.2260  0.7066  0.1851
 8286SOL     OW36319   3.704   2.938   3.265 -0.0537  0.0114 -0.5410
 8286SOL    HW136320   3.799   2.928   3.258 -0.2538 -0.7943 -2.1143
 8286SOL    HW236321   3.685   2.884   3.342 -0.8543 -0.0024 -0.7451
 8287SOL     OW36322   1.730   3.187   2.671  0.1978  0.0913 -0.4493
 8287SOL    HW136323   1.743   3.269   2.624  0.9321 -1.0742 -2.2798
 8287SOL    HW236324   1.793   3.133   2.624  1.5867  1.7822 -0.5458
 8288SOL     OW36325   3.982   1.692   4.324 -0.6609 -1.0007  0.1800
 8288SOL    HW136326   4.067   1.651   4.307 -0.4079  0.6694 -2.5931
 8288SOL    HW236327   3.940   1.683   4.238 -0.1873 -2.4264  0.0946
 8289SOL     OW36328   1.153   4.140   7.113 -0.3029 -0.4883 -0.2842
 8289SOL    HW136329   1.218   4.079   7.146 -0.0250  0.7097  1.3907
 8289SOL    HW236330   1.187   4.226   7.139 -0.6112  0.0831 -1.7626
 8290SOL     OW36331   1.971   4.386   2.698  0.7394 -0.1886 -0.4066
 8290SOL    HW136332   2.062   4.403   2.720  0.4902  0.4612  0.1272
 8290SOL    HW236333   1.946   4.343   2.779 -1.0255 -0.9053 -1.3263
 8291SOL     OW36334   3.146   1.264  17.305  0.3083 -0.4971 -0.2737
 8291SOL    HW136335   3.111   1.226  17.224  1.3666  0.3084 -1.1122
 8291SOL    HW236336   3.098   1.204  17.362  0.8502 -0.3679  0.3079
 8292SOL     OW36337   4.094   1.330   3.194 -0.0646 -0.3201  0.9245
 8292SOL    HW136338   4.127   1.241   3.185 -1.0873 -0.7248  1.2496
 8292SOL    HW236339   4.158   1.378   3.141 -0.8278 -0.2178  0.1018
 8293SOL     OW36340   4.306   2.151   9.387 -0.5459  0.6608  0.3228
 8293SOL    HW136341   4.335   2.120   9.301 -0.0813 -0.1637  0.7771
 8293SOL    HW236342   4.273   2.240   9.373  0.2590  1.2889  2.5409
 8294SOL     OW36343   2.847   1.971   6.433 -0.2138  0.2462  0.4950
 8294SOL    HW136344   2.756   1.960   6.461  0.0985  1.2079  1.8516
 8294SOL    HW236345   2.847   1.958   6.338 -1.1691 -1.5642  0.7395
 8295SOL     OW36346   4.374   0.528   3.518  0.4158 -0.0360 -0.0960
 8295SOL    HW136347   4.296   0.554   3.469 -0.1730 -2.3069 -0.3429
 8295SOL    HW236348   4.417   0.483   3.445  0.2027  1.1285 -0.9437
 8296SOL     OW36349   4.164   2.150   6.300  0.5965 -0.1946 -0.3493
 8296SOL    HW136350   4.236   2.187   6.352 -0.8479  1.5652  0.4343
 8296SOL    HW236351   4.100   2.221   6.302 -1.5663 -2.1469 -1.9874
 8297SOL     OW36352   3.806   4.678   1.374 -0.3943 -0.0706 -0.6530
 8297SOL    HW136353   3.801   4.723   1.290  0.4078  0.3604 -0.4717
 8297SOL    HW236354   3.892   4.703   1.407 -0.8505  1.2575 -0.4873
 8298SOL     OW36355   3.497   2.945   5.716  0.3185 -0.1616 -0.1156
 8298SOL    HW136356   3.430   2.909   5.775 -0.9463  1.9827 -0.2401
 8298SOL    HW236357   3.550   2.988   5.783  0.6336 -0.6984 -0.0187
 8299SOL     OW36358   2.665   2.312  14.480  0.0578 -0.4326  0.2070
 8299SOL    HW136359   2.751   2.298  14.519 -0.2115 -0.0823  0.9256
 8299SOL    HW236360   2.634   2.223  14.461  0.4404 -1.0054  2.3126
 8300SOL     OW36361   1.225   2.107  13.490  0.1869 -0.2556  0.2572
 8300SOL    HW136362   1.299   2.162  13.463 -0.5137  0.4897 -0.1479
 8300SOL    HW236363   1.279   2.046  13.540  1.5497  0.8191  0.0910
 8301SOL     OW36364   1.117   1.805   4.878  0.0867 -0.2660  0.0437
 8301SOL    HW136365   1.149   1.715   4.892 -1.4858 -0.7492  0.4476
 8301SOL    HW236366   1.025   1.798   4.902  0.4763 -2.7775  0.8477
 8302SOL     OW36367   2.765   0.560   9.502 -0.2240  0.2380 -0.1241
 8302SOL    HW136368   2.854   0.532   9.525  0.4014 -0.9826 -4.0090
 8302SOL    HW236369   2.714   0.498   9.554  0.3384  1.0621  1.3929
 8303SOL     OW36370   3.454   1.027   8.675 -0.3075  0.9416  0.2813
 8303SOL    HW136371   3.468   0.980   8.592 -1.0098  1.8405 -0.3489
 8303SOL    HW236372   3.515   0.978   8.730  0.6639  1.1353 -0.6051
 8304SOL     OW36373   2.117   0.562   3.710  0.0485 -0.4957  0.2088
 8304SOL    HW136374   2.052   0.568   3.641 -0.0835 -0.2087  0.3582
 8304SOL    HW236375   2.191   0.582   3.653 -0.8542  1.1705 -0.3758
 8305SOL     OW36376   1.939   1.719  16.938 -0.1663 -0.2764  0.4811
 8305SOL    HW136377   1.870   1.784  16.949  0.8803  1.0767 -0.9795
 8305SOL    HW236378   2.019   1.770  16.931  0.6460 -1.8273 -1.7024
 8306SOL     OW36379   2.897   4.560   7.275  0.7127 -0.0420  0.5112
 8306SOL    HW136380   2.925   4.640   7.320  1.3422 -0.6867  1.2688
 8306SOL    HW236381   2.806   4.553   7.303  0.3791 -0.6774 -0.7689
 8307SOL     OW36382   2.893   0.994   6.312 -0.3206 -0.4589 -0.2721
 8307SOL    HW136383   2.886   0.990   6.407  0.5394 -2.9736 -0.3246
 8307SOL    HW236384   2.975   0.951   6.287 -0.5761 -1.5560  0.7757
 8308SOL     OW36385   3.509   0.073   4.890 -0.0423  0.0842 -0.4259
 8308SOL    HW136386   3.583   0.015   4.872 -1.3552 -0.6547 -3.5485
 8308SOL    HW236387   3.497   0.104   4.800 -2.7010 -1.9005 -0.7626
 8309SOL     OW36388   3.266   1.664   8.860 -1.1570  0.1974 -0.5382
 8309SOL    HW136389   3.348   1.638   8.902 -0.5061  2.8629 -0.1186
 8309SOL    HW236390   3.297   1.695   8.774  0.8175 -1.6421 -0.4888
 8310SOL     OW36391   1.819   0.129  14.493 -0.4780 -0.6863  0.3962
 8310SOL    HW136392   1.888   0.188  14.465 -0.7704 -1.8985 -2.8799
 8310SOL    HW236393   1.805   0.084  14.410 -2.8650  2.0446 -0.6734
 8311SOL     OW36394   4.567   2.611   7.112  0.1220  0.2448  0.0802
 8311SOL    HW136395   4.496   2.558   7.148 -1.1782 -0.0412 -2.9081
 8311SOL    HW236396   4.572   2.576   7.023 -2.3797  0.7942 -0.2934
 8312SOL     OW36397   3.108   3.246  10.826 -0.0272 -0.3168 -0.1171
 8312SOL    HW136398   3.102   3.205  10.912  3.2834  0.8827  0.6869
 8312SOL    HW236399   3.087   3.338  10.843  2.0299 -0.2046  1.7493
 8313SOL     OW36400   0.270   3.433   8.336  0.1698  0.1078  0.1095
 8313SOL    HW136401   0.325   3.396   8.266  0.9920  2.3263 -0.4047
 8313SOL    HW236402   0.267   3.523   8.304  0.4333 -0.4533 -1.5453
 8314SOL     OW36403   1.044   3.065   3.169 -0.0456 -0.3501 -0.3895
 8314SOL    HW136404   1.032   3.160   3.176  0.8158 -0.0021 -3.5296
 8314SOL    HW236405   1.108   3.060   3.240  0.0286  1.0277 -0.3508
 8315SOL     OW36406   1.317   3.171   4.558  0.2976 -0.0197 -0.4453
 8315SOL    HW136407   1.346   3.227   4.630 -0.5047 -1.6818  1.1575
 8315SOL    HW236408   1.391   3.161   4.498  2.1442 -2.8958  2.2854
 8316SOL     OW36409   4.235   1.874   1.782  0.1023 -0.8354  0.0815
 8316SOL    HW136410   4.180   1.844   1.855  0.3685  4.4150  2.4620
 8316SOL    HW236411   4.230   1.790   1.737 -3.0672 -0.0808 -0.9861
 8317SOL     OW36412   4.011   3.577   4.685  0.2067 -0.0106 -0.0862
 8317SOL    HW136413   4.083   3.629   4.651 -0.0832 -0.8742 -2.0246
 8317SOL    HW236414   3.935   3.633   4.670 -0.1245 -1.6191 -4.5258
 8318SOL     OW36415   4.674   3.048  17.428  0.4697 -0.6451  0.8284
 8318SOL    HW136416   4.691   3.141  17.445  0.1667 -0.4700  0.1903
 8318SOL    HW236417   4.699   3.038  17.336  1.2596  0.6192  0.9009
 8319SOL     OW36418   1.495   2.719   8.003 -0.3574  0.4616  0.1034
 8319SOL    HW136419   1.516   2.788   8.065 -2.6305 -0.5423  2.0047
 8319SOL    HW236420   1.490   2.767   7.921 -0.4708  1.2290  0.5589
 8320SOL     OW36421   3.668   3.412   7.121  0.2301  0.1405  0.3386
 8320SOL    HW136422   3.613   3.354   7.068  0.0393 -0.3524  1.0778
 8320SOL    HW236423   3.754   3.380   7.092 -0.5074 -2.8334  1.4237
 8321SOL     OW36424   3.306   1.874   3.609 -0.0159  0.2405 -0.1480
 8321SOL    HW136425   3.270   1.802   3.557 -0.7172  0.4382  0.0518
 8321SOL    HW236426   3.352   1.829   3.679 -0.8273 -1.5014 -0.7461
 8322SOL     OW36427   0.692   3.382   1.584  0.0202 -0.3937 -0.2626
 8322SOL    HW136428   0.728   3.456   1.634  1.5710 -0.4234 -1.3348
 8322SOL    HW236429   0.615   3.371   1.639  1.2922 -0.1532  1.5612
 8323SOL     OW36430   2.503   0.619   0.546  0.1676  0.0201  0.3714
 8323SOL    HW136431   2.590   0.612   0.584  0.5066  1.7809 -0.0783
 8323SOL    HW236432   2.532   0.616   0.454 -0.3566  0.8850  0.1744
 8324SOL     OW36433   1.668   3.539   9.212 -0.5471  0.9298 -0.0806
 8324SOL    HW136434   1.730   3.477   9.251 -2.3141 -0.4540  0.5142
 8324SOL    HW236435   1.598   3.477   9.191  0.5195 -0.4806  0.5689
 8325SOL     OW36436   3.147   1.577   4.794 -0.1242 -0.6785 -0.2230
 8325SOL    HW136437   3.094   1.533   4.860 -1.2634  0.5240 -0.3433
 8325SOL    HW236438   3.093   1.580   4.715 -0.6311  0.8057  0.1818
 8326SOL     OW36439   3.458   0.191   3.505  0.5904  0.4862 -0.2005
 8326SOL    HW136440   3.550   0.190   3.482  0.3987 -2.1982 -0.8182
 8326SOL    HW236441   3.434   0.104   3.474 -3.2485  1.3938  0.1259
 8327SOL     OW36442   2.174   2.633   4.218 -0.0711  0.1532  0.5305
 8327SOL    HW136443   2.098   2.692   4.220 -0.0755  0.1999 -0.9847
 8327SOL    HW236444   2.190   2.636   4.312  0.1221 -0.9159  0.5214
 8328SOL     OW36445   3.188   2.601  15.793  0.5752 -0.1077 -0.7076
 8328SOL    HW136446   3.175   2.602  15.698 -1.7668  0.7232 -0.3742
 8328SOL    HW236447   3.192   2.696  15.807  0.9402 -0.4469  1.4962
 8329SOL     OW36448   1.558   3.459   8.312 -0.4620 -0.0743  0.2002
 8329SOL    HW136449   1.604   3.448   8.395  0.0115  0.3935  0.0030
 8329SOL    HW236450   1.604   3.391   8.262 -0.3557  0.9614 -1.1212
 8330SOL     OW36451   1.477   4.392   2.710 -1.0604  0.0722 -0.0673
 8330SOL    HW136452   1.493   4.383   2.804  0.1025  3.2678  0.0334
 8330SOL    HW236453   1.473   4.488   2.705 -1.5743  0.1297  1.5092
 8331SOL     OW36454   3.647   3.947   4.692 -0.2572  0.1705  0.5201
 8331SOL    HW136455   3.659   3.991   4.608 -0.5151 -1.0040 -0.1298
 8331SOL    HW236456   3.552   3.945   4.705 -0.4563  0.4325 -0.9253
 8332SOL     OW36457   0.204   1.209  17.077 -0.2813  0.1096  0.2006
 8332SOL    HW136458   0.148   1.202  17.155  2.2508 -2.1337  1.8158
 8332SOL    HW236459   0.148   1.204  17.000 -0.0188  1.5176 -0.0715
 8333SOL     OW36460   1.011   0.222   5.328 -0.2741  0.0458 -0.0844
 8333SOL    HW136461   0.970   0.299   5.288 -0.1400 -0.1742 -0.6464
 8333SOL    HW236462   1.076   0.189   5.266  2.0597  1.8429  1.4078
 8334SOL     OW36463   2.708   1.196   4.725 -0.7509  0.2871  0.3245
 8334SOL    HW136464   2.630   1.246   4.702 -0.2654  1.1125  0.4483
 8334SOL    HW236465   2.772   1.254   4.683 -0.6295 -1.9610 -2.5817
 8335SOL     OW36466   1.832   0.833   8.773 -0.6003 -0.2874 -0.0203
 8335SOL    HW136467   1.742   0.828   8.741 -0.5212 -2.5032  0.0945
 8335SOL    HW236468   1.824   0.896   8.844  0.3653 -0.2815  0.0754
 8336SOL     OW36469   1.449   2.113   5.096 -0.4943  0.4318 -0.0496
 8336SOL    HW136470   1.415   2.167   5.024 -1.5714 -0.6686 -0.3608
 8336SOL    HW236471   1.473   2.179   5.162 -0.4194  1.1661 -0.8149
 8337SOL     OW36472   1.939   3.479  11.293 -0.1533 -0.5446  0.1068
 8337SOL    HW136473   1.980   3.535  11.227  1.0453 -2.9681 -1.1968
 8337SOL    HW236474   1.899   3.408  11.242 -1.5743  0.8512 -0.7441
 8338SOL     OW36475   3.036   2.361  11.390 -0.2493  0.1089 -0.2811
 8338SOL    HW136476   3.003   2.440  11.348  4.1162  2.4019  0.6562
 8338SOL    HW236477   3.061   2.391  11.477  0.2029 -0.7878 -0.0955
 8339SOL     OW36478   4.675   0.662  11.766 -0.0481 -0.0513 -0.2940
 8339SOL    HW136479   4.585   0.645  11.736 -0.6986  0.6032  1.2810
 8339SOL    HW236480   4.707   0.700  11.684  0.9004 -2.5777 -1.1116
 8340SOL     OW36481   2.085   3.600  10.513 -0.0044  0.7028 -0.5276
 8340SOL    HW136482   1.992   3.617  10.497 -0.6741 -2.0865  0.3838
 8340SOL    HW236483   2.081   3.568  10.603  2.5724 -0.1074 -0.7250
 8341SOL     OW36484   2.072   0.749  13.609  0.1329 -0.4013 -0.7659
 8341SOL    HW136485   2.147   0.766  13.552  1.4053  3.6911  2.1951
 8341SOL    HW236486   2.027   0.673  13.572 -2.8569  1.0053  0.0384
 8342SOL     OW36487   2.483   4.654  14.971  0.5267  0.7736  0.5472
 8342SOL    HW136488   2.511   4.638  14.881  0.0438  0.0022  0.5349
 8342SOL    HW236489   2.566   4.679  15.012  1.1050  0.9183 -0.7181
 8343SOL     OW36490   2.721   4.083  13.328 -0.2237 -0.1367  0.2273
 8343SOL    HW136491   2.786   4.025  13.289 -0.9202 -0.0707 -1.0409
 8343SOL    HW236492   2.743   4.068  13.420  0.0441  0.8477  0.3309
 8344SOL     OW36493   1.827   1.517  11.253  0.1337  0.5230  0.2662
 8344SOL    HW136494   1.915   1.499  11.285 -0.5141 -1.4882  0.9144
 8344SOL    HW236495   1.813   1.605  11.288  1.5368  0.8759 -0.0519
 8345SOL     OW36496   0.642   1.063  15.537 -0.5494  0.2434 -0.4771
 8345SOL    HW136497   0.723   1.115  15.544 -0.2527 -0.4047  1.0172
 8345SOL    HW236498   0.684   0.996  15.484  1.0042  1.4076 -0.7358
 8346SOL     OW36499   0.593   3.563   1.345 -0.6498  0.7422  0.0779
 8346SOL    HW136500   0.556   3.647   1.372 -1.2764  0.6300 -0.4276
 8346SOL    HW236501   0.619   3.521   1.426  0.9440 -2.8210 -2.2704
 8347SOL     OW36502   1.764   3.177  16.950  0.7411  0.1019 -0.4502
 8347SOL    HW136503   1.795   3.129  17.026  1.3633  0.5646 -0.4137
 8347SOL    HW236504   1.689   3.226  16.984  2.4418  1.7737  0.8733
 8348SOL     OW36505   2.265   3.465   3.898  0.3063 -0.7443  1.0404
 8348SOL    HW136506   2.181   3.502   3.869  1.4227  0.3723 -0.7637
 8348SOL    HW236507   2.280   3.495   3.988  2.2010  1.5432 -0.0374
 8349SOL     OW36508   0.124   1.675   7.194 -0.1627  0.4043 -0.6006
 8349SOL    HW136509   0.197   1.737   7.202 -0.1798  0.3420  0.0127
 8349SOL    HW236510   0.122   1.674   7.098 -0.9626 -1.4362 -0.5713
 8350SOL     OW36511   2.430   0.561   4.049 -0.6736  0.0107  0.4457
 8350SOL    HW136512   2.468   0.573   4.136  2.7344 -1.1170 -0.9128
 8350SOL    HW236513   2.337   0.551   4.070 -0.4084  0.0312  1.6283
 8351SOL     OW36514   4.376   2.761   0.929  0.8942  0.3195 -0.1021
 8351SOL    HW136515   4.284   2.782   0.912  1.2686  2.3929  0.5025
 8351SOL    HW236516   4.405   2.715   0.850  0.9655  2.8510 -1.5564
 8352SOL     OW36517   2.807   0.506  17.155 -0.7269  0.5920 -0.0109
 8352SOL    HW136518   2.838   0.446  17.223 -0.4703  0.0256 -0.6147
 8352SOL    HW236519   2.723   0.465  17.138  0.4188 -2.1550  0.8574
 8353SOL     OW36520   3.094   0.548  11.107  0.1843 -0.0813  0.0189
 8353SOL    HW136521   3.146   0.513  11.035 -0.4321 -2.6572  0.8304
 8353SOL    HW236522   3.022   0.486  11.108 -0.9522  1.2229 -2.3138
 8354SOL     OW36523   4.326   1.073  15.135  0.4002  0.3980  0.2378
 8354SOL    HW136524   4.377   1.128  15.195 -3.4123  1.3625  2.5941
 8354SOL    HW236525   4.388   1.007  15.105  1.5429  0.3679  2.6521
 8355SOL     OW36526   4.541   0.677   8.387 -0.3665  0.7271 -0.0392
 8355SOL    HW136527   4.563   0.639   8.472  1.1629  0.0557 -0.7445
 8355SOL    HW236528   4.540   0.598   8.333 -1.2067  0.1384  0.8498
 8356SOL     OW36529   3.877   1.804   5.616  0.1802  0.1181 -0.4602
 8356SOL    HW136530   3.943   1.833   5.552 -0.7053 -0.5006 -1.6611
 8356SOL    HW236531   3.924   1.819   5.698  1.3730  0.2545 -1.1562
 8357SOL     OW36532   3.362   0.866   9.368  0.1557 -0.5770  0.4211
 8357SOL    HW136533   3.400   0.929   9.306 -0.8792  0.5832  0.9533
 8357SOL    HW236534   3.290   0.826   9.320 -0.3618  2.2356 -1.1609
 8358SOL     OW36535   3.849   0.004   5.760 -0.2048  0.4623  0.4043
 8358SOL    HW136536   3.773   4.719   5.817  0.0922 -0.0758  0.7058
 8358SOL    HW236537   3.819   0.071   5.698  0.5373 -1.3687 -1.9447
 8359SOL     OW36538   3.248   3.911  13.528 -0.4582  0.5410 -0.3970
 8359SOL    HW136539   3.193   3.987  13.546  0.3330  1.4121 -1.5753
 8359SOL    HW236540   3.198   3.883  13.452  1.0069 -1.1818 -0.7338
 8360SOL     OW36541   4.479   2.771   7.385 -0.1542 -0.1271 -0.1507
 8360SOL    HW136542   4.385   2.789   7.385 -0.1725 -0.1627  2.0763
 8360SOL    HW236543   4.482   2.700   7.321 -1.0267  1.5236 -2.0203
 8361SOL     OW36544   2.355   3.981   2.769 -0.5484  0.0361  0.1768
 8361SOL    HW136545   2.416   4.054   2.784 -0.2101 -0.0794 -0.6667
 8361SOL    HW236546   2.416   3.909   2.783 -0.6837  0.3268  2.2869
 8362SOL     OW36547   2.756   3.695   7.896  0.1180  0.1441 -0.2684
 8362SOL    HW136548   2.661   3.707   7.899  0.0930 -0.0930 -0.1114
 8362SOL    HW236549   2.765   3.644   7.816 -1.3072  1.0610 -1.0195
 8363SOL     OW36550   1.077   0.645   1.567 -0.6618  0.2055  0.0357
 8363SOL    HW136551   1.123   0.685   1.641 -0.1552  0.4590 -0.4173
 8363SOL    HW236552   1.143   0.615   1.504 -0.3051 -0.0849  0.5415
 8364SOL     OW36553   4.494   3.522   3.846 -0.5687 -0.2194  0.4041
 8364SOL    HW136554   4.443   3.546   3.768  0.8151 -2.0004 -1.0629
 8364SOL    HW236555   4.579   3.509   3.805 -0.9379 -0.9161 -0.1427
 8365SOL     OW36556   4.606   3.138   2.965 -0.2738  0.4367  0.4511
 8365SOL    HW136557   4.527   3.094   2.936  1.4295 -1.5876 -1.1051
 8365SOL    HW236558   4.661   3.116   2.890 -0.2444  1.3620  0.1969
 8366SOL     OW36559   2.490   1.486  15.380  0.0166 -0.2270 -0.5240
 8366SOL    HW136560   2.432   1.558  15.407  0.2463 -0.1327 -0.2889
 8366SOL    HW236561   2.435   1.411  15.358  0.1849 -0.2948 -0.7107
 8367SOL     OW36562   2.925   1.016   8.170 -0.2761 -0.7485  0.3364
 8367SOL    HW136563   2.963   0.944   8.220  0.4735  0.0174  0.8707
 8367SOL    HW236564   2.892   0.974   8.091 -1.6342 -0.2409  0.6277
 8368SOL     OW36565   4.340   4.518   8.720  0.4286 -0.2774  0.8739
 8368SOL    HW136566   4.372   4.602   8.687 -1.6823  0.6915  1.2497
 8368SOL    HW236567   4.379   4.460   8.655 -2.3638  1.6388 -2.5523
 8369SOL     OW36568   0.375   3.801   9.534 -0.0900  0.0926  0.0970
 8369SOL    HW136569   0.418   3.846   9.607  0.9854  1.4575 -1.3969
 8369SOL    HW236570   0.321   3.744   9.589  0.9967 -0.1307  0.9337
 8370SOL     OW36571   3.533   0.615   1.111  0.2843  0.4293  0.2419
 8370SOL    HW136572   3.595   0.548   1.080 -0.6035 -0.2985  0.0330
 8370SOL    HW236573   3.592   0.689   1.120 -0.6387  1.3114 -0.9925
 8371SOL     OW36574   1.110   4.508   0.092  0.1743 -0.0074  0.2644
 8371SOL    HW136575   1.146   4.436   0.040 -0.9377  0.0242 -0.5390
 8371SOL    HW236576   1.179   4.531   0.155 -2.1140  2.6511  1.7855
 8372SOL     OW36577   2.058   1.633  12.912  0.0873 -0.2726 -0.4615
 8372SOL    HW136578   2.104   1.690  12.851  1.8606 -1.1762  0.0313
 8372SOL    HW236579   1.969   1.633  12.876 -0.4002  1.6165  0.7594
 8373SOL     OW36580   0.817   2.505   9.348 -0.2265 -1.2885  0.1480
 8373SOL    HW136581   0.907   2.490   9.378  0.5378  0.7102 -1.1641
 8373SOL    HW236582   0.833   2.599   9.341  0.7925 -1.6318 -1.9750
 8374SOL     OW36583   0.162   1.610   0.049 -0.4830 -0.0746 -0.1717
 8374SOL    HW136584   0.127   1.677  17.693  1.3574  2.1601  1.3365
 8374SOL    HW236585   0.084   1.589   0.101 -1.4319 -1.4708 -2.1502
 8375SOL     OW36586   2.994   0.759   0.685 -0.2534  0.2261 -0.3969
 8375SOL    HW136587   2.998   0.838   0.631 -0.1178  0.0302 -0.6711
 8375SOL    HW236588   3.039   0.789   0.764 -1.6594  0.9032  0.1503
 8376SOL     OW36589   1.918   4.477   4.985  0.1824  0.0695 -0.2206
 8376SOL    HW136590   1.890   4.477   5.076  0.6746 -1.7641 -0.0682
 8376SOL    HW236591   1.927   4.388   4.952 -0.8712 -0.3810  0.7346
 8377SOL     OW36592   3.160   4.107  11.487  0.4158 -0.0970 -0.0823
 8377SOL    HW136593   3.175   4.032  11.545 -1.8038  1.3725  2.3660
 8377SOL    HW236594   3.064   4.103  11.495  0.2587  1.8279 -0.9809
 8378SOL     OW36595   1.502   3.901   9.050 -0.6828 -0.1126  0.3472
 8378SOL    HW136596   1.493   3.956   9.128  0.4927  0.1888  0.2617
 8378SOL    HW236597   1.562   3.838   9.091  1.3530  0.7917 -1.2215
 8379SOL     OW36598   0.093   4.230   8.817 -0.2570  0.2972 -0.1098
 8379SOL    HW136599   0.044   4.299   8.862  0.0984  0.6248 -0.2298
 8379SOL    HW236600   0.173   4.280   8.807 -0.1631  0.2221  0.2486
 8380SOL     OW36601   1.460   0.276  12.498 -0.4260  0.1120 -0.1976
 8380SOL    HW136602   1.524   0.204  12.506 -2.8614 -1.9462  0.8747
 8380SOL    HW236603   1.521   0.340  12.460 -0.8847 -0.2054 -1.4707
 8381SOL     OW36604   3.661   0.038  14.749  0.4901  0.0986 -0.0451
 8381SOL    HW136605   3.661   4.670  14.724 -2.0962  0.3648 -1.0281
 8381SOL    HW236606   3.663   0.079  14.663  2.1730 -0.6484 -0.3651
 8382SOL     OW36607   1.292   3.607   8.706 -0.6081 -0.4748 -0.8229
 8382SOL    HW136608   1.304   3.647   8.792  0.6763  0.4172 -1.4183
 8382SOL    HW236609   1.221   3.658   8.667 -1.1789  0.2525  1.1880
 8383SOL     OW36610   1.241   1.780   2.966 -0.1204 -0.4852  0.4201
 8383SOL    HW136611   1.198   1.865   2.973 -3.8531 -2.4533  1.6886
 8383SOL    HW236612   1.293   1.790   2.886 -1.3318 -0.7987 -0.3962
 8384SOL     OW36613   0.229   1.375   5.587  0.0259 -0.5246  0.3939
 8384SOL    HW136614   0.282   1.335   5.656 -1.8189  0.2786  2.2695
 8384SOL    HW236615   0.294   1.409   5.525  0.9386 -2.4583  0.2979
 8385SOL     OW36616   0.438   0.610   9.867 -0.1766 -0.6307  0.5273
 8385SOL    HW136617   0.461   0.569   9.951  1.5878 -1.0049 -0.1434
 8385SOL    HW236618   0.524   0.626   9.828 -1.3205  3.7329 -0.1614
 8386SOL     OW36619   1.716   0.376   0.328 -0.2595  0.2199  0.0779
 8386SOL    HW136620   1.692   0.432   0.402  1.2824 -1.3447  1.7900
 8386SOL    HW236621   1.750   0.297   0.370 -0.6599 -0.4410 -0.8529
 8387SOL     OW36622   0.558   2.076   6.917 -0.0881  0.4849 -0.4598
 8387SOL    HW136623   0.602   2.079   7.002 -1.7758 -3.7216  0.5498
 8387SOL    HW236624   0.608   2.017   6.861 -1.3507  0.6381 -1.7498
 8388SOL     OW36625   3.272   1.954   5.598  0.0385 -0.3383 -0.2871
 8388SOL    HW136626   3.336   1.974   5.666  1.2300 -2.0982 -0.8931
 8388SOL    HW236627   3.312   2.006   5.528  1.8919 -2.6328 -0.9529
 8389SOL     OW36628   4.050   4.378   5.822  0.1281  0.6117  0.3767
 8389SOL    HW136629   4.111   4.383   5.748 -0.4983 -1.0658 -0.2494
 8389SOL    HW236630   4.112   4.390   5.895  0.7113  3.2494 -0.5394
 8390SOL     OW36631   0.438   4.199   3.005  0.1769 -0.2069  0.1245
 8390SOL    HW136632   0.424   4.207   2.910  1.8934  3.8105  0.2429
 8390SOL    HW236633   0.455   4.290   3.026  0.0435 -0.2869  0.5745
 8391SOL     OW36634   2.115   1.459  11.255  0.2713  0.5269  0.4743
 8391SOL    HW136635   2.147   1.418  11.175  0.3265 -0.3154  0.9298
 8391SOL    HW236636   2.196   1.504  11.280  1.6911 -1.2776 -0.9409
 8392SOL     OW36637   1.765   2.324  12.156  0.1405 -0.7617  0.7449
 8392SOL    HW136638   1.752   2.322  12.251 -0.0532  2.3991  0.7930
 8392SOL    HW236639   1.680   2.355  12.124 -0.2508  0.4176  2.8668
 8393SOL     OW36640   4.180   3.736  17.019 -0.3471  0.1699  0.3235
 8393SOL    HW136641   4.209   3.826  17.002  0.0575  0.2193  1.3090
 8393SOL    HW236642   4.161   3.720  16.926  0.0995  1.0687  0.0707
 8394SOL     OW36643   1.289   4.470   2.452  0.1830 -0.4966  0.4993
 8394SOL    HW136644   1.208   4.434   2.416  0.5779  1.3541 -2.2195
 8394SOL    HW236645   1.333   4.496   2.371 -1.8731 -2.0409 -1.1368
 8395SOL     OW36646   3.512   1.831   7.967  0.6087 -0.4563  0.0274
 8395SOL    HW136647   3.420   1.845   7.941  1.1174  0.1163 -1.4597
 8395SOL    HW236648   3.538   1.775   7.894 -2.3362  0.4132 -1.7178
 8396SOL     OW36649   2.240   0.348   1.131  0.6702 -0.7711 -0.5737
 8396SOL    HW136650   2.283   0.291   1.066  1.0772 -1.0375 -0.0666
 8396SOL    HW236651   2.297   0.424   1.123 -0.1777 -0.1968 -1.1126
 8397SOL     OW36652   1.886   0.608   7.269 -0.1650  0.1646  0.6888
 8397SOL    HW136653   1.880   0.515   7.247 -1.6755  0.5672 -0.6103
 8397SOL    HW236654   1.903   0.633   7.178  1.5114  0.0299  0.9638
 8398SOL     OW36655   0.277   0.771   8.305  0.1563  0.0252  0.1659
 8398SOL    HW136656   0.196   0.797   8.349 -0.1409 -2.0715  0.8343
 8398SOL    HW236657   0.246   0.763   8.215  1.0197 -0.0331 -0.1259
 8399SOL     OW36658   2.486   4.693   9.350  0.3206  0.3642  0.1435
 8399SOL    HW136659   2.569   0.012   9.370 -0.2224  1.0841  0.8208
 8399SOL    HW236660   2.428   0.011   9.414  0.3541  0.6243  0.0016
 8400SOL     OW36661   4.085   2.307   3.544 -0.3313  0.4705  0.3308
 8400SOL    HW136662   4.137   2.255   3.483 -1.7203 -1.1729  0.5654
 8400SOL    HW236663   4.135   2.292   3.624 -0.3811 -2.0181 -0.1278
 8401SOL     OW36664   1.102   2.236  17.279  0.0137 -0.1815 -0.4376
 8401SOL    HW136665   1.023   2.247  17.332 -0.5054 -0.7715 -1.1019
 8401SOL    HW236666   1.075   2.172  17.214  2.4658 -1.8693  0.2030
 8402SOL     OW36667   1.795   4.272   1.961 -0.3695  0.1758 -0.0760
 8402SOL    HW136668   1.715   4.225   1.983 -1.2982  1.1777 -1.3009
 8402SOL    HW236669   1.817   4.229   1.879  3.5112 -1.7145  1.9741
 8403SOL     OW36670   3.980   2.382   6.258  0.5387  0.3447 -0.0550
 8403SOL    HW136671   3.984   2.413   6.348 -0.5300  0.0079  0.1168
 8403SOL    HW236672   3.888   2.376   6.231  1.1250  2.0201 -2.4946
 8404SOL     OW36673   3.229   4.050   0.386  0.3173 -0.0805 -0.2821
 8404SOL    HW136674   3.170   4.044   0.462  1.3035 -1.1033  0.4085
 8404SOL    HW236675   3.315   4.059   0.426 -1.1515 -0.6396  3.0239
 8405SOL     OW36676   1.489   1.479  10.330 -0.7144  0.1059  0.1687
 8405SOL    HW136677   1.410   1.525  10.302  0.3804  1.5958 -0.4875
 8405SOL    HW236678   1.469   1.462  10.422 -1.1992 -1.6565 -0.2701
 8406SOL     OW36679   3.817   3.287   0.005 -0.8807  0.2709  0.1713
 8406SOL    HW136680   3.821   3.341  17.628  2.2361 -1.1134 -0.5827
 8406SOL    HW236681   3.764   3.212  17.676  0.0007 -0.1479 -0.3284
 8407SOL     OW36682   1.237   1.521   3.378 -0.3050 -0.3100 -0.0397
 8407SOL    HW136683   1.170   1.589   3.387 -0.4519 -0.6686  1.4663
 8407SOL    HW236684   1.183   1.443   3.373 -0.2273 -0.5248  2.5656
 8408SOL     OW36685   2.348   0.405  12.059 -0.4841  0.1923 -0.0722
 8408SOL    HW136686   2.320   0.496  12.046 -1.7050  0.1765  2.4221
 8408SOL    HW236687   2.271   0.370  12.104  0.3036 -0.3455  0.8687
 8409SOL     OW36688   4.361   0.210   6.853  0.2246 -0.5981  0.3741
 8409SOL    HW136689   4.416   0.131   6.853 -2.1938 -2.3006  0.6445
 8409SOL    HW236690   4.401   0.259   6.781 -0.9416 -0.0327  0.1138
 8410SOL     OW36691   1.017   3.715   5.817  0.3263  0.0841 -0.0495
 8410SOL    HW136692   1.056   3.695   5.732  0.9568 -0.6092  0.4063
 8410SOL    HW236693   1.053   3.804   5.822 -0.5783  0.5262 -1.5031
 8411SOL     OW36694   0.327   3.310  12.738 -0.1363  0.0772  0.0212
 8411SOL    HW136695   0.243   3.267  12.722 -0.2943 -0.3997  2.1756
 8411SOL    HW236696   0.312   3.380  12.801 -2.1298  0.2219 -0.6104
 8412SOL     OW36697   3.676   3.104  10.069  0.0642  0.2698 -0.7135
 8412SOL    HW136698   3.698   3.154   9.990  0.8010 -0.0444 -0.7033
 8412SOL    HW236699   3.744   3.037  10.061  0.4978  0.5623  0.6088
 8413SOL     OW36700   0.160   4.127   0.035  0.1735  0.7652  0.1012
 8413SOL    HW136701   0.101   4.168  17.673 -1.2845 -0.3735  0.7251
 8413SOL    HW236702   0.222   4.194   0.063 -1.3507  2.1084  0.2433
 8414SOL     OW36703   4.050   1.796  10.386  0.4861 -0.0422  0.4904
 8414SOL    HW136704   4.061   1.705  10.356 -2.4167 -0.4844  0.8101
 8414SOL    HW236705   4.037   1.790  10.480  0.9635  0.5932  0.5952
 8415SOL     OW36706   1.121   0.169  11.264  0.0730 -0.1603 -0.3091
 8415SOL    HW136707   1.121   0.213  11.349 -0.6496  0.5782 -0.6806
 8415SOL    HW236708   1.156   0.084  11.289  0.0042 -0.2514 -0.5245
 8416SOL     OW36709   3.395   2.020   7.093  0.0651 -0.6622  0.2465
 8416SOL    HW136710   3.471   1.992   7.042 -1.9682 -2.4590 -1.7576
 8416SOL    HW236711   3.325   2.030   7.028  0.6588 -0.4067 -0.3573
 8417SOL     OW36712   4.483   2.745  12.893  0.7194  0.2028  0.6741
 8417SOL    HW136713   4.541   2.728  12.820  0.5722 -1.9443  1.0484
 8417SOL    HW236714   4.395   2.749  12.855  0.2741 -4.3419  1.2540
 8418SOL     OW36715   3.803   2.488   4.563  0.5942  0.1676 -0.1778
 8418SOL    HW136716   3.803   2.442   4.479 -0.7007 -0.7890  0.3601
 8418SOL    HW236717   3.853   2.424   4.613 -4.2800 -2.5636  1.1310
 8419SOL     OW36718   1.723   3.364  11.487 -0.4280 -0.3293  0.2073
 8419SOL    HW136719   1.635   3.390  11.458 -0.7629 -0.4499  1.1158
 8419SOL    HW236720   1.717   3.269  11.476 -1.1396 -0.3100  0.4160
 8420SOL     OW36721   1.230   1.765   5.742  0.5459 -0.4776  0.1889
 8420SOL    HW136722   1.220   1.820   5.663  0.9751 -2.2845 -1.1195
 8420SOL    HW236723   1.195   1.682   5.710 -0.5972  0.0676  0.0179
 8421SOL     OW36724   1.593   0.408  13.333  0.2012 -0.1002  0.4363
 8421SOL    HW136725   1.670   0.373  13.287 -0.6764 -0.3279 -0.8453
 8421SOL    HW236726   1.533   0.351  13.285 -2.1286  1.1898  1.8044
 8422SOL     OW36727   0.159   3.035   7.515  0.0969 -0.0399  0.0245
 8422SOL    HW136728   0.150   3.027   7.420 -1.0763  0.6401  0.0815
 8422SOL    HW236729   0.093   3.098   7.545  0.8571  0.6980  0.1155
 8423SOL     OW36730   1.964   2.297   3.118 -0.6362 -0.5308  0.0455
 8423SOL    HW136731   1.871   2.289   3.139 -0.8165 -1.2076 -1.0605
 8423SOL    HW236732   1.995   2.212   3.149  0.7091 -0.0132  0.1472
 8424SOL     OW36733   3.251   3.499  12.519  0.0401  0.5745 -0.0981
 8424SOL    HW136734   3.308   3.434  12.478  0.6145  0.6278  0.5963
 8424SOL    HW236735   3.256   3.460  12.607 -0.4888 -1.2490 -0.8673
 8425SOL     OW36736   3.460   4.223  12.771 -0.4680 -0.0128 -0.5057
 8425SOL    HW136737   3.395   4.248  12.706 -1.1398 -1.7480 -0.4962
 8425SOL    HW236738   3.408   4.156  12.815  1.5084 -0.5321  1.0778
 8426SOL     OW36739   0.434   1.571   5.253  0.0544 -0.2224  0.2187
 8426SOL    HW136740   0.372   1.607   5.317  2.3953  1.6530  1.4028
 8426SOL    HW236741   0.387   1.606   5.177  1.7244 -0.8679 -1.1058
 8427SOL     OW36742   3.401   4.233   1.038 -0.7077  0.0917  0.3092
 8427SOL    HW136743   3.448   4.158   1.002  1.3485  1.7640 -0.4684
 8427SOL    HW236744   3.450   4.306   1.000  1.8028 -2.3911 -1.2291
 8428SOL     OW36745   0.694   2.515  12.769 -0.2371  0.1716 -0.1854
 8428SOL    HW136746   0.773   2.476  12.806 -1.1588 -1.7292 -0.2479
 8428SOL    HW236747   0.735   2.591  12.728  0.2349  0.1453  0.2323
 8429SOL     OW36748   3.891   0.672  12.006  0.6417  0.7936  0.1591
 8429SOL    HW136749   3.887   0.617  11.928  0.6874  0.2959  0.5051
 8429SOL    HW236750   3.986   0.675  12.011  0.7286  0.8308 -1.7549
 8430SOL     OW36751   4.711   3.896   1.794  0.0080 -0.0211 -0.0483
 8430SOL    HW136752   4.712   3.951   1.872 -1.9300  0.1303 -0.1371
 8430SOL    HW236753   4.716   3.969   1.733  0.6276  0.2612  0.3342
 8431SOL     OW36754   0.937   2.390   8.238  0.1119  0.4011  0.1014
 8431SOL    HW136755   1.001   2.375   8.308  1.5863  0.1613 -1.3141
 8431SOL    HW236756   0.940   2.301   8.203  1.3552 -0.0670  1.4220
 8432SOL     OW36757   3.962   1.376  12.042  0.1121 -0.0492  0.2712
 8432SOL    HW136758   4.011   1.356  11.962  0.0754 -2.1879  0.7863
 8432SOL    HW236759   3.887   1.317  12.034  0.0430 -0.1233  1.5915
 8433SOL     OW36760   2.533   2.944   0.683  0.5645  0.0505 -0.0426
 8433SOL    HW136761   2.625   2.949   0.659  0.1704  3.8671 -0.6884
 8433SOL    HW236762   2.517   3.033   0.714 -1.3449 -0.7846  1.4286
 8434SOL     OW36763   3.118   3.823   3.377  0.1928  0.1825  0.7124
 8434SOL    HW136764   3.182   3.868   3.432 -0.8000  0.9910  1.2108
 8434SOL    HW236765   3.035   3.867   3.397  0.1290 -1.2487  3.6822
 8435SOL     OW36766   1.730   3.598  16.443  0.3269  0.1984  0.5154
 8435SOL    HW136767   1.714   3.510  16.411 -0.8073  0.4958  0.2912
 8435SOL    HW236768   1.755   3.647  16.365  2.5655 -0.8242  0.5862
 8436SOL     OW36769   4.141   4.055   8.535 -0.1605  0.0444 -0.1414
 8436SOL    HW136770   4.052   4.068   8.566  0.1954  1.5088  0.2360
 8436SOL    HW236771   4.163   3.978   8.588 -0.0053  0.1932  0.0111
 8437SOL     OW36772   3.123   3.820   7.762  0.3144  0.1628  0.2046
 8437SOL    HW136773   3.218   3.811   7.769  0.2609 -0.2643  0.3741
 8437SOL    HW236774   3.104   3.728   7.781  1.8971 -0.3759 -0.7884
 8438SOL     OW36775   2.778   2.611   1.001  0.1190  0.0700 -0.1826
 8438SOL    HW136776   2.847   2.641   1.060 -0.1829  0.1782  0.1137
 8438SOL    HW236777   2.710   2.669   1.035  1.1941  0.7123  0.8631
 8439SOL     OW36778   3.732   0.114  15.273 -0.0242 -0.0451 -0.2170
 8439SOL    HW136779   3.730   0.033  15.222 -2.3959 -0.0689 -0.1116
 8439SOL    HW236780   3.638   0.131  15.285 -1.1577 -5.1446 -1.8761
 8440SOL     OW36781   3.231   2.049   0.638 -0.0628  0.2058 -0.1174
 8440SOL    HW136782   3.254   2.002   0.558  0.5347  0.1367  0.0975
 8440SOL    HW236783   3.220   1.971   0.692 -1.6722 -0.2616 -1.1167
 8441SOL     OW36784   4.544   0.225   3.054  0.3154 -0.2026 -0.3414
 8441SOL    HW136785   4.536   0.288   2.983 -1.4240  0.4637  0.4491
 8441SOL    HW236786   4.627   0.251   3.093 -0.7102  0.6553  1.3153
 8442SOL     OW36787   3.128   0.338  15.301 -0.6740  0.0530  0.1775
 8442SOL    HW136788   3.154   0.249  15.322 -0.0966  0.4171  0.9819
 8442SOL    HW236789   3.042   0.342  15.342 -0.2387 -1.2195  1.2091
 8443SOL     OW36790   3.991   2.216   8.475  0.0461  0.3566  0.9218
 8443SOL    HW136791   4.005   2.221   8.570 -2.2815  0.9646  1.2469
 8443SOL    HW236792   4.059   2.161   8.438  0.4768  0.4008  1.6400
 8444SOL     OW36793   4.296   4.116  14.598  0.4251 -0.3748 -0.4766
 8444SOL    HW136794   4.350   4.191  14.625 -1.1822  1.2891 -1.8872
 8444SOL    HW236795   4.349   4.070  14.533  0.4781  0.3258 -0.9308
 8445SOL     OW36796   0.179   1.281  14.575 -0.1864  0.1211 -0.1505
 8445SOL    HW136797   0.237   1.264  14.650  0.2794 -1.7478 -0.9194
 8445SOL    HW236798   0.224   1.265  14.492  0.0734  0.6116 -0.1032
 8446SOL     OW36799   0.126   0.943   3.971  0.3990  0.2619 -0.3253
 8446SOL    HW136800   0.189   1.013   3.958 -0.4230  0.5506 -2.6793
 8446SOL    HW236801   0.179   0.877   3.926  1.4332  1.3343 -0.6568
 8447SOL     OW36802   4.594   4.461   8.357  0.1968 -0.0954  0.2764
 8447SOL    HW136803   4.611   4.431   8.446 -2.3378 -0.1261  0.7485
 8447SOL    HW236804   4.686   4.468   8.334  0.5692 -0.8933  1.5155
 8448SOL     OW36805   0.698   2.539  14.891 -0.1860 -0.0972 -0.0361
 8448SOL    HW136806   0.789   2.506  14.894  0.1417  0.8990  0.7401
 8448SOL    HW236807   0.687   2.595  14.967 -0.9468  0.5789 -0.6581
 8449SOL     OW36808   0.319   4.633   3.466  0.6581  0.3130 -0.0976
 8449SOL    HW136809   0.319   4.722   3.431 -2.1475 -0.1711 -1.3561
 8449SOL    HW236810   0.306   4.578   3.388 -1.6656  1.1353 -0.2899
 8450SOL     OW36811   2.261   2.258  14.596  0.3737 -0.1392 -0.1265
 8450SOL    HW136812   2.271   2.203  14.674  1.3060  1.4268  0.8504
 8450SOL    HW236813   2.321   2.212  14.537  1.1211  0.2238  0.3530
 8451SOL     OW36814   1.162   1.491  11.826 -0.3125 -0.0566 -0.2750
 8451SOL    HW136815   1.082   1.456  11.786 -1.5627  1.3722  0.9938
 8451SOL    HW236816   1.216   1.526  11.756  0.1365  0.2696  0.2311
 8452SOL     OW36817   3.413   0.669  14.613  0.5240 -0.0024  0.0045
 8452SOL    HW136818   3.340   0.688  14.672  1.8064  0.1035  1.5685
 8452SOL    HW236819   3.471   0.728  14.661 -0.2113 -0.5107  1.5105
 8453SOL     OW36820   4.640   0.023   3.321 -0.2834  0.4690 -0.0054
 8453SOL    HW136821   4.657   4.655   3.308 -1.0953  0.5817 -1.8440
 8453SOL    HW236822   4.703   0.069   3.265  0.8559 -0.5328  0.4461
 8454SOL     OW36823   4.362   3.217   5.310 -0.0771  0.4379 -0.4700
 8454SOL    HW136824   4.430   3.236   5.376 -0.9674 -1.6400  1.0303
 8454SOL    HW236825   4.288   3.267   5.345  0.5120  1.2526 -0.3799
 8455SOL     OW36826   3.334   1.211   4.915 -0.4941  0.1755 -0.0877
 8455SOL    HW136827   3.385   1.130   4.923 -0.8427 -0.0127  0.3088
 8455SOL    HW236828   3.273   1.199   4.843  0.5143  0.1134 -0.9196
 8456SOL     OW36829   3.057   2.526   0.740  0.4936  0.8342 -0.2254
 8456SOL    HW136830   3.074   2.480   0.823  0.4119 -1.1140 -1.2808
 8456SOL    HW236831   2.971   2.485   0.737  0.4043  0.8686  2.1153
 8457SOL     OW36832   1.395   2.606   6.200 -0.0588 -0.3605  0.0235
 8457SOL    HW136833   1.377   2.645   6.285  0.3673  1.1389 -0.5751
 8457SOL    HW236834   1.345   2.669   6.148  1.5366  2.0214  1.3501
 8458SOL     OW36835   4.670   3.840   2.678 -0.5106 -0.0045 -0.2437
 8458SOL    HW136836   4.704   3.904   2.739  0.3671  1.1555 -1.9592
 8458SOL    HW236837   4.643   3.898   2.606 -1.6050 -0.6870 -0.3977
 8459SOL     OW36838   4.068   0.613  10.729 -0.3483  0.1771 -0.1675
 8459SOL    HW136839   4.062   0.526  10.689  2.1103  0.3154 -0.8060
 8459SOL    HW236840   4.106   0.586  10.812  1.1687  0.5332 -0.7414
 8460SOL     OW36841   4.599   0.229  11.296  0.1226  0.5559 -0.3159
 8460SOL    HW136842   4.554   0.172  11.359  1.0364 -1.6327 -1.6257
 8460SOL    HW236843   4.679   0.178  11.283  0.5438  1.0210  0.4210
 8461SOL     OW36844   2.337   4.605  13.143 -0.0978  0.0945  0.0543
 8461SOL    HW136845   2.296   4.632  13.225 -0.0505 -1.7485  0.6944
 8461SOL    HW236846   2.280   4.532  13.118 -1.0057  0.9846 -0.4696
 8462SOL     OW36847   3.612   4.153  15.494  0.3549  0.4006 -0.3983
 8462SOL    HW136848   3.518   4.172  15.487  0.0828 -0.2155  1.8417
 8462SOL    HW236849   3.619   4.073  15.442 -1.2888  0.1433 -0.2252
 8463SOL     OW36850   3.468   2.990   3.119  0.2286  0.0293 -0.0311
 8463SOL    HW136851   3.545   2.979   3.174  0.4143  1.1837 -0.0506
 8463SOL    HW236852   3.393   3.000   3.179 -0.4166  0.0669 -0.8404
 8464SOL     OW36853   0.195   3.571   6.193 -0.2537  0.6257 -0.0205
 8464SOL    HW136854   0.162   3.531   6.274 -1.7708  0.1170 -0.9008
 8464SOL    HW236855   0.116   3.553   6.142  0.6215  0.5903 -1.3589
 8465SOL     OW36856   0.541   2.040   2.491  0.5802  0.0175 -0.5865
 8465SOL    HW136857   0.521   2.116   2.436  3.6692  1.4540  0.3276
 8465SOL    HW236858   0.456   1.994   2.490  0.1437  0.8173  0.0451
 8466SOL     OW36859   4.341   4.376   9.751 -0.5117  0.1188 -0.0014
 8466SOL    HW136860   4.297   4.368   9.666  0.8470 -0.1932 -0.6798
 8466SOL    HW236861   4.425   4.411   9.721  0.3734 -0.5437  1.6794
 8467SOL     OW36862   2.887   4.632  15.551 -0.0190  0.1273  0.1571
 8467SOL    HW136863   2.978   4.621  15.580  0.8280  1.1158 -2.1655
 8467SOL    HW236864   2.892   4.634  15.455  0.5339  0.5629  0.1928
 8468SOL     OW36865   2.758   4.530   2.681 -0.5855  0.2644  0.8318
 8468SOL    HW136866   2.827   4.467   2.702 -0.7288 -0.1376  0.0998
 8468SOL    HW236867   2.685   4.472   2.659  0.2945 -1.5006  2.5774
 8469SOL     OW36868   4.018   2.988   5.250 -0.3491 -0.4157 -0.6359
 8469SOL    HW136869   4.083   2.926   5.220 -0.1467 -0.4945 -0.0426
 8469SOL    HW236870   3.938   2.947   5.218 -1.4855  0.4262  1.0923
 8470SOL     OW36871   2.090   3.670  11.124 -0.0535  0.4547 -0.0627
 8470SOL    HW136872   2.040   3.701  11.048  2.6676  0.5286 -1.8316
 8470SOL    HW236873   2.178   3.657  11.087  0.1223 -0.7796  0.8153
 8471SOL     OW36874   0.868   3.168   1.547  0.1736 -0.4677 -0.0345
 8471SOL    HW136875   0.865   3.138   1.456 -4.6026 -2.1659  0.7138
 8471SOL    HW236876   0.798   3.232   1.557  0.8451  0.3345 -0.3591
 8472SOL     OW36877   4.152   0.905   5.510  0.2678  0.7413 -0.4102
 8472SOL    HW136878   4.218   0.836   5.501 -0.9679 -0.3390 -1.1296
 8472SOL    HW236879   4.169   0.936   5.599 -0.6328  0.3199 -0.0968
 8473SOL     OW36880   0.195   2.139   1.537 -0.0751  0.3195  0.1528
 8473SOL    HW136881   0.125   2.192   1.499  2.1887  2.5513 -0.8723
 8473SOL    HW236882   0.157   2.052   1.525 -0.3832  0.6719 -1.3603
 8474SOL     OW36883   3.055   3.873  15.411 -0.5732 -0.2956  0.1295
 8474SOL    HW136884   3.077   3.966  15.413  1.0316 -0.6831  1.5905
 8474SOL    HW236885   3.140   3.835  15.434 -1.4841 -1.3218  1.8664
 8475SOL     OW36886   4.060   3.589   6.973  0.1856 -0.1857  0.5313
 8475SOL    HW136887   4.048   3.579   7.067  0.4298  1.6486  0.7645
 8475SOL    HW236888   4.143   3.545   6.957 -1.1429 -1.6885 -2.1976
 8476SOL     OW36889   1.843   3.835   3.150 -0.3775 -0.0109 -0.7641
 8476SOL    HW136890   1.832   3.784   3.230 -0.2482  0.6057 -0.3447
 8476SOL    HW236891   1.859   3.918   3.196 -0.2977  0.2514 -1.2677
 8477SOL     OW36892   2.418   1.087  16.361 -0.4207  0.3556 -0.0779
 8477SOL    HW136893   2.358   1.149  16.404  1.3110  2.8515 -1.2371
 8477SOL    HW236894   2.359   1.013  16.372  1.1168 -0.6677  1.2674
 8478SOL     OW36895   2.235   2.491   8.537 -0.5322 -0.4533  0.3490
 8478SOL    HW136896   2.244   2.466   8.445 -2.6047  0.6311 -0.1648
 8478SOL    HW236897   2.147   2.529   8.536 -0.2405  0.2776  2.7820
 8479SOL     OW36898   1.193   2.905   1.476  0.0652 -0.2982  0.2986
 8479SOL    HW136899   1.182   2.821   1.431  1.3422  1.1997 -2.8088
 8479SOL    HW236900   1.265   2.942   1.425  1.1797 -0.9982  1.3572
 8480SOL     OW36901   2.308   2.157  14.836  0.3946 -0.2129 -0.0927
 8480SOL    HW136902   2.263   2.171  14.919  0.3812  1.0663 -0.3119
 8480SOL    HW236903   2.373   2.095  14.870  2.1959  0.1006 -2.9707
 8481SOL     OW36904   0.965   2.780   4.618 -1.2390  0.1034  0.0268
 8481SOL    HW136905   0.878   2.743   4.632 -1.1204 -0.6756 -1.2786
 8481SOL    HW236906   0.966   2.796   4.524  1.0112  3.1482  0.5696
 8482SOL     OW36907   3.063   4.203   7.772  0.5422  0.0805 -0.7823
 8482SOL    HW136908   2.998   4.134   7.785 -0.4761  1.1740 -0.0419
 8482SOL    HW236909   3.017   4.276   7.816  0.8139 -1.1124  1.4509
 8483SOL     OW36910   4.262   4.589   2.102 -0.2951 -0.3419 -0.7175
 8483SOL    HW136911   4.341   4.563   2.149 -0.6180  2.8291  1.5696
 8483SOL    HW236912   4.295   4.651   2.038 -0.3602 -0.5818 -0.9826
 8484SOL     OW36913   0.705   3.247   9.140 -0.0666 -0.0974 -0.9807
 8484SOL    HW136914   0.713   3.246   9.045  0.7998  2.1339 -0.9398
 8484SOL    HW236915   0.796   3.222   9.158 -0.3196  0.5478  1.1486
 8485SOL     OW36916   0.422   1.329   5.770 -0.4250 -0.1527 -0.2470
 8485SOL    HW136917   0.476   1.251   5.784 -1.0310 -0.9013 -2.0732
 8485SOL    HW236918   0.487   1.392   5.739  0.6588 -0.2605  1.8385
 8486SOL     OW36919   4.521   3.677   7.314  0.2405 -0.3763 -0.2968
 8486SOL    HW136920   4.443   3.669   7.259 -0.2843  0.1959  0.3537
 8486SOL    HW236921   4.505   3.752   7.372  1.4979  1.6158 -2.5241
 8487SOL     OW36922   2.046   1.883   4.020  0.1298 -0.1358 -0.0499
 8487SOL    HW136923   2.025   1.879   4.113  1.0510  2.4075  0.2767
 8487SOL    HW236924   2.033   1.799   3.977 -1.1039  0.3450 -0.6217
 8488SOL     OW36925   2.656   0.877   5.569 -0.7955 -0.4301 -0.3461
 8488SOL    HW136926   2.615   0.895   5.653 -0.3871  0.1679 -0.2737
 8488SOL    HW236927   2.574   0.872   5.519  0.2198  3.5821 -2.3938
 8489SOL     OW36928   0.438   0.963  13.441 -0.1573  0.3866 -0.3075
 8489SOL    HW136929   0.431   0.966  13.536 -2.8421 -0.1367 -0.4906
 8489SOL    HW236930   0.504   0.894  13.434 -2.2812 -1.7011  0.3428
 8490SOL     OW36931   0.766   4.454   3.707  0.8230 -0.5461  0.6172
 8490SOL    HW136932   0.747   4.532   3.654 -2.5134 -2.1891 -0.6125
 8490SOL    HW236933   0.851   4.426   3.675  0.4460 -0.1577 -0.7348
 8491SOL     OW36934   0.043   2.087   5.571 -0.3461 -0.3690 -0.3984
 8491SOL    HW136935   0.095   2.098   5.651 -1.4953 -0.4747  0.3657
 8491SOL    HW236936   0.118   2.076   5.513 -2.0192 -1.9147 -2.2889
 8492SOL     OW36937   0.039   1.304   0.002 -0.4889 -0.0489 -0.5376
 8492SOL    HW136938   0.010   1.248   0.075  3.2274 -2.1171 -0.6520
 8492SOL    HW236939   0.048   1.389   0.044  1.3746 -1.4222  1.9048
 8493SOL     OW36940   2.528   2.860   3.939 -0.0867  0.4023  0.4601
 8493SOL    HW136941   2.463   2.850   3.870 -0.2187  0.8481  0.5223
 8493SOL    HW236942   2.506   2.778   3.983 -0.3478  0.2519  0.0524
 8494SOL     OW36943   3.152   3.700   2.774  0.0953 -0.4114  0.7181
 8494SOL    HW136944   3.174   3.776   2.827 -1.7697  0.4537  0.2517
 8494SOL    HW236945   3.133   3.729   2.685  0.2696 -2.4542  0.0108
 8495SOL     OW36946   1.029   4.167   9.156 -0.0090 -0.2083  0.3390
 8495SOL    HW136947   1.001   4.217   9.233  0.1446  0.4886 -0.0568
 8495SOL    HW236948   1.025   4.231   9.085  0.4260  1.1482  1.5427
 8496SOL     OW36949   4.449   1.849   2.442 -0.4068  0.5755  0.1314
 8496SOL    HW136950   4.470   1.940   2.422  1.3945  0.2572  0.6168
 8496SOL    HW236951   4.534   1.810   2.460 -0.2817  0.4024 -0.8350
 8497SOL     OW36952   1.254   1.839   7.603 -0.1906 -0.1204  0.3431
 8497SOL    HW136953   1.177   1.793   7.636 -0.9953 -0.9804 -2.7044
 8497SOL    HW236954   1.208   1.922   7.588  0.3962  0.5095  2.1049
 8498SOL     OW36955   2.965   0.711   3.546 -0.2537  0.4813  0.1831
 8498SOL    HW136956   2.882   0.667   3.529 -0.7271  1.2456  0.5029
 8498SOL    HW236957   3.021   0.662   3.487 -1.8789 -0.2259 -0.7882
 8499SOL     OW36958   1.424   0.187   5.302 -0.2289  0.0788 -0.1998
 8499SOL    HW136959   1.449   0.222   5.388 -0.4024 -1.0339  0.2939
 8499SOL    HW236960   1.512   0.189   5.265  0.5868  0.3244  1.7749
 8500SOL     OW36961   1.296   1.067  12.164 -0.1716  0.1852 -0.4130
 8500SOL    HW136962   1.307   0.997  12.228 -1.6895  1.2259  0.9659
 8500SOL    HW236963   1.321   1.143  12.217  0.3349  0.0165 -0.4033
 8501SOL     OW36964   3.813   0.868   3.998 -0.2165 -0.0106 -0.0681
 8501SOL    HW136965   3.853   0.892   4.082  2.0245  1.9971 -1.6933
 8501SOL    HW236966   3.831   0.774   3.996 -1.1770 -0.1829 -0.6497
 8502SOL     OW36967   2.220   1.482   7.104  0.3325 -0.1348  0.0712
 8502SOL    HW136968   2.306   1.512   7.134  1.2001 -1.6808 -0.9017
 8502SOL    HW236969   2.207   1.535   7.026  0.3475 -0.0281  0.1419
 8503SOL     OW36970   4.618   1.077   1.887  0.0704  0.1564  0.0656
 8503SOL    HW136971   4.641   1.108   1.974 -1.3757  0.0665  0.4662
 8503SOL    HW236972   4.647   0.986   1.888 -3.4437 -0.9330  1.1192
 8504SOL     OW36973   4.365   0.539  11.427 -0.2943  0.2040 -0.3897
 8504SOL    HW136974   4.346   0.631  11.408 -1.0599  0.8204  3.3301
 8504SOL    HW236975   4.448   0.520  11.383 -0.9661 -0.8267 -1.2077
 8505SOL     OW36976   3.247   4.351   9.096  0.3359 -0.0277 -0.3298
 8505SOL    HW136977   3.318   4.395   9.142  0.9595 -0.9628 -0.4024
 8505SOL    HW236978   3.301   4.282   9.056  0.5072  0.1341 -0.3766
 8506SOL     OW36979   0.416   0.334   7.573 -0.4736  0.6466  0.0557
 8506SOL    HW136980   0.489   0.339   7.635  0.7079  0.2883 -1.2926
 8506SOL    HW236981   0.444   0.392   7.502 -1.4997 -1.1066 -1.7733
 8507SOL     OW36982   3.572   3.095   8.080 -0.0905  0.0277 -0.1533
 8507SOL    HW136983   3.565   3.031   8.009  5.7786 -1.8625  1.0079
 8507SOL    HW236984   3.615   3.048   8.151 -2.6511  1.3242  2.2519
 8508SOL     OW36985   3.959   1.521   3.054  0.4243 -0.0323 -0.4443
 8508SOL    HW136986   4.024   1.583   3.022  2.7026 -1.8631  0.5693
 8508SOL    HW236987   4.014   1.459   3.104 -1.4057 -0.4377  1.0887
 8509SOL     OW36988   2.234   1.521   0.502  0.4313 -0.6327  0.1673
 8509SOL    HW136989   2.238   1.429   0.528  0.2517  0.4400  3.9803
 8509SOL    HW236990   2.142   1.544   0.492 -0.5259 -3.7295  2.0187
 8510SOL     OW36991   0.585   3.999   5.418 -0.1523 -0.3569  0.1467
 8510SOL    HW136992   0.647   3.927   5.404  0.0272 -0.4292  1.3226
 8510SOL    HW236993   0.637   4.079   5.404 -0.3626  0.1951  2.4102
 8511SOL     OW36994   2.089   0.446   8.682 -0.4756  0.2987  0.4221
 8511SOL    HW136995   2.166   0.396   8.711 -1.0690  0.2418  1.8877
 8511SOL    HW236996   2.123   0.486   8.601 -0.5899  2.5829  1.5115
 8512SOL     OW36997   2.567   2.443   5.669  0.0455  0.1917  0.5191
 8512SOL    HW136998   2.662   2.455   5.673 -0.0542  0.8265  0.9288
 8512SOL    HW236999   2.531   2.512   5.725 -0.9009  0.2969 -0.2315
 8513SOL     OW37000   1.565   4.006   2.690  0.5674  0.3854  0.1991
 8513SOL    HW137001   1.515   4.052   2.623 -0.2473 -0.8127 -0.0048
 8513SOL    HW237002   1.568   3.922   2.644  0.3161 -0.1471  1.1469
 8514SOL     OW37003   2.965   0.210   7.911 -0.7721  0.2482  0.2859
 8514SOL    HW137004   3.058   0.231   7.905 -1.3123  2.3927 -0.7200
 8514SOL    HW237005   2.920   0.293   7.928  0.9245  1.2748 -0.2372
 8515SOL     OW37006   0.021   1.765   5.570  0.0188  0.3138  0.5139
 8515SOL    HW137007   4.721   1.676   5.595 -0.5229  0.5075  0.6477
 8515SOL    HW237008   4.665   1.811   5.548 -0.1154  0.5742  1.5459
 8516SOL     OW37009   0.611   3.420   7.061 -0.3034  0.1619 -0.5717
 8516SOL    HW137010   0.647   3.430   7.149  1.8122 -0.1731 -1.4005
 8516SOL    HW237011   0.527   3.460   7.082  0.6720  1.6922  0.4450
 8517SOL     OW37012   0.121   4.273   3.990 -0.2478 -0.3418 -0.1793
 8517SOL    HW137013   0.212   4.256   4.014  0.0348  0.4272 -0.6921
 8517SOL    HW237014   0.128   4.317   3.905  0.4613  0.9170  0.5293
 8518SOL     OW37015   0.282   4.281   2.759  0.3634  0.0991 -0.1314
 8518SOL    HW137016   0.273   4.302   2.666  1.5490 -0.8157 -0.4600
 8518SOL    HW237017   0.205   4.323   2.798  0.8089  0.9097 -0.1121
 8519SOL     OW37018   3.644   4.510   2.134  0.2438  0.1894 -0.8400
 8519SOL    HW137019   3.679   4.448   2.069 -0.3316 -0.9899 -0.0325
 8519SOL    HW237020   3.720   4.521   2.191  0.9222  0.0207 -1.7152
 8520SOL     OW37021   4.088   2.851   4.840 -0.0383  0.4426 -0.4662
 8520SOL    HW137022   4.001   2.890   4.839  0.0050  0.5876  2.0071
 8520SOL    HW237023   4.063   2.770   4.795  2.3632 -0.7988  0.4391
 8521SOL     OW37024   0.382   3.364   4.428  0.2977 -0.1953 -0.6417
 8521SOL    HW137025   0.416   3.385   4.341  0.9534  1.9716  0.1277
 8521SOL    HW237026   0.316   3.433   4.437  0.9594  0.2064  1.3316
 8522SOL     OW37027   2.675   0.413  15.872  0.4110 -0.3866 -0.0048
 8522SOL    HW137028   2.682   0.327  15.915  1.5250 -0.9479 -1.3093
 8522SOL    HW237029   2.679   0.482  15.938  0.9443 -1.1238  0.7377
 8523SOL     OW37030   2.434   0.797  14.007 -0.3141 -0.1771 -0.2434
 8523SOL    HW137031   2.362   0.790  13.944 -0.0588 -1.3724 -0.4047
 8523SOL    HW237032   2.504   0.831  13.952 -0.8045 -1.0035 -1.3767
 8524SOL     OW37033   2.923   0.085   1.545  0.2622 -0.0787  0.0777
 8524SOL    HW137034   2.960   0.168   1.575 -0.3384  0.6816 -1.3009
 8524SOL    HW237035   2.950   0.027   1.616 -1.2114  1.1481  1.6186
 8525SOL     OW37036   1.504   0.941   3.310  0.3722 -1.0335 -0.5275
 8525SOL    HW137037   1.470   0.885   3.241 -1.4032 -1.5222  0.7449
 8525SOL    HW237038   1.448   1.018   3.297  1.1916 -0.5110 -1.0095
 8526SOL     OW37039   0.540   3.275  16.519  0.3520  0.5498 -0.2282
 8526SOL    HW137040   0.537   3.307  16.429 -0.2275  0.8951 -0.0868
 8526SOL    HW237041   0.615   3.216  16.515  1.2194  1.6685 -0.4644
 8527SOL     OW37042   0.060   0.461  15.362 -0.1185 -1.3303  0.3431
 8527SOL    HW137043   0.139   0.480  15.414 -0.0482  0.0540 -0.2803
 8527SOL    HW237044   0.004   0.427  15.432 -0.8435  0.2503  0.5360
 8528SOL     OW37045   0.014   3.092   3.570 -0.1381  0.2876 -0.4275
 8528SOL    HW137046   0.051   3.086   3.658 -2.3967 -1.6785  0.3957
 8528SOL    HW237047   0.034   3.182   3.546 -0.9850  0.7930  0.7649
 8529SOL     OW37048   0.285   4.524  14.120  0.6758 -0.1080  0.2073
 8529SOL    HW137049   0.339   4.489  14.192  2.1389  2.7240  0.4622
 8529SOL    HW237050   0.353   4.563  14.066 -1.3452  2.2584 -0.5975
 8530SOL     OW37051   2.418   0.163  15.244  0.0952 -0.0663  0.0120
 8530SOL    HW137052   2.359   0.166  15.320  2.5374 -0.5648  1.9153
 8530SOL    HW237053   2.360   0.110  15.189  1.0117  0.2918 -1.2825
 8531SOL     OW37054   1.009   4.377  10.065  0.5011  0.5317 -0.0804
 8531SOL    HW137055   0.976   4.430  10.137 -0.9383  0.0819 -0.4105
 8531SOL    HW237056   0.961   4.417   9.993 -0.6729  0.0207  0.4193
 8532SOL     OW37057   0.122   3.025   6.396 -0.1672 -0.1135  0.2635
 8532SOL    HW137058   0.085   2.937   6.387  2.9345 -1.5502  1.6331
 8532SOL    HW237059   0.071   3.039   6.476  1.3912 -0.8128  1.3586
 8533SOL     OW37060   4.132   0.961   3.974 -0.2457 -0.0806 -0.2122
 8533SOL    HW137061   4.065   1.001   4.029 -0.2995 -1.6597  0.8825
 8533SOL    HW237062   4.081   0.897   3.924  2.9298 -1.5171 -1.6292
 8534SOL     OW37063   2.218   1.485   3.593  0.1029  0.5595 -0.0438
 8534SOL    HW137064   2.158   1.413   3.575 -0.5272  1.1608 -0.3456
 8534SOL    HW237065   2.230   1.490   3.688  0.1095 -3.8314  0.1778
 8535SOL     OW37066   2.696   0.498   3.740 -0.2104  0.2395  0.1724
 8535SOL    HW137067   2.756   0.514   3.668 -1.2213  2.4759 -0.1578
 8535SOL    HW237068   2.717   0.405   3.754 -0.1415  0.4668  1.5755
 8536SOL     OW37069   1.282   2.729   3.351 -0.2848 -0.4239  0.1372
 8536SOL    HW137070   1.257   2.710   3.261  3.6820 -0.9257 -0.8733
 8536SOL    HW237071   1.215   2.793   3.376  2.5638  2.5663  0.0663
 8537SOL     OW37072   1.253   2.592   3.990 -0.7312 -0.1536 -0.0947
 8537SOL    HW137073   1.348   2.588   4.000 -0.6840 -2.8214 -1.6172
 8537SOL    HW237074   1.235   2.681   4.021 -0.7624  0.1342 -0.9368
 8538SOL     OW37075   0.842   0.487   3.501 -0.1207  0.1760  0.3055
 8538SOL    HW137076   0.788   0.531   3.567 -0.9726  0.6202 -0.6835
 8538SOL    HW237077   0.824   0.540   3.424 -2.7075  0.2555  0.9471
 8539SOL     OW37078   3.993   2.251  13.426  0.2646  0.0205 -0.1277
 8539SOL    HW137079   3.951   2.205  13.353  1.6173  1.3434 -1.7388
 8539SOL    HW237080   3.962   2.191  13.494  0.0557 -1.0494 -1.1803
 8540SOL     OW37081   1.863   2.997   4.779  0.1062  0.6664 -0.3976
 8540SOL    HW137082   1.782   2.963   4.741  0.6157  0.3355 -1.2151
 8540SOL    HW237083   1.920   2.920   4.771 -0.5372 -0.0316  1.8961
 8541SOL     OW37084   1.206   2.806   5.320  0.0539 -0.3904 -0.0197
 8541SOL    HW137085   1.217   2.899   5.338  0.6105 -0.5783  0.5926
 8541SOL    HW237086   1.149   2.778   5.392  1.5969 -1.5649  0.7408
 8542SOL     OW37087   3.785   1.591  13.369 -0.3614 -0.1630  0.1822
 8542SOL    HW137088   3.700   1.632  13.355 -0.7400 -1.3069 -0.8804
 8542SOL    HW237089   3.831   1.629  13.294  1.0702  2.0627  2.2157
 8543SOL     OW37090   1.329   2.159   2.590 -0.3538 -0.1295 -0.3179
 8543SOL    HW137091   1.379   2.240   2.602 -3.1039  1.1905  2.0478
 8543SOL    HW237092   1.242   2.197   2.601 -0.3280 -0.3492  0.5849
 8544SOL     OW37093   4.410   2.870   3.611  0.2652  0.1014 -0.3925
 8544SOL    HW137094   4.413   2.775   3.613 -0.9857  0.0391 -1.4160
 8544SOL    HW237095   4.364   2.889   3.692  0.5525  1.8573 -0.6273
 8545SOL     OW37096   3.915   0.081   9.503  0.1865 -0.1905 -0.1226
 8545SOL    HW137097   3.973   0.149   9.467 -0.6047  0.4394 -0.2057
 8545SOL    HW237098   3.845   0.123   9.552  0.9314  0.0292  0.7595
 8546SOL     OW37099   3.486   3.949  16.143  0.4214 -0.1482  0.0463
 8546SOL    HW137100   3.527   4.032  16.169  0.1159 -0.1796  0.6323
 8546SOL    HW237101   3.531   3.891  16.205  0.6450  1.0293  0.9962
 8547SOL     OW37102   2.096   1.217   1.191  0.6952  0.2936  0.1012
 8547SOL    HW137103   2.027   1.283   1.192 -0.2965 -0.7399  0.7620
 8547SOL    HW237104   2.066   1.140   1.142 -0.4355 -0.8030  2.4864
 8548SOL     OW37105   3.132   2.916   8.136  0.1330  0.1062  0.2099
 8548SOL    HW137106   3.180   2.902   8.218  0.8391 -0.1855 -0.2584
 8548SOL    HW237107   3.053   2.864   8.147  0.2247 -0.2619 -0.9011
 8549SOL     OW37108   2.464   2.985   7.826  0.3180 -0.1574 -0.1725
 8549SOL    HW137109   2.557   2.965   7.838  0.2497 -1.2235 -1.5030
 8549SOL    HW237110   2.446   2.968   7.733 -1.0868  1.6277 -0.2452
 8550SOL     OW37111   4.237   2.182   7.171  0.1209  0.1168  0.0126
 8550SOL    HW137112   4.270   2.200   7.083 -0.3109  0.1018 -0.1532
 8550SOL    HW237113   4.142   2.171   7.162  0.3634 -0.2705 -1.9601
 8551SOL     OW37114   2.491   2.664  16.140  0.1702 -0.0989  0.7722
 8551SOL    HW137115   2.574   2.618  16.124 -0.5673 -1.9647  2.2127
 8551SOL    HW237116   2.430   2.592  16.122 -0.9095  0.9728  0.1477
 8552SOL     OW37117   4.144   2.537  13.797  0.1060  0.3640 -0.1318
 8552SOL    HW137118   4.135   2.597  13.871  2.2889 -0.7168  1.0060
 8552SOL    HW237119   4.134   2.453  13.842  1.6747 -0.1238 -0.7079
 8553SOL     OW37120   2.275   1.486   6.636 -0.1427 -0.0759  0.1480
 8553SOL    HW137121   2.334   1.430   6.585  0.7240  0.5134  0.5054
 8553SOL    HW237122   2.191   1.440   6.630 -1.8177  2.7313  2.0391
 8554SOL     OW37123   0.202   2.718   2.970  0.0739  0.5585  0.0551
 8554SOL    HW137124   0.255   2.770   2.909  1.1101 -1.3181 -0.6255
 8554SOL    HW237125   0.123   2.773   2.972  0.5929  1.3197 -0.1155
 8555SOL     OW37126   2.492   1.406   8.436  0.0945 -0.2240  0.5067
 8555SOL    HW137127   2.489   1.497   8.468  1.0608  0.5091 -1.5094
 8555SOL    HW237128   2.575   1.371   8.469  0.3068 -0.0275  0.1757
 8556SOL     OW37129   3.394   3.353   8.308 -0.6074 -1.2254  0.1318
 8556SOL    HW137130   3.316   3.409   8.304  0.9084  0.7566 -1.4360
 8556SOL    HW237131   3.450   3.426   8.331 -0.1112 -0.6705 -2.8444
 8557SOL     OW37132   1.013   3.670   2.789  0.5560 -0.1460 -0.5658
 8557SOL    HW137133   1.055   3.632   2.713  1.4117  1.2937 -0.8184
 8557SOL    HW237134   0.939   3.612   2.804  0.2992 -0.2166 -2.1531
 8558SOL     OW37135   2.848   3.417   1.332 -0.6258 -0.2714 -0.3029
 8558SOL    HW137136   2.887   3.496   1.296 -0.6767 -0.1336 -0.0539
 8558SOL    HW237137   2.756   3.444   1.333 -1.1123 -1.9027  0.1951
 8559SOL     OW37138   3.815   1.119   7.249  0.2443  0.1257 -0.1069
 8559SOL    HW137139   3.752   1.103   7.178  0.9774  0.4954 -0.8417
 8559SOL    HW237140   3.774   1.159   7.326  0.6987  1.4102 -0.5392
 8560SOL     OW37141   3.450   2.178   8.394 -0.3156 -0.1081  0.0523
 8560SOL    HW137142   3.442   2.108   8.330  1.0215  0.6947 -1.0061
 8560SOL    HW237143   3.543   2.197   8.379  0.0398 -0.4523  1.7333
 8561SOL     OW37144   3.492   2.417  15.296 -0.2279  0.3129 -0.2852
 8561SOL    HW137145   3.529   2.429  15.383 -0.3870  1.6289 -0.3892
 8561SOL    HW237146   3.568   2.421  15.238 -0.6638 -3.6424 -1.1134
 8562SOL     OW37147   1.304   3.574   5.679  0.6896  0.0152 -0.0887
 8562SOL    HW137148   1.282   3.662   5.648  2.3585  0.7912  0.9085
 8562SOL    HW237149   1.365   3.535   5.617  0.2596 -0.2015 -0.3673
 8563SOL     OW37150   1.990   4.473   4.472 -0.6293 -0.2697 -0.2361
 8563SOL    HW137151   1.926   4.464   4.542  0.8125 -1.2181  0.9565
 8563SOL    HW237152   2.026   4.560   4.489 -1.8847  0.6840 -2.4254
 8564SOL     OW37153   1.644   0.202   8.464 -0.1157 -0.9015 -0.0181
 8564SOL    HW137154   1.548   0.213   8.466  0.2084  1.6421  1.2169
 8564SOL    HW237155   1.656   0.245   8.549 -0.1844 -1.7751  0.4435
 8565SOL     OW37156   3.090   4.122   9.407  0.5849  0.0089  0.1801
 8565SOL    HW137157   3.156   4.140   9.474  0.9879  0.9172 -0.4559
 8565SOL    HW237158   3.150   4.083   9.344 -0.1356  1.7964 -1.5894
 8566SOL     OW37159   1.361   0.975  15.731  0.0047 -0.0713  0.1317
 8566SOL    HW137160   1.289   1.004  15.675  0.8109  1.0992 -0.3117
 8566SOL    HW237161   1.369   1.048  15.794 -1.6759  0.3681 -0.1497
 8567SOL     OW37162   3.625   3.730  16.264  0.4384 -0.0203  0.0416
 8567SOL    HW137163   3.555   3.680  16.222  1.5203 -0.8913 -0.7136
 8567SOL    HW237164   3.697   3.713  16.204 -0.4917  1.1328 -1.3961
 8568SOL     OW37165   3.060   4.174   3.534 -0.2130  0.7018 -0.1954
 8568SOL    HW137166   2.975   4.217   3.538 -0.2586  0.5023  1.0494
 8568SOL    HW237167   3.034   4.082   3.545  2.1115  0.1463  0.6225
 8569SOL     OW37168   0.435   3.464   1.805 -0.1337 -0.6406  0.1791
 8569SOL    HW137169   0.471   3.375   1.803 -1.3862 -1.1534  0.1341
 8569SOL    HW237170   0.427   3.464   1.901 -0.4383  0.1779  0.1512
 8570SOL     OW37171   3.911   1.887   3.668  0.7603  0.0660  0.4041
 8570SOL    HW137172   3.986   1.828   3.671 -0.0182 -0.8808  1.2199
 8570SOL    HW237173   3.860   1.849   3.596  0.7409 -1.1524  1.0644
 8571SOL     OW37174   4.669   1.601  10.401 -0.9269 -0.0131 -0.2157
 8571SOL    HW137175   4.626   1.685  10.385  2.4863  1.6024 -0.9285
 8571SOL    HW237176   4.679   1.566  10.312  2.5426 -0.6208  0.4037
 8572SOL     OW37177   0.227   0.554   7.521  0.1900 -0.2635  0.1409
 8572SOL    HW137178   0.141   0.568   7.562  0.2463  2.6096 -0.6892
 8572SOL    HW237179   0.290   0.554   7.593  0.9558  1.2296 -0.5266
 8573SOL     OW37180   2.120   0.704  11.559  0.0764 -0.2347 -0.8186
 8573SOL    HW137181   2.091   0.707  11.468 -2.5621 -0.1131  0.0437
 8573SOL    HW237182   2.075   0.632  11.602  0.2523 -0.4115 -0.9303
 8574SOL     OW37183   4.241   4.544   3.780  0.1690 -0.1597  0.0234
 8574SOL    HW137184   4.334   4.540   3.756  0.4398  1.5375  0.7426
 8574SOL    HW237185   4.201   4.597   3.711  1.0732  2.6704  1.6574
 8575SOL     OW37186   0.083   4.675   8.703  0.1822  0.0230 -0.0381
 8575SOL    HW137187   0.064   0.043   8.690 -1.2033 -0.2858 -0.1481
 8575SOL    HW237188   0.005   4.638   8.744 -0.4037 -0.2935 -1.4473
 8576SOL     OW37189   4.377   1.843   0.762  0.3740 -1.2065  0.0967
 8576SOL    HW137190   4.458   1.894   0.766 -0.4799  0.0942  0.7596
 8576SOL    HW237191   4.416   1.758   0.740 -0.8390 -1.2563 -1.8748
 8577SOL     OW37192   0.150   2.956   9.947  0.0781 -0.3677  0.3961
 8577SOL    HW137193   0.075   2.900   9.927  1.0538 -1.4386 -0.2593
 8577SOL    HW237194   0.180   2.984   9.860  0.3115  1.7097  1.1472
 8578SOL     OW37195   3.045   1.106   5.668  0.1091  0.1316 -0.6554
 8578SOL    HW137196   2.973   1.090   5.729  1.0969  0.4176  0.6096
 8578SOL    HW237197   2.996   1.167   5.614 -0.1438  0.8902  0.4289
 8579SOL     OW37198   3.210   2.006   3.170  0.4588 -0.7902 -0.9606
 8579SOL    HW137199   3.250   2.052   3.245 -1.9550  2.1047 -1.4580
 8579SOL    HW237200   3.140   1.960   3.216  2.1961 -0.4495  2.0373
 8580SOL     OW37201   2.254   0.581   2.099 -0.1337  0.0921  0.0515
 8580SOL    HW137202   2.179   0.639   2.086  1.3654  1.5691 -2.0618
 8580SOL    HW237203   2.278   0.609   2.187  2.6922  0.6706 -0.9095
 8581SOL     OW37204   4.322   4.654   5.506 -0.2529  0.0513  0.6046
 8581SOL    HW137205   4.326   4.579   5.447  0.8233  0.8379 -0.3238
 8581SOL    HW237206   4.395   4.710   5.478 -0.5583  0.3623  0.4364
 8582SOL     OW37207   0.626   2.954   0.394  0.4132 -0.2795 -0.2846
 8582SOL    HW137208   0.667   2.962   0.480  0.3343 -0.4688 -0.2297
 8582SOL    HW237209   0.681   2.890   0.349  0.0267 -1.6739  1.2191
 8583SOL     OW37210   0.947   0.168   9.048 -0.3287  0.5855 -0.0899
 8583SOL    HW137211   0.906   0.249   9.017  1.1381  0.5169 -2.2323
 8583SOL    HW237212   1.041   0.176   9.030 -0.3655  0.9202 -0.1417
 8584SOL     OW37213   0.055   4.712  13.549  0.1137  0.2382  0.2037
 8584SOL    HW137214   0.103   4.651  13.605 -0.5628 -1.2841 -0.8864
 8584SOL    HW237215   0.063   0.071  13.594 -0.7618  0.0217  0.7700
 8585SOL     OW37216   2.601   3.017   2.054 -0.4482  0.1544  0.7678
 8585SOL    HW137217   2.513   2.987   2.074 -0.5740 -0.8877 -1.3993
 8585SOL    HW237218   2.604   3.087   2.119  1.7951 -0.4532  1.3240
 8586SOL     OW37219   2.279   1.605   1.851 -0.2130 -0.2669 -0.4747
 8586SOL    HW137220   2.221   1.575   1.921  1.3459  1.5279  1.5537
 8586SOL    HW237221   2.336   1.528   1.845  0.4376  0.0501  1.5722
 8587SOL     OW37222   1.199   0.805   9.932 -0.1106  0.2284 -0.0024
 8587SOL    HW137223   1.265   0.743   9.964 -0.6369 -0.4184 -0.1777
 8587SOL    HW237224   1.257   0.862   9.881  0.2833  1.1240  1.4275
 8588SOL     OW37225   3.888   2.021  13.293  0.2857 -0.7053  0.0604
 8588SOL    HW137226   3.856   2.028  13.383  2.3801  2.3700  0.5677
 8588SOL    HW237227   3.935   1.937  13.300  0.5672 -0.5911 -0.4469
 8589SOL     OW37228   0.732   0.093   1.510  0.6151 -0.0002 -0.0398
 8589SOL    HW137229   0.697   0.098   1.421 -0.5681  0.9296  0.4911
 8589SOL    HW237230   0.680   0.025   1.552 -0.1265 -0.7635 -2.1763
 8590SOL     OW37231   0.522   1.642  11.470 -0.3188  0.2917  0.1145
 8590SOL    HW137232   0.527   1.562  11.417  0.8499 -0.1122  0.8623
 8590SOL    HW237233   0.570   1.610  11.546 -0.2181 -1.3044 -0.6327
 8591SOL     OW37234   0.525   2.289   5.445 -0.0360  0.0925  0.2414
 8591SOL    HW137235   0.488   2.204   5.471 -1.6732  0.9932  0.8309
 8591SOL    HW237236   0.543   2.267   5.353 -1.7192  1.8939 -0.5091
 8592SOL     OW37237   3.509   3.804   5.106 -0.2947  0.1070 -0.2274
 8592SOL    HW137238   3.516   3.854   5.187  1.2177 -0.1357 -0.1970
 8592SOL    HW237239   3.594   3.762   5.089  0.7758  2.2621 -0.1486
 8593SOL     OW37240   3.261   3.467   2.949 -0.6774 -1.1714 -0.3949
 8593SOL    HW137241   3.192   3.402   2.963 -0.1139 -1.5374  0.6459
 8593SOL    HW237242   3.224   3.530   2.888  0.2138 -0.4119 -0.1459
 8594SOL     OW37243   0.206   2.736   9.586 -0.0072 -0.5981  0.1529
 8594SOL    HW137244   0.271   2.788   9.539 -1.7673  0.3864 -1.1939
 8594SOL    HW237245   0.227   2.765   9.675  0.6116  1.3118 -0.6074
 8595SOL     OW37246   0.798   3.327  11.214  0.3761 -0.3549  0.2896
 8595SOL    HW137247   0.718   3.379  11.223 -0.7529 -2.4084  1.9377
 8595SOL    HW237248   0.846   3.358  11.291 -0.4961  3.6922 -0.7769
 8596SOL     OW37249   3.344   0.029  13.198 -0.0056 -0.3443 -0.2322
 8596SOL    HW137250   3.416   0.003  13.256 -0.5192 -0.2911  0.4268
 8596SOL    HW237251   3.281   0.072  13.256  2.1480 -1.1040  2.6763
 8597SOL     OW37252   4.627   1.910   2.688 -0.3575  0.5812 -0.2926
 8597SOL    HW137253   4.670   1.826   2.674 -1.7133 -0.2849  0.7515
 8597SOL    HW237254   4.541   1.886   2.723  0.4448 -0.9111  0.6597
 8598SOL     OW37255   0.839   4.672   4.406 -0.0490  1.3171 -0.1829
 8598SOL    HW137256   0.926   4.677   4.445  0.4472 -3.5735 -0.7185
 8598SOL    HW237257   0.795   4.611   4.466  1.7796  1.3766  1.2122
 8599SOL     OW37258   2.415   2.196   4.827 -0.7530 -0.2280  0.2539
 8599SOL    HW137259   2.448   2.219   4.740  1.3433  0.0343  1.1202
 8599SOL    HW237260   2.329   2.160   4.808 -0.2695 -1.0873 -0.3056
 8600SOL     OW37261   0.153   2.930   5.074  0.5763  0.0760  0.1943
 8600SOL    HW137262   0.082   2.990   5.098 -0.8392 -1.3393 -0.5244
 8600SOL    HW237263   0.130   2.905   4.985 -0.9292  3.6158 -0.4384
 8601SOL     OW37264   3.140   2.633   7.626  0.2063 -0.1853  0.1737
 8601SOL    HW137265   3.224   2.589   7.614  0.9309  0.8573  1.4547
 8601SOL    HW237266   3.159   2.695   7.696  1.3275  0.9680 -1.1426
 8602SOL     OW37267   1.506   1.622   5.092  0.5216  0.6018 -0.3980
 8602SOL    HW137268   1.438   1.657   5.149  0.0955 -0.9751  0.0618
 8602SOL    HW237269   1.538   1.698   5.044  1.2922 -0.7855 -2.1157
 8603SOL     OW37270   2.766   0.453   6.269  0.6368 -0.0768  0.0080
 8603SOL    HW137271   2.792   0.545   6.255 -2.2517  0.4500 -1.9097
 8603SOL    HW237272   2.763   0.430   6.176 -0.1257  0.3372 -0.0668
 8604SOL     OW37273   2.709   0.438   4.853 -0.4844  0.1360 -0.6380
 8604SOL    HW137274   2.767   0.455   4.779 -1.1621 -0.9068 -1.3996
 8604SOL    HW237275   2.646   0.508   4.841  0.7378  1.4508  0.5312
 8605SOL     OW37276   0.210   0.338  11.243 -0.2944 -0.1117 -0.7757
 8605SOL    HW137277   0.235   0.416  11.194 -0.7402  0.0172 -0.7977
 8605SOL    HW237278   0.250   0.275  11.183  1.3083 -2.9186  3.2644
 8606SOL     OW37279   3.058   0.026  16.056 -0.3855  0.6773 -0.0787
 8606SOL    HW137280   3.003   4.709  15.990 -1.4418 -0.8419  1.7706
 8606SOL    HW237281   3.086   0.100  16.002 -0.6332  3.5824  3.8043
 8607SOL     OW37282   1.882   0.718   8.162 -0.2338 -0.1868  0.6566
 8607SOL    HW137283   1.788   0.706   8.149 -0.4586 -1.1488  3.0920
 8607SOL    HW237284   1.883   0.806   8.200  1.5596 -0.7480  1.9524
 8608SOL     OW37285   2.087   4.507  13.154  0.2747  0.0118 -0.5353
 8608SOL    HW137286   2.085   4.557  13.236 -2.7174  0.1568 -0.6638
 8608SOL    HW237287   2.078   4.578  13.090 -0.4827  0.4523  0.0453
 8609SOL     OW37288   0.463   3.226  14.790 -0.4222 -1.0404  0.2922
 8609SOL    HW137289   0.464   3.144  14.741 -0.2181 -1.0336  0.2844
 8609SOL    HW237290   0.400   3.280  14.742 -0.1139  0.0828  1.1526
 8610SOL     OW37291   2.816   4.386  11.334 -0.5253 -0.2407  0.1496
 8610SOL    HW137292   2.872   4.369  11.258 -0.3362 -0.5282  0.3530
 8610SOL    HW237293   2.853   4.332  11.403 -1.3561 -0.3142  0.5259
 8611SOL     OW37294   0.651   0.749  14.452  0.1711 -0.0113 -0.2880
 8611SOL    HW137295   0.635   0.711  14.365  0.9423 -1.3361  0.1454
 8611SOL    HW237296   0.583   0.693  14.490 -0.4679 -1.8872 -4.1512
 8612SOL     OW37297   1.020   3.966   4.651  0.5815  0.6373 -0.0637
 8612SOL    HW137298   1.059   3.890   4.608 -2.1457 -1.3065  0.8750
 8612SOL    HW237299   1.075   4.035   4.616 -0.7401  2.9345  2.4078
 8613SOL     OW37300   3.181   4.472  13.885  0.0298 -0.2912 -0.3142
 8613SOL    HW137301   3.153   4.562  13.870 -0.8319 -0.5205 -0.0406
 8613SOL    HW237302   3.272   4.488  13.911  0.7134 -1.3956 -2.0183
 8614SOL     OW37303   0.319   4.614   8.613 -0.0720  0.5343 -0.0317
 8614SOL    HW137304   0.350   4.703   8.601  3.5476 -0.8011 -0.7109
 8614SOL    HW237305   0.230   4.619   8.648 -0.4246 -2.1717 -0.4920
 8615SOL     OW37306   0.190   3.061   9.669  0.2258 -0.3153 -0.3449
 8615SOL    HW137307   0.279   3.089   9.648  0.6243  0.8157  2.8684
 8615SOL    HW237308   0.144   3.145   9.671 -3.2484 -2.1807 -1.7093
 8616SOL     OW37309   2.469   3.714   4.248  0.1460 -0.2610 -0.1216
 8616SOL    HW137310   2.495   3.626   4.221 -0.8624 -0.0698 -1.7159
 8616SOL    HW237311   2.523   3.734   4.324  0.1710  0.5047 -0.3355
 8617SOL     OW37312   1.807   0.758  17.568 -0.5561  0.5320 -0.2213
 8617SOL    HW137313   1.760   0.798  17.642 -0.0675 -0.3733  0.5783
 8617SOL    HW237314   1.736   0.744  17.506  1.2351  0.0164 -2.1523
 8618SOL     OW37315   3.741   0.398  16.243 -0.3311  0.3255 -0.1373
 8618SOL    HW137316   3.757   0.360  16.156 -0.8134  0.5638 -0.3322
 8618SOL    HW237317   3.819   0.451  16.259  0.6711 -1.2691  0.2490
 8619SOL     OW37318   1.373   1.626   7.459 -0.2649 -0.6111  0.5614
 8619SOL    HW137319   1.340   1.713   7.482 -2.5550 -1.5672  0.8898
 8619SOL    HW237320   1.393   1.586   7.543  1.8755  1.2060  0.9148
 8620SOL     OW37321   3.365   2.209   6.067  0.2201 -0.2178  0.5069
 8620SOL    HW137322   3.459   2.214   6.051  0.1619 -1.5471 -0.2773
 8620SOL    HW237323   3.335   2.248   5.985 -1.8127 -0.7994  0.9798
 8621SOL     OW37324   1.189   0.535   2.713  0.3889 -0.2742  0.3458
 8621SOL    HW137325   1.102   0.551   2.675  0.3450  2.5943  1.6274
 8621SOL    HW237326   1.209   0.446   2.683  0.3516 -0.0386 -0.3804
 8622SOL     OW37327   3.285   4.573   6.145  0.2952 -0.4489 -0.2246
 8622SOL    HW137328   3.307   4.559   6.237  0.2571 -2.1727 -0.4633
 8622SOL    HW237329   3.370   4.598   6.108  0.2249  2.3754  1.5890
 8623SOL     OW37330   2.217   2.062   6.163 -0.1630 -0.3861 -0.0635
 8623SOL    HW137331   2.224   2.099   6.075 -1.3939  3.0420  1.2723
 8623SOL    HW237332   2.303   2.086   6.197 -0.7742  2.4824 -0.5421
 8624SOL     OW37333   2.113   3.389   7.232 -0.2775  0.2492 -0.0317
 8624SOL    HW137334   2.142   3.419   7.146  0.1618 -0.4588 -0.1314
 8624SOL    HW237335   2.164   3.308   7.229  1.0755  1.1846 -2.2683
 8625SOL     OW37336   1.901   1.276  13.072  0.2375  0.7595 -0.1899
 8625SOL    HW137337   1.905   1.320  12.987 -0.6773 -1.5530 -1.4269
 8625SOL    HW237338   1.919   1.185  13.048  1.2417  0.3102  2.3272
 8626SOL     OW37339   1.416   3.621   4.704  0.8535  0.2508 -0.5258
 8626SOL    HW137340   1.508   3.594   4.703  1.6384  3.0321 -1.4619
 8626SOL    HW237341   1.375   3.546   4.747 -3.7575  0.9647 -3.6802
 8627SOL     OW37342   2.789   2.776   9.295 -0.0932 -0.3852 -0.2175
 8627SOL    HW137343   2.764   2.763   9.386 -1.3066 -1.8390 -0.7481
 8627SOL    HW237344   2.847   2.703   9.276  1.0795 -0.1545  2.5298
 8628SOL     OW37345   2.955   0.910  15.101  0.0741 -0.4012  0.4859
 8628SOL    HW137346   2.912   0.988  15.065  3.4168  1.6671  0.9846
 8628SOL    HW237347   3.003   0.950  15.173 -0.3933 -0.5035  0.8587
 8629SOL     OW37348   3.863   2.940   6.187 -0.1594 -1.0387 -0.0760
 8629SOL    HW137349   3.898   3.027   6.167 -3.1930 -0.2372 -1.8325
 8629SOL    HW237350   3.772   2.959   6.208  0.1430 -0.1507  0.4417
 8630SOL     OW37351   3.315   2.699   4.614  0.2019 -0.1951  0.5045
 8630SOL    HW137352   3.282   2.625   4.665  0.0039  0.8769  1.9311
 8630SOL    HW237353   3.328   2.756   4.690  1.4461  1.6605 -1.0778
 8631SOL     OW37354   1.526   3.774   5.514  0.0478 -0.1092  0.4996
 8631SOL    HW137355   1.468   3.849   5.500 -0.1015  0.1756  2.7289
 8631SOL    HW237356   1.539   3.765   5.608 -0.9227  2.7122  0.8964
 8632SOL     OW37357   0.766   3.025  15.442  0.1927  0.2947  0.1258
 8632SOL    HW137358   0.827   3.039  15.514 -1.3088 -0.9815  1.6360
 8632SOL    HW237359   0.776   3.100  15.383  0.3714 -0.0968 -0.3394
 8633SOL     OW37360   1.614   2.689   6.014  0.2381 -0.2917  0.3942
 8633SOL    HW137361   1.622   2.609   5.961  0.1755 -0.1666  0.1992
 8633SOL    HW237362   1.556   2.651   6.080 -0.6512  1.2813  0.5120
 8634SOL     OW37363   1.711   4.353   2.522 -0.0809 -0.0657  0.5436
 8634SOL    HW137364   1.658   4.369   2.600 -0.1414 -0.6936  0.6347
 8634SOL    HW237365   1.700   4.439   2.483 -0.5246 -0.6661 -0.6615
 8635SOL     OW37366   1.739   1.257  10.307 -0.0131 -0.0371 -0.2187
 8635SOL    HW137367   1.823   1.240  10.263 -1.3062 -0.4156 -2.5576
 8635SOL    HW237368   1.673   1.270  10.239  0.3327 -3.5288 -1.2226
 8636SOL     OW37369   3.794   0.519  10.437 -0.3134  0.6221  0.5397
 8636SOL    HW137370   3.835   0.462  10.502 -2.2831 -0.9176  0.4296
 8636SOL    HW237371   3.718   0.463  10.421 -0.3381  0.0190  2.7846
 8637SOL     OW37372   3.214   0.946   5.893 -0.1168  0.2380 -0.2504
 8637SOL    HW137373   3.236   0.861   5.931  5.1095  0.5350 -2.5674
 8637SOL    HW237374   3.297   0.966   5.849  0.0824 -0.6848 -0.2903
 8638SOL     OW37375   3.076   2.355  15.084 -0.6883 -0.3213  0.0392
 8638SOL    HW137376   3.129   2.431  15.107  0.4651 -1.1526  0.1009
 8638SOL    HW237377   2.999   2.363  15.141 -2.7386  0.2103 -2.8257
 8639SOL     OW37378   3.375   4.158   4.719  0.1713  0.1066  0.3840
 8639SOL    HW137379   3.424   4.112   4.788 -0.1082 -0.5034  0.1676
 8639SOL    HW237380   3.429   4.236   4.703 -0.1489  0.1478 -0.4953
 8640SOL     OW37381   1.731   0.680  13.585  0.8265 -0.0681  0.2215
 8640SOL    HW137382   1.731   0.678  13.681 -0.3096 -0.8816  0.1957
 8640SOL    HW237383   1.816   0.641  13.568  0.6809 -0.8564  1.3271
 8641SOL     OW37384   3.860   0.768  10.387 -0.5907  0.4615 -0.6096
 8641SOL    HW137385   3.834   0.677  10.403 -1.6641  0.9017  0.1017
 8641SOL    HW237386   3.771   0.794  10.364 -1.5303 -2.3541 -0.1707
 8642SOL     OW37387   1.788   4.385   7.977  0.1290  0.3498 -0.1496
 8642SOL    HW137388   1.822   4.387   8.067 -2.2104  0.9983  0.7381
 8642SOL    HW237389   1.713   4.440   7.998 -1.4813 -1.7043 -0.4976
 8643SOL     OW37390   4.328   0.661   6.783 -0.1488  0.6374 -0.9019
 8643SOL    HW137391   4.404   0.698   6.739 -0.9753  3.5000  0.1127
 8643SOL    HW237392   4.277   0.738   6.806 -0.1857  0.6722 -1.1042
 8644SOL     OW37393   0.854   1.543   0.411 -0.4051  0.6395  0.1121
 8644SOL    HW137394   0.860   1.634   0.440 -0.9263  0.5930  0.3693
 8644SOL    HW237395   0.917   1.495   0.464 -1.1496 -1.0871 -0.5831
 8645SOL     OW37396   1.383   4.248   5.903  0.4933 -0.0793 -0.8934
 8645SOL    HW137397   1.377   4.216   5.992 -1.1376  0.6996 -0.7154
 8645SOL    HW237398   1.373   4.175   5.842  0.3260 -0.2343 -0.6807
 8646SOL     OW37399   1.515   1.483   3.632 -0.1292  0.9544  0.5418
 8646SOL    HW137400   1.517   1.387   3.635 -2.9989  0.8715 -0.1388
 8646SOL    HW237401   1.516   1.509   3.540 -1.2373  3.3118  1.2052
 8647SOL     OW37402   0.786   3.965   3.991 -0.4003  1.3792  0.1801
 8647SOL    HW137403   0.852   4.034   4.002  0.7132  0.4352 -0.5269
 8647SOL    HW237404   0.755   3.951   4.080 -2.2456 -0.9818 -0.8438
 8648SOL     OW37405   2.035   4.086   7.825  0.2138 -0.0454 -0.1537
 8648SOL    HW137406   1.951   4.130   7.813 -0.2322 -1.3780 -1.8736
 8648SOL    HW237407   2.022   4.023   7.896 -0.9635  0.1127 -0.2226
 8649SOL     OW37408   0.694   3.082  14.848  0.1077 -0.1539  0.5068
 8649SOL    HW137409   0.746   3.093  14.928 -2.5959  1.5912  2.0134
 8649SOL    HW237410   0.636   3.158  14.840  0.9189  0.3331 -0.8580
 8650SOL     OW37411   1.289   3.749   5.100 -0.4349 -0.2328  0.3171
 8650SOL    HW137412   1.360   3.738   5.163  0.6427 -0.2522 -0.8867
 8650SOL    HW237413   1.318   3.684   5.035 -0.8828 -2.1187  2.0046
 8651SOL     OW37414   4.257   2.569   3.242  0.2122  0.4401 -0.5740
 8651SOL    HW137415   4.320   2.527   3.300  1.3083  1.1040 -1.2738
 8651SOL    HW237416   4.244   2.647   3.297 -0.3098 -0.2534  0.2751
 8652SOL     OW37417   2.499   1.415  14.374 -0.3392 -0.0147 -0.2937
 8652SOL    HW137418   2.414   1.447  14.405 -0.5410 -0.9089  0.0941
 8652SOL    HW237419   2.469   1.345  14.316 -3.1753  1.0941 -0.1582
 8653SOL     OW37420   3.249   4.352   1.226 -0.0122 -0.3532 -0.2691
 8653SOL    HW137421   3.164   4.329   1.189 -0.5212 -1.2613  1.5112
 8653SOL    HW237422   3.305   4.286   1.184 -2.3460 -2.5032  0.0133
 8654SOL     OW37423   1.135   0.432   7.365 -0.3894  0.2144 -0.1905
 8654SOL    HW137424   1.208   0.464   7.312  0.7704 -1.2807  0.5019
 8654SOL    HW237425   1.057   0.432   7.309 -1.1362  0.0568  0.8663
 8655SOL     OW37426   1.876   0.894  11.403  0.2289 -0.2682  0.1269
 8655SOL    HW137427   1.909   0.936  11.483 -0.6267 -2.5037  1.6677
 8655SOL    HW237428   1.947   0.893  11.339  0.4155 -1.6227  0.3450
 8656SOL     OW37429   4.714   4.650   5.920  0.3448 -0.6542  0.5581
 8656SOL    HW137430   0.077   4.663   5.957 -0.3204 -0.1055  1.9324
 8656SOL    HW237431   0.003   4.724   5.862  0.0051 -0.9869  0.0489
 8657SOL     OW37432   1.863   0.520   5.653 -0.5628 -0.1534 -0.3698
 8657SOL    HW137433   1.953   0.503   5.681  0.3326 -0.2781 -3.3338
 8657SOL    HW237434   1.840   0.570   5.731  1.8779 -0.2099  0.4006
 8658SOL     OW37435   4.401   4.153   7.731  0.0014  0.4313  0.9759
 8658SOL    HW137436   4.353   4.148   7.814 -0.2945 -1.7012  0.6943
 8658SOL    HW237437   4.348   4.206   7.672 -1.8027 -0.9360  1.3385
 8659SOL     OW37438   1.526   0.731   4.396 -0.0589 -0.4676 -0.1489
 8659SOL    HW137439   1.547   0.670   4.325 -2.4301  1.2503 -2.3313
 8659SOL    HW237440   1.470   0.676   4.452  0.7556  0.7046  1.8250
 8660SOL     OW37441   4.194   2.317   4.534 -0.7122  0.2406 -0.0774
 8660SOL    HW137442   4.115   2.336   4.585 -0.7834  2.6287 -1.0654
 8660SOL    HW237443   4.214   2.228   4.564  1.4002  1.2201  1.4261
 8661SOL     OW37444   1.469   1.058   2.107 -0.4334  0.1316  0.1922
 8661SOL    HW137445   1.421   1.138   2.129 -2.7182 -0.8321 -1.4135
 8661SOL    HW237446   1.527   1.035   2.180 -2.1175 -2.0718  0.8173
 8662SOL     OW37447   1.267   4.127   1.681  0.0380 -0.3182 -0.0779
 8662SOL    HW137448   1.244   4.040   1.650  2.2959 -0.3236 -1.7268
 8662SOL    HW237449   1.279   4.172   1.598 -0.1489  1.0685  0.6424
 8663SOL     OW37450   2.067   2.052   3.197 -0.3353 -0.2278 -0.5657
 8663SOL    HW137451   2.061   1.970   3.149 -0.5734 -0.5684  0.0413
 8663SOL    HW237452   2.155   2.051   3.236 -0.6561 -1.9523  0.1226
 8664SOL     OW37453   2.971   1.398   3.610 -0.3903  0.4588 -0.1495
 8664SOL    HW137454   2.968   1.324   3.549 -1.3923 -0.4609  1.0428
 8664SOL    HW237455   2.880   1.422   3.597 -0.6077  0.2446  1.0554
 8665SOL     OW37456   0.565   1.681   3.449 -0.0402 -0.3868  0.5809
 8665SOL    HW137457   0.608   1.760   3.484  0.8671  0.6372 -2.8757
 8665SOL    HW237458   0.613   1.618   3.503 -1.7239  0.5956  3.2649
 8666SOL     OW37459   2.967   3.081  11.390  0.1029  0.0079 -0.2210
 8666SOL    HW137460   2.924   3.019  11.331  1.0224 -0.9936  0.1599
 8666SOL    HW237461   3.010   3.023  11.453 -0.4990  0.3204  0.4779
 8667SOL     OW37462   0.338   1.247   7.909  0.0599  0.2383 -0.0800
 8667SOL    HW137463   0.285   1.300   7.968  0.2672  0.4306 -0.0653
 8667SOL    HW237464   0.325   1.285   7.822  1.6491  2.7380  0.7737
 8668SOL     OW37465   0.991   2.342  13.463  0.0103  0.4532 -0.6719
 8668SOL    HW137466   0.907   2.350  13.508  0.7332 -0.2612  0.8032
 8668SOL    HW237467   1.027   2.429  13.482 -3.7307  1.3064  2.5045
 8669SOL     OW37468   1.539   0.545   8.443 -0.7091  0.0013 -0.3505
 8669SOL    HW137469   1.534   0.513   8.533 -2.7767  2.0537  0.2803
 8669SOL    HW237470   1.534   0.641   8.448 -0.4960 -0.1915  3.5215
 8670SOL     OW37471   4.690   3.592  12.657  0.0117 -0.5411 -0.5604
 8670SOL    HW137472   4.616   3.594  12.717  0.3502 -2.9194 -0.0719
 8670SOL    HW237473   0.036   3.601  12.720 -0.5450 -1.3640  0.1697
 8671SOL     OW37474   1.336   4.366  16.737  0.0207  0.5611  0.4602
 8671SOL    HW137475   1.404   4.431  16.752  0.6865 -0.0471  0.0877
 8671SOL    HW237476   1.257   4.415  16.712 -1.2861 -1.1669  1.2394
 8672SOL     OW37477   2.270   3.009   5.079  0.4696 -0.0477  0.0360
 8672SOL    HW137478   2.362   2.990   5.098  0.9054  1.4243 -0.5448
 8672SOL    HW237479   2.236   2.920   5.076  0.3735  0.0003 -0.2945
 8673SOL     OW37480   2.776   2.764  13.386 -0.0399 -0.6373  0.0968
 8673SOL    HW137481   2.813   2.843  13.348 -0.8306 -0.0439  0.5634
 8673SOL    HW237482   2.682   2.764  13.366 -0.0325  1.3617  0.0743
 8674SOL     OW37483   2.253   0.991   1.288 -0.5393 -0.3477  0.1900
 8674SOL    HW137484   2.221   1.076   1.260 -1.7398 -0.5209  1.0330
 8674SOL    HW237485   2.200   0.978   1.366 -1.6653 -1.5200 -0.7781
 8675SOL     OW37486   4.355   3.911  13.900 -0.0453  0.0666 -0.9640
 8675SOL    HW137487   4.415   3.936  13.830  0.3991  0.7266 -0.3428
 8675SOL    HW237488   4.272   3.928  13.856  0.2632  0.1793 -1.4984
 8676SOL     OW37489   3.443   0.171   1.887 -1.0658 -0.1473 -0.0696
 8676SOL    HW137490   3.444   0.242   1.823 -2.4365 -0.8171 -0.8367
 8676SOL    HW237491   3.417   0.098   1.831 -0.4771  0.1617 -0.7446
 8677SOL     OW37492   1.173   3.233  15.699  0.8770 -1.1541  0.3052
 8677SOL    HW137493   1.165   3.154  15.754  1.3058 -0.2613  1.6393
 8677SOL    HW237494   1.266   3.226  15.679  1.6888  0.4934  3.5185
 8678SOL     OW37495   1.062   4.350   6.576 -0.2562  0.0315  0.2665
 8678SOL    HW137496   1.065   4.415   6.646  0.2535  1.0450 -0.7034
 8678SOL    HW237497   1.026   4.400   6.502 -1.1547  0.7191  1.1621
 8679SOL     OW37498   4.221   1.686  15.727  0.3392 -0.0518  0.6585
 8679SOL    HW137499   4.186   1.620  15.667  0.1070 -0.4758  1.2575
 8679SOL    HW237500   4.202   1.756  15.665 -0.7170 -0.9172  0.0020
 8680SOL     OW37501   1.019   3.190   4.427 -0.1417 -0.2718  0.0783
 8680SOL    HW137502   1.005   3.138   4.506  1.0427 -1.1860 -0.3246
 8680SOL    HW237503   1.110   3.216   4.435 -0.0188  0.3814 -3.1050
 8681SOL     OW37504   4.617   1.791   7.267 -0.4335 -0.2762  0.5621
 8681SOL    HW137505   4.708   1.760   7.268 -0.1267  0.5794 -1.9995
 8681SOL    HW237506   4.620   1.836   7.183 -3.8706  0.3133  0.7736
 8682SOL     OW37507   4.624   1.567  12.378  0.4585  0.2466 -0.1095
 8682SOL    HW137508   4.537   1.573  12.416  0.4631  1.0540 -0.2293
 8682SOL    HW237509   4.625   1.642  12.319 -0.3447 -0.7827 -1.4107
 8683SOL     OW37510   2.216   0.134   9.258 -0.1719 -0.4360  0.2268
 8683SOL    HW137511   2.152   0.104   9.322 -0.5861  0.2061  0.1069
 8683SOL    HW237512   2.288   0.071   9.263  0.4096  0.0372 -2.0785
 8684SOL     OW37513   2.187   4.460   8.829 -0.1932  0.2970 -0.3615
 8684SOL    HW137514   2.139   4.458   8.912  2.0051 -0.5735  0.8962
 8684SOL    HW237515   2.222   4.371   8.826 -1.2965 -0.1626  0.3774
 8685SOL     OW37516   3.290   2.718  14.116  0.0388  0.2467  0.0468
 8685SOL    HW137517   3.359   2.667  14.158  0.8055  0.3866 -1.0473
 8685SOL    HW237518   3.257   2.783  14.178 -0.2086 -0.7566  0.9457
 8686SOL     OW37519   1.025   1.783   9.610  0.0387 -0.0963 -0.3570
 8686SOL    HW137520   0.994   1.845   9.676 -0.1278 -0.4013 -0.1500
 8686SOL    HW237521   1.117   1.808   9.600  0.0601 -0.4334 -1.0042
 8687SOL     OW37522   3.221   3.593  10.503  0.7254 -0.1314  0.2909
 8687SOL    HW137523   3.158   3.649  10.456  1.3937 -0.2807 -0.7993
 8687SOL    HW237524   3.163   3.519  10.519  0.2585  0.9211  3.3201
 8688SOL     OW37525   2.676   2.574   8.303 -0.5265 -0.0434 -0.5046
 8688SOL    HW137526   2.627   2.539   8.228 -0.1606  1.4395 -1.4342
 8688SOL    HW237527   2.713   2.490   8.330  0.5039  1.0456  1.4145
 8689SOL     OW37528   1.794   4.159   1.730 -0.0851 -0.6722 -0.0385
 8689SOL    HW137529   1.878   4.145   1.686 -0.7809  0.0930 -1.6058
 8689SOL    HW237530   1.737   4.085   1.710 -1.7465 -0.5225  4.0047
 8690SOL     OW37531   0.355   4.422   1.776 -0.4079  0.6635  0.3891
 8690SOL    HW137532   0.262   4.421   1.799 -0.9413 -2.5761 -1.8408
 8690SOL    HW237533   0.364   4.327   1.766 -1.0786  0.3021  2.9972
 8691SOL     OW37534   3.978   2.807   8.257 -0.1570  0.2025 -1.6206
 8691SOL    HW137535   4.006   2.898   8.248 -0.4794  0.4901  0.3271
 8691SOL    HW237536   4.026   2.771   8.183 -0.5991 -2.4440 -0.5958
 8692SOL     OW37537   0.857   3.083  16.888 -0.4123  0.5857  0.7435
 8692SOL    HW137538   0.769   3.120  16.894 -0.4288  0.3738  1.8572
 8692SOL    HW237539   0.854   3.016  16.819 -2.4587 -0.7070  2.0797
 8693SOL     OW37540   1.252   2.712   6.686 -0.4105  0.5396 -0.4597
 8693SOL    HW137541   1.166   2.672   6.679 -1.4508  2.1727  2.8445
 8693SOL    HW237542   1.244   2.763   6.767  0.2128 -0.0860 -0.0044
 8694SOL     OW37543   2.245   1.504  16.542  0.1330  0.6229 -0.6867
 8694SOL    HW137544   2.284   1.567  16.603  1.0786 -1.3689  0.7745
 8694SOL    HW237545   2.161   1.546  16.527  1.4473  3.5361  0.1532
 8695SOL     OW37546   3.887   0.838  17.015  0.7693  0.6169 -0.1685
 8695SOL    HW137547   3.902   0.825  16.921 -0.2394  2.0897 -0.5396
 8695SOL    HW237548   3.978   0.825  17.043  1.2444 -0.0231 -1.9940
 8696SOL     OW37549   0.695   2.790   7.469  0.1391  0.1435  0.3108
 8696SOL    HW137550   0.743   2.825   7.544  0.7247  1.3641 -0.6268
 8696SOL    HW237551   0.629   2.859   7.458  1.5691  1.6640  1.3152
 8697SOL     OW37552   2.907   2.818  17.687  0.5329  0.0386  0.1659
 8697SOL    HW137553   2.830   2.762  17.692  0.6088  0.1075  2.1034
 8697SOL    HW237554   2.971   2.762   0.028  1.5560 -1.0832 -2.8644
 8698SOL     OW37555   1.855   2.229   2.261  0.0839  0.1277  0.3094
 8698SOL    HW137556   1.832   2.305   2.314 -1.3090  1.5180 -2.2759
 8698SOL    HW237557   1.932   2.247   2.207 -0.5651 -1.3585 -1.1285
 8699SOL     OW37558   3.477   1.621   3.140 -0.4117  0.4785  0.2184
 8699SOL    HW137559   3.382   1.613   3.131 -0.4175 -0.8139  1.4223
 8699SOL    HW237560   3.482   1.678   3.218 -1.3786 -0.8894  1.2770
 8700SOL     OW37561   4.555   2.798   3.869  0.0736 -0.2142 -0.1285
 8700SOL    HW137562   4.540   2.788   3.963  3.4288 -0.2086  0.4068
 8700SOL    HW237563   4.475   2.833   3.830  0.6458  1.0583 -0.1489
 8701SOL     OW37564   0.123   4.103  17.221  0.0401  0.0889  0.3441
 8701SOL    HW137565   0.122   4.035  17.289  0.1166  0.3168  0.5720
 8701SOL    HW237566   0.035   4.137  17.237  0.0926  0.2732  0.2360
 8702SOL     OW37567   4.542   1.947   9.603 -0.0017  0.2253 -0.6617
 8702SOL    HW137568   4.545   1.874   9.541  2.0788 -0.2902  0.0469
 8702SOL    HW237569   4.635   1.967   9.595 -0.4615  2.6155  0.0281
 8703SOL     OW37570   3.043   2.869   3.600 -0.6046 -0.1600 -0.1971
 8703SOL    HW137571   3.065   2.776   3.607 -2.5551 -0.6798 -1.0938
 8703SOL    HW237572   3.114   2.912   3.552 -0.3019  2.6526  2.7285
 8704SOL     OW37573   3.296   4.576   9.936  0.1164  0.3011 -0.4871
 8704SOL    HW137574   3.261   4.576   9.847 -0.7240 -0.9706 -0.1578
 8704SOL    HW237575   3.380   4.530   9.928  0.1000  0.1226  0.3031
 8705SOL     OW37576   3.566   3.423   2.396  0.4022 -0.0244 -0.0821
 8705SOL    HW137577   3.482   3.422   2.440  1.3108 -2.3122  1.5912
 8705SOL    HW237578   3.612   3.474   2.463  0.4994  0.2962 -0.3892
 8706SOL     OW37579   4.064   3.521   1.239 -0.2918 -0.2659  0.0276
 8706SOL    HW137580   4.053   3.568   1.322 -1.4827  0.2479 -0.4196
 8706SOL    HW237581   4.157   3.498   1.237 -0.7386 -1.8708 -2.3542
 8707SOL     OW37582   2.477   0.344   3.123  0.2968 -0.9133 -0.3995
 8707SOL    HW137583   2.409   0.314   3.064 -0.3895 -2.3245  1.0996
 8707SOL    HW237584   2.472   0.283   3.197 -1.0687  1.9892  1.8983
 8708SOL     OW37585   4.264   4.091   6.320 -0.5596 -0.4811 -0.6817
 8708SOL    HW137586   4.232   4.016   6.369  1.0354 -0.1956  0.8005
 8708SOL    HW237587   4.342   4.052   6.281 -0.8902  0.2235 -2.0481
 8709SOL     OW37588   4.059   0.964   5.978 -0.0334  0.0077 -0.1193
 8709SOL    HW137589   4.017   0.879   5.970  1.3392 -0.8529  1.8837
 8709SOL    HW237590   3.985   1.023   5.992 -0.9126 -1.6186  2.0690
 8710SOL     OW37591   4.127   3.893  14.725 -0.2766 -0.4424 -0.1586
 8710SOL    HW137592   4.096   3.846  14.648 -1.1668 -0.4411  0.2036
 8710SOL    HW237593   4.195   3.944  14.682 -2.3195  2.3482 -0.0673
 8711SOL     OW37594   0.761   3.808   7.457  0.1353  0.3493  0.3779
 8711SOL    HW137595   0.679   3.798   7.409 -0.7333 -1.4098  2.2531
 8711SOL    HW237596   0.754   3.902   7.478 -0.4179  0.6315 -1.0535
 8712SOL     OW37597   3.262   4.066  12.912 -0.2596  0.0591  0.0631
 8712SOL    HW137598   3.203   4.027  12.977  0.0510  1.3384  1.1266
 8712SOL    HW237599   3.239   4.156  12.934 -1.1819  0.1765 -1.3953
 8713SOL     OW37600   3.549   2.936   4.464  0.1695  0.4920  0.2430
 8713SOL    HW137601   3.584   2.987   4.538 -1.3754  1.8832  0.0252
 8713SOL    HW237602   3.602   2.858   4.477 -0.3576 -0.3374 -2.6084
 8714SOL     OW37603   2.261   0.449   8.931 -0.2675 -0.4979 -0.0281
 8714SOL    HW137604   2.255   0.544   8.934 -0.8991 -0.6461  3.2192
 8714SOL    HW237605   2.339   0.436   8.984  0.1012 -1.5845 -0.8090
 8715SOL     OW37606   3.395   1.643   3.745  0.7126 -0.1819  0.7079
 8715SOL    HW137607   3.439   1.559   3.735  1.0776 -0.1219  1.7089
 8715SOL    HW237608   3.312   1.605   3.772  1.1205 -0.8578  1.0051
 8716SOL     OW37609   1.113   2.227   6.258 -0.4758 -0.0526  0.5599
 8716SOL    HW137610   1.052   2.165   6.217  0.6091  0.3499 -1.6939
 8716SOL    HW237611   1.192   2.207   6.207  0.5171 -0.0601  2.1151
 8717SOL     OW37612   3.155   1.575   2.069 -0.2114 -0.4828  0.3354
 8717SOL    HW137613   3.223   1.605   2.130  0.9329 -1.0844 -0.6625
 8717SOL    HW237614   3.178   1.485   2.045  0.7604 -0.4053  0.9321
 8718SOL     OW37615   3.119   2.197  16.822 -0.2558  0.3594 -0.0368
 8718SOL    HW137616   3.159   2.205  16.909 -0.8442  1.3266  0.1447
 8718SOL    HW237617   3.037   2.246  16.833  0.0394  0.7499  0.4727
 8719SOL     OW37618   2.551   3.363   1.900 -0.3001 -0.3913 -0.1256
 8719SOL    HW137619   2.465   3.364   1.860 -0.2928  0.9127 -0.1285
 8719SOL    HW237620   2.588   3.285   1.858 -1.9155 -0.4319 -1.4461
 8720SOL     OW37621   2.469   0.613   3.108  0.0261  0.6669  1.1335
 8720SOL    HW137622   2.441   0.611   3.017  0.0273 -1.3297  1.1712
 8720SOL    HW237623   2.465   0.520   3.131 -0.2272  0.7094  1.2577
 8721SOL     OW37624   3.743   0.461   6.286  0.0306 -0.3945  0.3101
 8721SOL    HW137625   3.735   0.449   6.191  0.1703  1.0097  0.1289
 8721SOL    HW237626   3.769   0.553   6.284 -0.5172 -0.2676 -0.7056
 8722SOL     OW37627   0.015   3.984   6.158  0.1074  0.4107 -0.0192
 8722SOL    HW137628   0.030   3.954   6.247  1.0558  0.6040 -0.1176
 8722SOL    HW237629   0.005   3.896   6.121 -3.2990  1.3140 -1.2688
 8723SOL     OW37630   0.368   3.346   3.459 -0.3709  0.3569  0.5033
 8723SOL    HW137631   0.397   3.401   3.387 -0.0196 -0.8267 -0.2722
 8723SOL    HW237632   0.418   3.275   3.419  1.4296  1.7259  0.3363
 8724SOL     OW37633   2.228   2.674   5.522 -0.2834 -0.2868  0.0208
 8724SOL    HW137634   2.174   2.603   5.486  0.7816 -0.2986 -1.5210
 8724SOL    HW237635   2.189   2.755   5.491 -1.6211 -1.3520 -1.0737
 8725SOL     OW37636   2.652   1.792   5.919  0.3449  0.0702 -0.3675
 8725SOL    HW137637   2.572   1.826   5.959 -0.2181  3.1243 -4.0516
 8725SOL    HW237638   2.644   1.703   5.951 -0.9772 -0.2810 -1.6484
 8726SOL     OW37639   2.982   2.651   2.711 -0.0174  0.1366 -0.7167
 8726SOL    HW137640   3.053   2.609   2.760 -1.2203 -0.1713  0.7625
 8726SOL    HW237641   2.979   2.597   2.632  3.1368 -0.4171 -0.4585
 8727SOL     OW37642   4.280   0.411   0.641 -0.6429  0.1897  0.1428
 8727SOL    HW137643   4.242   0.323   0.652  0.8407 -0.3099  1.1695
 8727SOL    HW237644   4.215   0.467   0.597 -1.2432 -1.1002 -0.6264
 8728SOL     OW37645   1.622   2.926   5.333  0.0402  0.1177 -0.1354
 8728SOL    HW137646   1.692   2.878   5.379 -1.9609 -1.6791  1.0592
 8728SOL    HW237647   1.580   2.966   5.409 -0.7993 -0.5594 -0.2408
 8729SOL     OW37648   3.999   1.567   6.222 -0.0678 -0.0122  0.7615
 8729SOL    HW137649   3.949   1.638   6.183  0.8449 -0.4766 -1.2994
 8729SOL    HW237650   3.982   1.491   6.165 -1.7775  0.8773  0.0819
 8730SOL     OW37651   3.200   4.701   7.842 -0.3751 -0.1105  0.6912
 8730SOL    HW137652   3.220   4.710   7.935 -2.0126  2.1310  0.8162
 8730SOL    HW237653   3.113   4.663   7.855 -0.2608 -0.4165  0.5589
 8731SOL     OW37654   1.990   3.802   5.259  0.5014  0.0722  0.2545
 8731SOL    HW137655   2.064   3.832   5.311  0.4276 -0.8875  0.9008
 8731SOL    HW237656   1.913   3.824   5.311 -0.6741 -2.5350 -0.3924
 8732SOL     OW37657   2.582   1.511   8.091 -0.5475 -0.8343 -0.1497
 8732SOL    HW137658   2.619   1.530   8.005 -1.2368 -1.6816 -0.6322
 8732SOL    HW237659   2.658   1.472   8.136 -0.8450 -0.9153  0.2810
 8733SOL     OW37660   1.639   3.700   3.034  0.0348  0.1421 -0.3732
 8733SOL    HW137661   1.627   3.636   3.104 -2.5366 -0.9232 -1.8274
 8733SOL    HW237662   1.698   3.763   3.075 -1.2013 -0.0850  1.7955
 8734SOL     OW37663   3.471   4.437  11.151 -0.0169  0.7291 -0.0253
 8734SOL    HW137664   3.551   4.420  11.102  1.1117  1.1079  1.6971
 8734SOL    HW237665   3.477   4.367  11.215 -1.2404  0.2400 -0.4480
 8735SOL     OW37666   2.818   4.041  10.578 -0.4613  0.4231  0.2371
 8735SOL    HW137667   2.830   3.976  10.509 -1.0137  1.3460 -0.7295
 8735SOL    HW237668   2.883   4.002  10.636 -0.9888  0.3009  0.7496
 8736SOL     OW37669   2.242   2.598   6.849  0.3016 -0.0874 -0.6007
 8736SOL    HW137670   2.337   2.609   6.843  0.2455  1.4353  1.2092
 8736SOL    HW237671   2.239   2.583   6.944  0.8845 -0.7720 -0.6906
 8737SOL     OW37672   2.843   3.691   1.300 -0.1449 -0.3061 -0.3506
 8737SOL    HW137673   2.810   3.690   1.390 -1.5358  1.7327 -0.8441
 8737SOL    HW237674   2.919   3.748   1.312 -0.0981  0.3612 -4.0321
 8738SOL     OW37675   3.176   1.933   2.069 -0.0478  0.8783 -0.3319
 8738SOL    HW137676   3.266   1.944   2.100  0.2110  0.7083 -1.0290
 8738SOL    HW237677   3.131   1.929   2.154  1.1162 -1.1047  0.1847
 8739SOL     OW37678   4.646   1.951  13.968  0.0555 -0.2112  0.4927
 8739SOL    HW137679   4.689   1.969  14.052  1.8756 -1.6549 -0.1141
 8739SOL    HW237680   4.572   2.011  13.969 -1.1903 -1.7411 -1.2407
 8740SOL     OW37681   2.209   1.734  12.347 -0.7942  0.0884  0.0408
 8740SOL    HW137682   2.117   1.708  12.343 -0.5505 -0.9657  1.3767
 8740SOL    HW237683   2.251   1.656  12.312 -0.0474  0.5516 -0.1012
 8741SOL     OW37684   3.725   4.411   8.179 -0.2281  0.0788  0.0488
 8741SOL    HW137685   3.717   4.329   8.228  0.4461 -0.0514 -0.0524
 8741SOL    HW237686   3.704   4.379   8.091 -0.3994 -0.6148  0.3383
 8742SOL     OW37687   0.340   1.841   1.014  0.2195 -0.1194 -0.6179
 8742SOL    HW137688   0.385   1.926   1.015  2.3234 -1.2578  2.4457
 8742SOL    HW237689   0.321   1.844   1.108 -0.8870  2.8747 -0.9256
 8743SOL     OW37690   1.489   0.278   0.700 -0.0090  0.6677  0.7811
 8743SOL    HW137691   1.406   0.261   0.745 -1.4801  1.1056 -1.8072
 8743SOL    HW237692   1.543   0.304   0.774  0.5742  0.2164  0.5137
 8744SOL     OW37693   2.018   4.383  13.822  0.2416  0.1463 -0.0853
 8744SOL    HW137694   1.956   4.338  13.764 -0.0272 -1.9275  1.7969
 8744SOL    HW237695   2.101   4.344  13.796  0.0775 -0.3465  0.1288
 8745SOL     OW37696   4.540   4.721   6.236  0.4150  0.1035 -0.2810
 8745SOL    HW137697   4.497   0.039   6.162  1.9902  0.3806 -1.0365
 8745SOL    HW237698   4.465   4.703   6.292 -1.3691  1.9281 -2.0862
 8746SOL     OW37699   3.976   0.635   4.845 -0.4247  0.2757 -0.4591
 8746SOL    HW137700   3.945   0.704   4.786 -4.3884 -1.0303  0.1194
 8746SOL    HW237701   3.988   0.675   4.931 -0.6936 -0.3254 -0.1387
 8747SOL     OW37702   1.193   1.506   3.782 -0.3749 -0.8156  0.5547
 8747SOL    HW137703   1.161   1.543   3.700 -1.0574  2.2650  2.2028
 8747SOL    HW237704   1.115   1.477   3.829 -0.6075 -0.8486  0.1477
 8748SOL     OW37705   1.028   0.062   1.227 -0.2201 -0.0475 -0.1042
 8748SOL    HW137706   1.029   0.113   1.146 -1.9009  0.9839  0.5324
 8748SOL    HW237707   1.002   0.135   1.283 -2.5414 -1.6561  0.9284
 8749SOL     OW37708   4.543   2.550  15.230  0.2268 -0.0941 -0.1666
 8749SOL    HW137709   4.614   2.545  15.294 -0.6364 -3.9971  0.5167
 8749SOL    HW237710   4.465   2.570  15.283  0.1890 -1.1526  0.1771
 8750SOL     OW37711   3.265   0.304  11.313 -0.3037  0.0738  0.9048
 8750SOL    HW137712   3.259   0.310  11.218  2.9857 -1.7632  0.5984
 8750SOL    HW237713   3.216   0.223  11.330  1.8124 -0.9407  2.2638
 8751SOL     OW37714   4.202   1.821   3.984  0.1860  0.6859 -0.4611
 8751SOL    HW137715   4.228   1.751   4.043  2.1178  3.4743  2.0216
 8751SOL    HW237716   4.157   1.769   3.918 -1.2887 -0.7284  1.6639
 8752SOL     OW37717   3.203   2.831   7.813  0.2640 -0.3587  0.0792
 8752SOL    HW137718   3.154   2.779   7.876  2.0643  0.5252  2.2105
 8752SOL    HW237719   3.277   2.845   7.872 -0.5553 -2.5174  1.5977
 8753SOL     OW37720   2.587   4.371   8.972  0.1189 -0.5254 -0.8331
 8753SOL    HW137721   2.587   4.310   8.899 -1.0048  0.7238 -1.8730
 8753SOL    HW237722   2.650   4.434   8.938 -1.7471  1.3805 -0.6974
 8754SOL     OW37723   2.943   2.170   0.717 -0.1110 -0.1812  0.0292
 8754SOL    HW137724   3.003   2.174   0.792 -1.5626 -1.3194  1.2304
 8754SOL    HW237725   2.887   2.244   0.737  0.1974 -0.2072  0.9971
 8755SOL     OW37726   3.888   2.763   9.480  0.2643 -0.0369 -0.4725
 8755SOL    HW137727   3.869   2.849   9.518 -0.4172 -0.8436  1.0429
 8755SOL    HW237728   3.819   2.759   9.413  0.3678 -1.5989 -0.4952
 8756SOL     OW37729   1.210   0.181   9.059 -0.1319 -0.2585  0.4995
 8756SOL    HW137730   1.277   0.231   9.012 -1.0622 -0.7110 -1.3050
 8756SOL    HW237731   1.239   0.207   9.147  1.3991 -1.0939  0.2367
 8757SOL     OW37732   3.610   0.046   1.519 -0.6168  0.1654  0.5800
 8757SOL    HW137733   3.601   0.129   1.472  2.6236 -0.8113 -1.8224
 8757SOL    HW237734   3.689   0.017   1.472 -1.7661  0.3499 -1.4873
 8758SOL     OW37735   4.129   3.856   7.822 -0.6791 -0.1064  0.3965
 8758SOL    HW137736   4.163   3.918   7.887 -0.9580  0.7394 -0.2629
 8758SOL    HW237737   4.052   3.898   7.784 -1.1430 -0.3231  1.0905
 8759SOL     OW37738   2.019   1.872   6.231  0.3492 -0.0664 -0.0780
 8759SOL    HW137739   2.072   1.951   6.230 -0.5051  0.4822 -2.4527
 8759SOL    HW237740   1.997   1.868   6.138 -0.6136 -0.1844  0.1569
 8760SOL     OW37741   1.810   0.671   5.902 -0.1565  0.2505  0.1199
 8760SOL    HW137742   1.802   0.602   5.967  3.1827  0.9026  1.2320
 8760SOL    HW237743   1.755   0.738   5.941  2.7402  2.0132  1.1974
 8761SOL     OW37744   2.032   0.104   2.931  0.4510 -0.2625 -0.3500
 8761SOL    HW137745   2.106   0.047   2.908 -2.6447 -4.3334 -0.2029
 8761SOL    HW237746   2.015   0.150   2.849  0.6455 -0.0527 -0.2724
 8762SOL     OW37747   3.073   0.317   4.121 -0.3569  0.4650  0.3664
 8762SOL    HW137748   3.018   0.268   4.060 -1.1677  1.0280  0.6411
 8762SOL    HW237749   3.067   0.261   4.199 -0.4309  1.9793  1.4638
 8763SOL     OW37750   3.652   2.744  10.439 -0.1526  0.0069 -0.5836
 8763SOL    HW137751   3.621   2.826  10.479 -0.7695  0.0288 -1.1140
 8763SOL    HW237752   3.698   2.711  10.516  1.0580 -3.0908 -2.6609
 8764SOL     OW37753   0.289   0.173   4.178  0.7131 -0.4726  0.7372
 8764SOL    HW137754   0.339   0.091   4.182  0.0246 -1.0259 -1.8060
 8764SOL    HW237755   0.208   0.134   4.146  0.6009  1.2092 -1.0453
 8765SOL     OW37756   0.708   2.559   1.723  0.0778  0.3528 -0.4163
 8765SOL    HW137757   0.721   2.530   1.813 -3.4478 -1.6196 -0.5001
 8765SOL    HW237758   0.709   2.472   1.681 -1.9351  0.0437  0.1762
 8766SOL     OW37759   3.205   0.246   9.729  0.0395 -0.0415 -0.4826
 8766SOL    HW137760   3.205   0.234   9.634 -1.2889 -1.4636 -0.2924
 8766SOL    HW237761   3.254   0.171   9.761 -1.6405 -1.5205 -1.4216
 8767SOL     OW37762   3.136   3.495   6.715  0.1774 -0.4957  0.4256
 8767SOL    HW137763   3.136   3.508   6.620  2.6228 -0.5020  0.4264
 8767SOL    HW237764   3.214   3.545   6.737 -1.4686  2.3732 -0.2561
 8768SOL     OW37765   3.804   0.611   0.612  0.7604  0.0412  0.5193
 8768SOL    HW137766   3.732   0.639   0.556 -1.6779 -4.2682  1.4820
 8768SOL    HW237767   3.787   0.664   0.690 -2.1528 -2.5001  1.6001
 8769SOL     OW37768   0.673   1.391  10.546  0.0846  0.1721  0.3032
 8769SOL    HW137769   0.695   1.364  10.457 -0.3121  1.9133 -0.3106
 8769SOL    HW237770   0.580   1.408  10.533  0.4051 -0.6926 -2.8855
 8770SOL     OW37771   1.192   4.417   9.820  0.1221  0.5030 -0.1050
 8770SOL    HW137772   1.111   4.459   9.791  0.7665  0.0683 -2.4614
 8770SOL    HW237773   1.169   4.403   9.912  1.7378  0.8203  0.3420
 8771SOL     OW37774   3.562   3.069   8.616 -0.0190  0.2524 -0.1553
 8771SOL    HW137775   3.523   3.114   8.691 -3.1644 -2.0599 -0.4061
 8771SOL    HW237776   3.477   3.066   8.572 -0.0055  0.4709 -0.1961
 8772SOL     OW37777   3.551   2.663   2.243  0.0361 -0.2263 -0.0409
 8772SOL    HW137778   3.623   2.704   2.290  0.0667 -1.0383  0.6155
 8772SOL    HW237779   3.470   2.672   2.294  0.3843  1.5433  0.1693
 8773SOL     OW37780   1.489   1.101   8.379  0.8676 -0.2414 -0.3173
 8773SOL    HW137781   1.405   1.143   8.360  0.7545 -0.7797 -1.0067
 8773SOL    HW237782   1.540   1.164   8.429 -2.0063  0.5271  1.6497
 8774SOL     OW37783   0.347   1.714  14.114 -0.1229  0.0279  0.3286
 8774SOL    HW137784   0.389   1.690  14.032 -0.5743 -1.3792  0.5067
 8774SOL    HW237785   0.289   1.787  14.091  2.2123  1.1459 -1.9426
 8775SOL     OW37786   1.662   0.771   7.191 -0.0427 -0.0994 -0.5031
 8775SOL    HW137787   1.606   0.828   7.138 -1.6199 -0.7832  0.4383
 8775SOL    HW237788   1.605   0.741   7.262  0.1611 -0.2966 -0.4239
 8776SOL     OW37789   3.514   0.693   3.890  0.8419 -0.3554  0.1551
 8776SOL    HW137790   3.523   0.601   3.865  0.2628  0.2670 -2.3684
 8776SOL    HW237791   3.569   0.695   3.968  0.1024 -3.0057  0.7404
 8777SOL     OW37792   2.949   0.497   5.434  0.0360 -0.0040 -0.1174
 8777SOL    HW137793   2.965   0.584   5.398 -0.4006 -0.1864 -0.7391
 8777SOL    HW237794   2.892   0.522   5.508 -0.7803 -0.6702 -0.5242
 8778SOL     OW37795   3.098   2.599  16.292 -0.3558 -0.1665  0.2697
 8778SOL    HW137796   3.087   2.582  16.199 -0.0837  0.6337  0.0920
 8778SOL    HW237797   3.010   2.588  16.328 -0.5288 -0.7340 -0.3238
 8779SOL     OW37798   0.645   3.757  12.017 -0.4788 -0.4546 -0.6314
 8779SOL    HW137799   0.621   3.741  12.109  0.3457 -1.9214 -0.6814
 8779SOL    HW237800   0.733   3.792  12.032 -0.5045 -0.7310  0.1622
 8780SOL     OW37801   1.821   3.710  17.345 -0.1129 -0.0874  0.0722
 8780SOL    HW137802   1.889   3.716  17.411 -1.0953 -0.6190  1.1262
 8780SOL    HW237803   1.828   3.619  17.318  0.5584  0.6479 -2.2569
 8781SOL     OW37804   0.721   2.733  16.915  0.4281 -0.3892 -0.2312
 8781SOL    HW137805   0.639   2.730  16.866  1.3609  1.4104 -1.9106
 8781SOL    HW237806   0.776   2.762  16.842 -1.2234  2.3905 -0.3696
 8782SOL     OW37807   2.237   0.690   5.296 -0.6155 -0.4139  0.5010
 8782SOL    HW137808   2.235   0.758   5.229  0.6764  0.6429  1.5535
 8782SOL    HW237809   2.189   0.620   5.251 -1.3339  0.2354  0.2529
 8783SOL     OW37810   1.257   4.171   2.881  0.0229  0.3534  0.0182
 8783SOL    HW137811   1.340   4.145   2.921  0.4769  0.5744 -0.7775
 8783SOL    HW237812   1.219   4.086   2.854  0.4637  0.1193  0.1431
 8784SOL     OW37813   0.087   3.705   4.928  0.2862  0.0927  0.2792
 8784SOL    HW137814   0.164   3.737   4.882  0.4094 -0.1860  0.2924
 8784SOL    HW237815   0.121   3.633   4.981  0.6382 -0.1944 -0.3381
 8785SOL     OW37816   2.998   1.973   5.496 -0.9811 -0.2572  0.0123
 8785SOL    HW137817   3.092   1.972   5.516 -1.1905  2.4886  1.1733
 8785SOL    HW237818   2.966   1.921   5.569  1.4353 -1.5871  0.1371
 8786SOL     OW37819   4.474   2.501  14.632 -0.5078 -0.5438  0.1455
 8786SOL    HW137820   4.446   2.410  14.629  0.3030 -0.7960  0.1381
 8786SOL    HW237821   4.565   2.494  14.603 -0.2256 -1.1520  1.1865
 8787SOL     OW37822   4.359   4.489   2.983  0.3693  0.2972 -0.2244
 8787SOL    HW137823   4.283   4.438   3.011 -0.3013  2.6945  2.3571
 8787SOL    HW237824   4.360   4.550   3.056 -1.7297 -0.7062  0.6540
 8788SOL     OW37825   4.721   3.979  13.570 -0.1175 -0.0922 -0.0400
 8788SOL    HW137826   0.033   4.039  13.505 -2.5288 -0.8667 -2.1444
 8788SOL    HW237827   0.031   3.893  13.546 -0.9736 -0.6649  0.7357
 8789SOL     OW37828   3.677   4.597   4.785  0.0493  0.0794  0.0811
 8789SOL    HW137829   3.730   4.521   4.759 -0.7668  0.2866 -2.1753
 8789SOL    HW237830   3.732   4.662   4.742 -1.3855  0.4806 -1.1335
 8790SOL     OW37831   4.415   1.122   3.422 -0.6420 -0.1020  0.0296
 8790SOL    HW137832   4.429   1.028   3.433 -2.2687 -0.1348  1.8100
 8790SOL    HW237833   4.429   1.120   3.327 -0.8394 -1.6352  0.0294
 8791SOL     OW37834   2.516   0.478   1.986 -0.3474 -0.7171 -0.2476
 8791SOL    HW137835   2.586   0.516   2.038 -0.0209 -0.2966 -0.9989
 8791SOL    HW237836   2.432   0.516   2.012  0.0446 -0.8349  1.1682
 8792SOL     OW37837   2.744   4.679  15.791 -0.3964  0.6097  0.0920
 8792SOL    HW137838   2.805   4.674  15.718  1.7609 -0.5481  1.9768
 8792SOL    HW237839   2.661   4.677  15.743  0.8028  2.1623 -2.0539
 8793SOL     OW37840   2.641   2.998   6.342 -0.3401 -0.8310  0.2751
 8793SOL    HW137841   2.604   2.912   6.362 -0.7345 -0.2317  2.1006
 8793SOL    HW237842   2.581   3.038   6.280 -1.7443 -2.5126  0.5437
 8794SOL     OW37843   1.459   1.356  17.246 -0.2368 -0.0705  0.0948
 8794SOL    HW137844   1.465   1.336  17.153 -0.1563 -2.7151  0.6870
 8794SOL    HW237845   1.374   1.316  17.263 -1.0045  0.4718 -2.4322
 8795SOL     OW37846   2.850   3.186   7.367 -0.8416 -0.4013 -0.0210
 8795SOL    HW137847   2.898   3.112   7.404 -1.6405 -1.5792 -1.3438
 8795SOL    HW237848   2.892   3.186   7.281  3.7260  1.2541  2.2339
 8796SOL     OW37849   2.631   1.109   4.974 -0.3224 -0.3212  0.1624
 8796SOL    HW137850   2.682   1.145   4.901 -0.5055 -0.0349  0.1747
 8796SOL    HW237851   2.568   1.179   4.991  0.4349  0.0072  1.6472
 8797SOL     OW37852   4.309   1.980  14.153  0.1152  0.3214 -0.3798
 8797SOL    HW137853   4.367   2.021  14.089 -1.5075  1.1700 -1.2959
 8797SOL    HW237854   4.306   1.889  14.124  1.8673 -0.4671  1.8181
 8798SOL     OW37855   3.949   2.868   4.507  0.5344  0.3421  0.4112
 8798SOL    HW137856   3.862   2.904   4.523  0.5332 -0.0743  1.3289
 8798SOL    HW237857   3.945   2.839   4.416  2.1308 -0.7861  0.7071
 8799SOL     OW37858   1.535   0.781   9.543  0.1437 -0.7017  0.2966
 8799SOL    HW137859   1.552   0.859   9.490  0.3772  1.0880  3.0244
 8799SOL    HW237860   1.619   0.759   9.582  0.2052 -0.0015  0.5497
 8800SOL     OW37861   2.427   4.490  12.863 -0.6810  0.0072  0.7444
 8800SOL    HW137862   2.376   4.533  12.794 -0.7862 -2.9613 -1.0136
 8800SOL    HW237863   2.419   4.401  12.829  1.1645 -0.4111  1.3700
 8801SOL     OW37864   2.202   1.642   8.519 -0.3320 -0.4276 -0.2149
 8801SOL    HW137865   2.289   1.652   8.480  0.4287 -0.1751  1.5097
 8801SOL    HW237866   2.197   1.708   8.587 -0.4975 -0.0920 -0.5558
 8802SOL     OW37867   3.682   1.650   5.039 -0.2240  0.5031  0.5120
 8802SOL    HW137868   3.629   1.570   5.042  0.3729  0.1618  1.8895
 8802SOL    HW237869   3.666   1.672   4.947 -0.0004 -0.2334  0.2969
 8803SOL     OW37870   1.251   0.954   0.075  0.5872  0.4381 -0.7572
 8803SOL    HW137871   1.156   0.948   0.077  0.4574  1.8863 -2.7238
 8803SOL    HW237872   1.277   0.998   0.157  1.2812 -2.9697  0.8485
 8804SOL     OW37873   2.383   2.911  16.071  0.1311  0.2954  0.0399
 8804SOL    HW137874   2.421   2.846  16.130  0.8141  2.0199  1.5066
 8804SOL    HW237875   2.458   2.971  16.068 -0.3576  0.9008  0.0730
 8805SOL     OW37876   2.754   1.761  15.958 -0.6600  0.1430 -0.6823
 8805SOL    HW137877   2.739   1.707  16.036  2.4111 -0.3320 -0.4075
 8805SOL    HW237878   2.849   1.746  15.954 -0.9962 -2.5400  1.3051
 8806SOL     OW37879   2.371   3.567   4.824  0.2231  0.0319 -0.5328
 8806SOL    HW137880   2.304   3.634   4.831  0.0118 -0.3397  1.2344
 8806SOL    HW237881   2.403   3.580   4.735  1.0371  0.2509 -0.2116
 8807SOL     OW37882   1.126   3.665   4.864  0.2222 -0.9937  0.4695
 8807SOL    HW137883   1.104   3.573   4.871  0.0997 -0.8410  2.1650
 8807SOL    HW237884   1.100   3.700   4.950  0.4379 -0.0151  0.1352
 8808SOL     OW37885   3.818   2.170   3.087 -0.1226  0.5665  0.2293
 8808SOL    HW137886   3.785   2.084   3.064 -1.2090  1.1037 -0.2279
 8808SOL    HW237887   3.859   2.162   3.174  0.6358 -0.8146 -0.2648
 8809SOL     OW37888   3.205   0.324   2.093  0.8656  0.2319  0.5906
 8809SOL    HW137889   3.235   0.380   2.021 -0.3151 -1.3048 -1.1091
 8809SOL    HW237890   3.287   0.286   2.124 -0.0424 -1.7026  0.6133
 8810SOL     OW37891   3.484   2.395   3.914  0.5741 -0.4116  0.0715
 8810SOL    HW137892   3.424   2.320   3.910 -3.7554  2.9343  1.3763
 8810SOL    HW237893   3.444   2.444   3.842  3.0656 -1.0869 -1.7562
 8811SOL     OW37894   0.813   0.420  16.344 -0.0118  0.0232  0.4834
 8811SOL    HW137895   0.845   0.506  16.370  1.5018  0.2247 -2.0553
 8811SOL    HW237896   0.856   0.371  16.415  0.6324  0.3257  0.3015
 8812SOL     OW37897   1.422   3.752   9.821 -0.3468 -0.8779 -0.2245
 8812SOL    HW137898   1.491   3.721   9.879  0.9326 -0.6004 -1.5972
 8812SOL    HW237899   1.380   3.822   9.872 -2.0968 -1.7101 -0.5093
 8813SOL     OW37900   2.688   0.974   2.307 -0.0119  0.2544 -0.4103
 8813SOL    HW137901   2.766   0.966   2.361  0.7281  1.4580 -1.3072
 8813SOL    HW237902   2.640   1.039   2.359  0.8093  0.6561 -0.1520
 8814SOL     OW37903   2.270   4.320   2.707 -0.3658  0.2384  0.0477
 8814SOL    HW137904   2.355   4.286   2.679  0.0559 -0.2369  1.8570
 8814SOL    HW237905   2.234   4.244   2.754  0.0863  0.2904  0.4760
 8815SOL     OW37906   1.824   0.494   8.388 -0.2694 -0.6458  0.5158
 8815SOL    HW137907   1.875   0.558   8.439 -1.2454  1.6542 -1.3806
 8815SOL    HW237908   1.734   0.526   8.391  0.7975  2.2099  2.8567
 8816SOL     OW37909   1.701   3.767   1.001 -0.2149  0.0949  0.7556
 8816SOL    HW137910   1.691   3.750   1.095 -1.5334 -2.4496  0.1599
 8816SOL    HW237911   1.721   3.678   0.972  1.0369  0.8592 -0.7253
 8817SOL     OW37912   2.022   1.776   7.097 -0.3522 -0.3473 -0.4793
 8817SOL    HW137913   2.100   1.765   7.151 -1.2639  0.1749  0.9268
 8817SOL    HW237914   1.962   1.803   7.166  0.2123  0.9728 -0.5135
 8818SOL     OW37915   3.751   0.459   6.009  0.2748  0.4216  0.2530
 8818SOL    HW137916   3.812   0.387   5.991  2.0788  1.8436  0.7233
 8818SOL    HW237917   3.696   0.460   5.930  1.6076  0.7609 -0.6760
 8819SOL     OW37918   0.972   2.802  11.038  0.1083 -0.7732 -0.1436
 8819SOL    HW137919   1.014   2.888  11.032 -0.2437 -0.6779 -1.2243
 8819SOL    HW237920   0.943   2.808  11.129  0.4193 -2.3649  0.0600
 8820SOL     OW37921   1.453   2.499   3.371  0.7759 -0.3481  0.1822
 8820SOL    HW137922   1.405   2.578   3.346 -0.9749 -2.0665 -1.8030
 8820SOL    HW237923   1.408   2.468   3.449 -0.4657 -2.1941 -1.2857
 8821SOL     OW37924   1.180   2.544   3.729 -0.4492 -0.4197 -0.7361
 8821SOL    HW137925   1.224   2.554   3.813 -1.0821 -1.8449 -0.2412
 8821SOL    HW237926   1.092   2.527   3.764 -0.6448 -0.9544 -1.5039
 8822SOL     OW37927   2.391   0.831   9.025  0.3605  0.3940  0.2874
 8822SOL    HW137928   2.330   0.776   8.976  0.9785  0.6198 -0.7380
 8822SOL    HW237929   2.390   0.791   9.112  0.7513 -0.1172  0.0544
 8823SOL     OW37930   0.269   0.103   1.228  0.0836 -0.0202 -0.1535
 8823SOL    HW137931   0.317   0.128   1.149  0.2193 -1.2205 -0.4534
 8823SOL    HW237932   0.213   0.180   1.227  0.6354  0.4014  1.7916
 8824SOL     OW37933   2.784   1.911  10.683 -0.3139  0.6225 -0.6426
 8824SOL    HW137934   2.740   1.836  10.643  0.7672 -1.8864  2.8103
 8824SOL    HW237935   2.763   1.981  10.622 -1.5928 -0.1959 -1.1427
 8825SOL     OW37936   0.608   2.073   4.953 -0.2382  0.1168 -0.4907
 8825SOL    HW137937   0.579   1.995   5.001  2.0481  0.1738  0.9848
 8825SOL    HW237938   0.530   2.109   4.911  0.0878  1.8591  0.3989
 8826SOL     OW37939   2.012   0.332   5.999  0.4150  0.2334  0.4117
 8826SOL    HW137940   1.982   0.402   6.057 -1.1146  0.5867 -0.8190
 8826SOL    HW237941   2.056   0.389   5.937 -0.4712  0.0200 -0.4067
 8827SOL     OW37942   3.373   1.539   8.173  0.3458 -0.2728 -0.3930
 8827SOL    HW137943   3.349   1.461   8.223  0.1419  1.5914  2.4215
 8827SOL    HW237944   3.288   1.580   8.156 -0.1965  0.4562  4.0255
 8828SOL     OW37945   2.932   3.261   5.844  0.4707  0.2926 -0.5138
 8828SOL    HW137946   2.936   3.309   5.927  2.0960  2.3380 -1.7584
 8828SOL    HW237947   2.856   3.207   5.865 -0.5642  1.7964 -0.3354
 8829SOL     OW37948   0.324   0.167  10.203  0.1115  1.0693  0.3134
 8829SOL    HW137949   0.250   0.107  10.213  0.4324  0.8140  1.1690
 8829SOL    HW237950   0.294   0.229  10.137  2.4008 -0.4833 -2.1740
 8830SOL     OW37951   0.691   3.978   4.252  0.0805  0.0996 -0.0162
 8830SOL    HW137952   0.688   3.884   4.272  0.7014 -0.3188 -1.9318
 8830SOL    HW237953   0.756   4.010   4.314 -0.0302  0.5726 -0.1463
 8831SOL     OW37954   1.905   3.143  10.901  0.5296 -0.0032  0.5560
 8831SOL    HW137955   1.950   3.059  10.912 -0.1542 -0.7167 -2.2553
 8831SOL    HW237956   1.964   3.192  10.844  0.6508 -0.1137  0.5848
 8832SOL     OW37957   4.111   0.344   4.291  0.3908  0.1449  0.6576
 8832SOL    HW137958   4.138   0.415   4.232  2.5749 -0.9997  0.2959
 8832SOL    HW237959   4.064   0.394   4.357 -0.9285  0.9537 -0.8786
 8833SOL     OW37960   3.417   0.212   8.173 -0.4717  0.0265  0.2652
 8833SOL    HW137961   3.443   0.277   8.108  0.0308  0.4527  0.8894
 8833SOL    HW237962   3.370   0.273   8.230 -2.5134 -0.5762 -0.8065
 8834SOL     OW37963   0.396   1.328   7.033  0.5020 -0.2634  0.3250
 8834SOL    HW137964   0.355   1.340   7.119 -0.9127  0.0180 -0.3883
 8834SOL    HW237965   0.322   1.328   6.973 -0.5103 -1.8835  1.5661
 8835SOL     OW37966   3.205   4.470   5.153  0.0716  0.0905  0.2843
 8835SOL    HW137967   3.118   4.440   5.129 -0.3312  1.8588 -0.5181
 8835SOL    HW237968   3.226   4.535   5.085 -1.4964  0.9870  0.6716
 8836SOL     OW37969   0.709   4.690   6.851 -0.2573  0.1817  0.3107
 8836SOL    HW137970   0.703   0.009   6.765  1.7715  0.1434  0.1375
 8836SOL    HW237971   0.673   4.603   6.836 -0.6935  0.2957  0.7054
 8837SOL     OW37972   1.351   1.552   8.425  0.3991  0.0125  0.6436
 8837SOL    HW137973   1.408   1.576   8.498  0.2816 -0.4379  0.8838
 8837SOL    HW237974   1.418   1.510   8.370 -0.7832 -0.1659 -0.6657
 8838SOL     OW37975   2.674   3.227   0.603  0.0058 -0.3775  0.0290
 8838SOL    HW137976   2.761   3.195   0.580 -1.9556 -4.2263 -1.9945
 8838SOL    HW237977   2.690   3.319   0.622  1.2911 -0.4697 -0.5768
 8839SOL     OW37978   1.508   3.943   8.435  0.1964  0.0584  0.1615
 8839SOL    HW137979   1.577   3.887   8.471 -0.5958 -1.7748 -1.1914
 8839SOL    HW237980   1.558   4.016   8.399 -0.3557 -0.1893 -1.1085
 8840SOL     OW37981   3.358   2.818  14.418  0.2312 -1.0878  0.4419
 8840SOL    HW137982   3.411   2.896  14.401 -0.2124 -0.5340  1.6242
 8840SOL    HW237983   3.268   2.848  14.401  0.7606  1.0254  1.4212
 8841SOL     OW37984   4.553   1.956   5.554  0.4357 -0.0474 -0.6812
 8841SOL    HW137985   4.635   2.005   5.546 -0.7002  1.6730 -1.6375
 8841SOL    HW237986   4.513   2.004   5.627 -2.0937  2.5482 -3.7559
 8842SOL     OW37987   0.769   0.771   8.406 -0.2892 -0.1995 -0.3448
 8842SOL    HW137988   0.680   0.749   8.432 -0.1173 -2.7057 -1.9079
 8842SOL    HW237989   0.780   0.864   8.428 -0.6290 -0.4791  0.9754
 8843SOL     OW37990   0.733   2.412   6.506  0.3992 -0.0687 -0.1962
 8843SOL    HW137991   0.695   2.355   6.573  2.1904  0.6603  1.4311
 8843SOL    HW237992   0.739   2.355   6.430 -1.8903 -0.3893 -0.1401
 8844SOL     OW37993   0.530   1.429  17.079  0.6472  0.4451  0.3842
 8844SOL    HW137994   0.505   1.394  17.165  1.4617  0.2749  0.5534
 8844SOL    HW237995   0.526   1.524  17.088 -0.6639  0.2619  1.6631
 8845SOL     OW37996   3.031   0.244   3.088  0.0638  0.0396  0.0188
 8845SOL    HW137997   3.055   0.337   3.094  1.5154 -0.3044 -0.3095
 8845SOL    HW237998   2.983   0.264   3.008  2.2716 -0.0515 -1.3454
 8846SOL     OW37999   3.351   1.918  12.649  0.1448  0.2532 -0.8454
 8846SOL    HW138000   3.418   1.852  12.667 -1.3678 -0.9862  0.2003
 8846SOL    HW238001   3.395   1.975  12.585 -1.0994  0.3486 -1.6181
 8847SOL     OW38002   1.031   2.064   9.658  0.3051  0.1781 -0.2266
 8847SOL    HW138003   1.119   2.064   9.698 -0.1620 -0.4611  0.8230
 8847SOL    HW238004   0.970   2.062   9.732 -0.2386  0.2038 -0.6742
 8848SOL     OW38005   4.003   3.235   6.595  0.2500 -0.4937 -0.0266
 8848SOL    HW138006   3.919   3.265   6.629  1.2987  0.8051  1.4131
 8848SOL    HW238007   4.022   3.309   6.537  0.7568 -0.9340 -0.4330
 8849SOL     OW38008   0.717   2.377  10.607 -0.1425 -0.2485 -0.0975
 8849SOL    HW138009   0.735   2.367  10.513 -0.4312 -1.8932  0.0343
 8849SOL    HW238010   0.703   2.287  10.636 -1.2361  0.4702  1.6102
 8850SOL     OW38011   0.943   0.254   8.247 -0.2024 -0.1438 -0.0210
 8850SOL    HW138012   0.919   0.315   8.317  0.5973  0.1760 -0.0289
 8850SOL    HW238013   0.890   0.182   8.281  1.5740 -0.4897  1.9756
 8851SOL     OW38014   1.887   2.060   2.735 -0.8816  0.1491  0.3469
 8851SOL    HW138015   1.850   2.140   2.772  1.4494  1.3236  0.1219
 8851SOL    HW238016   1.861   2.064   2.643 -0.2697  2.5887  0.2657
 8852SOL     OW38017   0.356   0.524   4.652 -0.1620 -0.9289 -0.0725
 8852SOL    HW138018   0.449   0.509   4.636 -0.0734 -0.5120  0.0421
 8852SOL    HW238019   0.333   0.437   4.684  1.2405 -1.4641 -0.5726
 8853SOL     OW38020   3.138   1.909  16.728 -0.2322 -0.3424 -0.1806
 8853SOL    HW138021   3.196   1.910  16.651 -0.9540  1.1226 -0.7041
 8853SOL    HW238022   3.137   2.000  16.756  3.2523 -0.1953 -0.4889
 8854SOL     OW38023   2.531   2.100   2.559 -0.0037 -0.1001 -0.0866
 8854SOL    HW138024   2.488   2.043   2.496 -0.1577 -1.4324  1.2276
 8854SOL    HW238025   2.572   2.161   2.497 -1.1884  0.5950 -0.1868
 8855SOL     OW38026   1.298   0.069  12.412  0.4696  0.2063 -0.3983
 8855SOL    HW138027   1.328   0.007  12.346  0.7951 -0.1908  0.1177
 8855SOL    HW238028   1.362   0.139  12.405 -0.4239  0.9907 -0.6204
 8856SOL     OW38029   2.202   0.480   3.394  0.2805 -0.5235 -0.3770
 8856SOL    HW138030   2.127   0.425   3.416 -0.2919  1.5172  2.7051
 8856SOL    HW238031   2.242   0.431   3.322 -0.4814  0.9694 -1.8148
 8857SOL     OW38032   0.661   2.421   2.167  0.2148  0.2645 -0.1083
 8857SOL    HW138033   0.588   2.430   2.105  0.3981 -0.4936 -0.4319
 8857SOL    HW238034   0.646   2.501   2.218  3.1000  0.3016  0.6745
 8858SOL     OW38035   2.860   3.743   3.872 -0.5569 -0.1393  0.0634
 8858SOL    HW138036   2.895   3.831   3.857  0.6757 -0.5951  0.2289
 8858SOL    HW238037   2.825   3.720   3.786  0.9399 -0.1270 -0.5613
 8859SOL     OW38038   3.816   1.876   1.847  0.8490 -0.1061 -0.3673
 8859SOL    HW138039   3.842   1.862   1.756  4.1114 -0.0017  0.5377
 8859SOL    HW238040   3.805   1.786   1.876 -1.3049  1.0113  2.2383
 8860SOL     OW38041   4.382   2.206  12.647 -0.1817 -0.3658 -0.0028
 8860SOL    HW138042   4.328   2.231  12.722  0.8037 -0.6037  0.7870
 8860SOL    HW238043   4.313   2.170  12.591  0.0955 -0.1357 -0.4858
 8861SOL     OW38044   0.229   1.230   5.273 -0.1075  0.2276  0.1514
 8861SOL    HW138045   0.314   1.253   5.311  0.0484 -0.5953  0.3106
 8861SOL    HW238046   0.249   1.250   5.181 -1.1677 -1.8285 -0.5192
 8862SOL     OW38047   4.629   2.021   4.963 -0.0317  0.3303 -0.0963
 8862SOL    HW138048   4.689   1.981   4.900 -1.2734 -2.1937  0.3154
 8862SOL    HW238049   4.547   1.970   4.960  0.6315 -0.8212  1.1771
 8863SOL     OW38050   2.700   0.987  16.024  0.4370  0.1457  0.6474
 8863SOL    HW138051   2.719   0.933  16.100  0.1049  0.1863  0.7584
 8863SOL    HW238052   2.793   1.001  16.006  0.9156 -0.6212  2.6023
 8864SOL     OW38053   4.595   1.692   7.840 -0.2005 -0.3391 -0.0426
 8864SOL    HW138054   4.503   1.718   7.829 -0.4103 -0.2724  1.8383
 8864SOL    HW238055   4.576   1.600   7.822 -2.3823  0.1034 -0.0498
 8865SOL     OW38056   1.770   2.602  14.025 -0.2767  0.6071 -0.1375
 8865SOL    HW138057   1.826   2.679  14.032  1.4641 -0.5993 -0.7360
 8865SOL    HW238058   1.698   2.612  14.087  0.1643 -1.1012  0.6526
 8866SOL     OW38059   3.683   0.267   7.546 -0.2411 -0.2787 -0.5407
 8866SOL    HW138060   3.646   0.354   7.559 -0.9757 -0.3392 -2.1891
 8866SOL    HW238061   3.738   0.250   7.623  0.6270  2.8570 -0.4983
 8867SOL     OW38062   1.751   1.205  14.489 -0.2619 -0.2372  0.0356
 8867SOL    HW138063   1.699   1.147  14.434  0.6462  1.0476 -2.1831
 8867SOL    HW238064   1.833   1.160  14.509  0.1317  1.1464  1.5097
 8868SOL     OW38065   0.433   0.631   0.220 -0.2287 -0.3555  0.1652
 8868SOL    HW138066   0.389   0.620   0.136 -0.5661  0.7398  0.2008
 8868SOL    HW238067   0.358   0.662   0.270 -1.4834 -1.3519 -1.1176
 8869SOL     OW38068   2.977   2.554  17.083  0.7164 -0.2962  0.2260
 8869SOL    HW138069   2.935   2.627  17.128  0.5193  0.0243 -0.4737
 8869SOL    HW238070   3.072   2.562  17.093  0.6470 -0.6112  1.1481
 8870SOL     OW38071   3.546   2.757   1.982 -0.2270 -0.2885  0.0757
 8870SOL    HW138072   3.627   2.725   1.940  0.1488 -1.5423  1.7376
 8870SOL    HW238073   3.545   2.699   2.059  2.4778 -0.6569 -0.1429
 8871SOL     OW38074   4.553   4.036   4.428  0.6272 -0.0931 -0.3547
 8871SOL    HW138075   4.601   4.118   4.414 -0.4270  0.5496 -0.1893
 8871SOL    HW238076   4.597   3.992   4.356  0.6217 -0.3939 -0.1724
 8872SOL     OW38077   1.135   1.361   0.408  0.4335  0.0064 -0.5189
 8872SOL    HW138078   1.180   1.293   0.458  0.2406 -0.0440 -0.4163
 8872SOL    HW238079   1.079   1.306   0.352  1.1329 -0.3542 -0.8612
 8873SOL     OW38080   1.070   2.144  10.303 -0.1377  0.7599  0.0949
 8873SOL    HW138081   1.138   2.087  10.269  1.3581  2.9137 -0.5240
 8873SOL    HW238082   1.121   2.191  10.368 -0.8586 -1.0107  1.9483
 8874SOL     OW38083   2.286   4.101   9.119 -0.0068  0.1620 -0.0528
 8874SOL    HW138084   2.232   4.159   9.172  0.8571  2.1711 -1.3360
 8874SOL    HW238085   2.362   4.095   9.177 -1.8013  2.0882  2.4824
 8875SOL     OW38086   0.497   2.381   2.982  0.3844  0.3678  0.0778
 8875SOL    HW138087   0.560   2.391   2.910  0.4587  0.6397  0.1821
 8875SOL    HW238088   0.518   2.291   3.006 -0.5452  0.1175 -0.0680
 8876SOL     OW38089   0.121   0.064  11.866 -0.3854  0.7356 -0.0304
 8876SOL    HW138090   0.163   0.128  11.924  1.5400 -2.1443  1.7930
 8876SOL    HW238091   0.182   0.053  11.793  1.5794  2.2240  1.3695
 8877SOL     OW38092   3.729   0.902   5.700 -0.4231  0.3215 -0.0714
 8877SOL    HW138093   3.714   0.909   5.606 -0.5219 -1.4157 -0.1705
 8877SOL    HW238094   3.743   0.994   5.724  2.8496  0.5558 -2.9523
 8878SOL     OW38095   2.961   1.443   9.029 -0.0659  0.4856 -0.0794
 8878SOL    HW138096   2.992   1.442   9.119 -1.0265 -3.1602  0.1918
 8878SOL    HW238097   2.866   1.438   9.039  0.0363 -2.4642 -0.6495
 8879SOL     OW38098   1.461   0.561   0.902  0.5257 -0.0284 -0.1817
 8879SOL    HW138099   1.465   0.562   0.806 -2.8524 -0.0701 -0.3250
 8879SOL    HW238100   1.432   0.649   0.923  0.9331  0.0875 -0.0999
 8880SOL     OW38101   3.836   0.187   4.798 -0.0539  0.1897 -0.3501
 8880SOL    HW138102   3.920   0.234   4.795  0.9200 -1.5482  0.1652
 8880SOL    HW238103   3.846   0.163   4.890  1.1574  3.5920  0.4327
 8881SOL     OW38104   3.873   1.431   0.207  0.4308  0.4877  0.2681
 8881SOL    HW138105   3.786   1.460   0.178 -0.2245  0.7194  2.4119
 8881SOL    HW238106   3.912   1.510   0.244  1.4254  0.3343 -0.4644
 8882SOL     OW38107   2.409   0.325  14.430  0.0163 -0.0246 -0.2203
 8882SOL    HW138108   2.352   0.262  14.387 -0.3485 -0.0474  0.2930
 8882SOL    HW238109   2.382   0.408  14.390 -0.7962  0.6492  1.7049
 8883SOL     OW38110   0.281   3.237   5.753  0.0610 -0.3461  0.7165
 8883SOL    HW138111   0.202   3.277   5.717  0.5383  1.8945  2.1320
 8883SOL    HW238112   0.336   3.315   5.753 -2.4718  1.4400 -2.1521
 8884SOL     OW38113   3.459   0.241  15.358  0.1748 -0.0267  0.2004
 8884SOL    HW138114   3.479   0.317  15.414  0.5758  1.4024 -1.8785
 8884SOL    HW238115   3.452   0.274  15.269 -1.8590  0.9426  0.7261
 8885SOL     OW38116   1.527   3.524   6.790 -0.3601  0.1372 -0.5701
 8885SOL    HW138117   1.553   3.597   6.734  0.7681  1.4854  1.7084
 8885SOL    HW238118   1.477   3.472   6.728 -0.4300 -1.3376  0.7313
 8886SOL     OW38119   3.311   4.149  13.253 -0.4974 -0.1797 -0.1337
 8886SOL    HW138120   3.268   4.106  13.179  0.3225 -0.8126 -0.2449
 8886SOL    HW238121   3.401   4.129  13.227 -0.6683  0.9086 -1.5651
 8887SOL     OW38122   4.458   4.245  16.402  0.3227 -0.0802 -0.5225
 8887SOL    HW138123   4.461   4.316  16.337 -1.5228  0.9971  0.5614
 8887SOL    HW238124   4.552   4.243  16.418  0.1742 -0.1266  0.3440
 8888SOL     OW38125   2.938   0.952   5.902  0.5647 -0.0865  0.2297
 8888SOL    HW138126   3.025   0.947   5.862 -0.1130  1.3806 -1.4448
 8888SOL    HW238127   2.950   1.023   5.965 -3.2974 -0.1000  0.9808
 8889SOL     OW38128   1.631   3.250   2.333  0.3950  0.5262  0.1814
 8889SOL    HW138129   1.697   3.238   2.265 -1.8996  2.3604 -2.3704
 8889SOL    HW238130   1.555   3.237   2.276  0.0974  1.0300  0.4691
 8890SOL     OW38131   2.274   4.486   5.926  0.6819  0.3883 -0.3462
 8890SOL    HW138132   2.216   4.457   5.996 -0.0992  1.4617 -0.5330
 8890SOL    HW238133   2.361   4.492   5.965  0.7545 -1.4435 -0.2410
 8891SOL     OW38134   1.277   4.297  13.760  0.7665  0.0928  0.5193
 8891SOL    HW138135   1.346   4.337  13.708 -0.6031  1.9076  0.0997
 8891SOL    HW238136   1.213   4.367  13.774  0.0274 -0.4121 -0.3719
 8892SOL     OW38137   1.544   4.359   9.141 -0.1259 -0.4123  0.6426
 8892SOL    HW138138   1.606   4.375   9.069  0.9940 -1.2464  1.4207
 8892SOL    HW238139   1.548   4.442   9.189  1.5840  1.1813 -2.2293
 8893SOL     OW38140   0.951   0.714   0.305  0.0742  0.5054  0.8291
 8893SOL    HW138141   1.005   0.670   0.240  0.3573 -0.7232  1.9249
 8893SOL    HW238142   0.957   0.663   0.385 -1.0238  0.0700  0.6319
 8894SOL     OW38143   4.716   4.521   3.062 -0.0773 -0.1014  0.4145
 8894SOL    HW138144   4.629   4.534   3.025  0.0273 -0.6958 -0.0337
 8894SOL    HW238145   4.692   4.440   3.107 -0.9926  0.2487  0.5552
 8895SOL     OW38146   0.674   2.614   4.364 -0.7720  0.0800  0.0162
 8895SOL    HW138147   0.613   2.686   4.348 -1.7146 -0.8425 -0.4992
 8895SOL    HW238148   0.625   2.535   4.342 -1.4304  0.4981 -0.0097
 8896SOL     OW38149   1.478   1.216   2.742  0.2356 -0.1954  0.7332
 8896SOL    HW138150   1.474   1.312   2.745  0.7856 -0.1477 -0.0301
 8896SOL    HW238151   1.525   1.188   2.820 -2.3795 -0.1194  2.3548
 8897SOL     OW38152   0.097   3.873   5.844  0.1625  0.0779  0.1897
 8897SOL    HW138153   0.043   3.947   5.817  0.2134  1.0571  2.7917
 8897SOL    HW238154   0.071   3.813   5.774 -2.4385 -0.6179  1.7589
 8898SOL     OW38155   0.012   1.465   2.321 -0.2381  0.1188  0.2469
 8898SOL    HW138156   0.028   1.522   2.245 -0.2005 -1.3912 -0.8652
 8898SOL    HW238157   0.067   1.389   2.306 -0.5365 -0.5248  2.5199
 8899SOL     OW38158   2.676   2.215   8.742 -0.9669 -0.0251  0.4765
 8899SOL    HW138159   2.677   2.231   8.836  0.3800  0.8823  0.3064
 8899SOL    HW238160   2.701   2.304   8.717  1.6830 -1.2876 -1.4000
 8900SOL     OW38161   3.790   0.217  11.871 -0.3287 -0.0578  0.4257
 8900SOL    HW138162   3.795   0.303  11.913  0.4924 -0.0420  0.2931
 8900SOL    HW238163   3.813   0.158  11.944  0.9282 -0.1000 -0.0032
 8901SOL     OW38164   1.365   2.737   6.434  0.0206  0.0320 -0.1737
 8901SOL    HW138165   1.323   2.728   6.520  1.1656  1.3292  0.5323
 8901SOL    HW238166   1.459   2.721   6.446 -0.1691 -0.8756  0.1048
 8902SOL     OW38167   3.927   2.104  10.112  0.0074  0.4513  0.3829
 8902SOL    HW138168   3.951   2.013  10.094 -2.2317  0.0128 -0.3934
 8902SOL    HW238169   3.932   2.143  10.025  0.1272 -1.4501 -0.4655
 8903SOL     OW38170   1.481   4.704   2.186 -0.2780  0.7148  0.1923
 8903SOL    HW138171   1.394   0.017   2.196  0.2404  1.8317  0.5276
 8903SOL    HW238172   1.468   4.617   2.150  0.6010  0.4218  0.5872
 8904SOL     OW38173   2.212   3.317   3.495 -0.0553 -0.4083 -0.5142
 8904SOL    HW138174   2.208   3.284   3.584  2.8022 -0.2321 -0.3370
 8904SOL    HW238175   2.158   3.249   3.454 -0.9480 -0.7397  1.2128
 8905SOL     OW38176   3.134   0.413  14.749  0.2490 -0.3617 -0.5425
 8905SOL    HW138177   3.222   0.430  14.715  0.7242 -0.3857  0.6657
 8905SOL    HW238178   3.160   0.400  14.841  1.7911  0.4557 -0.8527
 8906SOL     OW38179   0.338   1.630   8.988  0.2195  0.1383  0.3008
 8906SOL    HW138180   0.393   1.558   9.019  0.5953 -0.3109 -1.3912
 8906SOL    HW238181   0.386   1.697   9.037  1.1615  0.9409 -1.7256
 8907SOL     OW38182   2.414   4.470   7.229  0.3356  0.3122 -0.0456
 8907SOL    HW138183   2.336   4.463   7.285 -0.3963  0.4170 -1.0610
 8907SOL    HW238184   2.367   4.495   7.150  1.9778 -0.0122 -1.1170
 8908SOL     OW38185   4.258   1.411   8.417  0.4065 -0.5068  0.1300
 8908SOL    HW138186   4.194   1.480   8.440 -1.9021 -2.0302 -1.7121
 8908SOL    HW238187   4.205   1.377   8.346 -0.5949 -2.0685  1.6181
 8909SOL     OW38188   2.133   4.480   1.027  0.0303  0.0537 -0.7288
 8909SOL    HW138189   2.084   4.487   0.945 -0.7671  0.4808 -0.2130
 8909SOL    HW238190   2.204   4.426   0.991 -1.0236 -1.9973  0.2745
 8910SOL     OW38191   3.371   3.442   2.609 -0.6614  0.1149 -0.0644
 8910SOL    HW138192   3.309   3.378   2.645 -1.8428  0.4571 -1.5087
 8910SOL    HW238193   3.311   3.508   2.573 -0.3499 -0.6650 -1.9919
 8911SOL     OW38194   0.525   0.690   7.530  0.3513 -0.2559 -0.2728
 8911SOL    HW138195   0.544   0.603   7.495  1.1143 -0.9200  1.8415
 8911SOL    HW238196   0.482   0.735   7.457 -1.7814  0.8034  1.6339
 8912SOL     OW38197   4.197   3.119   2.566 -1.0178 -0.1801 -0.0760
 8912SOL    HW138198   4.152   3.034   2.568  1.0647 -1.3020 -0.7656
 8912SOL    HW238199   4.230   3.120   2.476  1.2659  1.0052  0.7800
 8913SOL     OW38200   2.433   0.787   1.276  0.1151 -0.3310  0.3715
 8913SOL    HW138201   2.396   0.777   1.363 -1.5544  0.1762 -0.2714
 8913SOL    HW238202   2.397   0.874   1.257  1.3136  0.1925  0.4985
 8914SOL     OW38203   4.382   0.659   5.077 -0.5040 -0.4421  0.1797
 8914SOL    HW138204   4.389   0.581   5.022 -3.3493 -0.2442 -0.4630
 8914SOL    HW238205   4.428   0.636   5.158  0.9088 -0.1535 -0.5395
 8915SOL     OW38206   2.995   0.515   3.061  0.0543 -0.1977 -0.1607
 8915SOL    HW138207   2.955   0.577   3.000  3.6031  0.3328 -1.9481
 8915SOL    HW238208   2.920   0.473   3.103  1.2035 -0.6735  1.4105
 8916SOL     OW38209   2.484   3.023  15.473 -0.2946  0.1045  0.0654
 8916SOL    HW138210   2.475   3.024  15.377  1.5950  0.1475 -0.1130
 8916SOL    HW238211   2.460   3.111  15.500  1.7081  1.1560 -1.6069
 8917SOL     OW38212   4.168   2.275   8.698  0.2214  0.9476  0.2526
 8917SOL    HW138213   4.170   2.338   8.771 -0.6882  1.3366 -0.0619
 8917SOL    HW238214   4.182   2.196   8.749 -0.1433  0.4898 -0.3650
 8918SOL     OW38215   1.011   3.033  10.076  0.3864 -0.4492  0.2698
 8918SOL    HW138216   1.074   2.980  10.028 -0.4345  2.0173 -3.6030
 8918SOL    HW238217   0.960   3.069  10.003  0.9672 -0.0266  0.0679
 8919SOL     OW38218   2.233   3.077  17.045  0.4074 -0.0754 -0.3885
 8919SOL    HW138219   2.197   3.106  17.129 -1.4600  0.1353 -1.2797
 8919SOL    HW238220   2.310   3.134  17.034 -1.4355  2.7924  1.5626
 8920SOL     OW38221   4.243   1.689  12.707  0.4133 -0.3276 -0.4626
 8920SOL    HW138222   4.336   1.693  12.684  0.4892 -3.2119 -0.6802
 8920SOL    HW238223   4.250   1.636  12.786  0.4657  0.7384  0.2504
 8921SOL     OW38224   1.757   4.648  11.816 -0.4126 -0.5814  0.2075
 8921SOL    HW138225   1.793   4.584  11.754 -0.3249 -0.1831 -0.1497
 8921SOL    HW238226   1.748   0.002  11.764 -1.1888 -2.3174 -2.2898
 8922SOL     OW38227   4.617   3.342  16.842 -0.5400  0.4011  0.2968
 8922SOL    HW138228   4.587   3.252  16.845 -1.4402  0.6932  0.0183
 8922SOL    HW238229   4.682   3.332  16.772 -0.0540 -1.8261  1.0854
 8923SOL     OW38230   2.416   0.895   6.092 -0.1403 -0.2114 -0.2791
 8923SOL    HW138231   2.348   0.950   6.130 -1.1495 -2.4731  1.1879
 8923SOL    HW238232   2.489   0.922   6.147 -2.5325  1.7277  1.9356
 8924SOL     OW38233   3.262   1.802  16.954  0.1011 -0.6693 -0.3842
 8924SOL    HW138234   3.230   1.835  16.870 -0.7672 -2.4940 -0.7679
 8924SOL    HW238235   3.190   1.745  16.982  0.0291 -0.8376 -0.9215
 8925SOL     OW38236   3.502   3.992   5.347  0.0031 -0.0503 -0.5785
 8925SOL    HW138237   3.530   3.969   5.435  0.2646  0.2395 -0.5868
 8925SOL    HW238238   3.406   3.982   5.349 -0.0194  0.0417 -1.1742
 8926SOL     OW38239   4.705   1.345  15.193 -0.0846  0.4770  0.3209
 8926SOL    HW138240   0.061   1.392  15.170  0.0340  0.7980  1.3825
 8926SOL    HW238241   4.701   1.371  15.285 -1.3143  3.6102 -0.6032
 8927SOL     OW38242   0.343   4.245   7.669  0.4513  0.6217  0.8280
 8927SOL    HW138243   0.349   4.219   7.577 -0.0295  1.2777  0.6086
 8927SOL    HW238244   0.359   4.162   7.713  0.5730 -1.3435 -2.9709
 8928SOL     OW38245   2.190   1.375  12.892 -0.4302 -0.2334 -0.3400
 8928SOL    HW138246   2.186   1.465  12.924  0.4081  0.4074 -2.0000
 8928SOL    HW238247   2.097   1.360  12.908 -0.4731 -1.2332 -1.5202
 8929SOL     OW38248   2.002   0.994  17.664 -0.1857 -0.9636 -0.0023
 8929SOL    HW138249   2.055   0.930   0.010 -0.2202 -2.0937 -1.4847
 8929SOL    HW238250   1.938   0.934  17.625 -0.7329 -0.1846 -0.3146
 8930SOL     OW38251   4.316   0.111   0.521  0.2889 -0.3628  0.4251
 8930SOL    HW138252   4.305   0.138   0.430 -0.7163 -0.4474  0.5259
 8930SOL    HW238253   4.245   0.049   0.537  0.9540 -1.1729  0.2276
 8931SOL     OW38254   0.808   2.166  12.286  0.2912  0.1564  0.2383
 8931SOL    HW138255   0.781   2.246  12.241 -1.0469  0.7583  2.0977
 8931SOL    HW238256   0.735   2.104  12.299  0.7114  0.1648  2.5424
 8932SOL     OW38257   3.812   3.760   5.223 -0.0281 -0.0164  0.1144
 8932SOL    HW138258   3.890   3.815   5.215 -0.2738  0.6481  2.1306
 8932SOL    HW238259   3.850   3.681   5.184 -2.2219 -1.2425  0.4401
 8933SOL     OW38260   3.866   3.225   5.468  0.0536 -0.7511  0.0071
 8933SOL    HW138261   3.843   3.318   5.467  3.0758 -0.0166 -0.1191
 8933SOL    HW238262   3.785   3.186   5.433 -0.6190  1.1204 -0.5203
 8934SOL     OW38263   3.973   1.316   4.542  0.4636 -0.3132 -0.0078
 8934SOL    HW138264   3.923   1.381   4.493  2.0613  1.3683  0.5950
 8934SOL    HW238265   4.034   1.379   4.580 -0.3616  0.1319  0.5754
 8935SOL     OW38266   3.614   3.331   6.019 -0.1490  0.0816  1.1510
 8935SOL    HW138267   3.687   3.359   6.075  1.5556  0.4791 -1.2412
 8935SOL    HW238268   3.638   3.384   5.943  1.2651 -1.7985  0.2684
 8936SOL     OW38269   1.528   0.348   6.718 -0.0670  0.6946 -0.0613
 8936SOL    HW138270   1.576   0.337   6.636 -0.4164 -0.8383 -0.0564
 8936SOL    HW238271   1.548   0.441   6.728  2.0563  0.0266  1.8612
 8937SOL     OW38272   2.536   0.348   5.807  0.2978 -0.2676 -0.3879
 8937SOL    HW138273   2.606   0.283   5.808 -0.8313 -1.4803 -0.4685
 8937SOL    HW238274   2.511   0.333   5.716  0.7073  1.1245 -0.7357
 8938SOL     OW38275   3.833   0.729  14.861  0.0528 -0.4122  0.2284
 8938SOL    HW138276   3.790   0.785  14.797  1.3280 -0.2511 -0.4899
 8938SOL    HW238277   3.797   0.766  14.941  1.4425  0.1389  0.5969
 8939SOL     OW38278   3.238   1.340   1.952  1.0606 -0.2386  0.8032
 8939SOL    HW138279   3.275   1.317   1.867  3.5321  3.3088  0.9418
 8939SOL    HW238280   3.166   1.278   1.966  0.2646  0.5883  0.3803
 8940SOL     OW38281   0.282   0.828   0.344  0.4485 -0.5108  0.3319
 8940SOL    HW138282   0.309   0.905   0.294 -0.6620  0.7633  1.6964
 8940SOL    HW238283   0.297   0.867   0.430 -0.3850  0.4996  0.0179
 8941SOL     OW38284   1.177   1.138   1.713 -0.1445  0.2110 -0.0409
 8941SOL    HW138285   1.194   1.044   1.709 -1.5217 -0.0266 -0.3799
 8941SOL    HW238286   1.132   1.152   1.797 -0.5363  0.2448 -0.2589
 8942SOL     OW38287   3.315   4.328  15.666 -0.2748 -0.0928  0.5342
 8942SOL    HW138288   3.399   4.346  15.708 -0.1237  4.0502 -1.6103
 8942SOL    HW238289   3.263   4.279  15.729 -0.3064 -0.4368  0.2438
 8943SOL     OW38290   0.145   3.395   2.448  0.5605  0.3719 -0.4773
 8943SOL    HW138291   0.127   3.466   2.510  0.2053 -0.4852  0.4046
 8943SOL    HW238292   0.074   3.331   2.447  0.3438  0.6020  0.2574
 8944SOL     OW38293   4.379   3.010  13.652 -0.1632  0.3052  0.5327
 8944SOL    HW138294   4.354   2.922  13.682  0.5008 -0.2243 -0.4495
 8944SOL    HW238295   4.421   2.991  13.568  1.2263  0.9706  1.0788
 8945SOL     OW38296   2.368   2.497   1.685  0.3653  0.1805 -0.1760
 8945SOL    HW138297   2.380   2.571   1.625 -1.7494  1.4738  1.0113
 8945SOL    HW238298   2.452   2.451   1.683  0.7259  0.9149 -1.7904
 8946SOL     OW38299   1.724   4.403   8.922 -0.0649  0.5284 -0.0502
 8946SOL    HW138300   1.666   4.339   8.881  2.0596 -1.4927  0.1071
 8946SOL    HW238301   1.804   4.352   8.930  0.7169  1.8746  0.8501
 8947SOL     OW38302   0.601   0.392   4.788  0.3376 -0.3213 -0.6827
 8947SOL    HW138303   0.538   0.398   4.861  1.9608  0.3312  0.6548
 8947SOL    HW238304   0.622   0.298   4.791 -3.2783 -1.0438  1.9743
 8948SOL     OW38305   4.154   3.054   3.263  0.0894  0.1781 -0.2573
 8948SOL    HW138306   4.118   3.136   3.228 -0.4026  0.7245  1.5351
 8948SOL    HW238307   4.248   3.069   3.258  0.1459 -0.4742 -1.1244
 8949SOL     OW38308   1.175   3.679   0.383 -0.9400 -0.1389  0.4358
 8949SOL    HW138309   1.212   3.767   0.373 -0.0019 -0.7095 -1.1734
 8949SOL    HW238310   1.254   3.625   0.372  0.3596  1.6849  0.7180
 8950SOL     OW38311   4.276   3.539  16.519 -0.1297 -0.9334 -0.2390
 8950SOL    HW138312   4.361   3.504  16.493 -0.2854 -0.4704 -1.4031
 8950SOL    HW238313   4.225   3.541  16.438 -0.7231  0.3782  0.1728
 8951SOL     OW38314   2.078   4.643   5.775 -0.0812  0.2141 -0.1620
 8951SOL    HW138315   2.131   4.572   5.812 -0.6977  0.4218  1.1282
 8951SOL    HW238316   1.994   4.602   5.794 -0.9446  1.8822 -0.4430
 8952SOL     OW38317   0.858   2.693   6.471  0.2335  0.1824 -0.3593
 8952SOL    HW138318   0.805   2.613   6.472  0.4368  0.0667  1.6285
 8952SOL    HW238319   0.793   2.755   6.506 -0.3573  0.6986 -2.3581
 8953SOL     OW38320   1.322   3.652   4.385 -0.0173  0.0127  1.1191
 8953SOL    HW138321   1.286   3.665   4.473 -0.9585  1.5281  0.5116
 8953SOL    HW238322   1.282   3.568   4.362  1.0703 -0.7870  2.1643
 8954SOL     OW38323   3.268   2.561   0.569 -0.2771 -0.1319  0.4144
 8954SOL    HW138324   3.206   2.552   0.641  0.8101  0.4952  1.4306
 8954SOL    HW238325   3.353   2.563   0.613  0.6758 -1.7526 -1.3349
 8955SOL     OW38326   1.882   0.328  16.079 -0.0911 -0.2396  0.2360
 8955SOL    HW138327   1.789   0.346  16.085 -0.2763 -0.9920 -0.4200
 8955SOL    HW238328   1.911   0.387  16.010  0.4217 -0.5135  0.2148
 8956SOL     OW38329   1.379   2.374   8.363 -1.1025 -0.6693  0.0736
 8956SOL    HW138330   1.425   2.405   8.441 -0.8975  0.6750 -0.5693
 8956SOL    HW238331   1.422   2.425   8.293  1.1846 -2.2562  0.3211
 8957SOL     OW38332   2.209   1.166   6.661  0.2438  0.1393 -0.7061
 8957SOL    HW138333   2.141   1.216   6.706  1.2056  0.9640 -0.1918
 8957SOL    HW238334   2.161   1.111   6.600 -0.4285  1.2128 -1.1358
 8958SOL     OW38335   1.770   3.922   3.937  0.0524 -0.1298 -0.3338
 8958SOL    HW138336   1.773   3.972   4.019  0.9254 -0.7655  0.0166
 8958SOL    HW238337   1.857   3.929   3.898  0.2440 -1.1978 -0.0890
 8959SOL     OW38338   1.739   3.450  16.134  0.1684  0.3339  0.1756
 8959SOL    HW138339   1.670   3.501  16.092  0.8303  1.1947  0.1232
 8959SOL    HW238340   1.804   3.517  16.154  0.1664 -0.4740  2.8870
 8960SOL     OW38341   1.980   2.267   8.985  0.5743  0.3940 -0.4879
 8960SOL    HW138342   1.976   2.264   9.081  0.3633  0.9307 -0.4839
 8960SOL    HW238343   1.962   2.175   8.963 -1.3907  0.9926 -1.4040
 8961SOL     OW38344   4.310   4.378   6.755 -0.1227  0.5608 -1.0138
 8961SOL    HW138345   4.380   4.328   6.713 -0.7434 -1.3479  0.2317
 8961SOL    HW238346   4.365   4.436   6.807 -0.4739 -0.2551  0.2645
 8962SOL     OW38347   3.346   3.117   8.476 -0.3936  0.2007  0.1826
 8962SOL    HW138348   3.387   3.168   8.406 -0.8900 -0.7338 -0.7957
 8962SOL    HW238349   3.253   3.120   8.452  0.1131  3.0614 -1.5146
 8963SOL     OW38350   0.110   0.166   2.127  0.3765  0.8064  0.3193
 8963SOL    HW138351   0.119   0.179   2.221 -1.3418  1.1285  0.4312
 8963SOL    HW238352   0.082   0.249   2.089 -0.5364 -0.6089 -2.1273
 8964SOL     OW38353   1.755   4.669   8.623  0.1918  0.5323  0.0456
 8964SOL    HW138354   1.717   4.581   8.628  0.8662  0.1599 -1.3025
 8964SOL    HW238355   1.731   4.699   8.711  1.5515  0.7784  0.3383
 8965SOL     OW38356   2.796   3.831  17.597 -0.4504  0.8812  0.1124
 8965SOL    HW138357   2.867   3.803  17.654 -1.1858  0.8714  1.0313
 8965SOL    HW238358   2.838   3.808  17.514 -0.8908 -2.6265  0.8323
 8966SOL     OW38359   3.253   2.943   6.821 -0.1936  0.2020 -0.5615
 8966SOL    HW138360   3.237   2.850   6.834  0.2473  0.1115 -0.6574
 8966SOL    HW238361   3.177   2.966   6.768 -2.5282 -1.0955  2.2781
 8967SOL     OW38362   3.401   3.300  13.437 -0.4786 -0.0315  0.1558
 8967SOL    HW138363   3.422   3.378  13.490  0.9440 -2.0153  2.5156
 8967SOL    HW238364   3.361   3.337  13.359  0.5364 -1.6786 -1.1286
 8968SOL     OW38365   4.570   1.753   1.051  0.0857  0.1011  0.1465
 8968SOL    HW138366   4.647   1.776   0.999  0.1516 -0.9076 -0.2110
 8968SOL    HW238367   4.612   1.679   1.096 -0.8569 -0.9747 -0.7325
 8969SOL     OW38368   0.385   0.646  10.853 -0.0947  0.6841  0.2295
 8969SOL    HW138369   0.409   0.665  10.762 -1.1063  3.0303  0.4468
 8969SOL    HW238370   0.471   0.616  10.883 -0.6103 -0.2624  0.7469
 8970SOL     OW38371   2.706   4.430  15.604  0.1713 -0.4008 -0.1960
 8970SOL    HW138372   2.769   4.487  15.561  0.5247 -0.0869  0.7298
 8970SOL    HW238373   2.624   4.470  15.574 -0.7196 -1.7145  0.4514
 8971SOL     OW38374   2.733   1.483  15.496 -0.5926  0.0467 -0.5741
 8971SOL    HW138375   2.645   1.486  15.456 -1.4378  0.8766  1.3541
 8971SOL    HW238376   2.714   1.532  15.576 -0.6602 -1.1442  0.1466
 8972SOL     OW38377   1.329   1.912   3.766  0.0433 -0.4139 -0.5629
 8972SOL    HW138378   1.359   1.967   3.839 -2.5438 -0.6952  0.7143
 8972SOL    HW238379   1.370   1.830   3.793 -0.2693 -0.4159 -0.0936
 8973SOL     OW38380   1.974   4.273  11.365  0.0982 -0.1394 -0.5614
 8973SOL    HW138381   1.924   4.343  11.407  1.1551  0.8824 -0.9921
 8973SOL    HW238382   2.056   4.319  11.383 -1.3226  1.8221  0.9237
 8974SOL     OW38383   3.728   1.329  14.752 -0.0231  0.2950 -0.1378
 8974SOL    HW138384   3.661   1.359  14.814 -0.3266 -0.8520  0.0942
 8974SOL    HW238385   3.700   1.386  14.680  1.3716  0.1971 -0.7644
 8975SOL     OW38386   2.419   3.894   8.641  0.1802 -0.1998 -1.0431
 8975SOL    HW138387   2.415   3.982   8.603 -0.0951 -1.0272 -2.9284
 8975SOL    HW238388   2.334   3.866   8.607 -1.5890  3.4547  0.3694
 8976SOL     OW38389   2.138   3.007   0.976 -0.2252  0.2916 -0.2576
 8976SOL    HW138390   2.145   3.034   1.067 -0.8332 -2.0842  0.5075
 8976SOL    HW238391   2.093   3.084   0.941  1.3633  0.8184 -1.1422
 8977SOL     OW38392   0.808   4.667  11.043  0.5599  0.1772 -0.4163
 8977SOL    HW138393   0.755   4.700  10.971  1.8341 -2.7315 -2.6938
 8977SOL    HW238394   0.847   0.027  11.063 -0.1642 -0.0765  2.0500
 8978SOL     OW38395   2.339   1.899  14.635  0.3624  0.4993 -0.3652
 8978SOL    HW138396   2.368   1.944  14.555 -0.6157 -0.7441 -1.4265
 8978SOL    HW238397   2.247   1.880  14.613  0.8046 -1.4408 -0.5010
 8979SOL     OW38398   3.329   0.878   7.701  0.3860  0.4360 -0.4032
 8979SOL    HW138399   3.317   0.961   7.654 -0.3686 -0.0999 -1.1386
 8979SOL    HW238400   3.349   0.913   7.788  2.5276  0.1138 -0.7629
 8980SOL     OW38401   0.907   3.821  12.513 -0.0568 -0.0016 -0.2897
 8980SOL    HW138402   1.001   3.822  12.494  0.6113 -2.4777  2.7830
 8980SOL    HW238403   0.896   3.730  12.542  1.6393  0.4478  1.7134
 8981SOL     OW38404   0.744   1.573   6.326  0.1635 -0.8056  0.0463
 8981SOL    HW138405   0.802   1.581   6.402 -2.0598 -2.3679  1.9048
 8981SOL    HW238406   0.737   1.654   6.276 -1.8715  0.0002  1.6334
 8982SOL     OW38407   4.530   3.426  16.434 -0.3888  0.2211  0.1402
 8982SOL    HW138408   4.606   3.473  16.469  0.9308 -2.0947  0.3688
 8982SOL    HW238409   4.557   3.336  16.454  1.6123  0.9879  0.8978
 8983SOL     OW38410   4.177   2.388  10.059  0.0025  0.1068 -0.3043
 8983SOL    HW138411   4.219   2.303  10.049  0.3354  0.0421  1.7371
 8983SOL    HW238412   4.147   2.392   9.968  0.4449 -0.3303 -0.4676
 8984SOL     OW38413   3.135   1.400  11.183 -0.4117  0.1904  0.0023
 8984SOL    HW138414   3.083   1.470  11.144 -1.8841 -1.2238 -0.5390
 8984SOL    HW238415   3.093   1.321  11.149 -0.7492 -0.9777  3.1525
 8985SOL     OW38416   3.010   1.974  17.249  0.3008  0.2193  0.1999
 8985SOL    HW138417   3.044   1.915  17.317  1.9893  2.5724  1.4358
 8985SOL    HW238418   2.965   1.915  17.189  0.9317  0.8474 -0.8954
 8986SOL     OW38419   1.693   0.321   3.070  0.1911 -0.3550 -0.1059
 8986SOL    HW138420   1.648   0.261   3.130 -0.8257  0.7907  0.2664
 8986SOL    HW238421   1.712   0.262   2.997 -1.7414  1.1666 -1.8111
 8987SOL     OW38422   3.820   1.692   3.460 -0.0018 -0.2127 -0.6840
 8987SOL    HW138423   3.836   1.612   3.411 -0.8253  0.3964 -1.9327
 8987SOL    HW238424   3.819   1.752   3.385  1.2286 -0.9794 -1.3109
 8988SOL     OW38425   4.224   2.764  12.856 -0.0761  0.4267  0.4962
 8988SOL    HW138426   4.177   2.755  12.939  1.3575 -2.3782  1.0055
 8988SOL    HW238427   4.187   2.842  12.813  1.0011  0.4472 -0.3750
 8989SOL     OW38428   0.903   2.013   5.854 -0.2951  0.0951 -0.1584
 8989SOL    HW138429   0.859   1.931   5.831 -1.0300  0.3494  0.3740
 8989SOL    HW238430   0.974   2.018   5.790  2.0202 -0.7177  2.3352
 8990SOL     OW38431   2.195   2.472   4.876  0.3547 -0.2102 -0.5406
 8990SOL    HW138432   2.168   2.445   4.788 -1.5778 -3.9954  1.2093
 8990SOL    HW238433   2.151   2.413   4.938 -1.4460  2.7559  0.9753
 8991SOL     OW38434   1.463   3.898  11.766  0.4803  0.3994  0.1937
 8991SOL    HW138435   1.434   3.849  11.689 -1.2124  3.4217 -1.0844
 8991SOL    HW238436   1.383   3.938  11.802  1.0406  1.0158  0.7496
 8992SOL     OW38437   4.524   4.307   2.840  0.3701 -0.3201 -0.3555
 8992SOL    HW138438   4.452   4.252   2.809  1.0183 -2.1572  1.4529
 8992SOL    HW238439   4.472   4.381   2.871  1.9430  0.0138  1.4479
 8993SOL     OW38440   4.040   2.328   5.583 -0.4348 -0.4054  0.6925
 8993SOL    HW138441   4.097   2.251   5.583 -0.4146 -0.3905  0.7024
 8993SOL    HW238442   4.000   2.319   5.496 -0.3710  0.4845  0.5695
 8994SOL     OW38443   2.148   3.443   6.977  0.8395 -0.0521  0.3292
 8994SOL    HW138444   2.131   3.535   6.953 -0.4476 -0.2288  0.5974
 8994SOL    HW238445   2.135   3.397   6.894  0.5817  0.2613  0.1916
 8995SOL     OW38446   2.796   3.900   8.500  0.7651 -0.0932 -0.3004
 8995SOL    HW138447   2.797   3.944   8.585 -0.1686  1.6976 -1.2235
 8995SOL    HW238448   2.828   3.971   8.444  1.7372  0.1264  0.5192
 8996SOL     OW38449   0.297   1.183   4.294  0.2092 -0.1229  0.3387
 8996SOL    HW138450   0.230   1.146   4.351  1.2727 -1.4427  0.7188
 8996SOL    HW238451   0.238   1.196   4.219 -0.9450  2.0071  1.6043
 8997SOL     OW38452   3.987   0.506  16.300 -0.3057  0.5607 -0.9826
 8997SOL    HW138453   3.960   0.547  16.382  0.4716  1.6262 -1.2579
 8997SOL    HW238454   4.077   0.537  16.290  0.3352 -0.1654  2.6613
 8998SOL     OW38455   2.600   0.805   8.286 -0.2065 -0.1607  0.1626
 8998SOL    HW138456   2.520   0.764   8.318 -0.5028  0.3923  0.1315
 8998SOL    HW238457   2.560   0.877   8.237 -1.2522  0.8430  2.4958
 8999SOL     OW38458   4.199   1.831   1.223  0.5919  0.1326 -0.0313
 8999SOL    HW138459   4.241   1.917   1.225 -0.1087  0.5319 -2.5813
 8999SOL    HW238460   4.144   1.830   1.301  0.8663 -0.8021  0.1459
 9000SOL     OW38461   0.612   1.622   2.977 -0.1315 -0.2264  0.1259
 9000SOL    HW138462   0.706   1.624   2.996 -0.3254  0.7804  0.9744
 9000SOL    HW238463   0.571   1.576   3.049  2.0054 -1.0060  0.8356
 9001SOL     OW38464   3.427   2.075  11.561 -0.0837 -0.2073  0.6977
 9001SOL    HW138465   3.481   2.066  11.640 -0.3889 -1.3643  0.7760
 9001SOL    HW238466   3.487   2.132  11.514 -1.5658  2.0878  1.6134
 9002SOL     OW38467   1.340   2.407   9.269  0.3049  1.0423 -0.1665
 9002SOL    HW138468   1.277   2.356   9.218 -0.9359 -0.7834  3.1526
 9002SOL    HW238469   1.366   2.340   9.332  0.2210  0.4223 -0.7953
 9003SOL     OW38470   1.917   0.853   3.650  0.0644  0.1825 -0.6123
 9003SOL    HW138471   1.960   0.915   3.591  0.4349  0.3054 -0.2142
 9003SOL    HW238472   1.930   0.769   3.605  2.9870  1.3855 -2.0476
 9004SOL     OW38473   1.830   3.832  15.599 -0.5189  0.4077 -0.7397
 9004SOL    HW138474   1.872   3.817  15.684  0.4381 -1.1964 -1.4861
 9004SOL    HW238475   1.909   3.857  15.551  0.8300 -1.9666  0.2292
 9005SOL     OW38476   0.651   1.755  15.737  0.0044  0.2447 -0.2995
 9005SOL    HW138477   0.647   1.699  15.660  0.6566  2.4676 -1.9195
 9005SOL    HW238478   0.572   1.726  15.783  0.4975 -1.3650 -0.4520
 9006SOL     OW38479   0.375   3.865   3.962 -0.1435 -0.6257 -0.1269
 9006SOL    HW138480   0.362   3.953   3.998 -0.7280 -1.4174  1.5848
 9006SOL    HW238481   0.430   3.890   3.887 -1.1386  2.8390  0.3345
 9007SOL     OW38482   1.037   2.437  15.806  0.2730 -0.0034 -0.2718
 9007SOL    HW138483   0.990   2.429  15.889  1.0720 -2.4911 -0.0395
 9007SOL    HW238484   1.024   2.348  15.772 -0.1666  0.3985 -1.1696
 9008SOL     OW38485   1.753   4.431  11.644  0.1202  0.5315  0.1392
 9008SOL    HW138486   1.698   4.387  11.579 -0.4883  2.7991 -0.8639
 9008SOL    HW238487   1.757   4.354  11.701  0.7003  0.0935 -0.5079
 9009SOL     OW38488   2.716   2.784   7.691  0.1648 -0.3831 -0.3109
 9009SOL    HW138489   2.803   2.772   7.730 -1.2459 -5.2586  1.3489
 9009SOL    HW238490   2.705   2.690   7.676 -2.8373  0.0569 -0.7011
 9010SOL     OW38491   3.347   4.329   3.784 -0.0616 -0.5235  0.5028
 9010SOL    HW138492   3.366   4.287   3.700 -0.9200  1.4311 -0.6582
 9010SOL    HW238493   3.394   4.412   3.774  0.1598 -0.9536 -1.9954
 9011SOL     OW38494   4.277   1.543  12.923  0.2774  0.2757 -0.0321
 9011SOL    HW138495   4.344   1.483  12.955 -0.3305  0.5182  1.7446
 9011SOL    HW238496   4.216   1.524  12.995  0.1486  0.3956 -0.1093
 9012SOL     OW38497   3.820   4.297   8.906 -0.4273  0.4049  0.3599
 9012SOL    HW138498   3.849   4.376   8.861 -0.5924 -0.7519 -1.7510
 9012SOL    HW238499   3.897   4.240   8.900 -0.5279  0.3111 -0.0148
 9013SOL     OW38500   1.945   0.729   8.515  0.2329  0.0879  0.3023
 9013SOL    HW138501   1.941   0.818   8.480 -0.5320 -0.7221 -1.6272
 9013SOL    HW238502   1.897   0.743   8.597 -0.5892 -1.7537  0.1280
 9014SOL     OW38503   4.639   4.405   6.730  0.0602 -0.1375  0.4767
 9014SOL    HW138504   4.698   4.330   6.726 -3.0458 -2.5206 -1.1954
 9014SOL    HW238505   4.652   4.438   6.818  2.0318 -0.2625  0.2179
 9015SOL     OW38506   3.800   2.518   2.766  0.4435 -0.1758 -0.4858
 9015SOL    HW138507   3.892   2.493   2.771  0.3178 -0.5890 -0.1955
 9015SOL    HW238508   3.750   2.462   2.826  0.3353  3.2631  2.6018
 9016SOL     OW38509   3.161   2.139  14.659  0.2981  0.3761 -0.3586
 9016SOL    HW138510   3.084   2.158  14.714  1.4552  0.6209  1.1676
 9016SOL    HW238511   3.121   2.138  14.572 -0.0781 -0.4320 -0.1815
 9017SOL     OW38512   0.456   1.525   3.709 -0.3409  0.3271  0.1108
 9017SOL    HW138513   0.381   1.583   3.699 -0.9913 -0.7756 -1.4669
 9017SOL    HW238514   0.427   1.447   3.662  1.5710  1.6184 -3.2213
 9018SOL     OW38515   0.148   0.106   2.818  0.2861 -0.2546  0.6211
 9018SOL    HW138516   0.058   0.075   2.820  0.5070 -0.7649  2.3075
 9018SOL    HW238517   0.194   0.035   2.862 -0.3376 -1.3641 -0.5160
 9019SOL     OW38518   2.280   0.776  16.898 -0.4608 -0.0256 -0.0489
 9019SOL    HW138519   2.357   0.794  16.844 -0.3516  1.6413  0.6847
 9019SOL    HW238520   2.301   0.691  16.938  0.5031  0.9633  1.5411
 9020SOL     OW38521   1.284   4.552   1.450  0.3098 -0.3416  0.0901
 9020SOL    HW138522   1.312   4.564   1.541  0.7416 -1.3180  0.0938
 9020SOL    HW238523   1.214   4.486   1.459 -1.3196  1.3365 -0.2219
 9021SOL     OW38524   0.541   0.391   0.908 -0.1069 -0.0997 -0.3557
 9021SOL    HW138525   0.533   0.462   0.972 -0.5897 -2.3355  2.0316
 9021SOL    HW238526   0.521   0.441   0.828 -4.1310  0.8829  1.2568
 9022SOL     OW38527   2.788   0.508   0.142 -0.1153  0.7256 -0.4882
 9022SOL    HW138528   2.829   0.485   0.225  2.8338  0.9267 -1.8960
 9022SOL    HW238529   2.841   0.587   0.128 -1.5826  1.8024 -0.0121
 9023SOL     OW38530   0.530   2.932   5.867 -0.9509 -0.3237 -0.0424
 9023SOL    HW138531   0.546   3.018   5.828  1.4974 -0.1720  1.2992
 9023SOL    HW238532   0.588   2.948   5.942  0.2927  0.5153 -1.1854
 9024SOL     OW38533   2.024   0.806  10.292  0.2559  0.5222  0.2278
 9024SOL    HW138534   2.094   0.872  10.286  0.9218 -0.1349  0.7116
 9024SOL    HW238535   1.961   0.866  10.330  2.5073  0.8392  3.4816
 9025SOL     OW38536   1.271   2.153   6.644 -0.0916  0.1854 -0.3401
 9025SOL    HW138537   1.302   2.238   6.611  1.0691  0.3678  1.2220
 9025SOL    HW238538   1.280   2.173   6.737  0.1971 -0.2240 -0.2800
 9026SOL     OW38539   1.303   0.273  12.718 -0.1024 -0.1846  0.8645
 9026SOL    HW138540   1.241   0.335  12.678  0.8269  0.5464  0.5456
 9026SOL    HW238541   1.362   0.247  12.647 -0.9756 -1.7244  0.7195
 9027SOL     OW38542   3.461   2.502   5.670  0.6323 -0.0236 -0.4557
 9027SOL    HW138543   3.507   2.567   5.617 -1.7152  1.1479 -1.0275
 9027SOL    HW238544   3.518   2.499   5.747 -0.8008 -1.9238  0.5407
 9028SOL     OW38545   2.422   3.202  10.705  0.5402  0.2333  0.2323
 9028SOL    HW138546   2.479   3.163  10.771  1.4480  1.0258 -0.0844
 9028SOL    HW238547   2.414   3.124  10.651 -0.9393  0.1254  0.6094
 9029SOL     OW38548   1.256   0.348  17.673 -0.2642  0.0395  0.7823
 9029SOL    HW138549   1.271   0.274   0.030 -1.3930 -1.1516 -0.4161
 9029SOL    HW238550   1.346   0.378  17.660  0.5479 -2.0628  1.4908
 9030SOL     OW38551   4.660   4.234   4.737  0.6069 -0.0121 -0.6788
 9030SOL    HW138552   4.708   4.184   4.671 -1.4081  0.0016 -2.1326
 9030SOL    HW238553   4.724   4.262   4.803 -0.2245 -0.2368  0.2112
 9031SOL     OW38554   0.649   0.260   5.844  0.3606  0.0532  0.1674
 9031SOL    HW138555   0.636   0.215   5.760 -1.4796  3.0457 -1.1457
 9031SOL    HW238556   0.687   0.340   5.809  1.5346  0.5796  2.6882
 9032SOL     OW38557   0.403   3.428   8.693 -0.5059  0.3634 -0.1878
 9032SOL    HW138558   0.416   3.483   8.616 -0.0929 -0.4083 -0.6633
 9032SOL    HW238559   0.310   3.439   8.710 -0.4232  0.0861  0.4609
 9033SOL     OW38560   1.296   1.048   5.408 -0.5482 -0.1067  0.5175
 9033SOL    HW138561   1.242   1.057   5.487  1.6588  1.6397  1.8198
 9033SOL    HW238562   1.381   1.079   5.438 -1.9497  1.3476  3.0007
 9034SOL     OW38563   0.358   1.847   7.221  0.1827 -0.3546  0.2837
 9034SOL    HW138564   0.444   1.853   7.264 -0.2305  1.5699  0.8314
 9034SOL    HW238565   0.305   1.884   7.292  1.8772  1.3385  0.6868
 9035SOL     OW38566   1.288   0.888   8.123 -0.3093 -0.9160 -0.3562
 9035SOL    HW138567   1.208   0.841   8.149 -0.5829  0.4660  1.3024
 9035SOL    HW238568   1.332   0.826   8.065  0.3762  1.1712 -2.0795
 9036SOL     OW38569   1.463   3.989   5.811 -1.2212 -0.0836 -0.0519
 9036SOL    HW138570   1.541   4.033   5.780 -2.0460  0.6811 -1.0528
 9036SOL    HW238571   1.480   3.895   5.810  2.0616  0.5319 -0.0718
 9037SOL     OW38572   4.136   3.590   6.210  0.5380 -0.6383 -0.1637
 9037SOL    HW138573   4.112   3.678   6.180 -2.2166 -1.3162  0.0223
 9037SOL    HW238574   4.070   3.585   6.279  0.2735  2.5432 -0.2034
 9038SOL     OW38575   3.654   1.051   0.952  0.2983 -0.0185 -0.5489
 9038SOL    HW138576   3.613   1.137   0.937 -0.5258  0.0220  1.8810
 9038SOL    HW238577   3.666   1.025   0.861  0.0712  0.7752 -0.8065
 9039SOL     OW38578   4.692   4.074  15.711 -0.6420 -0.8472  0.0082
 9039SOL    HW138579   4.623   4.047  15.651 -1.7866  0.5158  0.7192
 9039SOL    HW238580   4.695   4.165  15.683  0.2692 -1.1084 -0.7328
 9040SOL     OW38581   3.738   2.417   0.832 -0.2291 -0.3526  0.1299
 9040SOL    HW138582   3.651   2.447   0.805  0.3416  1.5687  0.3678
 9040SOL    HW238583   3.777   2.499   0.863  1.2681 -1.4510  1.1442
 9041SOL     OW38584   2.536   1.045   8.635 -0.2536  0.0739 -0.2409
 9041SOL    HW138585   2.621   1.090   8.633  0.9167 -1.9963  1.7603
 9041SOL    HW238586   2.555   0.956   8.665 -1.3608 -0.0213  0.1771
 9042SOL     OW38587   1.030   0.341   1.405  0.5782  0.1008  0.0069
 9042SOL    HW138588   1.106   0.397   1.419 -1.2011  1.5540  3.6852
 9042SOL    HW238589   1.010   0.348   1.312 -3.3634  1.5988  0.9714
 9043SOL     OW38590   4.447   0.836   0.559 -0.0110  0.1919  0.1909
 9043SOL    HW138591   4.475   0.893   0.488 -0.8187  0.0002 -0.2786
 9043SOL    HW238592   4.518   0.773   0.574 -1.2707 -1.5086 -1.0780
 9044SOL     OW38593   1.889   4.205   2.379 -0.2727 -0.2354  0.3160
 9044SOL    HW138594   1.829   4.265   2.422  0.8979  2.2617 -1.5293
 9044SOL    HW238595   1.878   4.126   2.431  0.8433 -0.5724  0.0375
 9045SOL     OW38596   0.228   1.025   2.023  0.1551 -0.3360 -0.2431
 9045SOL    HW138597   0.246   0.986   1.938  0.4986 -2.6293  0.8730
 9045SOL    HW238598   0.310   1.002   2.067  0.3867  0.6703 -0.1590
 9046SOL     OW38599   1.312   1.235   4.270  0.0670  0.1408 -0.3563
 9046SOL    HW138600   1.382   1.284   4.314  0.5537 -0.4358 -0.4833
 9046SOL    HW238601   1.275   1.296   4.206 -0.3784 -0.4080 -0.6274
 9047SOL     OW38602   3.296   0.704   5.988  0.2901 -0.4608 -0.0731
 9047SOL    HW138603   3.337   0.625   6.023 -2.3369 -2.5252 -1.6601
 9047SOL    HW238604   3.214   0.668   5.952 -0.1713  0.6727 -0.1487
 9048SOL     OW38605   0.786   3.561   9.219 -0.2687  0.5277 -0.2574
 9048SOL    HW138606   0.824   3.508   9.289  1.3906 -2.4763 -3.4055
 9048SOL    HW238607   0.710   3.598   9.263  0.2401  1.0092  0.2159
 9049SOL     OW38608   4.502   3.972   0.880 -0.0950  0.0856  0.2996
 9049SOL    HW138609   4.590   3.940   0.899 -0.3087 -0.2640  0.6991
 9049SOL    HW238610   4.482   3.948   0.789 -0.2424  2.0165 -0.1730
 9050SOL     OW38611   3.573   3.941   7.247 -0.0311  0.1494 -0.4550
 9050SOL    HW138612   3.538   3.963   7.161 -1.8421 -0.2359  0.1800
 9050SOL    HW238613   3.620   3.861   7.224 -0.7223 -0.3407 -0.1699
 9051SOL     OW38614   4.498   0.083   5.172  0.0877  0.2808 -0.0502
 9051SOL    HW138615   4.523   0.037   5.092 -0.8604 -0.9386  0.3491
 9051SOL    HW238616   4.404   0.068   5.169 -0.4077  3.1580  1.1221
 9052SOL     OW38617   2.603   0.051   8.932  0.2265  0.6501 -0.0792
 9052SOL    HW138618   2.522   0.027   8.887 -0.5148  0.3540  1.4284
 9052SOL    HW238619   2.645   4.691   8.944 -2.6564 -0.3217  3.0394
 9053SOL     OW38620   2.865   2.486  13.461  0.2549  0.0138 -0.4485
 9053SOL    HW138621   2.863   2.512  13.553  0.6417  0.4625 -0.5708
 9053SOL    HW238622   2.862   2.390  13.463 -0.9242 -0.0061 -3.1057
 9054SOL     OW38623   2.098   2.622   7.163  0.0456  0.1252  0.3910
 9054SOL    HW138624   2.184   2.620   7.205  0.7894 -2.1654 -1.3023
 9054SOL    HW238625   2.046   2.636   7.243  0.7231  0.3283  0.7938
 9055SOL     OW38626   2.653   1.151  15.168 -0.0636 -0.2398  0.3544
 9055SOL    HW138627   2.663   1.075  15.110  1.4193 -0.0109  0.3165
 9055SOL    HW238628   2.599   1.210  15.115  0.5206 -0.4678 -0.5058
 9056SOL     OW38629   0.158   2.363  12.132  0.0416  0.0112 -0.1506
 9056SOL    HW138630   0.077   2.314  12.146 -0.1250  0.3651  0.0872
 9056SOL    HW238631   0.109   2.425  12.078  1.1776  0.6328 -0.4679
 9057SOL     OW38632   0.903   0.490   7.009  0.4026  0.0066  0.1537
 9057SOL    HW138633   0.893   0.396   7.024  1.0980 -0.1745 -0.5361
 9057SOL    HW238634   0.984   0.484   6.958 -0.3520  2.2558 -1.3170
 9058SOL     OW38635   2.589   4.305   5.721 -0.2556 -0.2057 -0.6572
 9058SOL    HW138636   2.648   4.341   5.655  1.4742 -2.8503 -0.5379
 9058SOL    HW238637   2.513   4.359   5.700 -1.0793 -0.6524  1.1598
 9059SOL     OW38638   1.877   0.620   9.460  0.0771  0.0597  0.7234
 9059SOL    HW138639   1.839   0.658   9.539  1.5725  0.2987  1.3226
 9059SOL    HW238640   1.900   0.705   9.424 -0.4756  0.9412  2.4357
 9060SOL     OW38641   3.254   1.447   2.855 -0.2849  0.3282  0.1381
 9060SOL    HW138642   3.346   1.470   2.843 -0.4880  2.7207  3.3831
 9060SOL    HW238643   3.241   1.493   2.937  0.1559  0.5082  0.1024
 9061SOL     OW38644   4.701   3.721   3.207 -0.0187  0.4599 -0.3026
 9061SOL    HW138645   0.014   3.634   3.223  0.4767  0.7043 -0.1447
 9061SOL    HW238646   4.611   3.694   3.191  0.2018 -0.6444  0.3255
 9062SOL     OW38647   2.412   4.178   4.254 -0.6732  0.0570  0.0324
 9062SOL    HW138648   2.378   4.174   4.165  0.3045 -1.5839 -0.2596
 9062SOL    HW238649   2.397   4.271   4.273 -1.0345 -0.5218  2.6248
 9063SOL     OW38650   0.565   0.744   4.631 -0.4281  0.4730  0.1621
 9063SOL    HW138651   0.639   0.710   4.683  0.7775  0.8594 -1.3169
 9063SOL    HW238652   0.519   0.786   4.703  0.6078 -1.9705  2.2703
 9064SOL     OW38653   3.138   3.662  13.387 -0.5110  1.2895 -0.2775
 9064SOL    HW138654   3.072   3.606  13.345  0.9808 -1.1069  0.5282
 9064SOL    HW238655   3.091   3.702  13.460 -0.6707 -1.0634  0.9199
 9065SOL     OW38656   4.396   2.045   5.774 -0.1746  0.1188  0.0312
 9065SOL    HW138657   4.436   1.962   5.798 -1.7839  0.2937  3.4185
 9065SOL    HW238658   4.414   2.099   5.852  1.3747 -0.7165  0.2467
 9066SOL     OW38659   0.644   1.301   8.999 -0.0751 -0.0121  0.5672
 9066SOL    HW138660   0.582   1.354   9.049 -0.7849 -2.4923  2.3465
 9066SOL    HW238661   0.575   1.254   8.953 -1.1655  2.3680 -0.2041
 9067SOL     OW38662   0.548   3.200   3.298  0.8729 -0.3307 -0.0551
 9067SOL    HW138663   0.627   3.155   3.267  0.1896  0.5406 -3.0236
 9067SOL    HW238664   0.555   3.278   3.243 -1.0009 -1.1320 -1.4341
 9068SOL     OW38665   2.850   2.681   5.529 -0.1131  0.4800 -0.3221
 9068SOL    HW138666   2.909   2.608   5.508 -0.8570 -0.9186  2.4519
 9068SOL    HW238667   2.819   2.710   5.443 -0.1432  1.8930  0.1785
 9069SOL     OW38668   0.390   0.251   1.482 -0.3132  0.0952 -0.0870
 9069SOL    HW138669   0.448   0.325   1.465  0.9692 -0.4465  1.8428
 9069SOL    HW238670   0.429   0.193   1.417  0.3074 -0.8063  1.0853
 9070SOL     OW38671   0.273   3.418  13.208 -0.3578  0.3126 -0.6285
 9070SOL    HW138672   0.328   3.339  13.207  0.4491  0.8471  1.6324
 9070SOL    HW238673   0.324   3.487  13.250  0.4278 -0.1360 -0.8604
 9071SOL     OW38674   2.524   4.318   7.488 -0.4211  0.2452 -0.3290
 9071SOL    HW138675   2.489   4.238   7.528 -0.6209  1.3676  1.6883
 9071SOL    HW238676   2.556   4.374   7.558  1.1277 -0.8848 -0.1133
 9072SOL     OW38677   3.985   0.086  14.435 -1.2011 -0.1314  0.0179
 9072SOL    HW138678   3.998   0.157  14.371  0.7611  0.6785  1.3040
 9072SOL    HW238679   3.892   0.085  14.455 -0.5139 -1.2358  3.1410
 9073SOL     OW38680   3.984   1.878  13.795 -0.5424  0.2513 -0.1138
 9073SOL    HW138681   4.027   1.793  13.781 -0.8596  0.0751 -0.0299
 9073SOL    HW238682   3.919   1.863  13.864 -0.9729 -3.1757 -1.2150
 9074SOL     OW38683   3.924   2.768   4.256  0.6452  0.0098 -0.2904
 9074SOL    HW138684   3.917   2.684   4.303  4.1132 -0.6030 -0.8133
 9074SOL    HW238685   3.968   2.739   4.176  2.5365  0.0809  0.7202
 9075SOL     OW38686   1.161   1.678   4.028  0.5784  0.2552  0.4544
 9075SOL    HW138687   1.087   1.696   3.970  1.4260 -0.4386 -0.8359
 9075SOL    HW238688   1.236   1.718   3.982 -0.4858  1.3623 -0.3293
 9076SOL     OW38689   1.734   4.146   5.725  0.2312  0.4661  0.4593
 9076SOL    HW138690   1.783   4.221   5.692  0.8880 -1.3305 -2.6034
 9076SOL    HW238691   1.806   4.102   5.771 -0.1701 -0.3539  0.3015
 9077SOL     OW38692   1.544   3.763   8.726  0.1942 -0.7620  0.1656
 9077SOL    HW138693   1.585   3.760   8.640  1.6245 -0.3532  0.8354
 9077SOL    HW238694   1.481   3.692   8.714 -0.0746 -0.3386 -0.9548
 9078SOL     OW38695   0.994   2.846  11.332  0.1345 -0.0366 -0.3646
 9078SOL    HW138696   0.986   2.777  11.397  1.0971 -0.4616 -0.6984
 9078SOL    HW238697   1.028   2.920  11.382  2.1249 -0.0876 -1.6358
 9079SOL     OW38698   2.930   4.558   9.855  0.4693 -0.1324 -0.7416
 9079SOL    HW138699   3.001   4.574   9.793  1.9270  0.5755  1.0909
 9079SOL    HW238700   2.909   4.465   9.844 -3.3575  0.7523 -0.6688
 9080SOL     OW38701   3.954   2.684   6.240 -0.0775  0.3140  0.2229
 9080SOL    HW138702   3.944   2.633   6.159  0.2571  1.2483 -0.3991
 9080SOL    HW238703   3.925   2.774   6.224 -1.4443 -0.4154 -1.4101
 9081SOL     OW38704   1.272   2.943   3.854 -0.1078 -0.3188 -0.7362
 9081SOL    HW138705   1.336   2.914   3.919  0.3066  0.3867 -0.8215
 9081SOL    HW238706   1.278   2.885   3.778 -1.0086  0.6222 -1.5146
 9082SOL     OW38707   4.393   4.200   3.197 -0.1645  0.1831  0.4293
 9082SOL    HW138708   4.379   4.280   3.246  1.7879  1.2319 -0.7349
 9082SOL    HW238709   4.301   4.181   3.177  0.3644 -1.1871 -0.6601
 9083SOL     OW38710   3.209   1.243  14.127  0.3693 -0.6034 -0.3705
 9083SOL    HW138711   3.276   1.178  14.104  0.7315 -0.5524  0.5831
 9083SOL    HW238712   3.176   1.264  14.039 -0.8733 -0.3573  0.1500
 9084SOL     OW38713   0.416   2.030   0.126  0.2493 -0.1396 -0.1558
 9084SOL    HW138714   0.488   2.091   0.142  0.1996  0.1479 -1.0644
 9084SOL    HW238715   0.356   2.061   0.194  1.8689 -1.1822  1.7427
 9085SOL     OW38716   2.676   0.335  14.317 -0.0765 -0.3137  0.1509
 9085SOL    HW138717   2.593   0.317  14.362 -0.9461 -1.1972 -1.8176
 9085SOL    HW238718   2.657   0.349  14.225 -1.2185  0.7732  0.5528
 9086SOL     OW38719   3.304   3.826   3.124 -0.7085  0.0074 -0.3868
 9086SOL    HW138720   3.280   3.883   3.052 -0.9784 -0.2400 -0.4918
 9086SOL    HW238721   3.226   3.838   3.178  0.4958  3.0301  0.6908
 9087SOL     OW38722   0.565   2.469  14.669 -0.0984 -0.0723 -0.3648
 9087SOL    HW138723   0.630   2.469  14.599  0.8287  0.2634  0.5007
 9087SOL    HW238724   0.613   2.480  14.750 -0.8081 -0.5028  0.1176
 9088SOL     OW38725   2.954   4.201   9.094  0.3692  0.5560 -0.4145
 9088SOL    HW138726   2.962   4.294   9.117  2.1227  0.3431 -0.1593
 9088SOL    HW238727   2.933   4.203   9.001  1.0138  0.9294 -0.5505
 9089SOL     OW38728   3.228   3.497   5.287  0.1663  0.1315  0.0401
 9089SOL    HW138729   3.270   3.412   5.270 -0.8717 -0.2305 -0.7114
 9089SOL    HW238730   3.139   3.463   5.292  0.7919 -1.3188  1.4851
 9090SOL     OW38731   2.456   4.431   9.329  0.2036  0.1768 -0.1834
 9090SOL    HW138732   2.460   4.523   9.356  0.2234  0.5220 -1.3553
 9090SOL    HW238733   2.401   4.403   9.403  1.6496 -2.3042 -0.0639
 9091SOL     OW38734   2.810   1.664   6.441  0.1346  0.1895  0.1039
 9091SOL    HW138735   2.734   1.695   6.391 -1.5372 -1.3916  1.6944
 9091SOL    HW238736   2.864   1.649   6.363 -0.8706 -0.7746 -0.4036
 9092SOL     OW38737   1.782   1.542  14.026  0.4028 -0.5206  0.2156
 9092SOL    HW138738   1.704   1.523  13.974  0.3305 -2.1304  0.8955
 9092SOL    HW238739   1.808   1.456  14.060 -1.4577 -0.5717  1.5045
 9093SOL     OW38740   0.600   1.813   9.043  0.1404 -0.2083  0.8569
 9093SOL    HW138741   0.587   1.771   9.127 -0.5356  0.3277  1.0252
 9093SOL    HW238742   0.687   1.777   9.029  0.8224  2.1883 -1.1202
 9094SOL     OW38743   4.071   0.241  14.759 -0.2309  0.1194 -0.1076
 9094SOL    HW138744   3.998   0.196  14.803  0.1160 -0.3041  0.0385
 9094SOL    HW238745   4.059   0.329  14.795 -1.8706 -0.0214 -0.3139
 9095SOL     OW38746   2.448   0.897   2.055 -0.1783 -0.1306 -1.0217
 9095SOL    HW138747   2.428   0.840   2.130 -1.5203  0.5416 -0.8848
 9095SOL    HW238748   2.527   0.853   2.023  0.7711 -0.0302  1.1987
 9096SOL     OW38749   2.379   2.951   5.947  0.3783  0.4717 -0.2634
 9096SOL    HW138750   2.405   2.888   5.879 -0.8173 -0.0901 -0.2031
 9096SOL    HW238751   2.286   2.966   5.934  0.3545  0.9917  0.5765
 9097SOL     OW38752   1.561   2.654   1.637  0.3420 -0.0244  0.6009
 9097SOL    HW138753   1.485   2.602   1.662  0.7292 -0.6162  0.5589
 9097SOL    HW238754   1.521   2.699   1.562 -0.6863 -0.2051  1.0480
 9098SOL     OW38755   3.360   3.408   3.316 -0.2950  0.4230 -0.2605
 9098SOL    HW138756   3.449   3.429   3.345 -0.4221 -0.5149  0.8620
 9098SOL    HW238757   3.362   3.459   3.236 -0.9347  2.6673  1.1557
 9099SOL     OW38758   0.383   2.515  12.033 -0.0472 -0.6875 -0.1734
 9099SOL    HW138759   0.358   2.593  12.081  0.5490  0.4212 -1.6770
 9099SOL    HW238760   0.326   2.446  12.066  1.3348 -0.5977  2.4713
 9100SOL     OW38761   2.567   3.746  15.349 -0.0989 -0.1406  0.0663
 9100SOL    HW138762   2.534   3.833  15.373 -0.5796 -0.5604  0.9366
 9100SOL    HW238763   2.647   3.739  15.400  0.7629  2.2588 -0.9693
 9101SOL     OW38764   1.196   2.065   4.566  0.3053 -0.1774  0.4251
 9101SOL    HW138765   1.244   2.145   4.546 -1.4896  0.5726 -0.8753
 9101SOL    HW238766   1.145   2.086   4.644 -4.0161 -0.1335 -2.3551
 9102SOL     OW38767   1.129   2.429   0.732  0.8672 -0.2878 -0.4739
 9102SOL    HW138768   1.133   2.438   0.637  0.9340  0.7043 -0.3711
 9102SOL    HW238769   1.208   2.467   0.769  0.5876  0.0615 -0.2374
 9103SOL     OW38770   2.570   4.370   2.539  0.1529  0.5468 -0.2590
 9103SOL    HW138771   2.521   4.294   2.507  1.3701 -0.8182  1.0751
 9103SOL    HW238772   2.525   4.429   2.478 -0.7957  0.4263  0.3442
 9104SOL     OW38773   3.282   4.720   8.105 -0.2960 -0.8437 -0.2357
 9104SOL    HW138774   3.282   4.651   8.172 -1.5538 -1.2099 -0.6119
 9104SOL    HW238775   3.346   0.060   8.134  0.0241  0.4112 -3.7355
 9105SOL     OW38776   1.285   4.460   7.104 -0.2092  0.0550 -0.4384
 9105SOL    HW138777   1.190   4.451   7.116 -0.1039 -0.6689 -0.1212
 9105SOL    HW238778   1.312   4.466   7.196 -0.0758 -0.4186 -0.4457
 9106SOL     OW38779   3.084   4.409   8.112 -0.5726 -0.0694  0.3610
 9106SOL    HW138780   3.082   4.313   8.109  1.4028 -0.1030  0.1678
 9106SOL    HW238781   3.011   4.425   8.052 -1.0570 -0.6372  0.7944
 9107SOL     OW38782   3.016   4.721  13.953 -0.0074 -0.3471  0.2513
 9107SOL    HW138783   3.031   0.061  13.885 -1.7626  0.1021  0.2943
 9107SOL    HW238784   2.962   0.039  14.020 -0.3600  1.1377 -0.9850
 9108SOL     OW38785   2.187   4.495   7.929 -0.3490 -0.2638  0.4558
 9108SOL    HW138786   2.176   4.444   8.009  0.5033 -0.0316  0.7189
 9108SOL    HW238787   2.257   4.553   7.957 -0.2302  1.0906 -2.6066
 9109SOL     OW38788   2.570   4.046  13.732 -0.0558 -0.0647 -0.4118
 9109SOL    HW138789   2.475   4.054  13.735  0.1336  2.8944 -1.9351
 9109SOL    HW238790   2.579   3.961  13.775 -0.6356 -1.3313 -2.7943
 9110SOL     OW38791   0.900   0.405   0.203  0.2091  0.4286  0.2697
 9110SOL    HW138792   0.839   0.467   0.243  1.1695  0.8348  1.1093
 9110SOL    HW238793   0.951   0.387   0.282  1.2125 -0.1891 -0.5106
 9111SOL     OW38794   3.708   0.452   4.723  0.2681 -0.1478 -0.1479
 9111SOL    HW138795   3.689   0.413   4.808 -0.4090 -1.9309 -1.0937
 9111SOL    HW238796   3.782   0.397   4.695 -1.5358 -0.2994 -4.6315
 9112SOL     OW38797   4.653   1.162   8.481  0.5409  0.0711  0.5198
 9112SOL    HW138798   4.641   1.242   8.429  1.2682  0.1979  0.5432
 9112SOL    HW238799   4.563   1.130   8.479  0.6249  0.0026 -2.0333
 9113SOL     OW38800   3.753   4.146   8.326  0.2386 -0.2952 -0.5636
 9113SOL    HW138801   3.821   4.152   8.393 -0.6919 -0.0016  0.3608
 9113SOL    HW238802   3.724   4.056   8.339  1.1283 -0.8979 -2.8216
 9114SOL     OW38803   4.188   1.060   3.588  0.2557 -0.8411 -0.0322
 9114SOL    HW138804   4.140   1.042   3.507  1.5746 -0.0100 -0.9959
 9114SOL    HW238805   4.255   1.120   3.554 -0.6200 -0.6188 -1.3399
 9115SOL     OW38806   1.817   4.687   6.460  0.3193  0.8131  0.3253
 9115SOL    HW138807   1.757   4.688   6.535 -0.8473  1.4160 -0.6052
 9115SOL    HW238808   1.903   4.694   6.500  0.2535  0.5235  0.5111
 9116SOL     OW38809   0.002   2.568   7.501  0.0448  0.5589  0.4075
 9116SOL    HW138810   4.722   2.472   7.500 -0.2458  0.5775  0.0936
 9116SOL    HW238811   4.662   2.586   7.433 -1.5180  0.1019  1.7815
 9117SOL     OW38812   1.179   2.515   5.956 -0.0551 -0.2381 -0.0526
 9117SOL    HW138813   1.208   2.555   6.038 -1.0431 -1.5113  0.9025
 9117SOL    HW238814   1.263   2.490   5.917  0.6692  0.2783  1.1527
 9118SOL     OW38815   1.493   0.905   4.163  0.1039  0.2793  0.7523
 9118SOL    HW138816   1.487   0.907   4.259  0.7184  0.9496  0.7787
 9118SOL    HW238817   1.418   0.963   4.148  0.1365 -0.1797 -1.1235
 9119SOL     OW38818   3.524   1.685   5.599 -0.1049  0.0012 -0.4256
 9119SOL    HW138819   3.552   1.771   5.567 -0.9287  0.7761  0.9599
 9119SOL    HW238820   3.553   1.636   5.522 -2.7999 -0.5146 -1.1074
 9120SOL     OW38821   1.974   3.603   4.996  0.3029 -0.1605  0.1795
 9120SOL    HW138822   1.998   3.695   5.003  2.2063 -0.5427 -1.4988
 9120SOL    HW238823   2.041   3.556   5.045  2.2963 -0.0289 -2.4605
 9121SOL     OW38824   2.988   3.483   9.241  0.4096 -0.2898 -0.0295
 9121SOL    HW138825   2.977   3.521   9.328  0.6749 -0.3532  0.0311
 9121SOL    HW238826   2.994   3.389   9.260 -0.3445  0.0418  1.8776
 9122SOL     OW38827   3.251   0.017   8.903  0.3782 -0.3591  0.1710
 9122SOL    HW138828   3.289   4.672   8.849  0.6832 -1.0264  1.2413
 9122SOL    HW238829   3.317   0.085   8.892 -0.5408  0.4048 -0.6060
 9123SOL     OW38830   2.348   0.166   3.887  0.0321  0.4228  0.0271
 9123SOL    HW138831   2.258   0.198   3.890  0.3166  1.2426 -0.2519
 9123SOL    HW238832   2.395   0.235   3.934  0.3417  1.2262 -1.4607
 9124SOL     OW38833   3.715   2.444  17.296 -0.2593 -0.4485  0.1391
 9124SOL    HW138834   3.722   2.532  17.259 -2.2391 -0.9746 -1.5107
 9124SOL    HW238835   3.643   2.462  17.357  0.2507 -0.8091  0.8477
 9125SOL     OW38836   2.115   3.846   6.536 -0.0532 -0.2371  0.9274
 9125SOL    HW138837   2.198   3.813   6.503 -0.7314 -0.0766 -0.9265
 9125SOL    HW238838   2.149   3.883   6.617 -1.0506 -1.5217  1.9249
 9126SOL     OW38839   1.820   4.048  15.874  0.4021  0.0706  0.5991
 9126SOL    HW138840   1.806   4.104  15.951  0.9768  0.2425  0.5753
 9126SOL    HW238841   1.778   3.964  15.890 -0.0668  0.1892  0.0383
 9127SOL     OW38842   2.361   0.183  10.026 -0.1001  0.1605  0.0304
 9127SOL    HW138843   2.424   0.159  10.094 -0.1867 -0.9534 -0.2822
 9127SOL    HW238844   2.286   0.208  10.080  0.9478  1.5629  0.8310
 9128SOL     OW38845   4.674   2.861   0.216  0.3939 -0.2083 -0.3270
 9128SOL    HW138846   4.640   2.898   0.134 -3.1161 -0.3277  1.0767
 9128SOL    HW238847   4.666   2.941   0.267 -2.9343 -0.4896 -0.3734
 9129SOL     OW38848   2.833   4.473   2.123 -0.3291  0.6829  0.2884
 9129SOL    HW138849   2.836   4.402   2.059  0.5558  0.8489  0.1391
 9129SOL    HW238850   2.841   4.428   2.207  1.6534  2.0161  0.8139
 9130SOL     OW38851   4.158   3.358  16.234  0.0480 -0.0237  0.1922
 9130SOL    HW138852   4.169   3.273  16.276 -0.5170 -0.5642 -0.7361
 9130SOL    HW238853   4.249   3.383  16.221 -0.3356  1.3275  0.0475
 9131SOL     OW38854   3.155   2.515   4.075 -0.8431 -0.3867  0.2384
 9131SOL    HW138855   3.135   2.421   4.069 -1.8320 -0.0284 -1.9408
 9131SOL    HW238856   3.146   2.544   4.166  1.9148  2.3661 -0.3715
 9132SOL     OW38857   0.825   2.952   3.466  0.0977 -0.4136 -0.1479
 9132SOL    HW138858   0.762   2.886   3.494  1.1541 -0.1606  2.8468
 9132SOL    HW238859   0.785   2.971   3.381 -1.5477  1.2082  1.0047
 9133SOL     OW38860   4.544   4.256  11.866 -0.1390  0.0142 -0.0437
 9133SOL    HW138861   4.481   4.324  11.844 -1.4842 -0.0835  3.5504
 9133SOL    HW238862   4.629   4.301  11.867  0.8628 -1.8762  0.4218
 9134SOL     OW38863   4.257   3.100   2.299 -0.0281 -0.4769  0.0448
 9134SOL    HW138864   4.325   3.165   2.285 -0.5260  0.5340  2.2090
 9134SOL    HW238865   4.223   3.084   2.211  0.9188 -0.4823 -0.3215
 9135SOL     OW38866   4.027   3.446   4.401  0.4149  0.1472  0.0867
 9135SOL    HW138867   4.107   3.493   4.379 -0.3674  1.4536 -0.0178
 9135SOL    HW238868   3.995   3.477   4.486  3.0685  0.2276  1.0349
 9136SOL     OW38869   0.737   0.350  15.694 -0.3417  0.3806 -0.7456
 9136SOL    HW138870   0.792   0.287  15.649 -1.3075 -3.6643  3.7281
 9136SOL    HW238871   0.767   0.335  15.784 -1.1882 -0.9462 -0.6938
 9137SOL     OW38872   1.922   0.086  11.463 -0.7208 -0.3934 -0.3020
 9137SOL    HW138873   1.833   0.111  11.484 -0.6260 -1.0738  0.8876
 9137SOL    HW238874   1.924   4.718  11.485  1.2054 -0.9507 -2.7459
 9138SOL     OW38875   3.477   0.143   9.339 -0.0437  0.8038  0.4441
 9138SOL    HW138876   3.552   0.184   9.296 -0.2501  0.1969 -0.5191
 9138SOL    HW238877   3.399   0.168   9.288 -0.3769  2.4327  1.7597
 9139SOL     OW38878   1.059   3.869   8.178 -0.1459  0.0167 -0.0842
 9139SOL    HW138879   1.133   3.883   8.236 -0.5363  0.0934  0.3864
 9139SOL    HW238880   1.089   3.917   8.101 -0.2729  0.2624  0.0207
 9140SOL     OW38881   2.133   4.317   5.760 -0.5189 -0.2823  0.1105
 9140SOL    HW138882   2.191   4.360   5.823  0.8750  0.3147 -1.5836
 9140SOL    HW238883   2.197   4.298   5.692 -1.7389  0.1391 -1.1735
 9141SOL     OW38884   2.770   1.801  10.939 -0.0096 -0.2829  0.3950
 9141SOL    HW138885   2.683   1.825  10.973 -0.7403 -0.6811 -1.1950
 9141SOL    HW238886   2.766   1.840  10.852  1.2658  0.0956  0.5070
 9142SOL     OW38887   4.315   1.672   3.382  0.2267 -0.7153 -0.3671
 9142SOL    HW138888   4.324   1.633   3.295  0.7898 -2.3354  0.4168
 9142SOL    HW238889   4.393   1.633   3.421 -0.6132 -0.5068  1.5057
 9143SOL     OW38890   2.975   2.303  17.255 -0.4951  0.5211 -0.1997
 9143SOL    HW138891   2.961   2.396  17.238 -1.3704  0.3325 -0.5164
 9143SOL    HW238892   3.013   2.285  17.169 -2.4771 -2.6899 -0.4189
 9144SOL     OW38893   2.274   2.077   4.072  0.4707  0.1911 -0.1772
 9144SOL    HW138894   2.273   2.150   4.010  0.8006 -0.9001 -1.4751
 9144SOL    HW238895   2.247   2.006   4.013  0.4272  1.4189 -1.6417
 9145SOL     OW38896   4.073   2.453  17.106  0.5871 -0.3301  0.7207
 9145SOL    HW138897   4.115   2.480  17.188  4.9142 -4.2576 -0.2283
 9145SOL    HW238898   4.055   2.539  17.067  0.0679 -0.4931  0.6115
 9146SOL     OW38899   1.700   0.359   7.650  0.0312 -0.0754  0.0105
 9146SOL    HW138900   1.622   0.325   7.693 -0.1582 -0.3917 -0.5758
 9146SOL    HW238901   1.714   0.445   7.689 -1.8596  0.2399 -0.0304
 9147SOL     OW38902   4.350   0.114   4.076  0.2888  0.1951 -0.4775
 9147SOL    HW138903   4.375   0.111   4.168  0.7568 -1.1251 -0.6368
 9147SOL    HW238904   4.379   0.201   4.049 -0.5783  0.7632  0.4423
 9148SOL     OW38905   0.940   3.728   9.589  0.1537 -0.3463  0.1421
 9148SOL    HW138906   1.016   3.772   9.627  1.4400 -2.3893 -0.0762
 9148SOL    HW238907   0.977   3.641   9.576  0.7537  0.2610 -2.2086
 9149SOL     OW38908   3.210   1.601   3.063  0.5544 -0.2002  0.8260
 9149SOL    HW138909   3.154   1.535   3.105 -0.6648  0.8358  0.8420
 9149SOL    HW238910   3.155   1.679   3.070 -0.3315 -0.5347 -2.4665
 9150SOL     OW38911   3.377   1.253   7.042 -0.3614 -0.1278  0.4109
 9150SOL    HW138912   3.401   1.226   7.131  0.7021  1.8410  0.7442
 9150SOL    HW238913   3.287   1.228   7.022 -0.5113  0.3132  0.5344
 9151SOL     OW38914   3.658   2.156  14.758 -0.9476  0.1714 -0.0431
 9151SOL    HW138915   3.695   2.120  14.678 -0.6223 -2.3380  1.2592
 9151SOL    HW238916   3.587   2.093  14.769  0.5392 -1.5173 -0.2686
 9152SOL     OW38917   3.972   3.935  10.957 -0.0727  0.1934  0.1114
 9152SOL    HW138918   4.010   3.973  11.036 -0.8433  0.1718  0.4942
 9152SOL    HW238919   3.883   3.970  10.967  0.3646  1.3870 -0.1858
 9153SOL     OW38920   2.970   4.272   6.846 -0.3727  0.3424 -0.1257
 9153SOL    HW138921   2.982   4.319   6.929  3.0555  1.2423 -1.1484
 9153SOL    HW238922   2.897   4.323   6.811  0.0208  0.2685 -1.0489
 9154SOL     OW38923   3.981   4.533  13.844  0.5380 -0.6234 -0.4935
 9154SOL    HW138924   4.034   4.597  13.797 -0.3262 -1.3206 -2.4408
 9154SOL    HW238925   3.893   4.554  13.813 -0.1301 -0.7381  1.2928
 9155SOL     OW38926   3.138   2.546   8.337  0.2633  0.1324 -0.2991
 9155SOL    HW138927   3.058   2.562   8.388  0.9686 -2.9088  1.7442
 9155SOL    HW238928   3.106   2.477   8.279  1.7093 -1.1369  0.4031
 9156SOL     OW38929   0.103   1.432   2.935  0.6631 -0.2761 -0.1785
 9156SOL    HW138930   0.197   1.421   2.923  0.5312 -0.6281 -0.8925
 9156SOL    HW238931   0.097   1.398   3.025 -2.2696  0.7208  0.0105
 9157SOL     OW38932   0.439   3.007  14.612  0.6209 -1.1543  0.2744
 9157SOL    HW138933   0.458   2.948  14.686 -1.0545 -1.5212  0.4162
 9157SOL    HW238934   0.357   2.969  14.580 -0.3437 -1.1182  2.7217
 9158SOL     OW38935   0.454   0.479   5.242 -0.4460 -0.1052  0.3244
 9158SOL    HW138936   0.523   0.469   5.308 -0.4750 -1.4708  0.1379
 9158SOL    HW238937   0.430   0.570   5.260  1.0203  0.7487 -1.9153
 9159SOL     OW38938   4.604   3.479   8.907  0.2491  0.2887  0.2671
 9159SOL    HW138939   4.650   3.447   8.985  2.9618  1.6465 -0.7598
 9159SOL    HW238940   4.669   3.469   8.838  0.5685  1.5238  0.3725
 9160SOL     OW38941   4.023   3.191   4.481  0.4625 -0.1301  0.1652
 9160SOL    HW138942   4.083   3.243   4.534  0.5978 -1.4931  1.3672
 9160SOL    HW238943   3.983   3.261   4.430  4.1748  0.8166 -1.4143
 9161SOL     OW38944   3.335   0.910   8.921 -0.0669 -0.0445  0.8483
 9161SOL    HW138945   3.328   0.955   8.836 -1.4828 -0.3849  0.7801
 9161SOL    HW238946   3.419   0.866   8.910 -0.0270  0.0922  0.6150
 9162SOL     OW38947   3.945   1.239   2.701 -0.1521 -0.0059  0.4981
 9162SOL    HW138948   3.896   1.229   2.620 -0.4805  0.0491  0.6881
 9162SOL    HW238949   3.909   1.319   2.738  1.9875  2.8488 -3.6529
 9163SOL     OW38950   4.369   1.895   2.782 -0.1025 -0.0144  0.0144
 9163SOL    HW138951   4.380   1.852   2.866 -0.0952  0.6517  0.3562
 9163SOL    HW238952   4.385   1.984   2.814 -0.7963  0.6749 -1.5199
 9164SOL     OW38953   2.548   4.180   2.753 -0.2294 -0.8513  0.0721
 9164SOL    HW138954   2.565   4.245   2.685  0.4613 -1.0001  0.1090
 9164SOL    HW238955   2.579   4.103   2.706 -0.7071 -1.3811  0.6121
 9165SOL     OW38956   3.652   3.201   3.312 -0.5057  0.0775 -0.3997
 9165SOL    HW138957   3.670   3.115   3.274 -1.8140 -0.2742 -0.2510
 9165SOL    HW238958   3.662   3.249   3.231 -0.9348  2.1894  0.7910
 9166SOL     OW38959   3.709   4.256   1.907 -0.1632  0.5462 -0.2470
 9166SOL    HW138960   3.766   4.182   1.885  0.2429  0.2760  1.6827
 9166SOL    HW238961   3.632   4.236   1.854  0.6058 -1.7892 -0.4846
 9167SOL     OW38962   4.484   0.522   6.450  0.1464 -0.1839  0.4817
 9167SOL    HW138963   4.393   0.511   6.422 -0.4642 -0.9936  2.7342
 9167SOL    HW238964   4.485   0.467   6.528 -0.0788 -1.0094 -0.0937
 9168SOL     OW38965   3.388   2.716   8.784  0.0866  0.0675  0.1296
 9168SOL    HW138966   3.374   2.654   8.855 -0.1638 -0.4822 -0.4005
 9168SOL    HW238967   3.308   2.767   8.798  0.5079 -0.0136  2.8999
 9169SOL     OW38968   2.125   3.231   5.837 -0.4980  0.5326 -0.2148
 9169SOL    HW138969   2.179   3.235   5.916  2.5393 -2.7179 -2.1602
 9169SOL    HW238970   2.086   3.144   5.846 -2.2113  1.2939 -0.2631
 9170SOL     OW38971   2.434   3.327   7.411 -0.5365  0.5455  0.1806
 9170SOL    HW138972   2.513   3.344   7.463 -0.0647 -1.6584  0.1918
 9170SOL    HW238973   2.462   3.240   7.382  1.4730  1.2613 -0.0231
 9171SOL     OW38974   0.528   3.727  11.577 -0.1402 -0.1752 -0.6140
 9171SOL    HW138975   0.586   3.680  11.636 -2.3220  2.2370  3.4324
 9171SOL    HW238976   0.574   3.811  11.582  0.0687 -0.3405  0.1620
 9172SOL     OW38977   3.995   0.171  15.353 -0.1953  0.4979 -0.1997
 9172SOL    HW138978   3.964   0.255  15.388 -0.2944 -0.6309  2.4525
 9172SOL    HW238979   3.908   0.136  15.337  0.1652 -0.4285 -0.1104
 9173SOL     OW38980   0.992   2.946   7.124 -0.2380 -0.6927  0.2710
 9173SOL    HW138981   0.917   2.984   7.079 -2.2650 -2.0481  2.4893
 9173SOL    HW238982   0.945   2.886   7.182 -2.0895  1.0990  0.6447
 9174SOL     OW38983   1.995   1.636   5.236 -0.5951  0.0979 -0.5917
 9174SOL    HW138984   2.034   1.583   5.166  1.0661  0.0891  0.3508
 9174SOL    HW238985   2.052   1.611   5.308 -0.6249  2.0743  0.1007
 9175SOL     OW38986   2.632   3.318   7.139 -0.0613  0.2403 -0.0790
 9175SOL    HW138987   2.669   3.239   7.098  0.6231  0.6001 -0.1540
 9175SOL    HW238988   2.542   3.323   7.107 -0.3202  1.8486  0.8994
 9176SOL     OW38989   3.448   4.560   1.956 -0.3433  0.3794  0.1701
 9176SOL    HW138990   3.529   4.551   2.007  0.5871  0.8283 -1.2129
 9176SOL    HW238991   3.389   4.604   2.017 -0.6949 -1.3716  1.0888
 9177SOL     OW38992   4.446   0.914   3.000 -0.8721  0.3335 -0.8480
 9177SOL    HW138993   4.475   0.997   2.962 -0.7697  0.1563 -1.1625
 9177SOL    HW238994   4.351   0.928   3.009 -0.8088 -0.1091  0.4737
 9178SOL     OW38995   2.260   0.686   4.352  0.0029 -0.5213 -0.4717
 9178SOL    HW138996   2.231   0.639   4.273  0.2296  2.5662 -2.3859
 9178SOL    HW238997   2.350   0.704   4.323 -0.3426 -2.0236 -2.4915
 9179SOL     OW38998   2.911   3.086   3.515  0.0458  0.6037 -0.4848
 9179SOL    HW138999   2.914   3.074   3.420 -1.5626 -0.8984 -0.3531
 9179SOL    HW239000   2.948   3.008   3.558 -1.6099 -0.9085 -1.8182
 9180SOL     OW39001   4.508   4.078  11.629 -0.1360 -0.1339  0.8746
 9180SOL    HW139002   4.477   4.118  11.710 -2.5221 -0.1816 -0.0016
 9180SOL    HW239003   4.565   4.144  11.590  0.6476 -0.7495  0.9877
 9181SOL     OW39004   4.476   2.836   3.070 -0.8173 -0.6674  0.5932
 9181SOL    HW139005   4.444   2.836   3.160  0.8634 -1.8389  1.1808
 9181SOL    HW239006   4.411   2.791   3.017 -0.9220 -2.1222  1.9557
 9182SOL     OW39007   2.731   2.328   5.295  0.3242  0.1435  0.6333
 9182SOL    HW139008   2.650   2.366   5.331 -1.3032 -1.7659 -0.9874
 9182SOL    HW239009   2.715   2.349   5.203  0.0630  1.9009  1.0799
 9183SOL     OW39010   3.847   2.574   8.375  0.2065 -0.0359  0.2317
 9183SOL    HW139011   3.880   2.649   8.326 -0.6563 -0.9873 -1.8480
 9183SOL    HW239012   3.882   2.496   8.331  1.7041 -0.4266  2.1282
 9184SOL     OW39013   0.966   1.639  15.328 -0.3481 -0.4504 -0.6793
 9184SOL    HW139014   0.953   1.725  15.366 -0.8462 -0.6466 -0.4087
 9184SOL    HW239015   0.983   1.670  15.239  1.4354 -0.4245 -0.3295
 9185SOL     OW39016   1.851   0.247   6.932 -0.1315  0.0360  0.2944
 9185SOL    HW139017   1.892   0.243   6.846  2.9042  0.0447  1.7531
 9185SOL    HW239018   1.772   0.194   6.920  0.6653 -0.8735 -0.9825
 9186SOL     OW39019   2.046   0.986   6.417 -0.0285  0.1279 -0.6528
 9186SOL    HW139020   2.075   0.904   6.456  1.6049  1.2546  0.4996
 9186SOL    HW239021   1.953   0.999   6.435  0.2218  1.2355 -0.1649
 9187SOL     OW39022   2.496   0.627   4.817 -0.0792  0.0695  0.3276
 9187SOL    HW139023   2.461   0.652   4.731 -2.4825  1.3908  1.7215
 9187SOL    HW239024   2.467   0.701   4.869  1.5017  1.1813 -0.3690
 9188SOL     OW39025   1.753   2.882   8.159  0.2718  0.7540 -0.0298
 9188SOL    HW139026   1.802   2.812   8.116 -1.7986  0.3389 -1.6692
 9188SOL    HW239027   1.757   2.946   8.088  1.8476  1.5116  0.7328
 9189SOL     OW39028   3.040   4.036   6.304 -0.6823  0.1512  0.8571
 9189SOL    HW139029   3.104   4.106   6.297 -1.1713  0.5836  0.7370
 9189SOL    HW239030   3.006   4.044   6.215  2.1492 -1.0484 -0.3291
 9190SOL     OW39031   2.515   2.547   8.571  0.1816 -0.4567 -0.3664
 9190SOL    HW139032   2.434   2.499   8.554 -0.8777  0.6271  1.6353
 9190SOL    HW239033   2.491   2.618   8.512 -2.3994  0.4196  1.7014
 9191SOL     OW39034   3.356   3.053   4.003 -0.4103 -0.8844  0.5814
 9191SOL    HW139035   3.404   3.034   3.923  0.3060 -1.5540  1.1666
 9191SOL    HW239036   3.336   3.145   3.986  0.4444 -0.9796 -0.9722
 9192SOL     OW39037   4.306   1.184   0.840 -0.2160  0.0300  0.4862
 9192SOL    HW139038   4.392   1.223   0.856  0.9065 -1.4246 -2.1188
 9192SOL    HW239039   4.316   1.089   0.843 -1.4674 -0.0573  2.1413
 9193SOL     OW39040   3.842   0.005   5.159  0.3224 -0.0093 -0.2308
 9193SOL    HW139041   3.902   4.695   5.224  0.2347 -1.3895 -0.8869
 9193SOL    HW239042   3.896   0.077   5.126  0.6087 -0.1822 -0.1356
 9194SOL     OW39043   0.484   0.821   3.244 -0.6941 -0.5252 -0.3115
 9194SOL    HW139044   0.463   0.754   3.309  0.7290 -0.3191  0.3686
 9194SOL    HW239045   0.540   0.775   3.181  0.4934 -0.2162  0.5296
 9195SOL     OW39046   4.349   0.950   6.901 -0.5788 -0.2331 -0.5906
 9195SOL    HW139047   4.371   0.985   6.988  0.6646  0.9101 -1.3782
 9195SOL    HW239048   4.315   1.033   6.868  1.7929  1.4332  1.1113
 9196SOL     OW39049   2.409   4.523  16.809  0.2467  0.0365 -0.2958
 9196SOL    HW139050   2.440   4.526  16.899  0.5428  1.1691 -0.4382
 9196SOL    HW239051   2.476   4.477  16.759 -0.4548 -0.4204 -0.8207
 9197SOL     OW39052   0.581   1.355  14.205 -0.2655 -0.1114  0.8208
 9197SOL    HW139053   0.562   1.310  14.122 -0.0250  1.0301  0.1575
 9197SOL    HW239054   0.652   1.414  14.181 -0.1399  0.1199  1.7453
 9198SOL     OW39055   4.714   3.969  16.415  0.1474 -0.1632 -0.0317
 9198SOL    HW139056   4.678   3.975  16.326  1.2017  2.7204 -0.2923
 9198SOL    HW239057   0.050   4.043  16.423 -0.5225  0.4140 -0.1720
 9199SOL     OW39058   1.179   4.222   3.159  0.7546 -0.0802 -0.1612
 9199SOL    HW139059   1.085   4.204   3.152  0.6510 -0.0430  1.2240
 9199SOL    HW239060   1.214   4.193   3.074 -0.7824 -3.0615  0.2247
 9200SOL     OW39061   3.491   3.906  12.557  0.6104 -0.6549  1.1655
 9200SOL    HW139062   3.517   3.814  12.547  0.4842 -0.5852  0.1579
 9200SOL    HW239063   3.413   3.888  12.609  0.0621 -2.2361 -0.1969
 9201SOL     OW39064   1.088   2.585   4.215  0.5624  0.1445  0.0936
 9201SOL    HW139065   1.085   2.679   4.202  2.6043  0.1661 -0.1436
 9201SOL    HW239066   1.155   2.557   4.153  1.8321 -0.9260  1.9190
 9202SOL     OW39067   1.626   3.730   2.563 -0.1886  0.2262 -0.7228
 9202SOL    HW139068   1.676   3.704   2.640 -2.0560  2.6756  1.3571
 9202SOL    HW239069   1.617   3.643   2.525  0.0213  0.0994 -0.4761
 9203SOL     OW39070   2.992   0.189  13.746 -0.1103  0.0191 -0.0136
 9203SOL    HW139071   3.082   0.202  13.774  0.1578 -1.6304 -0.0697
 9203SOL    HW239072   2.974   0.251  13.676  0.3788  0.5456  0.3341
 9204SOL     OW39073   0.246   1.646  14.350 -0.4201 -0.4292 -0.3487
 9204SOL    HW139074   0.284   1.558  14.349 -1.3900 -0.8816  2.1469
 9204SOL    HW239075   0.268   1.673  14.261  0.4532 -0.5307 -0.1692
 9205SOL     OW39076   2.401   1.166   2.014 -1.1541  0.5028 -0.1012
 9205SOL    HW139077   2.429   1.075   2.020  0.9898  1.1553 -0.3783
 9205SOL    HW239078   2.306   1.152   2.017 -1.2882  1.2594 -0.6762
 9206SOL     OW39079   3.324   4.458   8.810  0.1769 -0.0721 -0.4124
 9206SOL    HW139080   3.404   4.467   8.861  0.6677 -2.0436 -0.8333
 9206SOL    HW239081   3.304   4.366   8.825  1.5254 -0.3090 -0.0615
 9207SOL     OW39082   3.149   1.018  15.685  0.1586  0.1396 -0.8456
 9207SOL    HW139083   3.136   0.933  15.726 -0.9770 -0.2693 -2.0436
 9207SOL    HW239084   3.239   1.019  15.716 -0.1782 -1.9146  0.1673
 9208SOL     OW39085   2.512   2.178  15.139 -0.0569  0.3123  0.4788
 9208SOL    HW139086   2.514   2.249  15.204  1.5733 -0.9530  1.8427
 9208SOL    HW239087   2.600   2.180  15.101  0.0997 -1.0090  0.7665
 9209SOL     OW39088   3.061   0.797  11.239 -0.0963  0.2865 -0.0125
 9209SOL    HW139089   3.073   0.710  11.201  1.8529 -0.5807  2.5977
 9209SOL    HW239090   3.132   0.793  11.303 -0.6998 -0.3503  0.6193
 9210SOL     OW39091   4.044   1.888   9.411 -0.0271  0.5387  0.1066
 9210SOL    HW139092   4.056   1.890   9.316 -0.6529  0.2109  0.0226
 9210SOL    HW239093   4.001   1.971   9.430  1.3372  1.6448 -1.6010
 9211SOL     OW39094   1.360   2.651   1.301  0.4029  0.0492 -0.2855
 9211SOL    HW139095   1.425   2.581   1.300  0.7802  0.4477 -2.5725
 9211SOL    HW239096   1.404   2.714   1.358 -1.8211  0.4975  0.9567
 9212SOL     OW39097   2.270   0.754   0.603  0.5213 -0.8019  0.0452
 9212SOL    HW139098   2.222   0.685   0.648  2.6769 -2.9994 -1.0587
 9212SOL    HW239099   2.355   0.712   0.591  1.0976  0.0927  0.9415
 9213SOL     OW39100   2.440   2.451  11.387  0.0161  0.3276 -0.1796
 9213SOL    HW139101   2.521   2.408  11.362 -1.0589 -1.8607  0.1504
 9213SOL    HW239102   2.387   2.403  11.324 -1.8309  2.8791 -0.5893
 9214SOL     OW39103   2.363   0.109   9.542  0.6929 -0.0839 -0.6552
 9214SOL    HW139104   2.332   0.176   9.602 -1.3860 -0.5688 -1.1927
 9214SOL    HW239105   2.339   0.029   9.589 -0.5368 -0.6751 -2.2505
 9215SOL     OW39106   4.673   0.513   6.948  0.4756  0.4393  0.5905
 9215SOL    HW139107   0.040   0.490   6.933 -0.2444  0.2013 -3.4802
 9215SOL    HW239108   4.653   0.463   7.027  1.1002  0.5163  0.8004
 9216SOL     OW39109   0.990   3.418   2.567  0.2170 -0.2689  0.3948
 9216SOL    HW139110   1.014   3.508   2.542 -3.2315  0.8964  1.2872
 9216SOL    HW239111   1.071   3.385   2.528 -1.0289 -2.4166 -0.3361
 9217SOL     OW39112   1.487   1.881   7.726 -0.0736 -0.5525 -0.6728
 9217SOL    HW139113   1.403   1.853   7.689 -1.3928  0.5119  1.5188
 9217SOL    HW239114   1.537   1.857   7.648  1.2575  0.3878 -0.1013
 9218SOL     OW39115   2.967   2.267   3.818 -0.0419 -0.5302 -0.0852
 9218SOL    HW139116   2.923   2.191   3.780  0.4465 -0.0854 -1.5094
 9218SOL    HW239117   2.986   2.234   3.906 -2.2884  0.8414  0.9357
 9219SOL     OW39118   2.907   3.678   5.093 -0.1833 -0.0535  0.5198
 9219SOL    HW139119   2.857   3.760   5.100 -1.2746 -0.5029 -2.0342
 9219SOL    HW239120   2.850   3.621   5.042 -1.6024  0.2469  1.7684
 9220SOL     OW39121   3.593   2.408  16.720 -1.1645  0.4638  0.1616
 9220SOL    HW139122   3.674   2.380  16.763 -0.9036  2.5933  1.0442
 9220SOL    HW239123   3.596   2.367  16.634  0.4828 -1.7562  1.2874
 9221SOL     OW39124   1.258   0.542   8.668  0.0657 -0.1126 -0.2533
 9221SOL    HW139125   1.250   0.602   8.594 -0.5004 -0.0686 -0.1606
 9221SOL    HW239126   1.208   0.465   8.642  0.1749 -0.3255  0.1598
 9222SOL     OW39127   2.592   2.588  13.766 -0.1816  0.4243  0.5062
 9222SOL    HW139128   2.577   2.661  13.826 -0.3391  0.8209 -0.0173
 9222SOL    HW239129   2.688   2.580  13.772 -0.1633 -0.2538 -0.6616
 9223SOL     OW39130   2.019   2.427   6.035 -0.2063 -0.2547 -0.1258
 9223SOL    HW139131   2.015   2.389   6.123  0.9058 -0.9134 -0.3601
 9223SOL    HW239132   2.110   2.441   6.009 -0.3514  3.4780  1.2902
 9224SOL     OW39133   3.061   0.739  15.689 -1.0931 -0.0820  0.0221
 9224SOL    HW139134   3.071   0.761  15.596  1.5708 -0.1065  0.3060
 9224SOL    HW239135   3.118   0.663  15.693 -0.2765  0.6728  2.3332
 9225SOL     OW39136   3.842   1.309   7.706 -0.0189  0.5366 -0.4704
 9225SOL    HW139137   3.867   1.385   7.759 -0.0308  1.9014 -2.4452
 9225SOL    HW239138   3.862   1.241   7.771 -2.3700  0.9821  0.7126
 9226SOL     OW39139   0.688   2.933   9.304  0.5060  0.1991 -0.3167
 9226SOL    HW139140   0.665   2.881   9.227 -0.9013 -0.4529  0.5404
 9226SOL    HW239141   0.767   2.884   9.327  1.5131  2.0575  0.1356
 9227SOL     OW39142   3.779   3.631   6.585 -0.4639 -0.7073  0.4549
 9227SOL    HW139143   3.873   3.615   6.600 -0.2636  1.6351  1.5777
 9227SOL    HW239144   3.784   3.638   6.490  0.3337  0.4148  0.5765
 9228SOL     OW39145   4.390   1.955   0.387  0.3605 -0.3080  0.7108
 9228SOL    HW139146   4.387   1.987   0.477  1.8763  0.8078  0.3614
 9228SOL    HW239147   4.457   2.015   0.355  0.9515 -1.2890  0.1271
 9229SOL     OW39148   0.263   4.474   9.042 -0.2147 -0.3826  0.3146
 9229SOL    HW139149   0.296   4.438   8.960  0.1765  0.4264  0.1184
 9229SOL    HW239150   0.348   4.483   9.084 -0.0804 -0.3463  0.0322
 9230SOL     OW39151   2.225   3.622   2.269  0.0594 -0.0716 -0.3177
 9230SOL    HW139152   2.221   3.688   2.338 -2.7887 -0.0962 -0.4450
 9230SOL    HW239153   2.157   3.558   2.289  0.7726 -1.2216 -1.6021
 9231SOL     OW39154   3.829   3.175   7.382  0.3107 -0.2002 -0.5242
 9231SOL    HW139155   3.864   3.139   7.301 -1.8406 -1.9497 -0.6638
 9231SOL    HW239156   3.879   3.125   7.447 -1.8530  0.7581  1.8470
 9232SOL     OW39157   0.569   4.319   0.186 -0.3015  0.0542  0.1851
 9232SOL    HW139158   0.607   4.350   0.268  0.2583 -0.9397  0.2924
 9232SOL    HW239159   0.477   4.328   0.212 -0.7571 -0.6256 -1.2093
 9233SOL     OW39160   2.382   4.511  16.394 -0.0215  0.0289 -0.7212
 9233SOL    HW139161   2.348   4.425  16.422  0.6170 -0.1056 -0.3545
 9233SOL    HW239162   2.469   4.488  16.361 -0.6834 -3.3278 -0.1683
 9234SOL     OW39163   3.392   2.454   8.495 -0.4603 -0.1593  0.3312
 9234SOL    HW139164   3.423   2.364   8.484  1.3626  0.3928  0.9774
 9234SOL    HW239165   3.475   2.493   8.522  0.6383 -1.7767 -0.7087
 9235SOL     OW39166   0.318   0.427   3.850 -0.0894 -0.4875 -0.2228
 9235SOL    HW139167   0.268   0.346   3.853 -2.0846  0.6292 -2.9373
 9235SOL    HW239168   0.360   0.429   3.936  0.6129 -2.3382 -0.5264
 9236SOL     OW39169   4.315   0.408   8.093 -0.1637  0.2550 -0.1386
 9236SOL    HW139170   4.222   0.428   8.089 -0.3420 -0.4363  0.7085
 9236SOL    HW239171   4.306   0.325   8.140  1.5480 -0.7776 -1.6016
 9237SOL     OW39172   3.995   4.262  13.778  0.5313 -0.6686  0.6759
 9237SOL    HW139173   3.993   4.357  13.790  0.3113 -0.3980 -1.4557
 9237SOL    HW239174   3.959   4.225  13.859  0.1019 -0.8153  0.4135
 9238SOL     OW39175   3.503   4.005   5.626  0.3042  1.0858  0.2358
 9238SOL    HW139176   3.444   4.072   5.660  1.1028  1.8860  0.0329
 9238SOL    HW239177   3.572   4.018   5.690 -0.4343  1.9488  0.8663
 9239SOL     OW39178   0.616   1.020  13.786 -0.7218  0.1339 -0.1453
 9239SOL    HW139179   0.698   0.971  13.775 -1.5408 -1.0043 -1.1231
 9239SOL    HW239180   0.548   0.959  13.759  0.8276 -1.0847 -1.3109
 9240SOL     OW39181   2.804   1.859  11.388  0.2956  0.0966 -0.5752
 9240SOL    HW139182   2.716   1.865  11.350 -0.4210 -0.8968  0.9103
 9240SOL    HW239183   2.867   1.823  11.326 -0.0269  1.1270 -1.5097
 9241SOL     OW39184   0.917   0.809   3.856  0.2151 -0.2655  0.0244
 9241SOL    HW139185   0.973   0.772   3.924  0.6219  0.3544  0.0199
 9241SOL    HW239186   0.884   0.889   3.896 -3.4653 -1.7189 -0.1143
 9242SOL     OW39187   2.683   0.651   5.062  0.4055  0.2918 -0.2990
 9242SOL    HW139188   2.642   0.683   5.142 -0.0802 -0.3493 -0.2827
 9242SOL    HW239189   2.633   0.686   4.989  0.8305  1.4769 -0.0236
 9243SOL     OW39190   2.239   1.475  11.866 -0.0253 -0.9342 -0.0141
 9243SOL    HW139191   2.274   1.395  11.825  1.0742  0.0434 -0.9737
 9243SOL    HW239192   2.206   1.527  11.793  1.5190  0.9261  0.6126
 9244SOL     OW39193   2.454   2.163   6.887  0.4358  0.3387  0.6785
 9244SOL    HW139194   2.483   2.073   6.901 -0.3989 -0.3897 -2.5107
 9244SOL    HW239195   2.382   2.152   6.826  1.6334 -1.2735 -0.4400
 9245SOL     OW39196   3.908   0.451   5.176  0.3260 -0.3993  0.2229
 9245SOL    HW139197   3.820   0.457   5.213  0.2425  0.7270 -0.1342
 9245SOL    HW239198   3.908   0.546   5.159 -3.7479 -0.4863 -0.2604
 9246SOL     OW39199   0.441   0.245   6.944 -0.0233  0.2485  0.1223
 9246SOL    HW139200   0.489   0.320   6.910 -1.7999  0.6477 -1.5043
 9246SOL    HW239201   0.452   0.259   7.038  0.0500 -1.5936  0.3907
 9247SOL     OW39202   3.135   2.742   9.425 -0.0823 -0.0139  0.3797
 9247SOL    HW139203   3.230   2.731   9.431 -0.0598  0.1173  0.2408
 9247SOL    HW239204   3.124   2.741   9.330  1.1538  1.1982  0.2214
 9248SOL     OW39205   3.265   4.665   7.328 -0.2789 -0.0792 -0.3740
 9248SOL    HW139206   3.197   0.000   7.357 -0.5489 -1.3927  1.7300
 9248SOL    HW239207   3.232   4.576   7.344 -2.2901  0.6922 -0.1834
 9249SOL     OW39208   2.453   1.959  15.785  0.7730  0.1707  0.2813
 9249SOL    HW139209   2.496   1.965  15.699  1.6557  0.8323  0.7618
 9249SOL    HW239210   2.456   1.865  15.801 -2.3128 -0.2034 -1.4961
 9250SOL     OW39211   2.309   2.356  15.370  0.3602 -0.4140  0.2549
 9250SOL    HW139212   2.222   2.375  15.406  0.6744  0.9161  0.2972
 9250SOL    HW239213   2.290   2.327  15.281  2.3683 -1.9552  0.3294
 9251SOL     OW39214   2.116   0.344   8.067  0.0445  0.1079 -0.3086
 9251SOL    HW139215   2.160   0.426   8.086 -2.3002  0.4553  3.6460
 9251SOL    HW239216   2.081   0.363   7.980 -0.6430 -1.3576 -0.3518
 9252SOL     OW39217   3.206   0.380   7.174 -0.4426 -0.1414  0.0349
 9252SOL    HW139218   3.113   0.363   7.190 -1.0039  1.6095 -1.3083
 9252SOL    HW239219   3.228   0.302   7.123 -0.2161 -1.0489  1.5325
 9253SOL     OW39220   1.589   3.032   8.605  0.0129 -0.0974  0.0494
 9253SOL    HW139221   1.608   2.966   8.673  2.6693  0.1921 -0.4162
 9253SOL    HW239222   1.525   2.978   8.559  0.8872 -2.3383  1.4492
 9254SOL     OW39223   0.058   2.346   2.750  0.2387 -0.1918  0.0110
 9254SOL    HW139224   0.031   2.374   2.662 -1.0984 -0.6877  0.2541
 9254SOL    HW239225   0.120   2.416   2.767  0.6253 -0.0962 -1.7473
 9255SOL     OW39226   4.570   2.755  16.063 -0.4820 -0.1197 -0.5077
 9255SOL    HW139227   4.639   2.822  16.067  0.4986 -1.2232  1.2387
 9255SOL    HW239228   4.610   2.693  16.124 -0.2877  1.3192  0.8558
 9256SOL     OW39229   4.311   4.560  16.071 -0.0463 -0.6455  0.1684
 9256SOL    HW139230   4.249   4.633  16.078  1.2164  0.2436  2.0071
 9256SOL    HW239231   4.244   4.496  16.094 -2.1141  0.5063 -2.5891
 9257SOL     OW39232   1.742   1.114   3.487  0.1568  0.0484  0.4353
 9257SOL    HW139233   1.722   1.029   3.527 -0.0659 -0.3448 -0.5295
 9257SOL    HW239234   1.652   1.147   3.487 -0.4885 -1.7143 -1.8504
 9258SOL     OW39235   1.668   2.238   8.093 -0.5609  0.1263  0.1161
 9258SOL    HW139236   1.592   2.181   8.097 -2.2766  2.5298  1.9983
 9258SOL    HW239237   1.628   2.325   8.091 -0.8938 -0.0278  0.1823
 9259SOL     OW39238   1.469   2.060  15.368  0.4135  0.1278  0.0866
 9259SOL    HW139239   1.466   1.964  15.367 -0.3619  0.1424  0.5931
 9259SOL    HW239240   1.565   2.059  15.363  0.3219 -0.4179 -1.3737
 9260SOL     OW39241   4.232   3.392   3.603  0.8304 -0.2611 -0.1174
 9260SOL    HW139242   4.161   3.372   3.663  0.6691 -1.0561 -0.5790
 9260SOL    HW239243   4.289   3.318   3.622  1.0423  0.2072  1.1069
 9261SOL     OW39244   2.800   4.388   6.270  0.4553  0.1745  0.0886
 9261SOL    HW139245   2.882   4.411   6.224  0.5856  2.6814  1.5899
 9261SOL    HW239246   2.749   4.370   6.191 -1.3304  1.5483  0.9363
 9262SOL     OW39247   3.128   3.386  15.241 -0.2566 -0.8775  0.1407
 9262SOL    HW139248   3.066   3.348  15.179 -2.0445  2.7373 -0.3362
 9262SOL    HW239249   3.191   3.315  15.247 -2.1669 -2.4834  1.0303
 9263SOL     OW39250   1.486   0.722  15.816  0.4161  0.1838 -0.1598
 9263SOL    HW139251   1.456   0.806  15.780 -0.2904 -1.0406 -2.4413
 9263SOL    HW239252   1.405   0.682  15.846 -0.0249  0.8725 -0.4224
 9264SOL     OW39253   0.893   1.571   0.136  0.3198 -0.3650  0.1834
 9264SOL    HW139254   0.891   1.546   0.228  2.5465  1.1819  0.6379
 9264SOL    HW239255   0.821   1.516   0.103  1.4539 -1.1900 -0.9336
 9265SOL     OW39256   3.718   0.224   3.132 -0.2833  0.0429 -0.0138
 9265SOL    HW139257   3.756   0.311   3.141  2.7212 -1.3063  0.3823
 9265SOL    HW239258   3.696   0.211   3.224 -1.3019  0.2371 -0.2387
 9266SOL     OW39259   0.890   2.091   8.217  0.0310 -0.3840  0.0728
 9266SOL    HW139260   0.892   2.001   8.250 -2.2319  0.3459  2.2130
 9266SOL    HW239261   0.980   2.102   8.186  0.2547 -1.6334  0.2573
 9267SOL     OW39262   3.326   1.217   7.933  0.0922 -0.0737 -0.1318
 9267SOL    HW139263   3.275   1.289   7.897 -0.8234 -0.5204  0.2781
 9267SOL    HW239264   3.404   1.243   7.884  0.8238 -1.2286  0.4059
 9268SOL     OW39265   2.915   4.289  13.518 -0.1528 -0.2846  0.3417
 9268SOL    HW139266   2.873   4.202  13.523 -1.8095  0.4035 -1.4929
 9268SOL    HW239267   2.861   4.351  13.568  0.7939  0.7402  0.0746
 9269SOL     OW39268   4.406   1.960  11.773 -0.1709 -0.6228  0.4401
 9269SOL    HW139269   4.410   2.055  11.783 -1.9282 -0.2249 -2.5450
 9269SOL    HW239270   4.328   1.944  11.719 -0.0650  0.2323  0.0425
 9270SOL     OW39271   1.365   3.216   4.158  0.0655  0.5114 -0.1656
 9270SOL    HW139272   1.278   3.177   4.151  1.5486 -3.2206  2.1408
 9270SOL    HW239273   1.383   3.178   4.244 -0.9271 -1.8508 -1.0007
 9271SOL     OW39274   3.109   1.024  12.249 -0.3029 -0.0902  0.2560
 9271SOL    HW139275   3.035   1.024  12.310 -1.5731 -1.1172 -1.2819
 9271SOL    HW239276   3.154   0.944  12.277  1.1295  0.4788 -0.4255
 9272SOL     OW39277   1.005   4.315   3.711 -0.0468  0.2956 -0.2345
 9272SOL    HW139278   1.016   4.249   3.779 -0.4908 -1.8375 -2.2133
 9272SOL    HW239279   1.075   4.378   3.729 -2.2865  2.9719 -1.0583
 9273SOL     OW39280   1.575   1.412  15.440 -0.3167 -0.0395 -0.7426
 9273SOL    HW139281   1.623   1.360  15.375  0.3554 -0.4584  0.0884
 9273SOL    HW239282   1.580   1.497  15.396 -0.1768  0.3588  0.0407
 9274SOL     OW39283   0.035   2.054   1.044  0.1722 -0.1023  0.0937
 9274SOL    HW139284   4.690   2.015   1.096 -3.0666  2.5842 -2.2411
 9274SOL    HW239285   0.040   2.138   1.089  1.0360  0.3820 -0.9019
 9275SOL     OW39286   2.442   0.430   3.690  0.0060 -0.4900  0.2382
 9275SOL    HW139287   2.442   0.395   3.779  0.2774 -1.2140 -0.0418
 9275SOL    HW239288   2.534   0.456   3.676 -0.7235  1.0251 -1.7811
 9276SOL     OW39289   1.222   0.244   6.164  0.1720  0.0794 -0.3782
 9276SOL    HW139290   1.146   0.243   6.105 -1.6966 -1.8308  2.0454
 9276SOL    HW239291   1.295   0.222   6.107 -1.1711 -2.2758 -1.1810
 9277SOL     OW39292   1.102   0.288   8.643 -0.0148 -0.0791 -0.2249
 9277SOL    HW139293   1.063   0.237   8.714  0.3673 -2.2656 -1.5593
 9277SOL    HW239294   1.129   0.215   8.586  0.0498  0.4037 -0.8036
 9278SOL     OW39295   2.038   3.905   4.172  0.2848 -0.3614 -0.3139
 9278SOL    HW139296   1.991   3.848   4.234  0.8141 -1.5051 -0.9724
 9278SOL    HW239297   2.027   3.978   4.233 -1.4251 -0.5885 -0.3279
 9279SOL     OW39298   2.906   1.967   6.147 -0.3202  0.5552  0.5751
 9279SOL    HW139299   2.891   2.001   6.058  0.6104 -1.9327 -0.5407
 9279SOL    HW239300   3.000   1.982   6.158 -0.0897 -0.4195 -0.1117
 9280SOL     OW39301   2.911   2.709  15.447  0.8752 -0.1261 -0.1263
 9280SOL    HW139302   2.859   2.787  15.428 -0.9007 -0.4264  3.5263
 9280SOL    HW239303   2.886   2.656  15.371  0.7684 -1.7492  1.0438
 9281SOL     OW39304   1.489   1.472   7.661  0.4016  0.5770 -0.1295
 9281SOL    HW139305   1.505   1.379   7.645 -2.1162  0.1822 -0.3466
 9281SOL    HW239306   1.571   1.518   7.679 -1.2180  3.0127  1.0324
 9282SOL     OW39307   2.234   1.160   5.170  0.3443  0.0068 -0.1913
 9282SOL    HW139308   2.158   1.188   5.221  0.2558  1.5912 -1.1634
 9282SOL    HW239309   2.207   1.181   5.080 -1.0796 -1.5587 -0.1229
 9283SOL     OW39310   2.893   2.097   5.881  0.1913 -0.2038  0.0977
 9283SOL    HW139311   2.871   2.018   5.832  0.5647 -0.2808  0.0577
 9283SOL    HW239312   2.950   2.145   5.820  1.9010  0.1581  2.0098
 9284SOL     OW39313   2.240   2.332   5.426 -0.3608 -0.1546  0.1109
 9284SOL    HW139314   2.189   2.398   5.380 -0.2330  1.1445  1.8318
 9284SOL    HW239315   2.237   2.257   5.366 -1.4842  1.0288 -1.3132
 9285SOL     OW39316   2.165   1.503  10.885 -0.0111 -0.1759  0.1103
 9285SOL    HW139317   2.111   1.475  10.810 -0.2904  1.4511 -0.2809
 9285SOL    HW239318   2.176   1.420  10.933 -0.0458 -0.9292 -1.1930
 9286SOL     OW39319   1.508   3.036   5.113 -0.8352 -0.2654 -0.1625
 9286SOL    HW139320   1.531   2.996   5.196 -2.0573 -0.3301  0.1530
 9286SOL    HW239321   1.412   3.028   5.116 -0.7283 -1.2446  0.3998
 9287SOL     OW39322   2.931   3.784   4.140  0.1650  0.8368 -0.1511
 9287SOL    HW139323   2.921   3.761   4.048  0.3851  0.9626 -0.2049
 9287SOL    HW239324   3.015   3.746   4.168  0.4517  0.6521 -1.2784
 9288SOL     OW39325   0.816   1.755  12.420  0.4704  0.6727 -0.1167
 9288SOL    HW139326   0.838   1.801  12.501  1.7086 -1.5097  0.7807
 9288SOL    HW239327   0.895   1.769  12.367  0.6529  2.8310  0.7064
 9289SOL     OW39328   0.629   4.325   5.455  0.3355 -0.4153 -0.5822
 9289SOL    HW139329   0.564   4.352   5.521 -0.1142  0.5262 -1.4163
 9289SOL    HW239330   0.577   4.345   5.377  1.0358  1.0653 -0.6679
 9290SOL     OW39331   3.368   4.359   0.484  0.3031  0.3334 -0.1709
 9290SOL    HW139332   3.391   4.267   0.496  0.4906  0.4700  0.4889
 9290SOL    HW239333   3.409   4.370   0.398  1.7692  2.1534  0.7554
 9291SOL     OW39334   3.864   3.168  15.013  0.3739 -0.2671  0.2261
 9291SOL    HW139335   3.831   3.137  14.929  2.3180  2.1629 -1.4318
 9291SOL    HW239336   3.958   3.181  15.000  0.6106 -0.9384  1.2223
 9292SOL     OW39337   2.162   1.245  13.936  0.6118 -0.4394 -0.0910
 9292SOL    HW139338   2.160   1.270  14.029  3.2133  1.5808 -0.5748
 9292SOL    HW239339   2.122   1.158  13.939 -0.3596 -0.0236 -1.1506
 9293SOL     OW39340   1.568   2.604  10.312  0.1621  0.2660 -0.0666
 9293SOL    HW139341   1.602   2.594  10.223  0.5136  0.5671  0.0337
 9293SOL    HW239342   1.550   2.512  10.331  2.5144  0.1469  1.6432
 9294SOL     OW39343   0.785   1.954   4.746  0.0901 -0.3452  0.3583
 9294SOL    HW139344   0.711   1.999   4.788 -0.1148 -0.1266 -0.2311
 9294SOL    HW239345   0.803   1.900   4.823  2.5004 -0.2830 -0.1739
 9295SOL     OW39346   1.936   1.722   8.183 -0.0110  0.7652  0.3645
 9295SOL    HW139347   1.882   1.787   8.229 -1.4639 -1.2275  1.4811
 9295SOL    HW239348   1.893   1.641   8.208 -1.3069  1.5230  0.6193
 9296SOL     OW39349   2.919   2.377  16.897  0.1880 -0.8563  0.4836
 9296SOL    HW139350   2.935   2.451  16.956 -1.5966 -1.6057  1.9058
 9296SOL    HW239351   2.849   2.408  16.839 -1.3074 -2.7114  1.2792
 9297SOL     OW39352   0.916   1.219  12.044 -0.0756  0.2322  0.1553
 9297SOL    HW139353   0.824   1.225  12.019  0.1120  2.0398 -0.1238
 9297SOL    HW239354   0.958   1.210  11.959  0.8860 -1.0182  0.7659
 9298SOL     OW39355   2.569   0.247  12.207 -0.5118  0.4009  0.6053
 9298SOL    HW139356   2.495   0.282  12.158 -1.1050 -0.8903  0.5749
 9298SOL    HW239357   2.625   0.230  12.130 -2.3441  1.5703 -0.9900
 9299SOL     OW39358   0.160   1.515   4.145 -0.3931  0.2618 -0.0977
 9299SOL    HW139359   0.111   1.592   4.117 -1.4293 -0.0827  0.7819
 9299SOL    HW239360   0.137   1.514   4.238  1.0839  0.5275  0.2793
 9300SOL     OW39361   4.526   2.809  13.434  0.0620  0.0838 -0.2607
 9300SOL    HW139362   4.582   2.731  13.432 -2.0388 -1.4444 -0.6985
 9300SOL    HW239363   4.441   2.778  13.466  0.1171 -0.1366 -0.3234
 9301SOL     OW39364   0.550   0.544   7.836  0.0965 -0.3972 -0.4431
 9301SOL    HW139365   0.643   0.560   7.820  0.2928 -0.2802  0.8208
 9301SOL    HW239366   0.509   0.627   7.812  1.8003  0.6178  0.1471
 9302SOL     OW39367   3.635   1.663   6.455  0.0947 -0.2388 -0.5625
 9302SOL    HW139368   3.607   1.611   6.380 -0.7742  2.1550 -1.8983
 9302SOL    HW239369   3.717   1.618   6.474 -0.3508 -0.8813 -0.1565
 9303SOL     OW39370   1.756   4.633   1.482  0.1142 -0.5835 -0.3964
 9303SOL    HW139371   1.740   4.637   1.576  0.2685  0.7171 -0.4260
 9303SOL    HW239372   1.731   4.542   1.470  0.5334 -0.6726 -0.5872
 9304SOL     OW39373   2.345   0.914   3.704 -0.4083  0.1130 -0.2874
 9304SOL    HW139374   2.299   0.883   3.782 -0.1429 -1.4549 -0.7609
 9304SOL    HW239375   2.351   0.837   3.648 -1.2527 -0.3461  0.2629
 9305SOL     OW39376   3.858   3.036   0.837  0.0535  0.2577 -0.5982
 9305SOL    HW139377   3.798   3.088   0.891  0.3928  2.0322 -1.9355
 9305SOL    HW239378   3.938   3.087   0.833 -0.1795  0.5927 -1.0284
 9306SOL     OW39379   0.786   0.900   2.886  0.3955  0.2038  0.3609
 9306SOL    HW139380   0.824   0.900   2.799  2.5124  0.3786  1.2828
 9306SOL    HW239381   0.869   0.889   2.932  0.9314  0.8644 -0.4583
 9307SOL     OW39382   4.308   1.182   6.767  0.6907 -0.1149  0.1507
 9307SOL    HW139383   4.277   1.206   6.680 -0.6539  4.0966  1.8202
 9307SOL    HW239384   4.295   1.262   6.817 -0.2537  0.4691 -1.0505
 9308SOL     OW39385   1.458   3.722   7.475  0.2049 -0.7884 -0.0476
 9308SOL    HW139386   1.414   3.780   7.414  1.2885 -1.6329 -1.6222
 9308SOL    HW239387   1.495   3.658   7.414 -0.1867 -0.4603 -0.6224
 9309SOL     OW39388   2.315   3.489   2.856  0.2922  0.2057 -0.2113
 9309SOL    HW139389   2.405   3.475   2.828  0.2705  2.0620 -1.2203
 9309SOL    HW239390   2.321   3.527   2.944 -0.8135  0.7912 -0.3845
 9310SOL     OW39391   2.397   0.214   7.384 -0.3219  0.0698  0.5606
 9310SOL    HW139392   2.478   0.167   7.402 -0.4661 -0.4582 -0.1442
 9310SOL    HW239393   2.385   0.185   7.293  2.4223  1.0237 -0.0980
 9311SOL     OW39394   0.759   4.567  10.091  0.2258  0.1558  0.3110
 9311SOL    HW139395   0.798   4.629  10.030 -2.4252  0.6476 -0.8592
 9311SOL    HW239396   0.742   4.629  10.162 -1.0289 -0.6855  0.7479
 9312SOL     OW39397   1.654   0.492   9.137  0.0366 -0.2011  0.4802
 9312SOL    HW139398   1.683   0.401   9.138  0.4114 -0.0627  1.4639
 9312SOL    HW239399   1.593   0.501   9.211  0.4519  1.8752  0.5619
 9313SOL     OW39400   4.512   4.216   3.540  0.0771 -0.4422  0.1790
 9313SOL    HW139401   4.503   4.131   3.495 -0.6765 -1.0317  1.4303
 9313SOL    HW239402   4.603   4.212   3.572  0.1401 -2.4288 -0.2036
 9314SOL     OW39403   0.160   1.713   2.734  0.1057  0.4943  0.2805
 9314SOL    HW139404   0.181   1.630   2.691  0.4023  0.9004 -0.3503
 9314SOL    HW239405   0.204   1.774   2.674 -0.1079  0.5133  0.1437
 9315SOL     OW39406   4.540   0.413   8.237 -0.2677  0.1424  0.6468
 9315SOL    HW139407   4.544   0.322   8.266  1.2364 -0.5200 -1.6237
 9315SOL    HW239408   4.461   0.413   8.184 -0.1417 -0.3721  0.4599
 9316SOL     OW39409   2.806   1.588   7.077  0.6006 -0.3970 -0.7367
 9316SOL    HW139410   2.755   1.507   7.080  0.7018 -0.4238  0.4139
 9316SOL    HW239411   2.889   1.558   7.039  1.6573  0.0562  1.1643
 9317SOL     OW39412   2.224   3.244   3.741  0.2553 -0.1960  0.5876
 9317SOL    HW139413   2.312   3.210   3.757  0.6233  0.8372  0.7472
 9317SOL    HW239414   2.238   3.324   3.791 -0.3280  1.1609 -1.4001
 9318SOL     OW39415   2.038   3.459  13.067  0.1806  0.3104  0.0257
 9318SOL    HW139416   2.018   3.548  13.041  3.1435  0.9300 -0.1827
 9318SOL    HW239417   2.105   3.472  13.135  1.0652  2.1547 -1.1890
 9319SOL     OW39418   2.949   0.178   6.430  0.0244  0.3565  0.6012
 9319SOL    HW139419   2.935   0.089   6.464 -2.5550  0.0622 -1.1688
 9319SOL    HW239420   2.865   0.222   6.441  0.1018  0.3142  1.3327
 9320SOL     OW39421   1.188   3.008   5.774 -0.4352 -0.0115  0.0975
 9320SOL    HW139422   1.191   3.078   5.708  1.3575  0.4472  0.6517
 9320SOL    HW239423   1.250   3.054   5.831 -1.1060  0.8085  0.1626
 9321SOL     OW39424   1.517   0.454  13.912  0.6443 -0.2036 -0.4228
 9321SOL    HW139425   1.470   0.479  13.991 -0.8237 -0.0850 -1.3251
 9321SOL    HW239426   1.534   0.544  13.887 -1.2221  0.7506  1.7279
 9322SOL     OW39427   1.746   3.518  11.007 -0.0211  0.6177 -0.0089
 9322SOL    HW139428   1.655   3.489  10.999  0.5762 -1.2316  0.0109
 9322SOL    HW239429   1.777   3.512  10.916  0.9517  0.3197  0.3458
 9323SOL     OW39430   1.234   1.777   6.996 -0.2635  0.1837  0.4589
 9323SOL    HW139431   1.223   1.709   6.929 -0.7639  1.4595 -0.7577
 9323SOL    HW239432   1.298   1.746   7.060  0.3988 -1.0077 -0.8015
 9324SOL     OW39433   4.607   3.087   0.058  0.9150  0.0604  0.3840
 9324SOL    HW139434   4.676   3.153   0.047  2.0190 -0.8263  1.9243
 9324SOL    HW239435   4.545   3.134   0.114  0.2915  0.9856 -1.0912
 9325SOL     OW39436   1.712   2.530   3.521  0.0661 -0.6607  0.3555
 9325SOL    HW139437   1.684   2.531   3.612  0.4661 -0.2317  0.4806
 9325SOL    HW239438   1.631   2.507   3.477  0.3771  0.9688 -1.0911
 9326SOL     OW39439   0.250   0.997   8.020 -0.7728 -0.1907 -0.2907
 9326SOL    HW139440   0.195   0.970   7.947  1.2318 -1.1146 -1.4890
 9326SOL    HW239441   0.262   1.091   8.011  0.5147 -0.1778  1.4464
 9327SOL     OW39442   3.301   1.713  10.156  0.0544 -0.5285  0.0939
 9327SOL    HW139443   3.216   1.685  10.120  0.6052  0.7409 -2.2133
 9327SOL    HW239444   3.353   1.708  10.076  1.7180  1.6597  1.0497
 9328SOL     OW39445   1.728   3.029   0.254 -0.4158 -0.7585 -0.0162
 9328SOL    HW139446   1.633   3.028   0.271 -0.6412  1.0039 -1.1993
 9328SOL    HW239447   1.741   2.940   0.221  0.8379  0.0887 -1.8016
 9329SOL     OW39448   4.329   2.684  15.410  0.3179  0.1594 -0.4585
 9329SOL    HW139449   4.264   2.624  15.445  2.2266 -2.5118 -1.4884
 9329SOL    HW239450   4.272   2.747  15.366  0.2316  1.4091  1.4522
 9330SOL     OW39451   0.525   3.444  14.936 -0.3295  0.1004  0.2564
 9330SOL    HW139452   0.530   3.422  15.029 -2.7363  0.8583  0.5593
 9330SOL    HW239453   0.546   3.363  14.888  1.8006 -0.0010  1.3664
 9331SOL     OW39454   1.728   1.705   9.754  0.3885 -0.0423  0.3074
 9331SOL    HW139455   1.738   1.750   9.670 -1.4962 -0.3033 -0.0593
 9331SOL    HW239456   1.801   1.646   9.738 -0.1298 -1.1936  2.1951
 9332SOL     OW39457   4.069   2.276  13.876 -0.6873  0.1472  0.0061
 9332SOL    HW139458   3.981   2.238  13.871 -1.3771  1.6944  0.3735
 9332SOL    HW239459   4.131   2.212  13.911 -3.3505 -1.5470  1.6284
 9333SOL     OW39460   2.998   0.052   7.419 -0.0643  0.1016  0.2486
 9333SOL    HW139461   2.980   0.137   7.380  0.5218 -0.1270 -0.5006
 9333SOL    HW239462   2.988   0.080   7.510  0.3387  0.8604  0.0575
 9334SOL     OW39463   0.704   3.024   7.047 -0.5961 -0.1241 -0.4350
 9334SOL    HW139464   0.732   2.953   6.990 -2.2341 -1.1144 -0.0374
 9334SOL    HW239465   0.611   3.008   7.064 -0.8783  0.3806 -1.5705
 9335SOL     OW39466   2.786   1.489   8.771  0.3821  0.2443  0.1121
 9335SOL    HW139467   2.749   1.449   8.850  2.0849 -2.1975 -0.3435
 9335SOL    HW239468   2.810   1.575   8.807 -1.4300  0.5995  0.4892
 9336SOL     OW39469   1.060   1.328   5.047  0.2865  0.1499  0.8612
 9336SOL    HW139470   1.089   1.243   5.015 -0.6220  0.7140 -1.4219
 9336SOL    HW239471   1.073   1.306   5.140  0.3018 -0.8782  0.6158
 9337SOL     OW39472   3.501   0.901   8.413  0.6149 -0.1205 -0.2958
 9337SOL    HW139473   3.519   0.872   8.323  2.1737  0.3794 -0.1357
 9337SOL    HW239474   3.585   0.936   8.443  1.0201 -3.2874  2.2847
 9338SOL     OW39475   1.945   4.615   6.219  0.1160 -0.0644  0.4897
 9338SOL    HW139476   1.900   4.610   6.303  1.7410 -1.5820  1.2572
 9338SOL    HW239477   1.888   4.667   6.162  0.4172 -1.0304 -0.7136
 9339SOL     OW39478   1.880   1.715   8.528 -0.1858 -0.5938  0.1294
 9339SOL    HW139479   1.964   1.672   8.514 -0.0357 -0.2925  0.0935
 9339SOL    HW239480   1.818   1.645   8.507 -1.7343  0.5569  0.7742
 9340SOL     OW39481   4.118   3.413   3.942  0.7433  0.4884 -0.3459
 9340SOL    HW139482   4.099   3.507   3.937 -0.5946  0.3076  1.5379
 9340SOL    HW239483   4.064   3.373   3.875  0.5242 -0.5752  0.4722
 9341SOL     OW39484   3.591   0.447   9.650 -0.1160  0.5124 -0.7416
 9341SOL    HW139485   3.655   0.515   9.669 -1.6598  1.6679  0.3254
 9341SOL    HW239486   3.542   0.455   9.732  0.4143 -0.8049 -0.2981
 9342SOL     OW39487   1.497   0.344   2.518 -0.2997  0.0607 -0.1460
 9342SOL    HW139488   1.448   0.380   2.444  1.2361  1.4053 -0.4981
 9342SOL    HW239489   1.427   0.319   2.578  1.1684 -1.9785  0.7116
 9343SOL     OW39490   2.260   1.511  14.500 -0.4073 -0.7373  0.3403
 9343SOL    HW139491   2.248   1.471  14.586 -0.4027 -0.6876  0.3642
 9343SOL    HW239492   2.175   1.555  14.509 -0.7150 -1.5954  1.6787
 9344SOL     OW39493   3.639   0.482   5.261  0.5492 -0.2741  0.0294
 9344SOL    HW139494   3.573   0.415   5.243  3.0305 -2.2910 -1.3723
 9344SOL    HW239495   3.600   0.568   5.241 -0.0452  0.0444  2.4758
 9345SOL     OW39496   4.506   0.206   0.825 -0.1670  0.2517 -0.2317
 9345SOL    HW139497   4.454   0.235   0.900 -0.1735  0.6634 -0.3976
 9345SOL    HW239498   4.509   0.289   0.778  0.7777  0.5738  0.4024
 9346SOL     OW39499   4.348   2.539   7.280 -1.0743 -0.5951 -0.8255
 9346SOL    HW139500   4.375   2.458   7.323  2.5093  1.2541  0.3815
 9346SOL    HW239501   4.276   2.564   7.338 -1.1256 -1.8270 -0.3649
 9347SOL     OW39502   1.668   0.026   6.897  0.1928 -0.2344  0.3983
 9347SOL    HW139503   1.576   0.023   6.870 -0.0620  1.8635  0.9809
 9347SOL    HW239504   1.690   4.678   6.839  0.7703  0.1948  0.0782
 9348SOL     OW39505   1.793   3.203   9.393 -0.2697 -0.5563 -0.8937
 9348SOL    HW139506   1.769   3.112   9.412 -0.8881 -0.2433 -0.1699
 9348SOL    HW239507   1.755   3.213   9.306 -1.3945  1.0164 -0.2298
 9349SOL     OW39508   4.611   0.484  10.161 -0.3901  0.5054  0.1297
 9349SOL    HW139509   4.633   0.392  10.175  0.4575  0.5781 -0.7994
 9349SOL    HW239510   4.532   0.469  10.109 -0.7506 -1.1984  1.1626
 9350SOL     OW39511   2.021   3.575   6.502  0.5315 -0.0887  0.0944
 9350SOL    HW139512   2.074   3.654   6.502  0.8130 -0.2743  0.9808
 9350SOL    HW239513   2.080   3.500   6.504  1.1688  0.3804 -1.4020
 9351SOL     OW39514   4.365   2.230   6.472 -0.0718  0.0187  0.9391
 9351SOL    HW139515   4.372   2.237   6.567 -3.1279  0.1337  1.1310
 9351SOL    HW239516   4.413   2.304   6.435 -2.4910  1.0033 -0.2170
 9352SOL     OW39517   2.675   4.242   0.777  0.6544 -0.2155 -0.2431
 9352SOL    HW139518   2.686   4.156   0.819 -1.4852 -1.0042 -1.3012
 9352SOL    HW239519   2.727   4.235   0.697  0.8610 -1.3979 -0.0032
 9353SOL     OW39520   1.325   2.241   4.890 -0.2638  0.3591 -0.0597
 9353SOL    HW139521   1.370   2.171   4.842 -3.1167 -1.0409 -0.6749
 9353SOL    HW239522   1.350   2.324   4.850 -0.0983  0.9070  1.2004
 9354SOL     OW39523   3.563   4.587  10.811  0.2366  0.4281  0.1588
 9354SOL    HW139524   3.493   4.627  10.863 -1.3091 -1.5614 -0.4249
 9354SOL    HW239525   3.530   4.603  10.723  0.5668  0.3223  0.0159
 9355SOL     OW39526   2.618   4.700  15.232  0.2885  0.4316  0.2285
 9355SOL    HW139527   2.560   0.044  15.265 -0.8061 -1.7004  2.7660
 9355SOL    HW239528   2.567   4.630  15.274  0.3741  0.1556 -0.1273
 9356SOL     OW39529   3.343   3.834  13.187  0.2577 -0.6022  0.2881
 9356SOL    HW139530   3.248   3.836  13.184  0.3522  0.3809 -2.0898
 9356SOL    HW239531   3.371   3.821  13.278 -3.9556 -0.1491  1.6561
 9357SOL     OW39532   0.664   1.858   3.627  0.3273 -0.7162  0.4877
 9357SOL    HW139533   0.677   1.903   3.711  0.6125 -1.3589  0.7833
 9357SOL    HW239534   0.734   1.904   3.580 -0.5715  0.2890  0.1305
 9358SOL     OW39535   3.881   4.320   3.413  0.2669  0.2297 -0.3922
 9358SOL    HW139536   3.931   4.239   3.402 -1.0017 -0.5931 -0.1321
 9358SOL    HW239537   3.845   4.341   3.327 -4.5057 -0.8671  1.3317
 9359SOL     OW39538   2.911   3.568  10.615  0.1614 -0.1562 -0.0190
 9359SOL    HW139539   2.888   3.661  10.621 -1.4915 -0.5439 -0.4182
 9359SOL    HW239540   2.905   3.537  10.706 -0.7244  0.8668  0.2767
 9360SOL     OW39541   0.620   1.489   5.636 -0.7314 -0.2613 -0.3111
 9360SOL    HW139542   0.669   1.501   5.555 -2.2012  0.9543 -1.0230
 9360SOL    HW239543   0.691   1.472   5.698  2.2088  2.3064 -3.0107
 9361SOL     OW39544   0.060   3.416   2.752 -0.4353  0.4162 -0.0192
 9361SOL    HW139545   4.699   3.415   2.709 -0.1742  1.6316 -0.5610
 9361SOL    HW239546   0.040   3.481   2.820  0.3551  0.0973  0.5163
 9362SOL     OW39547   2.138   0.076   6.333 -0.1846  0.0283  0.0932
 9362SOL    HW139548   2.064   0.047   6.279 -1.1200  0.4713  1.1474
 9362SOL    HW239549   2.189   0.096   6.254  1.7426 -2.4183  0.7134
 9363SOL     OW39550   1.014   4.550   7.798  0.0776  0.5494  0.2183
 9363SOL    HW139551   0.981   4.529   7.886 -1.3434 -0.2044 -0.4989
 9363SOL    HW239552   1.102   4.581   7.821  0.4145  1.0392 -1.7517
 9364SOL     OW39553   1.609   2.258   5.793 -0.2169 -0.0432 -0.1591
 9364SOL    HW139554   1.668   2.292   5.860  0.1147  2.5997 -1.7940
 9364SOL    HW239555   1.674   2.253   5.722  1.0448  0.0948  0.9825
 9365SOL     OW39556   0.905   4.039   2.894 -0.1715 -0.0764 -0.5558
 9365SOL    HW139557   0.898   4.110   2.957  1.8046  0.5937 -1.0901
 9365SOL    HW239558   0.968   4.081   2.836  0.7493 -1.5738 -0.6394
 9366SOL     OW39559   0.623   1.426   0.506  0.7202 -0.7363  0.0789
 9366SOL    HW139560   0.621   1.499   0.568 -1.2463  1.1840 -2.2355
 9366SOL    HW239561   0.710   1.450   0.475 -0.1705  1.0078 -1.0936
 9367SOL     OW39562   0.771   0.610   3.741 -0.7242 -1.1000 -0.8164
 9367SOL    HW139563   0.703   0.581   3.802  1.3593  0.6529  2.3535
 9367SOL    HW239564   0.808   0.686   3.786  1.8159 -3.4276  1.0262
 9368SOL     OW39565   0.926   3.357   6.721  0.4521 -0.2938 -0.2001
 9368SOL    HW139566   0.858   3.334   6.784  0.3494  1.8607  0.4606
 9368SOL    HW239567   1.006   3.374   6.771  0.1701  1.5764 -0.4064
 9369SOL     OW39568   3.641   2.206   5.078  0.2935  0.2974  0.6278
 9369SOL    HW139569   3.596   2.131   5.118  1.2205 -1.1081 -1.0022
 9369SOL    HW239570   3.622   2.191   4.985  2.5255 -0.5167  0.3037
 9370SOL     OW39571   3.886   3.355   6.973  0.3256  0.4595  0.4835
 9370SOL    HW139572   3.850   3.360   6.884  0.7852  0.1203  0.2777
 9370SOL    HW239573   3.915   3.445   6.986 -0.7864  0.7131  1.2849
 9371SOL     OW39574   4.213   2.798   3.368 -0.7516 -0.2875 -0.3805
 9371SOL    HW139575   4.227   2.805   3.462 -2.1605 -2.1255 -0.0375
 9371SOL    HW239576   4.181   2.887   3.350  1.5425  0.1762 -2.1551
 9372SOL     OW39577   0.375   3.909  13.739 -0.2356  0.1836 -0.3461
 9372SOL    HW139578   0.345   3.828  13.780  0.8199 -0.7212 -1.3612
 9372SOL    HW239579   0.466   3.881  13.742 -0.3451  0.2338  3.7661
 9373SOL     OW39580   4.519   3.370   3.413 -0.0807 -0.5415 -0.2933
 9373SOL    HW139581   4.533   3.446   3.469  0.8390 -1.5351  0.8494
 9373SOL    HW239582   4.460   3.319   3.468 -3.2676  1.2051 -2.0978
 9374SOL     OW39583   2.474   1.322  15.035  0.1041  0.1139 -0.0117
 9374SOL    HW139584   2.427   1.340  14.953 -0.7475  2.0327  0.8756
 9374SOL    HW239585   2.467   1.412  15.068  2.5445 -0.3987  1.8394
 9375SOL     OW39586   0.612   2.514   5.232  0.1920 -0.6672  0.5576
 9375SOL    HW139587   0.571   2.586   5.280  1.2622  0.0927  0.3287
 9375SOL    HW239588   0.628   2.550   5.144  1.2201  2.2817  1.9429
 9376SOL     OW39589   1.752   1.014   6.369  0.3105 -0.0913  0.4124
 9376SOL    HW139590   1.714   1.061   6.443 -0.4900 -1.6326  0.9876
 9376SOL    HW239591   1.698   1.052   6.300 -0.5081 -0.3889  0.8920
 9377SOL     OW39592   0.881   4.266   5.585 -0.1400  0.5685 -0.0027
 9377SOL    HW139593   0.855   4.175   5.596  2.3461  0.0224  1.2785
 9377SOL    HW239594   0.803   4.303   5.543 -0.0761  1.5215  0.7135
 9378SOL     OW39595   0.903   1.762   5.438  0.0441  0.0413 -0.5020
 9378SOL    HW139596   0.849   1.817   5.496  0.5908  1.1222 -1.0163
 9378SOL    HW239597   0.897   1.815   5.359  1.3355  0.4918 -0.3021
 9379SOL     OW39598   2.922   2.747  13.090  0.2452  0.2747  0.0220
 9379SOL    HW139599   2.913   2.773  12.998  2.3484  1.1359  0.0658
 9379SOL    HW239600   2.931   2.833  13.130  1.8973  0.3772 -0.5551
 9380SOL     OW39601   1.735   1.234  10.596 -0.1476  0.0090 -0.9316
 9380SOL    HW139602   1.778   1.318  10.582 -2.4907  1.7850  2.5136
 9380SOL    HW239603   1.724   1.216  10.503 -0.4262 -0.5880 -0.7841
 9381SOL     OW39604   0.242   0.557  13.966  0.3995  0.5872  0.4584
 9381SOL    HW139605   0.304   0.580  13.897 -1.0709  0.8869 -0.7498
 9381SOL    HW239606   0.177   0.627  13.956 -0.8974 -0.3734  2.1201
 9382SOL     OW39607   2.831   3.806   7.627  0.1098 -0.6273  0.7162
 9382SOL    HW139608   2.810   3.828   7.718 -1.7489  0.2130  0.0727
 9382SOL    HW239609   2.832   3.712   7.642  0.0476 -1.1687 -2.7500
 9383SOL     OW39610   0.360   1.166   2.882  0.1927  0.3608 -0.4473
 9383SOL    HW139611   0.437   1.219   2.899  1.4168 -0.7362 -2.5834
 9383SOL    HW239612   0.407   1.083   2.896  1.4017  1.2615  0.8294
 9384SOL     OW39613   0.803   4.003   6.833 -0.0180 -0.0750 -0.5375
 9384SOL    HW139614   0.843   4.056   6.902  0.0492  1.5831 -1.8428
 9384SOL    HW239615   0.844   4.033   6.752  0.4381  0.5373 -0.0743
 9385SOL     OW39616   2.387   2.944   7.570  0.0659 -0.4893 -0.0068
 9385SOL    HW139617   2.435   2.987   7.499 -0.7356 -0.8012 -0.7484
 9385SOL    HW239618   2.306   2.995   7.565 -0.4973 -1.3206  0.6783
 9386SOL     OW39619   0.368   2.668  15.464 -0.0614  0.0915 -0.0796
 9386SOL    HW139620   0.349   2.748  15.514  1.1994 -2.0055  3.7326
 9386SOL    HW239621   0.457   2.696  15.443 -0.0443  0.7945  0.9324
 9387SOL     OW39622   3.281   3.515   8.900 -0.0835 -0.2911 -0.3632
 9387SOL    HW139623   3.225   3.442   8.871  0.9886 -1.1434 -0.2882
 9387SOL    HW239624   3.335   3.530   8.822  0.7421 -0.6300  0.1448
 9388SOL     OW39625   3.267   0.821  15.204  0.0980 -0.1522 -0.1067
 9388SOL    HW139626   3.176   0.804  15.230  0.6300 -1.1628  1.0801
 9388SOL    HW239627   3.277   0.909  15.239 -0.0677  0.6987 -2.1804
 9389SOL     OW39628   4.520   1.413   4.939 -0.0254 -0.0594 -0.7364
 9389SOL    HW139629   4.525   1.487   4.879  0.4332  1.0801  0.7144
 9389SOL    HW239630   4.430   1.419   4.971  0.5082  0.9646  0.5500
 9390SOL     OW39631   1.907   0.136  10.725 -0.3165 -0.2164 -0.1298
 9390SOL    HW139632   1.851   0.063  10.701  0.8145 -1.0134 -0.3448
 9390SOL    HW239633   1.973   0.147  10.656 -0.1436 -0.2783  0.0237
 9391SOL     OW39634   0.248   2.127   8.591  0.3465  0.4834  0.4172
 9391SOL    HW139635   0.337   2.161   8.590 -0.1228  1.8916  4.8130
 9391SOL    HW239636   0.194   2.204   8.571 -1.2426 -0.3195  1.5567
 9392SOL     OW39637   1.034   3.654   2.475  0.3683 -0.2377 -0.7106
 9392SOL    HW139638   1.109   3.702   2.439  1.4000 -0.3858  1.2847
 9392SOL    HW239639   0.961   3.714   2.461  1.8852  1.5064 -1.1335
 9393SOL     OW39640   0.379   1.611   8.113 -0.0869  0.2587  0.2091
 9393SOL    HW139641   0.390   1.706   8.099 -2.8215  0.5924  0.3354
 9393SOL    HW239642   0.328   1.598   8.033 -1.8002 -2.7225  1.7962
 9394SOL     OW39643   0.481   2.245   1.402 -0.4225 -0.2837  0.1257
 9394SOL    HW139644   0.549   2.304   1.370 -0.2508 -0.3292  0.4151
 9394SOL    HW239645   0.440   2.223   1.318  0.2087 -1.7052  0.1762
 9395SOL     OW39646   1.652   2.336   8.534  0.0481  0.5776  0.2276
 9395SOL    HW139647   1.683   2.386   8.458  2.2224 -1.4747 -0.2149
 9395SOL    HW239648   1.659   2.250   8.494  1.0115  1.3068 -1.1843
 9396SOL     OW39649   2.748   3.070   5.908 -0.3740  0.2200  0.2396
 9396SOL    HW139650   2.663   3.027   5.914 -0.6035  0.4351 -1.2722
 9396SOL    HW239651   2.807   3.012   5.956  2.8633  0.9149 -2.8657
 9397SOL     OW39652   1.203   0.314   5.801 -0.1636  0.0192  0.0239
 9397SOL    HW139653   1.165   0.281   5.720 -0.0424 -1.0318  0.3884
 9397SOL    HW239654   1.262   0.385   5.777 -3.0081  2.8963  1.6905
 9398SOL     OW39655   0.867   4.251  13.478 -0.7049  0.5508 -0.4675
 9398SOL    HW139656   0.864   4.340  13.512  0.9402 -0.0337  1.2011
 9398SOL    HW239657   0.901   4.254  13.389 -0.0350  1.4246 -0.1781
 9399SOL     OW39658   0.019   1.328   6.735  0.1490 -0.0852  0.2680
 9399SOL    HW139659   4.670   1.322   6.795 -0.2440  0.5597 -0.1588
 9399SOL    HW239660   0.002   1.418   6.709  0.3648 -0.3699 -0.8612
 9400SOL     OW39661   3.406   0.213   6.138 -0.4843  0.3718 -0.5632
 9400SOL    HW139662   3.446   0.140   6.092 -0.2131 -0.7012  1.4019
 9400SOL    HW239663   3.461   0.229   6.214  0.3015  0.1108 -1.0826
 9401SOL     OW39664   4.386   4.085  14.248 -0.6332  0.0445  0.3604
 9401SOL    HW139665   4.422   4.123  14.328  1.3585  1.3389 -1.1521
 9401SOL    HW239666   4.440   4.128  14.181 -0.7588  0.3941  0.4843
 9402SOL     OW39667   3.879   0.452  10.149 -0.1535  0.1273  0.2653
 9402SOL    HW139668   3.880   0.467  10.244  0.3706  1.2712  0.0723
 9402SOL    HW239669   3.971   0.436  10.131 -0.6879 -1.2203 -1.3257
 9403SOL     OW39670   1.368   1.434   0.928 -0.0280 -0.3399  0.1029
 9403SOL    HW139671   1.462   1.416   0.923  0.1694  1.1721 -1.6117
 9403SOL    HW239672   1.355   1.388   1.011  0.6283  0.7088  0.7883
 9404SOL     OW39673   3.146   2.370   9.095  0.2417  0.0621 -0.4185
 9404SOL    HW139674   3.171   2.291   9.144  0.6745  0.9140  0.7608
 9404SOL    HW239675   3.124   2.338   9.008  0.6747  0.9828 -0.8662
 9405SOL     OW39676   2.430   1.620  16.755  0.1129 -0.4900  0.0887
 9405SOL    HW139677   2.461   1.573  16.832  0.6340  0.2568  0.3311
 9405SOL    HW239678   2.522   1.634  16.733 -0.0067 -1.9176 -1.3214
 9406SOL     OW39679   3.804   0.664   4.614  0.0521  0.1403 -0.2438
 9406SOL    HW139680   3.837   0.735   4.668 -0.6532 -0.1082  0.5148
 9406SOL    HW239681   3.755   0.605   4.672 -2.0960 -0.5493 -2.7308
 9407SOL     OW39682   4.127   1.495  17.037  0.1768 -0.6847  0.2027
 9407SOL    HW139683   4.033   1.483  17.023  0.5146 -0.2393 -2.5189
 9407SOL    HW239684   4.122   1.496  17.132 -2.9144 -1.5724  0.0650
 9408SOL     OW39685   0.474   3.020   3.511  0.0100  0.8201  0.2451
 9408SOL    HW139686   0.401   3.005   3.450 -0.1058 -0.4200  0.6885
 9408SOL    HW239687   0.514   3.079   3.447  0.3403  0.8082  0.4440
 9409SOL     OW39688   0.863   0.518   2.786  0.4924 -0.1252 -0.5191
 9409SOL    HW139689   0.770   0.498   2.775 -0.1768  2.3496  0.7867
 9409SOL    HW239690   0.871   0.587   2.721  1.9627  0.4423  0.2808
 9410SOL     OW39691   2.343   1.519   8.229  0.1444 -0.0958 -0.6586
 9410SOL    HW139692   2.416   1.525   8.167  0.3643 -2.5662 -0.6154
 9410SOL    HW239693   2.383   1.455   8.288 -0.3635  0.5726  0.4122
 9411SOL     OW39694   2.802   3.832   2.839 -0.1451  0.2648 -0.5873
 9411SOL    HW139695   2.873   3.873   2.791 -0.8298  2.1389 -0.0210
 9411SOL    HW239696   2.729   3.869   2.790 -1.8727 -0.1229  1.6631
 9412SOL     OW39697   4.184   0.175   1.268  0.4898  0.0954  0.6522
 9412SOL    HW139698   4.160   0.126   1.190 -2.0598 -0.0112  1.4745
 9412SOL    HW239699   4.141   0.134   1.343 -2.2441 -0.3374 -1.1668
 9413SOL     OW39700   4.130   1.527  11.208  0.5171 -0.0112 -0.3579
 9413SOL    HW139701   4.047   1.513  11.253  0.8324  0.6354  0.4248
 9413SOL    HW239702   4.121   1.483  11.123  0.7886  0.4384 -0.6202
 9414SOL     OW39703   4.154   2.035   7.510 -0.4168 -0.1731  0.5453
 9414SOL    HW139704   4.123   1.985   7.585 -0.4533 -2.7597 -1.2178
 9414SOL    HW239705   4.189   2.115   7.549 -0.2697  1.1406 -2.2421
 9415SOL     OW39706   0.006   2.641   4.281 -0.0042  0.4578 -0.2470
 9415SOL    HW139707   0.070   2.619   4.349 -1.0683  1.8651  1.2072
 9415SOL    HW239708   4.679   2.708   4.324  1.2054  1.5757 -0.5275
 9416SOL     OW39709   2.863   3.245   6.302 -0.1916 -0.3482  0.6210
 9416SOL    HW139710   2.863   3.298   6.223 -1.0036 -0.5943  0.4551
 9416SOL    HW239711   2.956   3.243   6.326 -0.3659 -1.2213  1.2290
 9417SOL     OW39712   1.180   0.941   1.456  0.1554  0.5094 -0.3335
 9417SOL    HW139713   1.167   0.908   1.545  1.1876  1.8247  0.3211
 9417SOL    HW239714   1.263   0.987   1.469 -0.3440  0.9743  1.1892
 9418SOL     OW39715   2.423   0.547   8.214  0.0506  0.1086  0.3031
 9418SOL    HW139716   2.455   0.583   8.131 -0.0689 -0.3311  0.0672
 9418SOL    HW239717   2.331   0.576   8.217 -0.3064 -0.8938 -1.1372
 9419SOL     OW39718   4.437   0.312  15.794  0.1230 -0.2804 -0.0023
 9419SOL    HW139719   4.380   0.235  15.794 -0.9887  0.5303 -0.8150
 9419SOL    HW239720   4.383   0.387  15.818 -0.3795 -0.5242 -0.3785
 9420SOL     OW39721   1.331   3.709   2.627  0.2865  0.0278  0.3187
 9420SOL    HW139722   1.425   3.723   2.643  0.7139 -0.7081 -1.6222
 9420SOL    HW239723   1.329   3.613   2.633  2.3874 -0.0863 -0.6345
 9421SOL     OW39724   2.633   3.769   3.221 -0.0730  0.5862 -0.0710
 9421SOL    HW139725   2.562   3.766   3.286  0.0656 -2.0361 -0.0449
 9421SOL    HW239726   2.638   3.862   3.199 -1.0158  1.2118  2.3290
 9422SOL     OW39727   3.247   2.671  12.322  0.4604 -0.7589  0.2404
 9422SOL    HW139728   3.283   2.598  12.271  2.1424  1.3461 -1.5957
 9422SOL    HW239729   3.322   2.727  12.302  0.6713 -1.7023 -1.7338
 9423SOL     OW39730   4.067   1.529  10.288 -0.2223  0.1730 -1.0122
 9423SOL    HW139731   4.009   1.470  10.240 -1.2993 -0.7402  1.4135
 9423SOL    HW239732   4.085   1.472  10.363  1.2646  0.7937 -0.9062
 9424SOL     OW39733   4.688   0.594   4.701 -0.0138  0.0316  0.9914
 9424SOL    HW139734   0.001   0.509   4.682  2.6507  1.2043  0.9875
 9424SOL    HW239735   0.032   0.653   4.671  1.1428 -1.7524  0.1342
 9425SOL     OW39736   2.740   0.648   0.666  0.3340  0.5523 -0.9823
 9425SOL    HW139737   2.791   0.569   0.683 -2.6989 -1.2322 -0.0938
 9425SOL    HW239738   2.802   0.718   0.686  0.5650 -0.3373  1.3626
 9426SOL     OW39739   2.787   3.506   4.257 -0.5227 -0.1919 -0.0392
 9426SOL    HW139740   2.866   3.482   4.305 -0.1630 -0.1198 -0.6051
 9426SOL    HW239741   2.812   3.455   4.180 -0.1119 -1.0474  0.6551
 9427SOL     OW39742   2.519   3.630   3.469 -0.5913 -0.0825 -0.2877
 9427SOL    HW139743   2.466   3.626   3.549  0.6959 -0.8619  0.5167
 9427SOL    HW239744   2.534   3.538   3.450 -0.4123 -0.4994  1.8698
 9428SOL     OW39745   2.364   0.589   6.619 -0.4623  0.6573 -0.3118
 9428SOL    HW139746   2.423   0.572   6.692 -1.3209 -2.0080 -0.2304
 9428SOL    HW239747   2.422   0.576   6.544 -1.1343  0.5733 -0.8222
 9429SOL     OW39748   2.547   0.642  13.598  0.4280  0.1516 -0.0743
 9429SOL    HW139749   2.520   0.712  13.539 -0.1322  0.9611  1.1422
 9429SOL    HW239750   2.591   0.584  13.536 -1.6483 -1.3707 -0.1455
 9430SOL     OW39751   4.218   2.638   9.509  0.0193  0.3085  0.0716
 9430SOL    HW139752   4.158   2.694   9.460  0.9734  0.2831 -1.1123
 9430SOL    HW239753   4.247   2.579   9.439 -0.6890 -0.4471  0.4160
 9431SOL     OW39754   2.547   2.157   4.540 -0.2544 -0.1774 -0.2836
 9431SOL    HW139755   2.536   2.178   4.447 -0.8518 -1.2321 -0.4404
 9431SOL    HW239756   2.640   2.177   4.548  0.1575 -0.3649 -4.5917
 9432SOL     OW39757   4.622   2.927  11.465 -0.0994  0.1734 -0.1618
 9432SOL    HW139758   4.622   2.966  11.378 -2.6157  0.4348 -0.0547
 9432SOL    HW239759   4.544   2.871  11.469  0.4981 -0.7257 -1.1427
 9433SOL     OW39760   4.352   1.684  12.409  0.1805 -0.2862 -0.1962
 9433SOL    HW139761   4.336   1.741  12.334 -0.0689 -0.2451 -0.1119
 9433SOL    HW239762   4.294   1.713  12.479 -1.5735 -0.9408 -1.3647
 9434SOL     OW39763   3.229   1.004  11.987 -0.7692  0.3644 -0.5243
 9434SOL    HW139764   3.320   0.997  12.015 -0.4462 -0.5016 -1.7749
 9434SOL    HW239765   3.198   1.036  12.072  2.2774  0.3147  0.6009
 9435SOL     OW39766   0.897   3.030   0.847  0.1834  0.5485  0.0146
 9435SOL    HW139767   0.991   3.010   0.849  0.3908  1.3542 -1.6596
 9435SOL    HW239768   0.857   2.977   0.916 -0.2424  1.8662  0.7668
 9436SOL     OW39769   2.923   3.670   8.474 -0.0503 -0.7065  0.2890
 9436SOL    HW139770   2.942   3.661   8.567  3.0149  1.0659 -0.1658
 9436SOL    HW239771   2.860   3.742   8.482  0.6834  0.0039 -0.2521
 9437SOL     OW39772   2.615   4.143   4.004  0.1777  0.5189  0.1140
 9437SOL    HW139773   2.657   4.065   4.042  0.8814  0.5742 -0.5642
 9437SOL    HW239774   2.533   4.137   4.054  1.9394  2.7904  3.2757
 9438SOL     OW39775   0.543   1.396   6.735  0.4531 -0.1409  0.1423
 9438SOL    HW139776   0.530   1.372   6.643 -0.5087 -1.0432  0.5231
 9438SOL    HW239777   0.455   1.369   6.761  0.0918  1.7608  0.8844
 9439SOL     OW39778   0.038   0.237   7.562  0.1302 -0.0717  0.4779
 9439SOL    HW139779   0.114   0.209   7.613 -0.1825 -2.1061 -0.1363
 9439SOL    HW239780   0.027   0.164   7.501 -1.5489 -0.4789  1.2848
 9440SOL     OW39781   2.616   1.718  12.493 -0.8878  0.2488 -0.5791
 9440SOL    HW139782   2.628   1.623  12.495 -1.1833  0.1766 -1.7544
 9440SOL    HW239783   2.563   1.734  12.571  0.0392 -2.7471  0.6505
 9441SOL     OW39784   0.933   0.153  16.932  0.2420 -0.5137  0.6579
 9441SOL    HW139785   0.935   0.177  17.025 -1.3595  2.6463 -0.1204
 9441SOL    HW239786   1.026   0.161  16.914  0.1203  1.5684  0.9480
 9442SOL     OW39787   0.002   2.421   2.455 -0.3555 -0.1446  0.8134
 9442SOL    HW139788   0.083   2.384   2.422 -0.5056 -1.7738  2.2878
 9442SOL    HW239789   0.013   2.509   2.418  0.8671 -0.2262  0.9986
 9443SOL     OW39790   1.752   0.500   8.052 -0.0801  0.1843  0.7732
 9443SOL    HW139791   1.707   0.469   8.132  1.1840 -0.4654  1.2282
 9443SOL    HW239792   1.817   0.558   8.090  1.5064  0.5277 -2.4834
 9444SOL     OW39793   4.344   2.332   4.014 -0.0623  0.4131 -0.2811
 9444SOL    HW139794   4.302   2.315   4.099 -0.1160  0.7781 -0.2361
 9444SOL    HW239795   4.371   2.243   3.990  0.4938  0.7649 -0.9393
 9445SOL     OW39796   1.996   2.791   0.285 -0.1545  0.3465 -0.2897
 9445SOL    HW139797   1.911   2.780   0.244 -0.2300 -0.8825  0.1885
 9445SOL    HW239798   2.000   2.707   0.332 -1.7048 -1.1893 -2.9336
 9446SOL     OW39799   1.218   1.450   5.367 -0.1318 -0.0469  0.8069
 9446SOL    HW139800   1.222   1.499   5.285  0.1090 -0.2590  0.6900
 9446SOL    HW239801   1.193   1.362   5.339 -1.3081  1.4337 -2.7946
 9447SOL     OW39802   4.246   1.920  11.569  0.3223  0.4136 -0.2761
 9447SOL    HW139803   4.164   1.899  11.524 -1.0094  2.8531  0.9579
 9447SOL    HW239804   4.234   2.015  11.567 -1.7785  0.1224 -1.4074
 9448SOL     OW39805   3.160   3.957   2.869 -0.1764  0.1032  0.6460
 9448SOL    HW139806   3.104   4.035   2.879 -0.3309 -0.1304  1.6003
 9448SOL    HW239807   3.246   3.998   2.871 -0.1956  0.0110  3.0540
 9449SOL     OW39808   1.958   4.271   5.544  0.0988 -0.3083  0.8405
 9449SOL    HW139809   2.007   4.278   5.626  2.2066 -0.1412 -0.4447
 9449SOL    HW239810   1.989   4.353   5.506 -0.2234 -0.6233 -0.1012
 9450SOL     OW39811   2.217   0.078   1.325  0.1407  0.4838 -0.2984
 9450SOL    HW139812   2.131   0.081   1.367  0.1712 -0.7458 -0.1609
 9450SOL    HW239813   2.214   0.159   1.273 -0.0860  1.1587  0.7700
 9451SOL     OW39814   2.444   2.180   3.367 -0.6715 -0.2930 -0.0884
 9451SOL    HW139815   2.404   2.110   3.315  1.6889 -1.6178 -0.1106
 9451SOL    HW239816   2.519   2.195   3.310 -1.4423  0.2003 -0.9737
 9452SOL     OW39817   1.470   4.018   7.925  1.1195  1.1640  0.3829
 9452SOL    HW139818   1.441   3.951   7.987  0.5060  0.3689 -0.7428
 9452SOL    HW239819   1.565   4.017   7.927  1.1271 -1.8176 -1.3802
 9453SOL     OW39820   1.577   1.521   7.986  0.4151  0.1621  0.5180
 9453SOL    HW139821   1.496   1.472   7.978  0.3873  0.3140 -0.1670
 9453SOL    HW239822   1.546   1.610   7.974  0.1652 -0.0510 -0.4353
 9454SOL     OW39823   0.240   0.191   4.460 -0.0866  0.3883 -0.0265
 9454SOL    HW139824   0.333   0.209   4.469 -0.4137  2.2122 -0.2656
 9454SOL    HW239825   0.229   0.170   4.367  0.0703  3.7286 -0.8105
 9455SOL     OW39826   0.304   1.587   4.999 -0.1779  0.5022 -0.5223
 9455SOL    HW139827   0.365   1.642   4.950 -0.8249  1.3225 -0.3922
 9455SOL    HW239828   0.226   1.600   4.945  0.1529 -1.2922 -1.4571
 9456SOL     OW39829   3.845   2.041   4.894 -0.2331 -0.1106  0.1227
 9456SOL    HW139830   3.888   1.956   4.899  2.1536  1.0906  0.1182
 9456SOL    HW239831   3.904   2.087   4.955 -0.8224  0.3879  0.3127
 9457SOL     OW39832   4.510   0.239  16.340 -0.0373 -0.6820  0.1357
 9457SOL    HW139833   4.598   0.248  16.376 -0.9171  4.3398  1.0542
 9457SOL    HW239834   4.510   0.179  16.266 -1.6254  2.7283 -2.6287
 9458SOL     OW39835   2.136   3.191   5.274  0.1742  0.6059  0.1062
 9458SOL    HW139836   2.171   3.107   5.244 -0.0865  0.8420 -0.8660
 9458SOL    HW239837   2.182   3.250   5.215  1.0109 -1.0380 -0.8789
 9459SOL     OW39838   1.066   2.075   4.787  0.4638 -0.2710 -0.0234
 9459SOL    HW139839   1.089   2.025   4.865  1.7058  1.0892  0.4793
 9459SOL    HW239840   0.976   2.043   4.779 -0.6958  2.7344  1.0487
 9460SOL     OW39841   1.481   1.659   8.632 -0.1370 -0.1689  0.2656
 9460SOL    HW139842   1.513   1.730   8.687  2.4290 -1.9218  1.0512
 9460SOL    HW239843   1.499   1.583   8.687  2.1178 -1.3265 -2.0461
 9461SOL     OW39844   3.937   0.737  16.759 -0.8972 -0.2812 -0.0149
 9461SOL    HW139845   4.021   0.768  16.792 -0.7604 -0.9080  0.2297
 9461SOL    HW239846   3.935   0.654  16.806  0.2221  0.4739  1.3707
 9462SOL     OW39847   1.623   1.207   2.518  0.4760  0.0371  0.9054
 9462SOL    HW139848   1.553   1.247   2.468 -0.1978 -0.8236  1.1482
 9462SOL    HW239849   1.575   1.179   2.596 -3.8850 -0.1174 -1.8652
 9463SOL     OW39850   3.180   1.387   5.400 -0.1643  0.2825 -0.5105
 9463SOL    HW139851   3.187   1.329   5.324 -0.9712  0.9959 -1.1238
 9463SOL    HW239852   3.242   1.339   5.456  2.0088  0.8820 -2.3835
 9464SOL     OW39853   3.072   2.688  10.018  0.2036  0.6772  0.1851
 9464SOL    HW139854   3.095   2.622   9.953 -2.1051 -0.3301  0.4194
 9464SOL    HW239855   3.118   2.767   9.988 -0.9569  1.1450 -0.3550
 9465SOL     OW39856   3.562   1.152   5.156 -0.5151  0.3099  0.2339
 9465SOL    HW139857   3.630   1.204   5.112 -0.2574  0.3732  0.7126
 9465SOL    HW239858   3.546   1.091   5.083  0.8789 -0.4757  0.5804
 9466SOL     OW39859   0.392   2.448   6.339 -0.0353  0.4621  0.1107
 9466SOL    HW139860   0.414   2.392   6.413  1.3504  2.6927  1.3869
 9466SOL    HW239861   0.325   2.503   6.378  0.4025 -0.6368  2.4355
 9467SOL     OW39862   1.670   1.127   0.679 -0.4684  0.6531  0.4937
 9467SOL    HW139863   1.718   1.100   0.600  1.3241  0.5259  1.6332
 9467SOL    HW239864   1.608   1.193   0.648 -0.5885  0.4622  0.3248
 9468SOL     OW39865   0.972   3.411  17.549  0.0212  0.0846  0.0088
 9468SOL    HW139866   0.898   3.411  17.609 -0.7034  1.0923 -0.8825
 9468SOL    HW239867   0.931   3.405  17.462 -0.8370  2.7821  0.2222
 9469SOL     OW39868   0.146   2.780  14.197  0.0300 -0.2727 -0.3361
 9469SOL    HW139869   0.187   2.778  14.283 -0.5972 -0.3390 -0.0395
 9469SOL    HW239870   0.146   2.873  14.174 -1.3708 -0.0052  0.7847
 9470SOL     OW39871   2.281   3.075   6.812  0.0059  0.1037  0.3069
 9470SOL    HW139872   2.373   3.081   6.785 -0.4049  1.9595 -0.7148
 9470SOL    HW239873   2.297   3.045   6.901 -1.8251 -2.4421 -0.2373
 9471SOL     OW39874   1.648   0.016   5.096 -0.0270  0.3145  0.0103
 9471SOL    HW139875   1.714   0.058   5.041  0.8469  1.1299  1.6938
 9471SOL    HW239876   1.638   4.659   5.047 -2.9108  0.7538 -0.1583
 9472SOL     OW39877   4.207   3.949   9.859 -0.1031  0.3291 -0.6148
 9472SOL    HW139878   4.293   3.919   9.828 -0.0005 -1.0024  0.9514
 9472SOL    HW239879   4.202   4.043   9.842  0.5311  0.1466 -1.8248
 9473SOL     OW39880   0.367   4.130   4.041 -0.7119 -0.6490  0.0436
 9473SOL    HW139881   0.408   4.192   3.981 -0.0796 -1.8909 -0.8156
 9473SOL    HW239882   0.418   4.145   4.120 -0.3135 -2.1982  0.0784
 9474SOL     OW39883   3.489   1.542   8.971  0.4679 -0.1475 -0.2066
 9474SOL    HW139884   3.578   1.536   9.005 -0.2302 -0.3010  1.5648
 9474SOL    HW239885   3.452   1.457   8.994 -0.3657 -0.4544 -2.7202
 9475SOL     OW39886   3.188   0.404   5.770  0.7905 -0.2174  0.7940
 9475SOL    HW139887   3.136   0.449   5.703 -0.6386 -1.6144  0.9758
 9475SOL    HW239888   3.153   0.442   5.851 -0.2150 -1.3501  0.8953
 9476SOL     OW39889   0.160   0.167   6.897  0.6806 -0.2237 -0.3875
 9476SOL    HW139890   0.248   0.203   6.895  0.6343 -0.0711  0.5396
 9476SOL    HW239891   0.126   0.202   6.979 -2.2985  0.0159 -1.7182
 9477SOL     OW39892   0.975   1.470  11.130 -0.9136 -0.2859  0.4494
 9477SOL    HW139893   0.968   1.549  11.183  0.8750 -0.6816  1.2593
 9477SOL    HW239894   1.016   1.408  11.190 -1.2150  0.1377  1.0883
 9478SOL     OW39895   3.308   1.638   6.387  0.1544 -0.3659 -0.1760
 9478SOL    HW139896   3.245   1.587   6.335 -0.5654  0.0282  0.3185
 9478SOL    HW239897   3.395   1.604   6.362  0.4915  0.1970  0.2304
 9479SOL     OW39898   2.149   0.647   8.142  0.0300 -0.1316  0.5403
 9479SOL    HW139899   2.170   0.674   8.231 -2.3160  0.2283  1.0035
 9479SOL    HW239900   2.054   0.652   8.132  0.0356  0.3656  0.7100
 9480SOL     OW39901   3.295   0.692  11.659 -1.3085 -0.1597 -0.2375
 9480SOL    HW139902   3.206   0.671  11.686 -0.8880  0.1211  1.3727
 9480SOL    HW239903   3.278   0.786  11.647 -1.3680 -0.4916 -2.8149
 9481SOL     OW39904   1.561   4.019   0.926  0.7588  0.7333 -0.1537
 9481SOL    HW139905   1.473   3.984   0.910  0.7258  1.9197 -2.5985
 9481SOL    HW239906   1.601   3.936   0.952  1.5108  0.9083 -0.7486
 9482SOL     OW39907   3.378   2.006   1.542 -0.4644  0.5942 -0.5031
 9482SOL    HW139908   3.451   1.961   1.499 -0.4967 -1.4097  1.5717
 9482SOL    HW239909   3.298   1.972   1.502 -0.9133  0.8255  0.1885
 9483SOL     OW39910   1.245   3.030   9.615  0.0996 -0.5304  0.3645
 9483SOL    HW139911   1.311   3.096   9.597 -0.5674  0.2678  0.8309
 9483SOL    HW239912   1.234   3.046   9.709  0.4774 -0.7465  0.4473
 9484SOL     OW39913   2.625   0.713  15.670  0.3095 -0.3834  0.3334
 9484SOL    HW139914   2.530   0.725  15.671  0.1521 -1.7321  1.3219
 9484SOL    HW239915   2.644   0.748  15.583  2.2169 -0.3790  0.7556
 9485SOL     OW39916   1.952   0.290   1.201 -0.4641 -0.1174  0.0351
 9485SOL    HW139917   1.910   0.226   1.143  0.0641 -2.2307  1.9550
 9485SOL    HW239918   2.039   0.296   1.160 -0.1282  0.3261  0.8225
 9486SOL     OW39919   3.969   0.799   3.733 -0.4536  0.2774  0.5224
 9486SOL    HW139920   3.914   0.762   3.803 -0.9481  0.9218  0.4726
 9486SOL    HW239921   3.933   0.887   3.731 -0.6407  0.1900  0.0935
 9487SOL     OW39922   0.528   4.652   7.705  0.0052 -0.1480  0.2136
 9487SOL    HW139923   0.531   4.573   7.759  1.4804 -0.6479 -0.6111
 9487SOL    HW239924   0.433   4.657   7.690  0.4267  0.7239 -2.2028
 9488SOL     OW39925   0.281   4.607   7.467 -0.4944  0.0591  0.1093
 9488SOL    HW139926   0.261   4.615   7.560  0.9566  0.4194  0.3976
 9488SOL    HW239927   0.301   4.514   7.457  0.4434  0.2983 -0.2233
 9489SOL     OW39928   1.703   0.213   4.117  0.7600 -0.9094  0.1525
 9489SOL    HW139929   1.776   0.249   4.168  0.7329 -0.1528 -0.3290
 9489SOL    HW239930   1.748   0.147   4.064  1.7844  1.5924 -2.1196
 9490SOL     OW39931   2.156   1.310  17.001  0.1462  0.4432 -0.4692
 9490SOL    HW139932   2.193   1.382  17.051  1.2568 -0.1766 -0.4015
 9490SOL    HW239933   2.066   1.293  17.029 -0.0147 -0.9445 -1.7822
 9491SOL     OW39934   2.849   3.582   5.354  0.0309 -0.4294  1.0085
 9491SOL    HW139935   2.899   3.617   5.279 -1.0741 -2.1612 -0.5332
 9491SOL    HW239936   2.893   3.633   5.423  2.9736 -0.6658 -0.6925
 9492SOL     OW39937   4.323   4.229   5.737  0.1808  0.0844  0.5497
 9492SOL    HW139938   4.331   4.210   5.830  0.3836  2.9194  1.1106
 9492SOL    HW239939   4.387   4.170   5.697  0.2553  0.2422  0.4369
 9493SOL     OW39940   3.024   2.582   9.613 -0.4223 -0.4543  0.4218
 9493SOL    HW139941   3.061   2.584   9.702  3.1968 -1.2671 -1.0590
 9493SOL    HW239942   3.091   2.621   9.557 -2.0951  1.1118 -0.4367
 9494SOL     OW39943   2.876   1.723  13.487  0.1761  0.6889 -0.2264
 9494SOL    HW139944   2.852   1.633  13.465 -1.4806  1.1222 -0.1384
 9494SOL    HW239945   2.798   1.762  13.527  0.8535  1.9007 -0.0875
 9495SOL     OW39946   3.472   0.413  10.658  0.3821  0.2401 -0.1264
 9495SOL    HW139947   3.461   0.495  10.705  1.5512  0.1772  0.2507
 9495SOL    HW239948   3.498   0.456  10.576  0.4491 -0.2902 -0.3885
 9496SOL     OW39949   2.146   1.484   2.048  0.5639  0.2546  0.4437
 9496SOL    HW139950   2.084   1.552   2.076  2.2064  1.4412  1.1922
 9496SOL    HW239951   2.224   1.482   2.104  1.6057 -0.8604 -1.0558
 9497SOL     OW39952   3.896   4.110   1.754  0.2970  0.6444  0.8440
 9497SOL    HW139953   3.930   4.035   1.704 -1.2786 -0.3176  1.2197
 9497SOL    HW239954   3.878   4.168   1.681 -1.4962 -0.7680  0.1586
 9498SOL     OW39955   1.437   2.068   8.663  0.1967 -0.2747  0.0748
 9498SOL    HW139956   1.494   2.086   8.737  0.0519  0.4148  0.0254
 9498SOL    HW239957   1.487   2.080   8.582  1.6235  0.4903  1.0810
 9499SOL     OW39958   2.281   4.207   8.855  0.0403  0.2124 -0.2344
 9499SOL    HW139959   2.288   4.201   8.951 -0.5171 -1.4170 -0.3035
 9499SOL    HW239960   2.198   4.160   8.855  1.2297 -1.8976 -0.4176
 9500SOL     OW39961   2.560   1.725  17.447  0.5214  0.0600  0.3563
 9500SOL    HW139962   2.529   1.644  17.409 -1.3097  1.3037 -0.7665
 9500SOL    HW239963   2.505   1.736  17.525 -3.2051 -0.6743 -2.2049
 9501SOL     OW39964   0.272   1.955  13.994  0.2919  0.1883 -0.4117
 9501SOL    HW139965   0.322   2.020  14.044  1.3635  0.0805 -1.3354
 9501SOL    HW239966   0.224   2.017  13.938  1.0654  0.4340 -0.8061
 9502SOL     OW39967   4.702   1.381   3.763  0.2617  0.4687  0.4145
 9502SOL    HW139968   4.724   1.362   3.672  1.6289  0.2096  0.8041
 9502SOL    HW239969   4.659   1.300   3.791  1.1232  0.4168  1.5922
 9503SOL     OW39970   1.197   3.796   3.401 -0.2003  0.1042  0.3075
 9503SOL    HW139971   1.179   3.889   3.414  0.1781  0.1318  0.6367
 9503SOL    HW239972   1.106   3.772   3.389  0.4518 -0.6044 -3.3601
 9504SOL     OW39973   3.633   3.906  15.336 -0.0413  0.0139  0.0877
 9504SOL    HW139974   3.675   3.955  15.266  1.9405 -0.8528  0.6568
 9504SOL    HW239975   3.567   3.860  15.284 -1.1253 -0.2131  1.6702
 9505SOL     OW39976   2.436   3.070  10.092 -0.9227  0.0810  0.2486
 9505SOL    HW139977   2.494   3.009  10.047 -2.2636  0.1852 -1.6073
 9505SOL    HW239978   2.423   3.021  10.174  0.9539 -0.0944  0.4502
 9506SOL     OW39979   3.949   1.641   2.231 -0.0498 -0.3589  0.2294
 9506SOL    HW139980   3.901   1.652   2.313  0.8373  1.4681  0.4912
 9506SOL    HW239981   4.032   1.682   2.255  0.9498 -2.6961  0.8391
 9507SOL     OW39982   4.259   0.598   8.714 -0.4159 -0.0242  0.4373
 9507SOL    HW139983   4.199   0.593   8.640  1.1935 -2.2496 -0.7203
 9507SOL    HW239984   4.340   0.561   8.680 -0.5041  0.9779 -0.8292
 9508SOL     OW39985   3.689   2.756   7.289  0.2771  0.1550 -0.2739
 9508SOL    HW139986   3.676   2.831   7.348  2.5495 -0.6163  1.2187
 9508SOL    HW239987   3.686   2.810   7.210 -2.9748  0.3365 -0.0283
 9509SOL     OW39988   2.217   4.241   1.562  0.3332  0.2216 -0.5880
 9509SOL    HW139989   2.268   4.242   1.642  0.7269  1.7069 -0.8532
 9509SOL    HW239990   2.138   4.190   1.582  0.8574 -0.9753 -1.6054
 9510SOL     OW39991   0.704   1.984   7.489  0.1462  0.3660  0.5443
 9510SOL    HW139992   0.686   2.077   7.502  2.1665  0.6245  1.5167
 9510SOL    HW239993   0.772   1.995   7.422  0.9535 -1.7169  1.0318
 9511SOL     OW39994   1.569   1.428  11.208  0.7952 -0.3634 -0.0343
 9511SOL    HW139995   1.664   1.439  11.213  0.6377  0.5105  1.0608
 9511SOL    HW239996   1.553   1.380  11.127 -1.8299  0.9552 -0.2848
 9512SOL     OW39997   4.093   1.040  14.951  0.9325  0.6649  0.4165
 9512SOL    HW139998   4.089   1.028  14.856  2.6426  1.9207  0.1805
 9512SOL    HW239999   4.184   1.063  14.969  0.4598  0.6115  2.8835
 9513SOL     OW40000   1.923   3.280   2.256 -0.0608 -0.2669  0.4856
 9513SOL    HW140001   1.976   3.315   2.328  0.9729 -1.1184  0.1406
 9513SOL    HW240002   1.930   3.348   2.189  1.5528 -0.4521  0.4492
 9514SOL     OW40003   1.801   4.047   4.610 -0.0415  0.4909  0.8102
 9514SOL    HW140004   1.734   3.982   4.591  1.3297 -0.4868 -0.7806
 9514SOL    HW240005   1.787   4.048   4.704 -1.7619 -2.9876  0.5969
 9515SOL     OW40006   3.075   1.506   1.326 -0.0535 -0.0525 -0.4420
 9515SOL    HW140007   3.003   1.537   1.272 -0.7215 -0.8251 -0.0012
 9515SOL    HW240008   3.072   1.561   1.405 -2.7544 -1.4602  0.4638
 9516SOL     OW40009   2.166   2.130   4.673  0.0553  0.5662  0.2806
 9516SOL    HW140010   2.193   2.199   4.612  1.0262 -0.5523 -0.5476
 9516SOL    HW240011   2.072   2.132   4.652  0.3662 -0.4270 -1.2053
 9517SOL     OW40012   2.934   2.529   6.625  0.0066  0.1309 -0.4608
 9517SOL    HW140013   2.974   2.594   6.682  1.4167 -1.8688  0.8299
 9517SOL    HW240014   3.015   2.493   6.587 -0.1995 -1.5493  0.6712
 9518SOL     OW40015   1.325   4.596   5.392 -0.2093 -0.8663  0.2759
 9518SOL    HW140016   1.351   4.509   5.361  1.2831 -0.2386 -0.2862
 9518SOL    HW240017   1.318   4.651   5.313  2.0073  0.3208  0.8834
 9519SOL     OW40018   0.118   3.932  13.835 -0.6350  0.3165  0.4118
 9519SOL    HW140019   0.206   3.960  13.811 -2.1554  2.7405 -2.3716
 9519SOL    HW240020   0.106   3.870  13.764 -1.0756  2.1085 -1.0739
 9520SOL     OW40021   3.684   3.358   5.187 -0.8659 -0.4184  0.4016
 9520SOL    HW140022   3.693   3.368   5.282 -0.9681 -1.6046  0.5414
 9520SOL    HW240023   3.772   3.361   5.150 -1.1080 -1.6577 -0.2974
 9521SOL     OW40024   0.567   0.970  16.343 -0.1880  0.2381  0.1960
 9521SOL    HW140025   0.566   1.059  16.308  0.6890  0.3435  0.4415
 9521SOL    HW240026   0.476   0.947  16.324  1.0859 -3.1470 -1.7184
 9522SOL     OW40027   3.000   3.525   4.808  0.0407  0.0800  0.4857
 9522SOL    HW140028   3.077   3.495   4.856  0.7732  0.5174 -0.4159
 9522SOL    HW240029   3.040   3.566   4.731 -0.0642  1.3486  1.0957
 9523SOL     OW40030   3.818   2.314  16.840 -0.1337  0.1628 -0.3562
 9523SOL    HW140031   3.906   2.323  16.804  1.0967 -0.8985  2.4090
 9523SOL    HW240032   3.838   2.273  16.924  0.2890  0.8990 -0.0918
 9524SOL     OW40033   4.152   0.795   5.067 -0.1247  0.3112 -0.3543
 9524SOL    HW140034   4.241   0.762   5.074  0.4118  1.6048 -1.2292
 9524SOL    HW240035   4.166   0.872   5.013 -1.7338  1.2540  0.5637
 9525SOL     OW40036   3.679   1.181   8.870 -0.4892  0.3182 -0.1236
 9525SOL    HW140037   3.637   1.179   8.956  1.9915  2.8181  1.1563
 9525SOL    HW240038   3.670   1.088   8.848  1.4631  0.3091 -0.8226
 9526SOL     OW40039   2.292   3.362   8.636  0.0409  0.1197 -0.1391
 9526SOL    HW140040   2.360   3.372   8.703 -0.8465 -2.6969  1.1724
 9526SOL    HW240041   2.296   3.267   8.628 -0.2908  0.0905  0.0655
 9527SOL     OW40042   0.319   1.273   7.630  0.3401 -0.3328  0.6095
 9527SOL    HW140043   0.227   1.286   7.607  0.5691 -0.1103 -0.2100
 9527SOL    HW240044   0.351   1.347   7.578  0.1420 -0.2775  0.5667
 9528SOL     OW40045   0.813   2.216   5.038  0.4261 -0.2325 -0.0691
 9528SOL    HW140046   0.741   2.170   4.994  2.2073 -2.4417 -0.6733
 9528SOL    HW240047   0.805   2.308   5.014 -1.6504 -0.2169  0.7172
 9529SOL     OW40048   0.237   4.617   2.387  0.0361  0.1567  0.0497
 9529SOL    HW140049   0.281   4.591   2.307 -0.7406  1.0909 -0.6753
 9529SOL    HW240050   0.142   4.619   2.371 -0.0668  3.8900  1.0839
 9530SOL     OW40051   1.758   4.036  12.240  0.3847 -0.0529  0.7358
 9530SOL    HW140052   1.701   3.997  12.174 -0.2010  0.8642  0.7041
 9530SOL    HW240053   1.816   3.962  12.262  1.9386  0.8960 -0.1504
 9531SOL     OW40054   2.922   1.026   0.212  0.3913  0.0366 -0.3308
 9531SOL    HW140055   2.956   1.103   0.258 -1.3717  0.0121  1.0346
 9531SOL    HW240056   2.851   1.055   0.155  0.1673 -4.8181 -2.4744
 9532SOL     OW40057   3.351   2.806   7.178 -0.1219  0.1110 -0.1600
 9532SOL    HW140058   3.362   2.853   7.260  0.0719  3.1063 -1.9001
 9532SOL    HW240059   3.393   2.724   7.204 -1.2468  0.5035  2.8395
 9533SOL     OW40060   1.093   0.379   1.939  0.2716  0.6385 -0.1598
 9533SOL    HW140061   1.080   0.316   2.010  0.9041 -0.5926 -1.1384
 9533SOL    HW240062   1.186   0.398   1.956 -0.3996  3.8314 -0.0865
 9534SOL     OW40063   2.360   0.029   5.723  0.4340  0.1383  0.1482
 9534SOL    HW140064   2.298   0.043   5.794 -2.0997  0.3672 -2.0780
 9534SOL    HW240065   2.418   0.104   5.715  1.3190 -0.6850 -1.2544
 9535SOL     OW40066   4.470   2.479   8.710 -0.4530  0.5409  0.6278
 9535SOL    HW140067   4.451   2.436   8.793 -0.6004 -0.7186 -0.0590
 9535SOL    HW240068   4.474   2.406   8.648 -1.0355  1.4849 -0.5235
 9536SOL     OW40069   4.640   2.712   5.718 -0.1790  0.1350  0.3677
 9536SOL    HW140070   4.639   2.678   5.628 -0.3653  3.1034 -0.7919
 9536SOL    HW240071   4.695   2.790   5.705 -1.4748  0.8357 -1.0454
 9537SOL     OW40072   0.792   3.068  11.124 -0.3990 -0.1070 -0.2925
 9537SOL    HW140073   0.886   3.074  11.104 -0.4044  1.5140  0.2602
 9537SOL    HW240074   0.781   3.157  11.156  2.0581 -0.6911  2.1716
 9538SOL     OW40075   0.638   3.522   5.873 -0.3208  0.4162 -0.3273
 9538SOL    HW140076   0.732   3.505   5.860 -0.3456  0.0566 -0.0217
 9538SOL    HW240077   0.598   3.470   5.804 -2.8859  0.8205  0.8645
 9539SOL     OW40078   2.097   1.057   0.353  0.6441  0.6833 -0.2357
 9539SOL    HW140079   2.054   1.082   0.435  1.8224  1.1500  0.2462
 9539SOL    HW240080   2.061   0.971   0.331 -0.2131  1.2690 -1.1116
 9540SOL     OW40081   2.899   4.127   5.685 -0.9079 -0.2175  0.1189
 9540SOL    HW140082   2.857   4.213   5.687 -0.5329 -0.0454  0.6664
 9540SOL    HW240083   2.974   4.149   5.631 -0.8520 -0.6416  0.0197
 9541SOL     OW40084   4.128   0.044  13.344  0.6938  0.2522  0.8147
 9541SOL    HW140085   4.040   0.012  13.363  0.2556  0.3563 -0.9587
 9541SOL    HW240086   4.107   0.065  13.252  1.8393  0.5384  0.6241
 9542SOL     OW40087   0.617   2.394   9.157  0.2373  0.1393 -0.3509
 9542SOL    HW140088   0.672   2.317   9.173  1.9089  1.2620 -0.6493
 9542SOL    HW240089   0.655   2.456   9.219  0.1336  0.5477 -0.6914
 9543SOL     OW40090   2.129   4.238   8.085 -0.2087  0.1469 -0.1361
 9543SOL    HW140091   2.033   4.245   8.087 -0.3546 -2.3749  1.6259
 9543SOL    HW240092   2.151   4.294   8.160 -1.8954  0.9881 -0.2531
 9544SOL     OW40093   1.331   1.266  11.742  0.8588  0.3796  0.1682
 9544SOL    HW140094   1.287   1.331  11.797 -1.3194 -0.5539 -0.4977
 9544SOL    HW240095   1.380   1.317  11.677  2.3326 -1.9500 -0.5781
 9545SOL     OW40096   0.275   4.301  17.070  0.3533  0.4176  0.3451
 9545SOL    HW140097   0.365   4.272  17.053  0.2596 -0.6285  1.6141
 9545SOL    HW240098   0.237   4.245  17.138  0.2231 -1.6418 -1.4068
 9546SOL     OW40099   1.122   4.619   9.038  0.3127 -0.2143  0.7151
 9546SOL    HW140100   1.105   4.709   9.063  1.7247 -0.4842  2.7170
 9546SOL    HW240101   1.218   4.614   9.034  0.1659  0.5676 -3.3045
 9547SOL     OW40102   2.751   3.060   7.622 -0.0442 -0.1658 -0.2659
 9547SOL    HW140103   2.807   3.083   7.697 -0.8860 -1.1871  0.6655
 9547SOL    HW240104   2.748   2.966   7.636  0.8608  0.0756  1.5138
 9548SOL     OW40105   1.587   3.742   3.816 -0.1504 -0.7548  0.8551
 9548SOL    HW140106   1.641   3.806   3.862  0.9667 -0.6866 -0.5291
 9548SOL    HW240107   1.648   3.671   3.795 -1.2348 -0.8882 -1.8364
 9549SOL     OW40108   0.378   3.914  12.230  0.6462 -0.0203 -0.2627
 9549SOL    HW140109   0.436   3.982  12.195  2.4751 -0.1203  2.5815
 9549SOL    HW240110   0.366   3.860  12.152  0.9086 -0.0832 -0.2606
 9550SOL     OW40111   2.809   3.645  17.123 -0.1215  0.4916 -0.0732
 9550SOL    HW140112   2.870   3.691  17.065  0.0652 -1.3124 -1.3114
 9550SOL    HW240113   2.853   3.570  17.162  1.0091  1.3447  0.3213
 9551SOL     OW40114   0.856   1.369   9.620 -0.2418 -0.1697  0.5296
 9551SOL    HW140115   0.790   1.347   9.554 -0.8037 -0.7166  1.2859
 9551SOL    HW240116   0.927   1.314   9.586 -1.9699 -1.1136 -1.5662
 9552SOL     OW40117   2.258   2.685   7.658  0.1579 -0.4337  0.7232
 9552SOL    HW140118   2.327   2.747   7.633 -0.0718 -0.2036  0.6579
 9552SOL    HW240119   2.189   2.745   7.687  1.5705  1.7392 -0.4121
 9553SOL     OW40120   1.183   4.260   4.269 -0.6187  0.3335  0.0409
 9553SOL    HW140121   1.170   4.347   4.231 -2.0746  1.5264  3.2704
 9553SOL    HW240122   1.277   4.263   4.290 -1.0360 -2.2606  2.2996
 9554SOL     OW40123   0.053   4.053  13.128 -0.2200  0.3440 -0.7149
 9554SOL    HW140124   0.140   4.047  13.166 -1.7960 -1.9964  2.5489
 9554SOL    HW240125   0.061   4.017  13.040  0.1287 -1.1603 -0.0649
 9555SOL     OW40126   2.419   2.811   4.345  0.2771 -0.3350 -0.1889
 9555SOL    HW140127   2.369   2.884   4.307  1.0681 -0.2051 -0.9806
 9555SOL    HW240128   2.438   2.858   4.426  0.8019  1.0420 -1.1124
 9556SOL     OW40129   4.531   1.840   5.894  0.3051  0.0660 -0.3875
 9556SOL    HW140130   4.581   1.763   5.866  0.3001  0.2430 -0.8730
 9556SOL    HW240131   4.604   1.896   5.922 -0.4001 -0.1076  1.7580
 9557SOL     OW40132   0.563   2.063   9.065 -0.4592 -0.4562 -0.4586
 9557SOL    HW140133   0.500   2.053   9.136 -0.7714 -0.3227 -0.7158
 9557SOL    HW240134   0.573   1.974   9.033  3.2369  0.1455 -1.0958
 9558SOL     OW40135   2.928   4.670  10.154  0.0754 -0.0554  0.7079
 9558SOL    HW140136   2.940   4.623  10.072  0.6793  0.6585  0.3863
 9558SOL    HW240137   2.906   4.589  10.200 -1.3809 -0.2092 -0.2853
 9559SOL     OW40138   1.751   2.533   4.766  0.3111 -0.1526 -0.1572
 9559SOL    HW140139   1.719   2.584   4.841  0.9935 -0.9113  0.6526
 9559SOL    HW240140   1.846   2.533   4.761  0.3428  0.3064  0.5005
 9560SOL     OW40141   4.008   0.537   5.778  0.0770  0.0888  0.6553
 9560SOL    HW140142   3.975   0.553   5.689 -1.5070  0.1932  1.2615
 9560SOL    HW240143   4.056   0.454   5.774  0.5062  0.4321 -1.6621
 9561SOL     OW40144   1.984   2.937   0.637 -0.6557 -0.4760 -0.2514
 9561SOL    HW140145   2.066   2.892   0.615 -0.2584 -0.5058  1.2641
 9561SOL    HW240146   1.971   2.995   0.563  0.0030 -1.5936 -1.2408
 9562SOL     OW40147   2.090   3.373   2.444 -0.1899  0.1030 -0.0050
 9562SOL    HW140148   2.109   3.300   2.503 -0.4753  1.4761  1.7605
 9562SOL    HW240149   2.177   3.376   2.404 -1.4996  0.3897 -2.8704
 9563SOL     OW40150   2.781   1.429   8.244 -0.2843  1.0498 -0.1670
 9563SOL    HW140151   2.781   1.336   8.266 -1.3601  1.1703  0.3358
 9563SOL    HW240152   2.765   1.466   8.331 -1.0445  1.6781 -0.5735
 9564SOL     OW40153   1.280   0.786   1.231  0.3712 -0.2927 -0.2513
 9564SOL    HW140154   1.266   0.856   1.295 -0.9790  1.0133 -1.9434
 9564SOL    HW240155   1.196   0.786   1.184  1.1177 -0.9402 -1.5817
 9565SOL     OW40156   0.377   4.063   6.325 -0.0029  0.2837 -0.0010
 9565SOL    HW140157   0.334   4.075   6.240 -0.8551 -1.3251  0.1918
 9565SOL    HW240158   0.346   3.973   6.337  2.0646 -0.6077 -1.1694
 9566SOL     OW40159   1.191   3.803   9.653  0.5240  0.5927  0.5725
 9566SOL    HW140160   1.224   3.890   9.675  2.0485  0.0732  0.2940
 9566SOL    HW240161   1.247   3.749   9.709 -1.2888  0.9567  2.7447
 9567SOL     OW40162   1.632   0.244  17.386 -0.2108 -0.0521  0.0146
 9567SOL    HW140163   1.683   0.213  17.461 -0.0018 -0.3829 -0.2679
 9567SOL    HW240164   1.549   0.201  17.408  0.0921 -0.3877  0.5028
 9568SOL     OW40165   2.062   0.697   7.466 -0.2707 -0.0933  0.1460
 9568SOL    HW140166   2.042   0.758   7.394 -0.2622  1.6886  1.6634
 9568SOL    HW240167   2.037   0.612   7.430 -0.4007 -0.2592  0.6287
   4.72507   4.72507  17.70165
