Membrane in water
40167
    1TCq1    O1    1   2.037   2.731  11.326  0.1928 -0.4014 -0.3604
    1TCq1    C1    2   2.006   2.758  11.455 -0.1444  0.4488 -0.7014
    1TCq1    O2    3   2.084   2.792  11.542  0.1194  0.6434 -0.0341
    1TCq1    C2    4   1.892   2.675  11.493  0.7158 -0.5779 -0.6338
    1TCq1    C3    5   1.771   2.699  11.427  0.8132 -0.1022  0.0841
    1TCq1    C4    6   1.656   2.663  11.493  0.2080  0.2052  0.0271
    1TCq1    C5    7   1.669   2.614  11.621 -0.5426  0.1331 -0.1369
    1TCq1    C6    8   1.786   2.584  11.679  0.8316  0.0085 -1.0143
    1TCq1    C7    9   1.900   2.613  11.619  0.4101  0.3824  0.2915
    1TCq1    C8   10   1.771   2.469  11.761  0.0069 -0.7356  0.6439
    1TCq1    O4   11   1.714   2.479  11.866  0.0839 -0.1704  0.4811
    1TCq1    C9   12   1.527   2.715  11.452 -0.3746 -0.2227  0.0559
    1TCq1    O5   13   1.511   2.746  11.329 -0.2207  0.4428  0.2071
    1TCq1    O6   14   1.429   2.729  11.539  0.1103  0.0558 -0.0078
    1TCq1    H1   15   1.960   2.701  11.273  1.2804  1.8383 -3.2167
    1TCq1    H2   16   1.755   2.752  11.333 -1.5265  0.9911  1.1033
    1TCq1    H3   17   1.576   2.603  11.675 -0.5961  3.9694  0.5518
    1TCq1    H4   18   1.997   2.592  11.662  1.3200  2.9735 -0.5051
    2MPD2     C   19   1.804   1.970  11.838  0.1645  0.1192  0.1073
    2MPD2    C1   20   1.793   2.076  11.927  0.2103  0.5174 -0.1637
    2MPD2    C2   21   1.803   2.207  11.877 -0.6049 -0.2855 -0.6652
    2MPD2    C3   22   1.823   2.230  11.747 -0.0241  0.5108  0.1562
    2MPD2    C4   23   1.833   2.119  11.657  0.1487 -0.2206  0.3072
    2MPD2    C5   24   1.834   1.994  11.707  0.1117 -0.1971  0.1294
    2MPD2     H   25   1.806   2.283  11.954 -0.7936 -0.8624 -0.0899
    2MPD2    H1   26   1.851   2.146  11.554  0.1570 -0.3749  0.2672
    2MPD2    H2   27   1.799   1.866  11.869 -0.2512  0.1521  0.1471
    2MPD2    H3   28   1.857   1.914  11.637 -0.8111  1.0421 -1.5925
    2MPD2     N   29   1.824   2.358  11.694  0.4323 -0.1525 -0.5411
    2MPD2    H5   30   1.866   2.380  11.604  0.4248 -1.6893 -0.9159
    2MPD2    N1   31   1.761   2.059  12.064  0.6018  0.1674  0.7573
    2MPD2    H7   32   1.742   2.145  12.114  2.0185  1.0957 -0.2801
    3TCq1    O1   33   1.566   2.799  10.436  0.9627 -0.2127  0.0208
    3TCq1    C1   34   1.650   2.894  10.472 -0.3814 -0.5008  0.2376
    3TCq1    O2   35   1.775   2.891  10.458 -0.3596  0.1118  0.1262
    3TCq1    C2   36   1.571   3.013  10.458  0.4267 -0.1038  0.1146
    3TCq1    C3   37   1.617   3.115  10.387  0.0437  0.4875 -0.1901
    3TCq1    C4   38   1.542   3.228  10.383 -0.1525  0.3433  0.6302
    3TCq1    C5   39   1.421   3.237  10.436  0.7361  0.5571  0.3067
    3TCq1    C6   40   1.367   3.126  10.499  0.5253  0.3300  1.4100
    3TCq1    C7   41   1.444   3.011  10.519 -0.2060  0.3249  0.8669
    3TCq1    C8   42   1.234   3.136  10.556  0.5712 -0.3351 -0.3192
    3TCq1    O4   43   1.199   3.032  10.606 -0.2730 -0.0037 -0.6537
    3TCq1    C9   44   1.592   3.344  10.321 -0.7275 -0.1903  0.5735
    3TCq1    O5   45   1.680   3.328  10.230  0.1202  0.2714 -0.5158
    3TCq1    O6   46   1.529   3.456  10.336 -0.4825 -0.1277 -0.3655
    3TCq1    H1   47   1.472   2.826  10.423  1.0320  0.1182  0.2124
    3TCq1    H2   48   1.720   3.123  10.354 -0.0831 -2.6415 -1.3197
    3TCq1    H3   49   1.358   3.313  10.391 -0.5114 -0.7587 -0.1385
    3TCq1    H4   50   1.413   2.924  10.576 -0.2688 -1.2987 -1.6391
    4MPD2     C   51   0.834   3.388  10.733  0.8623  0.6403  0.3151
    4MPD2    C1   52   0.918   3.478  10.667 -0.3889  0.4696 -0.5798
    4MPD2    C2   53   1.024   3.431  10.597 -0.4688 -0.0194  0.3570
    4MPD2    C3   54   1.060   3.296  10.601 -0.2682  0.5662  0.1225
    4MPD2    C4   55   0.982   3.206  10.675  0.7299 -0.3420  0.3262
    4MPD2    C5   56   0.871   3.257  10.735 -0.1985  0.1270 -0.1449
    4MPD2     H   57   1.089   3.500  10.545 -0.2736  0.2659  0.9737
    4MPD2    H1   58   1.017   3.107  10.698  2.5721  1.1647  3.9776
    4MPD2    H2   59   0.753   3.418  10.798  1.1006 -0.1499  0.9888
    4MPD2    H3   60   0.819   3.177  10.787 -1.8062  0.1636 -1.6933
    4MPD2     N   61   1.180   3.259  10.542  0.8789  0.2165 -0.0364
    4MPD2    H5   62   1.232   3.331  10.492  0.2851  0.8745  0.2941
    4MPD2    N1   63   0.901   3.615  10.672  0.0891  0.1950 -0.2717
    4MPD2    H7   64   0.976   3.669  10.630  0.3246 -0.6438 -0.9110
    5TCq1    O1   65   3.069   0.161  11.713 -0.8817 -0.1534 -1.0628
    5TCq1    C1   66   3.011   0.057  11.642  1.1808  0.3998 -0.9905
    5TCq1    O2   67   3.072   4.681  11.595 -0.1539  0.4030 -0.7680
    5TCq1    C2   68   2.870   0.081  11.630 -0.2222 -0.0811 -1.0538
    5TCq1    C3   69   2.794   0.130  11.733 -0.8712 -0.0058  0.5643
    5TCq1    C4   70   2.674   0.175  11.715  0.7329  0.8807  0.7306
    5TCq1    C5   71   2.619   0.171  11.590  0.2958  0.0349 -0.2029
    5TCq1    C6   72   2.693   0.127  11.483 -0.1443  0.2996  0.0323
    5TCq1    C7   73   2.817   0.081  11.510  0.1219  0.4433  0.3503
    5TCq1    C8   74   2.623   0.064  11.376  0.3187 -0.1586 -0.7680
    5TCq1    O4   75   2.671   4.676  11.338  0.0921 -0.0344  0.2922
    5TCq1    C9   76   2.596   0.211  11.825  0.0975  0.6284 -0.1392
    5TCq1    O5   77   2.483   0.250  11.791  0.3978 -0.3724  0.7180
    5TCq1    O6   78   2.643   0.217  11.944 -0.1371  0.0882  0.4182
    5TCq1    H1   79   3.014   0.242  11.717  0.2255  0.6440 -1.9376
    5TCq1    H2   80   2.827   0.124  11.836  2.0354 -0.2708 -0.3795
    5TCq1    H3   81   2.518   0.210  11.578  1.0904  1.2950 -2.7341
    5TCq1    H4   82   2.882   0.048  11.429 -1.7530 -3.5108  0.4139
    6MPD2     C   83   2.271   0.141  11.267 -0.2692 -0.1081  0.2304
    6MPD2    C1   84   2.391   0.082  11.269 -0.4287 -0.0524  0.2570
    6MPD2    C2   85   2.403   4.686  11.186 -0.0488  0.3070  0.6836
    6MPD2    C3   86   2.295   4.632  11.121 -0.8894 -0.8172 -0.3302
    6MPD2    C4   87   2.175   4.694  11.122  0.1042  0.2367  0.7800
    6MPD2    C5   88   2.161   0.091  11.206  0.0605  0.2610 -0.5812
    6MPD2     H   89   2.502   4.644  11.173 -0.4246 -1.5393  3.6194
    6MPD2    H1   90   2.083   4.649  11.086  0.0139  0.3372  0.8864
    6MPD2    H2   91   2.248   0.234  11.319 -0.9896 -1.1545  1.7787
    6MPD2    H3   92   2.062   0.132  11.218 -0.0639  0.0512 -0.9014
    6MPD2     N   93   2.324   4.514  11.055  0.3486 -0.5569  0.1900
    6MPD2    H5   94   2.417   4.478  11.074  0.4870 -0.6194 -0.6054
    6MPD2    N1   95   2.498   0.125  11.357 -0.3901  0.7905 -0.1833
    6MPD2    H7   96   2.469   0.203  11.414  0.9462  0.9462  0.2931
    7TCq1    O1   97   4.651   3.791  12.420 -0.0338 -0.6314 -0.2594
    7TCq1    C1   98   4.586   3.812  12.534  0.2714  0.3943 -0.1521
    7TCq1    O2   99   4.465   3.835  12.546 -0.1539  0.1045 -0.2505
    7TCq1    C2  100   4.678   3.858  12.632  0.6293 -0.2455  0.3009
    7TCq1    C3  101   0.045   3.960  12.598  0.2223  0.0205  0.0605
    7TCq1    C4  102   0.069   4.060  12.693 -0.3362  0.6718  0.1375
    7TCq1    C5  103   0.006   4.065  12.813 -0.0367 -0.2370  0.0933
    7TCq1    C6  104   4.638   3.962  12.843  0.5194 -0.4001  0.2700
    7TCq1    C7  105   4.621   3.862  12.754  0.3542 -0.2500  0.4543
    7TCq1    C8  106   4.557   3.961  12.961 -0.1013 -0.5580 -0.0231
    7TCq1    O4  107   4.466   3.882  12.955 -0.4861 -0.4718  0.3896
    7TCq1    C9  108   0.160   4.167  12.661  0.4858  0.0003  0.9821
    7TCq1    O5  109   0.154   4.265  12.736 -0.1503  0.1793  0.1394
    7TCq1    O6  110   0.225   4.152  12.553 -0.0067  0.1075 -0.0893
    7TCq1    H1  111   0.026   3.766  12.434  0.0751 -0.6131 -0.9108
    7TCq1    H2  112   0.076   3.965  12.494  1.7006  0.1101  0.4962
    7TCq1    H3  113   0.025   4.149  12.879 -1.3465 -0.2890  0.5327
    7TCq1    H4  114   4.546   3.786  12.774 -2.8507  2.4819 -1.1670
    8MPD2     C  115   4.347   4.156  13.392  0.6204  0.0186 -0.9611
    8MPD2    C1  116   4.323   4.034  13.326  0.2104  0.5680 -0.3528
    8MPD2    C2  117   4.398   3.999  13.210  0.1867  0.9586 -0.5714
    8MPD2    C3  118   4.491   4.089  13.163 -0.8162 -0.4673 -0.3267
    8MPD2    C4  119   4.524   4.204  13.240 -0.1073 -0.2662 -0.5886
    8MPD2    C5  120   4.453   4.236  13.354 -0.0261 -0.3798 -0.2081
    8MPD2     H  121   4.383   3.902  13.163  1.0176 -0.0287  1.1799
    8MPD2    H1  122   4.606   4.268  13.207 -0.9941 -0.0886 -2.4322
    8MPD2    H2  123   4.293   4.168  13.486  1.6461  2.1004 -0.6522
    8MPD2    H3  124   4.470   4.324  13.415 -0.2797  0.3565 -1.1985
    8MPD2     N  125   4.574   4.062  13.051 -0.3636 -0.2895  0.6618
    8MPD2    H5  126   4.643   4.134  13.031 -1.3953 -0.2215 -2.7780
    8MPD2    N1  127   4.223   3.948  13.371 -0.0958 -0.1399  0.3646
    8MPD2    H7  128   4.207   3.950  13.471 -0.7807  1.8944  0.2290
    9TCq1    O1  129   1.460   2.886  10.885  0.0064  0.6436  0.2833
    9TCq1    C1  130   1.493   2.762  10.818 -0.0080  0.0249 -0.0036
    9TCq1    O2  131   1.412   2.675  10.791 -0.0598  0.0259  0.1853
    9TCq1    C2  132   1.636   2.741  10.816  0.3134  0.4208  1.3012
    9TCq1    C3  133   1.696   2.657  10.722  0.5440  0.0122  0.4971
    9TCq1    C4  134   1.831   2.664  10.706 -0.2280  0.3486  0.8799
    9TCq1    C5  135   1.900   2.761  10.773  0.2072 -0.5985  0.1727
    9TCq1    C6  136   1.843   2.833  10.866 -0.0476 -0.2292  0.2137
    9TCq1    C7  137   1.713   2.826  10.887 -0.8555  0.0256 -1.0406
    9TCq1    C8  138   1.932   2.907  10.955  0.2709  0.3465  0.3269
    9TCq1    O4  139   2.051   2.905  10.924  0.0081 -0.2752 -0.2475
    9TCq1    C9  140   1.893   2.573  10.612 -0.1134 -0.1936  0.0347
    9TCq1    O5  141   1.828   2.473  10.573 -0.2753 -0.3905 -0.1958
    9TCq1    O6  142   1.997   2.609  10.549  0.0327 -0.3625  0.5032
    9TCq1    H1  143   1.532   2.949  10.863 -0.0705  0.8863  0.7367
    9TCq1    H2  144   1.633   2.582  10.677 -0.7571  1.7476 -0.6000
    9TCq1    H3  145   2.005   2.756  10.747  0.1530  2.6432 -0.6315
    9TCq1    H4  146   1.668   2.886  10.966 -1.1230  2.0704 -2.7390
   10MPD2     C  147   2.074   3.080  11.151 -0.3442  0.2779  0.2211
   10MPD2    C1  148   1.945   3.032  11.171  0.2919  0.7218 -0.2008
   10MPD2    C2  149   1.892   3.040  11.295  0.5755 -0.1389  0.3385
   10MPD2    C3  150   1.960   3.096  11.405  0.0184  0.4718 -0.3134
   10MPD2    C4  151   2.084   3.159  11.378 -0.6066 -0.0938  0.3634
   10MPD2    C5  152   2.135   3.148  11.252  0.2640  0.0909 -0.1728
   10MPD2     H  153   1.794   2.996  11.308  0.1554  0.8611  0.5883
   10MPD2    H1  154   2.151   3.214  11.444 -2.1732  2.7977 -0.4454
   10MPD2    H2  155   2.126   3.076  11.056  0.1828  2.1268  0.4207
   10MPD2    H3  156   2.228   3.187  11.213  1.0495 -2.2792 -0.7127
   10MPD2     N  157   1.919   3.090  11.545  0.8722 -0.7946 -0.0866
   10MPD2    H5  158   1.992   3.115  11.611  1.3158  1.1566 -1.3176
   10MPD2    N1  159   1.867   2.966  11.069  0.3366 -0.2000 -0.1038
   10MPD2    H7  160   1.773   2.934  11.090  0.1604 -1.0414 -2.1320
   11TCq1    O1  161   2.917   2.876  14.250  0.0771 -0.1265 -0.4957
   11TCq1    C1  162   2.878   2.995  14.212 -0.3175  0.3369  0.3927
   11TCq1    O2  163   2.913   3.046  14.108 -0.3127 -0.5920 -0.1608
   11TCq1    C2  164   2.849   3.074  14.338 -0.1300 -0.2007 -0.2761
   11TCq1    C3  165   2.963   3.147  14.376  0.5445 -0.0639 -0.5425
   11TCq1    C4  166   2.967   3.184  14.508 -0.2436  0.1362 -0.0121
   11TCq1    C5  167   2.870   3.164  14.597  0.3771 -0.3105  0.1738
   11TCq1    C6  168   2.762   3.099  14.550 -0.4313 -0.3744 -0.6404
   11TCq1    C7  169   2.748   3.052  14.424 -0.1580  0.0574  0.2958
   11TCq1    C8  170   2.645   3.093  14.643  0.5697  0.2749 -0.1193
   11TCq1    O4  171   2.647   3.180  14.726  0.3144  0.0092 -1.0744
   11TCq1    C9  172   3.082   3.263  14.546  0.6676 -0.2309 -0.5802
   11TCq1    O5  173   3.086   3.302  14.668  0.0895  0.3168  0.6364
   11TCq1    O6  174   3.150   3.322  14.453 -0.7579  0.5740  0.3142
   11TCq1    H1  175   2.913   2.860  14.347  0.2907 -1.2089 -0.6619
   11TCq1    H2  176   3.045   3.150  14.304  0.2450 -0.1542 -0.8872
   11TCq1    H3  177   2.874   3.199  14.700 -0.2326  0.3757 -0.0364
   11TCq1    H4  178   2.661   3.001  14.383  0.4700  1.1471 -2.3892
   12MPD2     C  179   2.378   3.083  14.751  0.0373  0.5962  0.0757
   12MPD2    C1  180   2.417   3.004  14.648  0.8340 -1.2866  0.5487
   12MPD2    C2  181   2.322   2.930  14.577 -0.4681  0.0029 -0.3289
   12MPD2    C3  182   2.192   2.925  14.623  0.4538 -0.0294  0.8247
   12MPD2    C4  183   2.154   3.016  14.717  0.0804 -0.7281  0.6896
   12MPD2    C5  184   2.246   3.082  14.789 -1.0310  0.3784  0.2976
   12MPD2     H  185   2.354   2.873  14.491 -1.4230 -1.7964  0.5291
   12MPD2    H1  186   2.051   3.026  14.750  0.7686  2.7148  1.7597
   12MPD2    H2  187   2.445   3.144  14.809  0.8064 -0.0508 -0.1429
   12MPD2    H3  188   2.211   3.140  14.874 -0.4356 -1.9708  2.1733
   12MPD2     N  189   2.099   2.843  14.547  0.2032 -0.4015 -0.4490
   12MPD2    H5  190   2.133   2.780  14.475  2.6404 -0.7785  1.0101
   12MPD2    N1  191   2.546   3.014  14.596  0.0098  0.0852  0.2807
   12MPD2    H7  192   2.572   2.949  14.523 -0.6928 -0.1335  0.2305
   13TCq1    O1  193   2.279   2.844  11.036  0.2241  0.2973  0.1761
   13TCq1    C1  194   2.333   2.728  10.994  0.0488 -0.2497  0.7421
   13TCq1    O2  195   2.450   2.700  11.009  0.2378  0.4193 -0.7787
   13TCq1    C2  196   2.233   2.633  10.948 -0.0126  0.0329  0.4909
   13TCq1    C3  197   2.271   2.533  10.864  0.0083 -0.1313  0.0852
   13TCq1    C4  198   2.180   2.435  10.838 -0.5061 -0.5992  0.1726
   13TCq1    C5  199   2.065   2.418  10.903  0.3198 -0.4045  0.3742
   13TCq1    C6  200   2.030   2.523  10.989 -0.8935 -0.1329  0.4308
   13TCq1    C7  201   2.109   2.633  11.011  0.5474  0.1631  0.8183
   13TCq1    C8  202   1.899   2.527  11.047 -0.0883 -0.2826 -0.0808
   13TCq1    O4  203   1.878   2.612  11.134  0.2583  0.1556 -0.0502
   13TCq1    C9  204   2.218   2.342  10.737 -1.0157  0.3406  0.3964
   13TCq1    O5  205   2.128   2.265  10.702 -0.5502 -0.0691  0.0835
   13TCq1    O6  206   2.335   2.359  10.687 -0.0439 -0.2110 -0.3862
   13TCq1    H1  207   2.182   2.848  11.022  0.0449 -2.1238  0.6859
   13TCq1    H2  208   2.368   2.545  10.817  0.4310  0.1455  1.0204
   13TCq1    H3  209   2.025   2.318  10.895  0.7379 -0.4805 -0.7623
   13TCq1    H4  210   2.080   2.710  11.082 -1.3823 -0.5971  0.8441
   14MPD2     C  211   1.625   2.345  10.900  0.4707 -0.5027  0.4012
   14MPD2    C1  212   1.683   2.437  10.986 -0.0811  0.8812 -0.4419
   14MPD2    C2  213   1.609   2.515  11.073 -0.3911 -0.2304  0.0801
   14MPD2    C3  214   1.473   2.507  11.065  0.1376  0.2133  0.6032
   14MPD2    C4  215   1.413   2.408  10.983 -0.7872 -0.2410 -0.0874
   14MPD2    C5  216   1.489   2.330  10.900  0.0351  0.0383  0.5626
   14MPD2     H  217   1.648   2.584  11.147  0.3733 -1.3687  0.7545
   14MPD2    H1  218   1.306   2.403  10.968 -0.7778 -2.5484  0.6332
   14MPD2    H2  219   1.689   2.275  10.847  0.3976  0.7292 -1.3328
   14MPD2    H3  220   1.442   2.257  10.836  0.9513  0.3511 -0.4547
   14MPD2     N  221   1.397   2.584  11.152 -0.1393 -0.7069  0.5247
   14MPD2    H5  222   1.442   2.656  11.208  1.9093 -0.6022 -1.2806
   14MPD2    N1  223   1.823   2.437  10.985 -0.0510 -0.0353  0.9439
   14MPD2    H7  224   1.872   2.378  10.919  0.6852 -2.0742  3.3342
   15TCq1    O1  225   3.567   2.570   1.984  0.0104 -0.1185  0.2231
   15TCq1    C1  226   3.528   2.458   1.922  0.2411 -0.7653  0.1425
   15TCq1    O2  227   3.423   2.451   1.862 -0.6676 -0.8339  0.7481
   15TCq1    C2  228   3.654   2.400   1.877  0.4295 -0.7607  0.3412
   15TCq1    C3  229   3.763   2.412   1.962 -0.2867 -0.2306 -0.2811
   15TCq1    C4  230   3.883   2.359   1.915 -0.3138  0.0917 -0.1659
   15TCq1    C5  231   3.893   2.291   1.802  0.3936  0.2639  0.3902
   15TCq1    C6  232   3.774   2.272   1.727  0.0936  1.0002  0.2064
   15TCq1    C7  233   3.655   2.318   1.773  0.1606  0.0527  0.2924
   15TCq1    C8  234   3.786   2.198   1.600  0.5569  0.5279  0.0073
   15TCq1    O4  235   3.892   2.134   1.592 -0.4637  0.5291  0.0921
   15TCq1    C9  236   3.997   2.359   2.005  0.1732  0.1933 -0.7184
   15TCq1    O5  237   4.115   2.327   1.964  0.5483 -0.0689 -0.1274
   15TCq1    O6  238   3.972   2.382   2.124  0.0965  0.2298  0.2033
   15TCq1    H1  239   3.665   2.570   1.979  0.0983  1.6115  1.7190
   15TCq1    H2  240   3.770   2.453   2.062 -0.3817  1.6059 -1.0375
   15TCq1    H3  241   3.988   2.244   1.778  0.0783 -0.0641 -0.2111
   15TCq1    H4  242   3.563   2.287   1.725 -0.6634  0.0906  1.8368
   16MPD2     C  243   3.546   2.124   1.340  0.3066  0.3624 -0.8157
   16MPD2    C1  244   3.666   2.122   1.406 -0.7192  0.2411 -0.3517
   16MPD2    C2  245   3.764   2.032   1.364 -0.0430 -0.1036 -0.5214
   16MPD2    C3  246   3.745   1.954   1.251  0.0094 -0.5487 -0.1935
   16MPD2    C4  247   3.616   1.935   1.207 -0.3506 -0.0760  0.1514
   16MPD2    C5  248   3.522   2.023   1.248 -0.2444  0.0136 -0.3213
   16MPD2     H  249   3.863   2.034   1.408 -0.6596 -0.2849  0.8746
   16MPD2    H1  250   3.588   1.859   1.135  1.7605 -1.5661  0.8840
   16MPD2    H2  251   3.474   2.202   1.364 -0.0893 -0.2135 -0.1245
   16MPD2    H3  252   3.425   2.000   1.205  0.4643 -1.7522 -0.9923
   16MPD2     N  253   3.861   1.889   1.200  0.1564 -0.1106 -0.3901
   16MPD2    H5  254   3.952   1.914   1.237 -0.9240  1.0289  1.4689
   16MPD2    N1  255   3.679   2.207   1.518 -0.5693 -0.6310 -0.5483
   16MPD2    H7  256   3.608   2.275   1.541 -0.3511 -0.1057 -1.4387
   17TCq1    O1  257   1.339   2.193  11.463  0.1181 -0.0385  0.1288
   17TCq1    C1  258   1.383   2.305  11.403 -0.4174  0.3353  0.8879
   17TCq1    O2  259   1.389   2.411  11.461 -0.4275  0.4589 -0.1900
   17TCq1    C2  260   1.487   2.247  11.318 -0.0250 -0.3170  0.6251
   17TCq1    C3  261   1.476   2.138  11.241 -0.3166 -0.0045 -0.5393
   17TCq1    C4  262   1.595   2.087  11.179  1.0949  1.0197  0.4830
   17TCq1    C5  263   1.722   2.127  11.216  0.2518 -0.0655  0.4762
   17TCq1    C6  264   1.725   2.239  11.304 -0.0004  0.1684  0.0881
   17TCq1    C7  265   1.609   2.299  11.348  0.4462 -0.2051  0.5344
   17TCq1    C8  266   1.851   2.297  11.328 -0.6843  0.1471  0.6205
   17TCq1    O4  267   1.850   2.381  11.415  0.0692  0.2312 -0.3864
   17TCq1    C9  268   1.573   1.999  11.067 -0.6754  0.2265 -0.0163
   17TCq1    O5  269   1.677   1.960  11.007  0.6792 -0.5093 -0.1744
   17TCq1    O6  270   1.454   1.959  11.046  0.0844  0.3415 -0.1697
   17TCq1    H1  271   1.399   2.119  11.438 -1.1058 -0.6479 -0.9847
   17TCq1    H2  272   1.378   2.101  11.211 -0.7923  0.3273  0.6198
   17TCq1    H3  273   1.811   2.071  11.191  0.7002  1.1413 -0.6168
   17TCq1    H4  274   1.615   2.392  11.404 -1.8359  0.1458  0.2244
   18MPD2     C  275   2.119   2.413  11.323 -0.1613 -0.0468 -0.0273
   18MPD2    C1  276   2.078   2.309  11.242 -0.5146 -0.7645  0.6937
   18MPD2    C2  277   2.177   2.253  11.166  0.1645  0.4947 -0.6055
   18MPD2    C3  278   2.305   2.305  11.161 -0.9721  0.9541  0.3718
   18MPD2    C4  279   2.332   2.416  11.229 -0.0257 -0.1486  0.3888
   18MPD2    C5  280   2.243   2.464  11.315  0.3188 -0.0945  0.5412
   18MPD2     H  281   2.146   2.171  11.102 -2.3544  1.6283 -0.8254
   18MPD2    H1  282   2.432   2.457  11.226 -0.6686  1.4433  0.5932
   18MPD2    H2  283   2.052   2.472  11.384 -1.5854  0.2026 -1.8407
   18MPD2    H3  284   2.271   2.553  11.370 -0.4594 -0.3537  1.3570
   18MPD2     N  285   2.402   2.243  11.077  0.1626  0.7779  0.6191
   18MPD2    H5  286   2.496   2.280  11.077 -1.3368  4.7197  1.7601
   18MPD2    N1  287   1.947   2.258  11.245 -0.2836 -0.7062 -0.2128
   18MPD2    H7  288   1.920   2.186  11.179  1.2239  0.0047 -1.6285
   19TMC2    C1  289   3.618   2.548  13.646  0.2418 -0.2056 -0.5293
   19TMC2    C2  290   3.558   2.622  13.540 -0.1908 -0.2890 -0.0626
   19TMC2    C3  291   3.424   2.608  13.524  0.2503 -0.2191 -0.2612
   19TMC2    C4  292   3.550   2.465  13.733  0.9208  0.0864 -0.0945
   19TMC2    C5  293   3.415   2.449  13.697  0.3559  0.2988  0.3987
   19TMC2    C6  294   3.353   2.509  13.590 -0.1382 -0.4093 -0.8643
   19TMC2     C  295   3.763   2.575  13.661 -0.3701 -0.5262 -1.1591
   19TMC2     O  296   3.812   2.646  13.572  0.1188  0.3056  0.5094
   19TMC2     H  297   3.614   2.687  13.475  1.9213  0.5014  2.5333
   19TMC2    H1  298   3.603   2.413  13.812 -1.5725  1.1082  2.2420
   19TMC2    H2  299   3.255   2.472  13.566  0.1854 -1.5456 -0.4469
   19TMC2    C7  300   3.342   2.344  13.766 -0.2075  0.3668  0.3361
   19TMC2    C8  301   3.372   2.654  13.399  0.7818 -0.4530 -0.3849
   19TMC2    O1  302   3.226   2.337  13.738  0.6197 -0.1143 -0.9400
   19TMC2    O2  303   3.433   2.662  13.294  0.0909  0.3519 -0.1691
   19TMC2    O5  304   3.235   2.664  13.413  0.7118  0.1492 -0.1163
   19TMC2    H5  305   3.212   2.662  13.508  1.6478  0.3821  0.1211
   20MPD2     C  306   4.050   2.596  13.708 -0.3963 -0.4665  0.0799
   20MPD2    C1  307   3.968   2.494  13.754 -0.0715 -0.0886  0.2566
   20MPD2    C2  308   4.036   2.392  13.828 -0.6379 -0.2104 -0.1464
   20MPD2    C3  309   4.171   2.394  13.849  0.2891 -0.2986  0.0132
   20MPD2    C4  310   4.256   2.487  13.781  0.0184  0.5736  0.4755
   20MPD2    C5  311   4.186   2.588  13.716  0.0473  0.2253 -0.3429
   20MPD2     H  312   3.978   2.318  13.881  1.7013 -1.0079  1.3232
   20MPD2    H1  313   4.360   2.493  13.811  0.6460 -0.1298 -1.5743
   20MPD2    H2  314   4.014   2.687  13.662  1.9503  0.5587  0.2652
   20MPD2    H3  315   4.249   2.664  13.672  0.1225 -0.3269 -1.1839
   20MPD2     N  316   4.246   2.301  13.933 -0.1164 -0.0386 -0.4497
   20MPD2    H5  317   4.346   2.313  13.923  0.0359 -1.6482 -0.8128
   20MPD2    N1  318   3.829   2.498  13.751  0.4471  0.4099 -0.3248
   20MPD2    H7  319   3.776   2.424  13.796 -1.0515 -0.6773 -3.8849
   21MPD2     C  320   1.025   3.331  14.873 -0.5613  0.2246  0.2661
   21MPD2    C1  321   1.158   3.367  14.872 -0.2177 -0.4479 -0.6236
   21MPD2    C2  322   1.187   3.498  14.856 -0.0569  0.0084 -0.3512
   21MPD2    C3  323   1.094   3.598  14.872  0.1308 -0.6783 -0.0385
   21MPD2    C4  324   0.963   3.560  14.890 -0.8253  0.0755  0.3856
   21MPD2    C5  325   0.928   3.432  14.879 -0.8194  0.2638  0.3010
   21MPD2     H  326   1.294   3.515  14.855 -0.0906  0.2468  0.0668
   21MPD2    H1  327   0.886   3.635  14.901 -0.4159  0.1490  2.6743
   21MPD2    H2  328   0.982   3.232  14.864  0.5123 -0.0335 -2.1140
   21MPD2    H3  329   0.823   3.405  14.877  0.0149 -3.1292  2.5980
   21MPD2     N  330   1.121   3.735  14.888  0.0487 -0.0820  0.0290
   21MPD2    H5  331   1.042   3.799  14.893  1.8817  2.3515 -2.5947
   21MPD2    N1  332   1.270   3.276  14.882  0.3226 -0.0596 -0.2114
   21MPD2    H7  333   1.363   3.316  14.876  0.5187 -0.3219  1.1399
   22TCq2    C1  334   1.233   3.799  14.917 -0.0842 -0.1717 -0.3104
   22TCq2    O2  335   1.344   3.755  14.941 -0.2940 -0.0688  0.5529
   22TCq2    C2  336   1.220   3.941  14.895 -0.1664 -0.1267 -0.4796
   22TCq2    C3  337   1.316   4.025  14.942 -0.4200  0.3928 -0.5955
   22TCq2    C4  338   1.330   4.152  14.909 -0.4300 -0.4983  0.6159
   22TCq2    C5  339   1.238   4.205  14.821  0.1558  0.1958  0.2841
   22TCq2    C6  340   1.149   4.118  14.761 -0.2984  0.0417  0.5294
   22TCq2    C7  341   1.142   3.983  14.794 -0.3926  0.6870  0.6204
   22TCq2    C8  342   1.080   4.162  14.644  0.0506  0.2405 -0.4010
   22TCq2    O4  343   1.109   4.275  14.610  0.2875 -0.2791 -0.1953
   22TCq2    C9  344   1.445   4.231  14.958  0.7851 -0.0190 -0.1675
   22TCq2    O5  345   1.536   4.168  15.019 -0.1929 -0.6907 -0.4090
   22TCq2    O6  346   1.454   4.352  14.926  0.4917  0.0529  0.3687
   22TCq2    H2  347   1.387   3.987  15.015  1.0324  1.7127 -1.3159
   22TCq2    H3  348   1.252   4.306  14.785  3.6795 -1.2110 -2.2459
   22TCq2    H4  349   1.087   3.912  14.733  0.1765 -0.3325  1.3098
   23MPD2     C  350   3.032   3.901  14.432 -0.0972 -0.3661  0.5468
   23MPD2    C1  351   2.958   3.930  14.547  0.0517 -0.3522  0.4596
   23MPD2    C2  352   2.879   4.042  14.544 -0.1316  0.1845  0.0775
   23MPD2    C3  353   2.868   4.126  14.439 -0.9958  0.4103 -0.1538
   23MPD2    C4  354   2.936   4.091  14.331  0.8896 -0.7061 -1.1064
   23MPD2    C5  355   3.009   3.979  14.325  0.0524  0.1302 -0.4389
   23MPD2     H  356   2.820   4.062  14.633  0.8151  0.5737  0.6189
   23MPD2    H1  357   2.925   4.152  14.242  0.1017  0.3902 -0.2632
   23MPD2    H2  358   3.094   3.812  14.430  0.9050  0.3912 -1.3690
   23MPD2    H3  359   3.037   3.952  14.224 -0.5969 -1.0895 -0.2938
   23MPD2     N  360   2.778   4.238  14.441  0.0069  0.1464 -0.3743
   23MPD2    H5  361   2.790   4.306  14.366  2.8752  0.5337  0.4547
   23MPD2    N1  362   2.966   3.841  14.655  0.1217  0.3724  0.1775
   23MPD2    H7  363   2.922   3.873  14.741  0.9679 -0.0287  0.7553
   24TCq2    C1  364   2.684   4.265  14.543 -0.2065  0.0710 -0.1536
   24TCq2    O2  365   2.659   4.201  14.644 -0.0736  0.0368 -0.1423
   24TCq2    C2  366   2.588   4.371  14.518 -0.6367  0.1795 -0.6044
   24TCq2    C3  367   2.604   4.456  14.411  0.3030  0.9205 -0.0179
   24TCq2    C4  368   2.507   4.550  14.392 -0.5759  0.4276  0.5070
   24TCq2    C5  369   2.398   4.555  14.479 -1.1000 -1.1687 -0.8664
   24TCq2    C6  370   2.388   4.467  14.583 -0.2684  0.3263 -0.8383
   24TCq2    C7  371   2.484   4.377  14.607  0.8750  0.8681 -0.6152
   24TCq2    C8  372   2.263   4.441  14.659  0.5118 -0.0061  0.3314
   24TCq2    O4  373   2.282   4.378  14.761 -0.7803 -0.5297  0.4142
   24TCq2    C9  374   2.507   4.629  14.274 -0.2547 -0.1405 -1.0640
   24TCq2    O5  375   2.418   4.716  14.263  0.1734 -0.4138  0.1065
   24TCq2    O6  376   2.591   4.598  14.183  0.6121 -0.0618 -0.4641
   24TCq2    H2  377   2.685   4.448  14.340 -0.0703  0.7691 -0.4260
   24TCq2    H3  378   2.323   4.626  14.450  0.6334  0.7062 -0.7446
   24TCq2    H4  379   2.467   4.300  14.682  1.7175  0.7304 -0.5708
   25TMC2    C1  380   0.820   1.881  11.426 -0.5843 -0.4065  0.0563
   25TMC2    C2  381   0.713   1.967  11.410  0.1633  0.1865  0.0892
   25TMC2    C3  382   0.679   2.054  11.509  0.0727  0.0626  0.6211
   25TMC2    C4  383   0.890   1.879  11.547 -0.3971  0.7072  1.1513
   25TMC2    C5  384   0.845   1.957  11.644  0.1615  0.0213 -0.7864
   25TMC2    C6  385   0.737   2.040  11.633 -0.3096 -0.2272 -0.0821
   25TMC2     C  386   0.826   1.786  11.319  1.5345 -0.0748  0.1863
   25TMC2     O  387   0.757   1.800  11.218  0.4315 -0.7629  0.1908
   25TMC2     H  388   0.642   1.951  11.330  0.5024 -0.4956 -0.0789
   25TMC2    H1  389   0.988   1.834  11.560 -0.5787 -0.7939 -2.6937
   25TMC2    H2  390   0.704   2.099  11.717 -3.8452  0.1749 -1.7804
   25TMC2    C7  391   0.927   1.979  11.765 -0.2368 -0.6162  0.4483
   25TMC2    C8  392   0.547   2.109  11.500 -0.2372  0.7584  0.1246
   25TMC2    O1  393   0.980   1.881  11.819  0.0915 -0.3341 -0.9481
   25TMC2    O2  394   0.481   2.123  11.600 -0.8012  0.6731 -0.0898
   25TMC2    O5  395   0.541   2.187  11.394 -0.0055  0.1484 -0.2428
   25TMC2    H5  396   0.612   2.169  11.328 -2.1662  0.0703 -2.5455
   26MPD2     C  397   1.058   1.420  11.058 -0.8052 -0.4907 -0.3481
   26MPD2    C1  398   1.055   1.381  11.192 -0.8528 -0.2792  0.2706
   26MPD2    C2  399   1.014   1.472  11.288 -0.6910 -0.0831 -0.4437
   26MPD2    C3  400   0.972   1.601  11.251  0.0404  0.3040  0.1807
   26MPD2    C4  401   0.974   1.638  11.116  0.1384  0.1318 -0.0559
   26MPD2    C5  402   1.015   1.548  11.020  0.3781 -0.9910  0.4949
   26MPD2     H  403   1.042   1.452  11.391 -0.0626  1.4724 -0.3054
   26MPD2    H1  404   0.943   1.737  11.084  0.9406 -0.2191 -1.8941
   26MPD2    H2  405   1.093   1.356  10.978  1.2722  0.7926 -0.4589
   26MPD2    H3  406   1.033   1.589  10.921 -0.2633  0.1477  0.8413
   26MPD2     N  407   0.919   1.688  11.348 -0.5950  0.9524  0.3079
   26MPD2    H5  408   0.941   1.670  11.445 -3.2202 -0.6180  0.6098
   26MPD2    N1  409   1.080   1.242  11.207 -0.5089  0.1622  0.4798
   26MPD2    H7  410   1.101   1.186  11.126  1.1143  0.2743  0.8224
   27TMC2    C1  411   0.336   3.795  11.928 -0.3846  0.3370 -0.2964
   27TMC2    C2  412   0.353   3.857  11.810 -0.1543  0.0392  0.0568
   27TMC2    C3  413   0.403   3.986  11.806 -0.0037 -0.4995 -0.5762
   27TMC2    C4  414   0.368   3.871  12.042 -0.4043  0.1020  0.2010
   27TMC2    C5  415   0.427   3.990  12.031  1.1099 -0.0817  0.2269
   27TMC2    C6  416   0.447   4.050  11.912  0.0151 -0.0476  0.1447
   27TMC2     C  417   0.259   3.671  11.938 -0.0459  0.8229 -0.2007
   27TMC2     O  418   0.247   3.600  11.839 -0.1751 -0.1481 -0.1309
   27TMC2     H  419   0.305   3.806  11.728 -0.3197  0.5731 -0.1779
   27TMC2    H1  420   0.350   3.837  12.144 -1.3144 -3.1429 -1.0496
   27TMC2    H2  421   0.498   4.145  11.917  1.4351 -0.8872  1.7732
   27TMC2    C7  422   0.465   4.057  12.160  0.4083  0.0932 -0.2476
   27TMC2    C8  423   0.429   4.049  11.679 -0.2764 -0.5290  0.1821
   27TMC2    O1  424   0.473   3.981  12.255  0.3356  0.2426 -0.1822
   27TMC2    O2  425   0.429   3.993  11.567  0.1937  0.1383  0.0496
   27TMC2    O5  426   0.413   4.180  11.688 -0.3311  0.0683  0.6671
   27TMC2    H5  427   0.398   4.203  11.782 -0.6651  2.3204  0.0588
   28MPD2     C  428   0.163   3.280  12.260  1.2727  0.1125 -0.2247
   28MPD2    C1  429   0.151   3.398  12.328 -0.1310  0.3015 -0.1125
   28MPD2    C2  430   0.169   3.516  12.258 -0.2342 -0.0815 -0.1160
   28MPD2    C3  431   0.198   3.517  12.129 -0.3388  0.4830 -0.3965
   28MPD2    C4  432   0.198   3.398  12.056 -0.4229 -0.5173 -0.1161
   28MPD2    C5  433   0.178   3.281  12.126 -0.2165 -0.1308  0.0587
   28MPD2     H  434   0.150   3.606  12.316 -2.5313 -1.0188  0.5971
   28MPD2    H1  435   0.219   3.400  11.950 -0.5433 -1.0603 -0.1512
   28MPD2    H2  436   0.151   3.186  12.314  0.8290 -0.5706 -1.5061
   28MPD2    H3  437   0.180   3.194  12.062  1.4900 -0.5996  0.7458
   28MPD2     N  438   0.224   3.646  12.071 -0.5743  0.3588  0.0184
   28MPD2    H5  439   0.235   3.721  12.138 -3.3875  1.6841 -1.0147
   28MPD2    N1  440   0.115   3.393  12.466 -0.3302  0.2068  0.5513
   28MPD2    H7  441   0.106   3.295  12.492 -0.0092 -0.7269 -2.8162
   29MPD2     C  442   4.175   1.268  14.054  0.7206  0.3930 -0.3174
   29MPD2    C1  443   4.275   1.234  14.144  0.1059  0.4140  0.3811
   29MPD2    C2  444   4.354   1.333  14.208 -0.2084  0.2187  0.1575
   29MPD2    C3  445   4.310   1.466  14.187 -1.1310 -0.0327  0.2546
   29MPD2    C4  446   4.211   1.500  14.095  0.1680  0.2846  0.7411
   29MPD2    C5  447   4.148   1.398  14.028 -0.3751  0.1508  0.9681
   29MPD2     H  448   4.436   1.313  14.277  1.7143 -0.4506 -2.3366
   29MPD2    H1  449   4.183   1.603  14.076 -1.0307  0.1948  1.9970
   29MPD2    H2  450   4.130   1.189  13.995  1.0200  0.8937 -1.2193
   29MPD2    H3  451   4.076   1.420  13.951  0.0104 -0.9151  0.2921
   29MPD2     N  452   4.385   1.564  14.254  0.1660 -0.1434  0.1246
   29MPD2    H5  453   4.453   1.531  14.321  2.4619  2.2709 -0.9903
   29MPD2    N1  454   4.308   1.099  14.167  0.0795  0.1673  0.1936
   29MPD2    H7  455   4.387   1.080  14.229  0.6822  1.8348 -0.0605
   30TCq2    C1  456   4.380   1.699  14.240 -0.4404  0.1387 -0.2422
   30TCq2    O2  457   4.327   1.774  14.160  0.1782 -0.4302 -0.6609
   30TCq2    C2  458   4.483   1.756  14.322  0.4878  0.1901  0.5405
   30TCq2    C3  459   4.527   1.679  14.426 -0.4820 -0.1281 -0.5416
   30TCq2    C4  460   4.644   1.722  14.481  0.4795  0.5964 -0.5971
   30TCq2    C5  461   0.012   1.807  14.423  0.1030  0.2602 -0.0135
   30TCq2    C6  462   4.685   1.883  14.321  0.0344  0.9070 -0.1846
   30TCq2    C7  463   4.565   1.847  14.268 -0.6150  0.2537 -0.3254
   30TCq2    C8  464   0.043   1.983  14.253  0.3511  0.2188 -0.0004
   30TCq2    O4  465   0.008   2.004  14.140  1.0044 -0.2031  0.4509
   30TCq2    C9  466   4.680   1.647  14.593  0.0131  0.4201 -0.5568
   30TCq2    O5  467   4.592   1.570  14.646 -0.3052  0.2690  0.0216
   30TCq2    O6  468   0.084   1.659  14.626  0.2694 -0.1392 -0.0576
   30TCq2    H2  469   4.471   1.597  14.469 -0.8489  0.0404 -0.6945
   30TCq2    H3  470   0.108   1.824  14.469 -0.2089 -0.5808  0.9539
   30TCq2    H4  471   4.528   1.901  14.182  2.5061  0.4923 -1.5134
   31MPD2     C  472   3.063   0.209  14.703 -0.9238  0.2348 -0.2197
   31MPD2    C1  473   2.951   0.272  14.755 -0.7227  0.8571 -0.2116
   31MPD2    C2  474   2.889   0.201  14.859  0.2311 -0.0288  0.7447
   31MPD2    C3  475   2.940   0.101  14.924 -0.5798 -0.7024 -0.1067
   31MPD2    C4  476   3.062   0.046  14.878 -0.4329 -0.6489  0.1258
   31MPD2    C5  477   3.116   0.102  14.769  0.0193 -0.2873  0.3289
   31MPD2     H  478   2.794   0.239  14.896  0.6916  0.0840  1.8114
   31MPD2    H1  479   3.098   4.675  14.927  0.3037  0.6201  1.9106
   31MPD2    H2  480   3.116   0.248  14.616  1.7161  1.3359  1.8717
   31MPD2    H3  481   3.198   0.052  14.719 -0.3239  2.0647 -2.6566
   31MPD2     N  482   2.879   0.067  15.044 -0.4740  0.3988 -0.1723
   31MPD2    H5  483   2.790   0.115  15.058 -0.5925  0.5947 -1.5824
   31MPD2    N1  484   2.884   0.371  14.675 -0.0681  0.2293  0.0893
   31MPD2    H7  485   2.925   0.410  14.591 -0.8424 -0.3099 -0.5307
   32TCq2    C1  486   2.908   4.693  15.133 -0.3188  0.0118  0.0472
   32TCq2    O2  487   2.987   4.602  15.123  0.0076 -0.3198 -0.6997
   32TCq2    C2  488   2.802   4.695  15.231  0.0850  0.4987  0.4483
   32TCq2    C3  489   2.709   0.074  15.224 -0.1711 -0.0230  0.1426
   32TCq2    C4  490   2.588   0.060  15.287 -0.4517 -0.1822 -0.2186
   32TCq2    C5  491   2.570   4.679  15.377 -0.1990  0.0554 -0.3634
   32TCq2    C6  492   2.671   4.586  15.397 -0.8890 -0.1670  0.5028
   32TCq2    C7  493   2.789   4.594  15.319 -0.0482  0.0223 -0.4505
   32TCq2    C8  494   2.658   4.482  15.497 -0.1248 -0.3510 -0.1794
   32TCq2    O4  495   2.750   4.398  15.489 -0.0957 -0.0889  0.4768
   32TCq2    C9  496   2.483   0.151  15.261 -0.7080 -0.2889 -0.5309
   32TCq2    O5  497   2.367   0.117  15.290  1.2654  0.3182 -0.2742
   32TCq2    O6  498   2.520   0.250  15.197  0.3761 -0.2206 -0.2705
   32TCq2    H2  499   2.734   0.169  15.179  0.5500 -0.7174 -0.9049
   32TCq2    H3  500   2.477   4.671  15.433  0.2330  0.0069  0.3459
   32TCq2    H4  501   2.872   4.527  15.340 -0.5555  0.0425  1.5682
   33MPD2     C  502   2.832   1.968  10.318 -0.2150  0.5417 -0.2428
   33MPD2    C1  503   2.703   2.005  10.349  0.2235  0.5894 -0.9340
   33MPD2    C2  504   2.620   2.055  10.245  0.5094  0.3415  0.4401
   33MPD2    C3  505   2.668   2.070  10.117 -0.0962 -0.1090 -0.1074
   33MPD2    C4  506   2.802   2.041  10.094  0.0735 -1.1312  0.2060
   33MPD2    C5  507   2.880   1.994  10.196  0.3556  0.2093 -0.1613
   33MPD2     H  508   2.516   2.068  10.274  0.3905  2.5525 -0.9921
   33MPD2    H1  509   2.841   2.049   9.993 -0.3957 -1.4849 -0.0012
   33MPD2    H2  510   2.900   1.927  10.391  0.0442 -0.0739 -0.8319
   33MPD2    H3  511   2.986   1.975  10.181  0.9258  1.8682  1.7504
   33MPD2     N  512   2.583   2.115  10.019  0.3791 -0.1045 -0.0850
   33MPD2    H5  513   2.615   2.138   9.925 -1.5505 -0.7044 -0.9001
   33MPD2    N1  514   2.669   2.016  10.487  0.0130  0.2341  0.0147
   33MPD2    H7  515   2.746   2.011  10.553  0.6037 -0.8627 -0.7361
   34TCq2    C1  516   2.446   2.119  10.026  0.4465 -0.2395 -0.1662
   34TCq2    O2  517   2.368   2.060  10.097 -0.2198 -0.1835  0.5950
   34TCq2    C2  518   2.383   2.181   9.908 -0.2483  0.0955 -0.3901
   34TCq2    C3  519   2.273   2.121   9.859 -0.1206  0.1281 -0.9915
   34TCq2    C4  520   2.211   2.180   9.755 -0.3613 -0.1707 -0.3681
   34TCq2    C5  521   2.259   2.292   9.692  0.3456  0.7211  0.2186
   34TCq2    C6  522   2.362   2.361   9.756 -0.2709  0.2566 -0.0826
   34TCq2    C7  523   2.420   2.306   9.864  0.0741  0.0227  0.4806
   34TCq2    C8  524   2.451   2.447   9.678 -0.0873  0.1053 -0.0661
   34TCq2    O4  525   2.572   2.443   9.687 -0.2304  0.4388 -0.0364
   34TCq2    C9  526   2.096   2.115   9.693  0.1749  0.9091  0.0476
   34TCq2    O5  527   2.054   2.156   9.581  0.1099 -0.0821 -0.2454
   34TCq2    O6  528   2.057   2.008   9.750  0.2112 -0.7396 -0.0158
   34TCq2    H2  529   2.238   2.024   9.894  2.6204 -0.9406 -1.2225
   34TCq2    H3  530   2.234   2.323   9.591 -0.9034  1.1285  0.6582
   34TCq2    H4  531   2.503   2.354   9.915 -1.1182  1.3229  1.1751
   35MPD2     C  532   4.480   4.122  11.947 -0.6201  0.5368 -0.1257
   35MPD2    C1  533   4.465   3.983  11.928 -0.2900  0.1727  0.2007
   35MPD2    C2  534   4.409   3.932  11.804  0.0778 -0.5729  0.3848
   35MPD2    C3  535   4.353   4.027  11.717  0.5433 -0.5569 -0.7393
   35MPD2    C4  536   4.369   4.161  11.743 -0.7356  0.0074  0.2473
   35MPD2    C5  537   4.441   4.213  11.846  1.1580  0.8664 -0.2176
   35MPD2     H  538   4.393   3.826  11.783 -0.1150 -0.3704 -0.5076
   35MPD2    H1  539   4.321   4.244  11.692  0.8335  1.3713  0.9920
   35MPD2    H2  540   4.526   4.162  12.036  0.9701 -2.0931  0.2129
   35MPD2    H3  541   4.449   4.320  11.862  0.5996  0.5148  2.3368
   35MPD2     N  542   4.275   3.972  11.616 -0.0812 -0.1217  0.1210
   35MPD2    H5  543   4.270   3.871  11.621 -0.2059 -0.0240  1.9793
   35MPD2    N1  544   4.476   3.904  12.041 -0.0144 -0.3394 -0.2056
   35MPD2    H7  545   4.484   3.952  12.131  1.3120 -1.0428  0.0457
   36TCq2    C1  546   4.211   4.039  11.512  0.8204 -0.0784 -0.6019
   36TCq2    O2  547   4.223   4.155  11.479  0.2509  0.0097 -0.2579
   36TCq2    C2  548   4.119   3.953  11.438 -0.3500 -0.0231 -0.2642
   36TCq2    C3  549   4.085   4.006  11.315 -0.3121  0.9210 -0.1647
   36TCq2    C4  550   4.006   3.929  11.235  0.4562 -0.5778  0.2569
   36TCq2    C5  551   3.959   3.806  11.281 -0.7581 -0.2885 -0.4373
   36TCq2    C6  552   4.002   3.754  11.401 -0.3846  0.1127  0.4450
   36TCq2    C7  553   4.082   3.828  11.478  0.6377 -0.5166 -0.0481
   36TCq2    C8  554   3.946   3.631  11.450  0.2434  0.6002  0.5700
   36TCq2    O4  555   3.844   3.594  11.391  0.0960  0.4212  0.5306
   36TCq2    C9  556   3.961   3.988  11.109 -0.0939 -0.8526  0.0697
   36TCq2    O5  557   3.941   4.113  11.110 -0.2168  0.4984 -0.9299
   36TCq2    O6  558   3.895   3.914  11.029  0.4272 -0.2508 -0.1175
   36TCq2    H2  559   4.110   4.107  11.283 -3.6720  1.5014 -0.9567
   36TCq2    H3  560   3.900   3.747  11.212  1.3415 -0.0332 -2.4422
   36TCq2    H4  561   4.091   3.803  11.583  1.6565  0.1791  0.0346
   37TMC2    C1  562   1.117   4.066  11.112  0.2178  0.5467  0.5405
   37TMC2    C2  563   1.098   3.945  11.048  0.4331 -0.4372  0.1319
   37TMC2    C3  564   1.206   3.872  11.005  0.1546  1.0149 -0.2568
   37TMC2    C4  565   1.241   4.121  11.131 -0.6704 -0.1334 -0.4704
   37TMC2    C5  566   1.346   4.040  11.089 -0.0819 -0.1453  0.5512
   37TMC2    C6  567   1.335   3.920  11.023  0.1725  0.4227 -0.3997
   37TMC2     C  568   1.011   4.124  11.179 -0.0344 -0.6495 -0.4977
   37TMC2     O  569   0.920   4.176  11.112 -0.6018 -0.2286 -0.0275
   37TMC2     H  570   1.001   3.920  11.007  0.2953 -0.6629  0.5968
   37TMC2    H1  571   1.256   4.219  11.175  1.7615 -0.6537 -0.1363
   37TMC2    H2  572   1.423   3.858  11.013 -1.1474 -1.4223 -0.6169
   37TMC2    C7  573   1.475   4.104  11.108 -0.2247 -0.1511 -0.3989
   37TMC2    C8  574   1.196   3.732  10.977  0.1112 -0.6311  0.2828
   37TMC2    O1  575   1.490   4.183  11.198  0.5125 -0.6054  0.5597
   37TMC2    O2  576   1.289   3.666  10.936  0.5145  0.1983 -0.2343
   37TMC2    O5  577   1.082   3.692  11.040 -0.7000  0.1003 -0.4727
   37TMC2    H5  578   1.008   3.754  11.056 -1.1364 -0.9683  1.6922
   38MPD2     C  579   0.750   4.175  11.622 -0.0757 -0.0919 -0.3133
   38MPD2    C1  580   0.873   4.128  11.651  0.5962  0.6007  0.2612
   38MPD2    C2  581   0.956   4.094  11.547  0.3045 -0.3041  0.5969
   38MPD2    C3  582   0.926   4.128  11.419 -0.6190  0.9922  0.2481
   38MPD2    C4  583   0.808   4.193  11.393 -0.4106 -0.2760 -0.4640
   38MPD2    C5  584   0.716   4.208  11.490  0.6738  0.3077  0.5691
   38MPD2     H  585   1.058   4.058  11.561 -0.3279 -3.2018 -2.3468
   38MPD2    H1  586   0.785   4.217  11.290 -1.3384  1.1579  0.0853
   38MPD2    H2  587   0.678   4.181  11.703 -0.3078 -0.4885 -0.4905
   38MPD2    H3  588   0.621   4.256  11.469  0.2375 -0.2087  1.3331
   38MPD2     N  589   1.017   4.098  11.315  0.2031  0.3316  0.1222
   38MPD2    H5  590   1.102   4.050  11.345  0.3128  1.1535  1.1259
   38MPD2    N1  591   0.927   4.114  11.784  0.0505 -0.7056  0.7343
   38MPD2    H7  592   1.027   4.097  11.790  0.4556  0.8247 -1.7791
   39MPD2     C  593   4.320   1.191   1.824  0.0237  0.1022  0.2793
   39MPD2    C1  594   4.241   1.102   1.755 -0.2767 -0.3802 -0.1214
   39MPD2    C2  595   4.147   1.148   1.657  0.3044 -0.6697 -0.3126
   39MPD2    C3  596   4.131   1.288   1.635  0.1787 -0.7028  0.2240
   39MPD2    C4  597   4.190   1.370   1.721  0.1200  0.1726 -0.3103
   39MPD2    C5  598   4.285   1.329   1.812 -0.6432 -0.4322  0.2083
   39MPD2     H  599   4.088   1.074   1.604 -2.2428  1.0619  0.1173
   39MPD2    H1  600   4.186   1.478   1.713  0.6671  0.1671 -0.6987
   39MPD2    H2  601   4.390   1.154   1.898  1.8508 -0.9886 -1.9677
   39MPD2    H3  602   4.337   1.400   1.875  0.4707 -1.3181  0.2974
   39MPD2     N  603   4.048   1.336   1.535  0.7123  0.4626 -0.3763
   39MPD2    H5  604   4.021   1.433   1.548  0.5486  0.4774 -0.8118
   39MPD2    N1  605   4.249   0.967   1.786  0.1858 -0.2713 -0.2311
   39MPD2    H7  606   4.322   0.935   1.850 -1.3112 -0.8743  1.1869
   40TCq2    C1  607   4.154   0.873   1.766  0.0643  0.4287 -0.0808
   40TCq2    O2  608   4.037   0.888   1.739 -0.1373  0.1612  0.4703
   40TCq2    C2  609   4.202   0.734   1.773  0.2064 -0.4093  0.3162
   40TCq2    C3  610   4.119   0.631   1.793  0.0191 -0.3034 -0.0782
   40TCq2    C4  611   4.151   0.503   1.838 -0.4017 -0.3326 -0.3426
   40TCq2    C5  612   4.285   0.478   1.845 -0.0043  0.2037  0.5536
   40TCq2    C6  613   4.376   0.574   1.802  1.2845 -0.3488  0.6850
   40TCq2    C7  614   4.339   0.706   1.774 -0.5357  0.2381  0.1744
   40TCq2    C8  615   4.518   0.541   1.815  0.4472 -0.3053  0.0949
   40TCq2    O4  616   4.545   0.442   1.881  0.3809  0.2501 -0.1221
   40TCq2    C9  617   4.061   0.403   1.882  0.6161  0.3352  0.3521
   40TCq2    O5  618   3.934   0.416   1.860  0.0970 -0.5973  0.4827
   40TCq2    O6  619   4.111   0.309   1.951 -0.3396 -0.4454  0.4349
   40TCq2    H2  620   4.016   0.659   1.774  0.3127 -1.1864 -2.9493
   40TCq2    H3  621   4.324   0.384   1.883 -1.0980 -0.9749 -1.2799
   40TCq2    H4  622   4.408   0.788   1.758  0.5472 -0.5313  0.8804
   41TMC2    C1  623   3.806   4.227  13.550  0.2615 -0.0860  0.4434
   41TMC2    C2  624   3.709   4.311  13.594 -0.9840 -1.1397  0.1626
   41TMC2    C3  625   3.703   4.438  13.532  0.1648  0.1431  0.3252
   41TMC2    C4  626   3.908   4.275  13.471  0.6579  0.6214 -0.0769
   41TMC2    C5  627   3.907   4.403  13.424 -0.5471  0.1701  0.5941
   41TMC2    C6  628   3.805   4.490  13.457 -0.2159 -0.2279 -0.4944
   41TMC2     C  629   3.815   4.089  13.594  0.5578 -0.0242 -0.8132
   41TMC2     O  630   3.909   4.024  13.545 -0.4269 -0.5978  0.2838
   41TMC2     H  631   3.624   4.278  13.652 -2.1730 -2.9883 -2.6419
   41TMC2    H1  632   4.001   4.218  13.469 -0.2027 -0.7334 -1.6218
   41TMC2    H2  633   3.806   4.594  13.426  3.6838  0.0557  0.5264
   41TMC2    C7  634   4.012   4.453  13.342  0.4993 -0.3357  0.3618
   41TMC2    C8  635   3.588   4.523  13.551 -0.3682  0.0053 -0.2373
   41TMC2    O1  636   4.014   4.575  13.330  0.0382  0.1954 -0.0881
   41TMC2    O2  637   3.485   4.472  13.578 -0.0155 -0.2858  0.7053
   41TMC2    O5  638   3.639   4.626  13.627  0.5234  0.6259 -0.4072
   41TMC2    H5  639   3.734   4.636  13.607  0.8434 -2.1984 -0.2714
   42MPD2     C  640   3.767   3.820  13.737  0.2221 -0.0170  0.3056
   42MPD2    C1  641   3.696   3.937  13.759  0.2105  0.1823  0.6099
   42MPD2    C2  642   3.608   3.948  13.862  0.2665 -0.2681  0.1263
   42MPD2    C3  643   3.590   3.841  13.949  0.8678 -0.3945 -0.4233
   42MPD2    C4  644   3.665   3.732  13.930 -0.1696 -0.0208 -0.4475
   42MPD2    C5  645   3.748   3.712  13.825 -0.2779  0.2441  0.1363
   42MPD2     H  646   3.556   4.042  13.874  0.0534 -0.4974  1.0360
   42MPD2    H1  647   3.667   3.648  13.998 -0.5463  0.1580 -0.2108
   42MPD2    H2  648   3.834   3.807  13.653 -1.9296 -1.6046 -1.1598
   42MPD2    H3  649   3.793   3.615  13.810 -0.6233 -0.1008  1.3620
   42MPD2     N  650   3.511   3.831  14.069 -0.5455  0.3344  0.2015
   42MPD2    H5  651   3.519   3.744  14.120 -0.3644  0.8168  1.0068
   42MPD2    N1  652   3.711   4.055  13.681  0.6310  0.1117  0.1524
   42MPD2    H7  653   3.631   4.117  13.686  1.7046  1.3697  2.0360
   43MPD2     C  654   0.174   2.065   0.466  0.1479  0.2380  0.1294
   43MPD2    C1  655   0.155   1.953   0.548 -0.2025 -0.4045 -0.0325
   43MPD2    C2  656   0.154   1.972   0.686 -0.0867  0.1918 -0.6701
   43MPD2    C3  657   0.161   2.099   0.736 -0.3211 -0.0741  0.3202
   43MPD2    C4  658   0.188   2.209   0.654 -0.1977  0.3563  0.1471
   43MPD2    C5  659   0.200   2.186   0.523 -0.3703 -0.0512 -1.1963
   43MPD2     H  660   0.134   1.883   0.745 -0.6887  0.9825  0.3100
   43MPD2    H1  661   0.202   2.308   0.695 -1.7097  1.2403 -1.4725
   43MPD2    H2  662   0.198   2.062   0.360 -1.9849 -2.9622 -0.2652
   43MPD2    H3  663   0.214   2.272   0.457  1.3823  0.0406 -0.6974
   43MPD2     N  664   0.162   2.119   0.876 -0.2013  0.2596  0.0046
   43MPD2    H5  665   0.161   2.216   0.907 -1.0262 -0.5573  2.4912
   43MPD2    N1  666   0.167   1.823   0.491  0.1538 -0.1917  0.5378
   43MPD2    H7  667   0.160   1.749   0.560  0.9505 -1.1477 -0.4195
   44TCq2    C1  668   4.550   2.296   1.197 -0.3205  0.0995 -0.3813
   44TCq2    O2  669   4.520   2.327   1.083 -0.3973  0.2614 -0.3897
   44TCq2    C2  670   4.650   2.195   1.216  0.3395  0.3610 -0.0296
   44TCq2    C3  671   4.675   2.126   1.334  0.1075 -0.9373 -0.0649
   44TCq2    C4  672   0.058   2.034   1.332  0.1987 -0.0917  0.3659
   44TCq2    C5  673   0.125   1.996   1.224 -0.5002 -0.5361 -0.2588
   44TCq2    C6  674   0.109   2.072   1.105 -0.3166  0.2141  0.2818
   44TCq2    C7  675   0.011   2.170   1.101  0.6940  0.3806 -0.0315
   44TCq2    C8  676   0.172   2.028   0.979 -0.1103 -0.0562  0.3848
   44TCq2    O4  677   0.193   1.907   0.987 -0.0967 -0.0607  0.2381
   44TCq2    C9  678   0.068   1.939   1.443 -0.0239 -0.5304 -0.0860
   44TCq2    O5  679   0.127   1.829   1.416  0.4542  0.0231 -0.4703
   44TCq2    O6  680   0.052   1.992   1.560  0.2588 -0.3097  0.4647
   44TCq2    H2  681   4.621   2.131   1.428  1.8873  0.2107  0.8860
   44TCq2    H3  682   0.199   1.917   1.230 -2.1518 -2.0432  0.3199
   44TCq2    H4  683   4.704   2.216   1.006 -0.9578 -1.3782 -0.4371
   45TMC2    C1  684   0.885   3.677   9.943  0.5698 -0.0123  0.4148
   45TMC2    C2  685   0.763   3.718   9.982 -0.0157  0.3338  0.0303
   45TMC2    C3  686   0.744   3.848  10.031  0.1665  0.4188 -0.1752
   45TMC2    C4  687   0.986   3.764   9.958  0.1848 -0.6130  0.5064
   45TMC2    C5  688   0.968   3.890  10.022 -0.0023 -0.1380 -0.0838
   45TMC2    C6  689   0.842   3.934  10.060  0.2461 -0.6264  0.0199
   45TMC2     C  690   0.908   3.536   9.906  0.5322 -0.1914  0.0372
   45TMC2     O  691   1.019   3.493   9.923  0.5525 -0.0539 -0.0344
   45TMC2     H  692   0.675   3.657   9.966 -0.1275  0.3201  0.6693
   45TMC2    H1  693   1.085   3.744   9.919  0.1543 -2.7987  1.5053
   45TMC2    H2  694   0.826   4.034  10.097 -0.8068 -0.7549 -0.0979
   45TMC2    C7  695   1.079   3.989  10.023 -0.5641  0.3421  0.6040
   45TMC2    C8  696   0.609   3.877  10.065 -0.7401  0.6087  0.1600
   45TMC2    O1  697   1.173   3.960   9.951 -0.0714  0.2881 -0.1316
   45TMC2    O2  698   0.558   3.812  10.159 -0.2553 -0.2175  0.0514
   45TMC2    O5  699   0.597   4.006  10.036  0.1023 -0.5326  0.2076
   45TMC2    H5  700   0.634   4.030   9.948 -0.9398 -3.3640 -1.0323
   46MPD2     C  701   0.901   3.248   9.846  0.4776 -0.4563 -0.1859
   46MPD2    C1  702   0.798   3.337   9.819 -0.9828  0.1259 -0.6177
   46MPD2    C2  703   0.683   3.299   9.760 -0.4084  0.4257  0.5247
   46MPD2    C3  704   0.673   3.166   9.719 -0.0274  0.2084 -0.0562
   46MPD2    C4  705   0.777   3.078   9.737  0.1598  0.4499 -0.2704
   46MPD2    C5  706   0.890   3.117   9.806  0.5532 -0.0823 -0.5399
   46MPD2     H  707   0.596   3.364   9.752  0.5455  1.6571  0.2698
   46MPD2    H1  708   0.778   2.975   9.703 -0.3089  0.1105  0.7354
   46MPD2    H2  709   0.984   3.272   9.912 -0.2348  0.3018  0.4441
   46MPD2    H3  710   0.968   3.046   9.829 -1.7140 -2.8697 -1.4719
   46MPD2     N  711   0.548   3.122   9.667  0.2599  0.3982 -0.0135
   46MPD2    H5  712   0.478   3.194   9.651  2.3456  2.3789 -0.2249
   46MPD2    N1  713   0.792   3.472   9.851  0.1277 -0.8959  0.1198
   46MPD2    H7  714   0.716   3.532   9.820  2.4514  2.2038  0.4516
   47TMC2    C1  715   2.962   4.325   9.041  0.1636  0.6629  0.1420
   47TMC2    C2  716   2.966   4.349   8.903  0.3354 -0.0284  0.0590
   47TMC2    C3  717   2.866   4.301   8.826 -0.3505 -0.0118 -0.4997
   47TMC2    C4  718   2.862   4.250   9.101  0.2176  0.3116  0.6466
   47TMC2    C5  719   2.771   4.193   9.017 -0.1405  0.3088 -0.4933
   47TMC2    C6  720   2.770   4.218   8.880 -0.3989  0.2016 -0.5474
   47TMC2     C  721   3.077   4.366   9.124  0.5865 -0.5334 -0.6695
   47TMC2     O  722   3.187   4.348   9.069 -0.4306  0.2895 -0.2057
   47TMC2     H  723   3.049   4.404   8.862  0.1769  1.1343  1.3010
   47TMC2    H1  724   2.865   4.215   9.203 -2.0410 -1.1072  0.2395
   47TMC2    H2  725   2.693   4.181   8.814 -0.0255  0.9398 -1.4077
   47TMC2    C7  726   2.650   4.123   9.074  0.1509 -0.1742 -0.4931
   47TMC2    C8  727   2.856   4.342   8.689 -0.1932  0.0412 -0.4260
   47TMC2    O1  728   2.562   4.095   8.992 -0.3232  0.7740  0.2446
   47TMC2    O2  729   2.883   4.451   8.644 -0.0807 -1.0282  0.0018
   47TMC2    O5  730   2.822   4.235   8.614 -0.5508 -0.1773 -0.1628
   47TMC2    H5  731   2.828   4.147   8.657  0.9846  0.4957  1.0140
   48MPD2     C  732   3.077   4.475   9.475 -0.0135 -0.8637  0.2110
   48MPD2    C1  733   3.121   4.409   9.362  0.3676 -0.5375  0.3415
   48MPD2    C2  734   3.241   4.338   9.374  0.0419  0.9924  0.0078
   48MPD2    C3  735   3.299   4.323   9.498 -0.3652 -0.1625 -0.3345
   48MPD2    C4  736   3.257   4.394   9.606 -0.4063 -0.3994 -0.3538
   48MPD2    C5  737   3.145   4.468   9.597  0.7140  0.3817 -1.1709
   48MPD2     H  738   3.287   4.291   9.288 -0.5306  1.7487 -0.7042
   48MPD2    H1  739   3.298   4.385   9.706  1.8373 -0.0728 -1.2476
   48MPD2    H2  740   2.983   4.528   9.472 -0.5556 -1.8528 -0.3313
   48MPD2    H3  741   3.116   4.511   9.692  0.6025  0.4824 -1.2507
   48MPD2     N  742   3.401   4.218   9.503 -0.1927  0.3151  0.3418
   48MPD2    H5  743   3.432   4.163   9.423 -1.0344 -1.6513  1.3771
   48MPD2    N1  744   3.042   4.420   9.245  0.1234 -0.6847 -0.0005
   48MPD2    H7  745   2.946   4.443   9.267  0.0161 -1.3742  0.2480
   49MPD2     C  746   2.004   1.547  10.077  0.2215  0.6824  0.5310
   49MPD2    C1  747   1.892   1.514  10.152 -0.2044 -0.0909  0.2491
   49MPD2    C2  748   1.909   1.504  10.289 -0.6029 -0.3705 -0.4779
   49MPD2    C3  749   2.028   1.528  10.355 -0.2511 -0.6963 -0.1792
   49MPD2    C4  750   2.139   1.554  10.275  0.2602  0.5456  0.5550
   49MPD2    C5  751   2.123   1.573  10.142  0.1549  0.7381 -0.0545
   49MPD2     H  752   1.823   1.464  10.342  1.0008 -0.4860  2.0318
   49MPD2    H1  753   2.239   1.568  10.313  0.8818  1.2131 -1.3669
   49MPD2    H2  754   2.005   1.544   9.969 -0.4988 -0.5490  0.5537
   49MPD2    H3  755   2.212   1.594  10.083  0.6563 -1.3522 -0.0189
   49MPD2     N  756   2.039   1.504  10.492 -0.0711 -0.2861 -0.3946
   49MPD2    H5  757   2.132   1.489  10.528 -0.3602  0.9042  0.8432
   49MPD2    N1  758   1.773   1.484  10.085 -0.0920 -0.5244 -0.3485
   49MPD2    H7  759   1.698   1.443  10.140  0.7379 -2.4868 -0.6869
   50TCq2    C1  760   1.747   1.486   9.947 -0.1385 -0.3298  0.0390
   50TCq2    O2  761   1.816   1.526   9.853 -0.0349  0.8935 -0.6152
   50TCq2    C2  762   1.638   1.393   9.910 -0.1258 -0.2623  0.4758
   50TCq2    C3  763   1.593   1.401   9.780  0.2114  0.4820  0.2272
   50TCq2    C4  764   1.518   1.300   9.735 -0.5826  0.0260  0.5630
   50TCq2    C5  765   1.495   1.187   9.803 -0.4186  0.0955 -0.9078
   50TCq2    C6  766   1.541   1.185   9.927 -0.6748  0.0763  0.6250
   50TCq2    C7  767   1.612   1.287   9.991  0.5473  0.0455  0.0811
   50TCq2    C8  768   1.525   1.061   9.988  0.7758  0.1302 -1.0354
   50TCq2    O4  769   1.448   0.984   9.933 -0.7775  0.3093 -0.3042
   50TCq2    C9  770   1.461   1.307   9.600  0.0776 -0.2238  0.0454
   50TCq2    O5  771   1.510   1.390   9.518  0.1633 -0.6148  0.0721
   50TCq2    O6  772   1.342   1.255   9.588 -0.1785 -0.0912  0.5149
   50TCq2    H2  773   1.616   1.488   9.719 -1.8104  0.9837  0.1638
   50TCq2    H3  774   1.436   1.110   9.757  0.5887  0.1413 -2.2705
   50TCq2    H4  775   1.645   1.277  10.094  0.1620  0.8655  0.2821
   51MPD2     C  776   1.233   0.829   0.923  0.4583 -0.0291  0.4432
   51MPD2    C1  777   1.321   0.747   0.990  0.4669 -0.7312 -0.2800
   51MPD2    C2  778   1.446   0.791   1.025 -0.8243  0.5154  0.6577
   51MPD2    C3  779   1.488   0.919   0.999  0.0407 -0.4546  0.2053
   51MPD2    C4  780   1.398   1.009   0.937  0.2467 -0.2717 -0.1933
   51MPD2    C5  781   1.277   0.953   0.893 -0.1107 -0.5204 -0.2417
   51MPD2     H  782   1.513   0.721   1.073 -1.9831  0.6090  2.4305
   51MPD2    H1  783   1.422   1.113   0.922  0.0185 -0.2988 -0.7631
   51MPD2    H2  784   1.142   0.788   0.881 -0.5325 -0.7319  3.2690
   51MPD2    H3  785   1.201   1.027   0.870  1.8011  1.5331  0.0507
   51MPD2     N  786   1.610   0.973   1.042  0.0546  0.9120  0.8646
   51MPD2    H5  787   1.617   1.074   1.043 -0.5355  0.9654 -0.1229
   51MPD2    N1  788   1.287   0.615   1.037 -0.1389  0.6419  0.1259
   51MPD2    H7  789   1.353   0.561   1.092  0.3962  1.1101 -0.0464
   52TCq2    C1  790   1.719   0.901   1.086  1.1826  0.3532 -0.2138
   52TCq2    O2  791   1.726   0.784   1.104 -0.4947  0.0736  0.2448
   52TCq2    C2  792   1.824   0.981   1.146 -0.1242  0.1125  0.1992
   52TCq2    C3  793   1.943   0.920   1.158  0.4063 -0.4463  0.1176
   52TCq2    C4  794   2.053   1.001   1.188 -0.5269  0.0270 -0.0929
   52TCq2    C5  795   2.035   1.133   1.220 -0.2986 -0.8019  0.4666
   52TCq2    C6  796   1.905   1.188   1.221 -0.4215 -0.3407 -0.4159
   52TCq2    C7  797   1.802   1.112   1.171 -0.2170  0.3624 -0.5485
   52TCq2    C8  798   1.889   1.330   1.260 -0.4266  0.6293  0.7265
   52TCq2    O4  799   1.989   1.404   1.257  0.4064 -0.0184  0.0046
   52TCq2    C9  800   2.188   0.946   1.191 -0.1126 -0.5549  0.2012
   52TCq2    O5  801   2.284   1.025   1.226 -0.4333  0.6670  0.2333
   52TCq2    O6  802   2.198   0.820   1.170  0.5803 -0.7793 -0.0597
   52TCq2    H2  803   1.956   0.816   1.133 -1.3564 -0.0969 -2.2532
   52TCq2    H3  804   2.117   1.193   1.260  0.0991 -1.4513  0.6214
   52TCq2    H4  805   1.706   1.162   1.161 -1.1260 -1.1571  0.7338
   53TMC2    C1  806   2.161   4.223  11.351  0.0312  0.0996 -0.2983
   53TMC2    C2  807   2.299   4.206  11.368  0.4532  0.1211 -0.1239
   53TMC2    C3  808   2.338   4.210  11.503  0.3966 -0.1148  0.1227
   53TMC2    C4  809   2.069   4.238  11.451 -0.4242  0.7973 -0.1133
   53TMC2    C5  810   2.113   4.231  11.577  0.1187 -0.3788 -0.2184
   53TMC2    C6  811   2.245   4.221  11.609  0.2555  0.2816 -0.3978
   53TMC2     C  812   2.120   4.199  11.220  0.4932 -0.2016  0.5988
   53TMC2     O  813   2.201   4.154  11.140  0.2860 -0.6164 -0.0616
   53TMC2     H  814   2.377   4.203  11.292 -1.2427 -3.2193 -1.7141
   53TMC2    H1  815   1.962   4.232  11.437 -0.2871 -1.2665 -0.1788
   53TMC2    H2  816   2.284   4.229  11.710 -1.8767 -0.8933  0.4931
   53TMC2    C7  817   2.017   4.292  11.664  0.1365 -0.1669  0.0415
   53TMC2    C8  818   2.474   4.236  11.527  0.1497  0.5859  0.4905
   53TMC2    O1  819   1.901   4.255  11.655  1.2345  0.1967 -0.5591
   53TMC2    O2  820   2.526   4.327  11.467  0.1238 -0.2374  0.0535
   53TMC2    O5  821   2.493   4.212  11.662  0.4416 -0.5417 -0.0665
   53TMC2    H5  822   2.448   4.127  11.681 -0.2695  0.2290  1.6622
   54MPD2     C  823   1.975   4.129  10.973 -0.1888 -0.7518  0.3835
   54MPD2    C1  824   1.912   4.168  11.088  0.0949  0.3231  0.0325
   54MPD2    C2  825   1.773   4.153  11.101 -0.6928 -0.4042  0.4477
   54MPD2    C3  826   1.699   4.088  11.003  0.5392 -0.2132 -0.2015
   54MPD2    C4  827   1.765   4.050  10.892 -0.0812  0.3458 -0.2551
   54MPD2    C5  828   1.897   4.078  10.875 -0.0301  0.4537 -0.2008
   54MPD2     H  829   1.735   4.180  11.199  0.3198 -1.0609  1.0269
   54MPD2    H1  830   1.710   4.008  10.808 -0.3699  0.5956 -0.1914
   54MPD2    H2  831   2.081   4.121  10.952 -0.1961 -1.5845  0.6556
   54MPD2    H3  832   1.951   4.050  10.786  1.3238 -0.3079  0.8644
   54MPD2     N  833   1.561   4.065  11.007 -0.6333 -0.1370 -0.1198
   54MPD2    H5  834   1.520   4.012  10.931  0.2036  0.5102 -1.0197
   54MPD2    N1  835   1.985   4.218  11.200  0.2638  0.3342 -0.4725
   54MPD2    H7  836   1.939   4.250  11.285 -1.4465 -0.0509 -1.2618
   55MPD2     C  837   2.425   1.909  17.176 -0.0675  0.3307  0.2046
   55MPD2    C1  838   2.394   1.854  17.293  0.6610 -0.3998 -0.1735
   55MPD2    C2  839   2.298   1.914  17.371 -0.4959 -0.2398  0.3248
   55MPD2    C3  840   2.236   2.028  17.330  0.2389  0.5216 -0.5006
   55MPD2    C4  841   2.260   2.073  17.202  0.2348  0.4315 -0.7973
   55MPD2    C5  842   2.358   2.019  17.128 -0.0844  0.1459  0.0013
   55MPD2     H  843   2.261   1.862  17.458 -0.2939 -0.2018  0.4316
   55MPD2    H1  844   2.208   2.161  17.165  0.5325  0.0081 -2.2454
   55MPD2    H2  845   2.499   1.866  17.110  0.5385 -0.2336  1.2494
   55MPD2    H3  846   2.385   2.076  17.040 -0.5809 -1.4018 -1.1563
   55MPD2     N  847   2.141   2.084  17.412 -0.0113 -0.2904  0.4814
   55MPD2    H5  848   2.114   2.031  17.494 -0.9163  0.1222  0.4525
   55MPD2    N1  849   2.472   1.745  17.331 -0.2479  0.1702 -0.9605
   55MPD2    H7  850   2.553   1.724  17.273  1.8435  0.3713  1.8639
   56TCq2    C1  851   2.469   1.677  17.446  0.0355 -0.2375  0.5004
   56TCq2    O2  852   2.418   1.705  17.554 -0.0309  0.4105 -0.5925
   56TCq2    C2  853   2.583   1.583  17.459  0.7947 -0.7228 -0.0216
   56TCq2    C3  854   2.603   1.484  17.362  0.5889  0.1584 -0.9811
   56TCq2    C4  855   2.694   1.379  17.390 -0.1356 -1.0282  0.5344
   56TCq2    C5  856   2.763   1.370  17.509 -0.7832 -0.3570 -1.4098
   56TCq2    C6  857   2.735   1.470  17.603 -0.4032 -0.4141 -0.4321
   56TCq2    C7  858   2.642   1.572  17.583  0.4850 -0.0776 -0.3335
   56TCq2    C8  859   2.805   1.462   0.058  0.3028  0.4224 -0.3970
   56TCq2    O4  860   2.898   1.383   0.055  0.0420  1.0536 -0.0483
   56TCq2    C9  861   2.698   1.271  17.297 -0.0101 -0.8806 -0.1633
   56TCq2    O5  862   2.603   1.265  17.216 -0.3402 -0.0306  0.3693
   56TCq2    O6  863   2.791   1.188  17.307 -0.1343 -0.3891 -0.1156
   56TCq2    H2  864   2.554   1.494  17.266 -0.4029  0.7833 -0.4082
   56TCq2    H3  865   2.827   1.285  17.526  0.7333  1.2267  0.7964
   56TCq2    H4  866   2.615   1.637  17.665 -1.0447 -1.8247  0.5213
   57TMC2    C1  867   2.172   3.158  14.320 -0.2820 -0.0811 -0.1472
   57TMC2    C2  868   2.213   3.231  14.430 -0.1185  0.2590 -0.6740
   57TMC2    C3  869   2.285   3.343  14.405  0.4888 -0.2443 -0.3984
   57TMC2    C4  870   2.189   3.214  14.193  0.5134 -0.5350 -0.9877
   57TMC2    C5  871   2.264   3.329  14.174  0.3975  0.3933  0.4209
   57TMC2    C6  872   2.313   3.398  14.282 -0.3162 -0.2198 -0.4382
   57TMC2     C  873   2.037   3.101  14.344  0.1339  0.3066 -0.0652
   57TMC2     O  874   1.978   3.169  14.430 -0.2449  0.3238  0.0152
   57TMC2     H  875   2.193   3.200  14.532  2.5759  1.4064  0.2046
   57TMC2    H1  876   2.173   3.152  14.105  3.3682 -1.2374 -1.0211
   57TMC2    H2  877   2.376   3.484  14.267 -2.2685  1.0318 -1.3986
   57TMC2    C7  878   2.298   3.380  14.034  0.6708  0.2121 -0.4667
   57TMC2    C8  879   2.308   3.430  14.515  0.0190  0.5958 -0.4113
   57TMC2    O1  880   2.394   3.452  14.036  0.2817  0.0202  0.1550
   57TMC2    O2  881   2.309   3.391  14.633 -0.2950 -0.6429  0.5449
   57TMC2    O5  882   2.258   3.548  14.470 -0.1863  0.3116  0.7790
   57TMC2    H5  883   2.219   3.547  14.380 -0.0973  1.3776  0.7245
   58MPD2     C  884   1.590   2.972  14.108 -0.8567 -0.3209  0.0691
   58MPD2    C1  885   1.613   3.049  14.219  0.2569  0.0874  0.2380
   58MPD2    C2  886   1.748   3.060  14.268  0.1866 -0.0647  0.2087
   58MPD2    C3  887   1.852   3.000  14.204  0.5983  0.9563 -0.0684
   58MPD2    C4  888   1.831   2.926  14.090 -0.4422  0.0448 -0.3953
   58MPD2    C5  889   1.696   2.914  14.044  0.4256 -0.7127 -0.5196
   58MPD2     H  890   1.765   3.138  14.341 -1.0819 -1.1730  1.6696
   58MPD2    H1  891   1.906   2.876  14.030 -1.3715 -0.1840 -1.3821
   58MPD2    H2  892   1.492   2.953  14.065 -1.0454 -2.5531  1.4990
   58MPD2    H3  893   1.672   2.862  13.952  1.5464 -1.4256 -0.4038
   58MPD2     N  894   1.987   3.027  14.239 -0.2759 -0.4535  0.3213
   58MPD2    H5  895   2.059   2.991  14.177 -0.1051 -1.6879  1.2346
   58MPD2    N1  896   1.510   3.130  14.278 -0.5841  0.3543  0.3012
   58MPD2    H7  897   1.545   3.203  14.339 -2.8061  2.4951 -0.9839
   59MPD2     C  898   4.383   3.001  13.085  0.3694 -0.0702 -0.4402
   59MPD2    C1  899   4.515   3.004  13.032 -1.2475  0.1625  1.0109
   59MPD2    C2  900   4.601   3.098  13.080  0.0423 -0.4155 -0.6747
   59MPD2    C3  901   4.567   3.183  13.182 -0.8040  0.1303  0.3661
   59MPD2    C4  902   4.435   3.176  13.241 -0.3809  0.3144 -0.4638
   59MPD2    C5  903   4.350   3.085  13.189  0.2729 -0.2181 -1.0277
   59MPD2     H  904   4.697   3.108  13.031  0.3277  1.6554  0.3365
   59MPD2    H1  905   4.411   3.235  13.328  0.5873  0.3059 -0.1887
   59MPD2    H2  906   4.313   2.925  13.053 -1.3709  1.5751 -0.5489
   59MPD2    H3  907   4.253   3.079  13.236  1.1319  0.5354  0.8504
   59MPD2     N  908   4.654   3.277  13.236 -0.0911 -0.2465 -0.0818
   59MPD2    H5  909   4.643   3.308  13.332  0.7572  1.5976 -0.5793
   59MPD2    N1  910   4.544   2.914  12.924  0.0176  0.2969  0.0397
   59MPD2    H7  911   4.471   2.846  12.902 -1.7064  1.9685  0.6446
   60TCq2    C1  912   4.664   2.904  12.854  0.9258 -0.1940  0.1496
   60TCq2    O2  913   0.053   2.962  12.874  0.2249  0.5637  0.3639
   60TCq2    C2  914   4.669   2.807  12.744 -0.3734 -0.7185  0.3132
   60TCq2    C3  915   0.078   2.780  12.696  0.2172  0.0021 -0.5815
   60TCq2    C4  916   0.088   2.709  12.581 -0.2753 -0.4448 -0.6018
   60TCq2    C5  917   4.701   2.677  12.504  0.2341 -0.0252  0.5802
   60TCq2    C6  918   4.574   2.713  12.547  0.1902 -0.0824 -0.3565
   60TCq2    C7  919   4.558   2.789  12.660  0.5300 -1.1384  0.0815
   60TCq2    C8  920   4.487   2.756  12.446 -0.7315  0.1480  0.0068
   60TCq2    O4  921   4.428   2.668  12.383  0.2504  0.4045 -0.1068
   60TCq2    C9  922   0.216   2.666  12.537  0.4012  0.3552 -0.5385
   60TCq2    O5  923   0.313   2.703  12.604 -0.0048  0.0493  0.6182
   60TCq2    O6  924   0.218   2.577  12.452 -0.2179  0.4328  0.2062
   60TCq2    H2  925   0.170   2.804  12.748 -0.2387  0.6745 -0.0679
   60TCq2    H3  926   4.717   2.625  12.411  2.2617  1.4450  0.1211
   60TCq2    H4  927   4.452   2.807  12.680  0.6661  0.8977 -1.0861
   61MPD2     C  928   3.641   4.367  14.281 -0.6909  1.1407 -0.1959
   61MPD2    C1  929   3.656   4.501  14.318 -0.5200 -0.1184  0.0081
   61MPD2    C2  930   3.603   4.599  14.239 -1.0318 -0.0792  0.3612
   61MPD2    C3  931   3.516   4.561  14.134 -0.0270 -0.1147  0.6294
   61MPD2    C4  932   3.495   4.425  14.104  0.2094  0.0999 -0.2430
   61MPD2    C5  933   3.574   4.334  14.165 -0.5714 -0.3268 -0.1954
   61MPD2     H  934   3.609   4.703  14.269 -0.0607  0.7653 -2.8460
   61MPD2    H1  935   3.431   4.406  14.019  0.9014  0.0061 -0.7439
   61MPD2    H2  936   3.678   4.284  14.341  0.3164  2.1223  0.5314
   61MPD2    H3  937   3.565   4.232  14.130 -1.9560 -0.1040 -0.4627
   61MPD2     N  938   3.453   4.663  14.065  0.2528  0.5932 -0.2632
   61MPD2    H5  939   3.371   4.643  14.009  0.2202  0.4960 -0.1819
   61MPD2    N1  940   3.711   4.541  14.437  0.0729 -0.6998  0.0284
   61MPD2    H7  941   3.702   4.639  14.463 -1.5992 -0.3409 -1.9116
   62TCq2    C1  942   3.770   4.462  14.531  0.0062  0.1380  0.5949
   62TCq2    O2  943   3.814   4.349  14.520 -0.7571  0.1068  0.4478
   62TCq2    C2  944   3.775   4.523  14.655  0.5493 -0.3877  0.3789
   62TCq2    C3  945   3.806   4.426  14.759 -0.0409 -0.4358  0.2975
   62TCq2    C4  946   3.805   4.469  14.883 -0.6238 -0.8074  0.0299
   62TCq2    C5  947   3.766   4.600  14.906  0.2963 -0.4512  0.3249
   62TCq2    C6  948   3.738   4.692  14.804 -0.5765  0.7829 -0.6386
   62TCq2    C7  949   3.757   4.656  14.677  0.7555  0.1837  0.0415
   62TCq2    C8  950   3.660   0.096  14.851 -0.7246 -0.2633 -0.1252
   62TCq2    O4  951   3.675   0.197  14.786 -0.1616 -0.0529 -0.6117
   62TCq2    C9  952   3.820   4.381  14.996 -0.0571 -0.4129  0.5495
   62TCq2    O5  953   3.793   4.431  15.109 -0.1796 -0.7882  0.4722
   62TCq2    O6  954   3.844   4.256  14.984 -0.1318 -0.4067  1.0620
   62TCq2    H2  955   3.800   4.320  14.739 -0.2748  0.2764 -3.4215
   62TCq2    H3  956   3.756   4.633  15.009  1.8376 -3.7118  1.5505
   62TCq2    H4  957   3.743   0.005  14.593 -0.1276  1.1927  0.9940
   63TMC2    C1  958   3.338   4.196  10.409 -0.1817  0.2012 -0.2132
   63TMC2    C2  959   3.356   4.181  10.544  0.1778  0.4343 -0.3976
   63TMC2    C3  960   3.451   4.266  10.589  0.3643 -0.1123  0.2006
   63TMC2    C4  961   3.405   4.291  10.335  0.0081  0.1840  0.5648
   63TMC2    C5  962   3.491   4.376  10.393 -0.6183 -0.0061 -1.0399
   63TMC2    C6  963   3.515   4.362  10.523 -0.5848 -0.2286 -0.1138
   63TMC2     C  964   3.261   4.097  10.334  0.1395 -0.3214 -0.1840
   63TMC2     O  965   3.256   4.113  10.215  0.0020  0.7159 -0.1360
   63TMC2     H  966   3.330   4.095  10.605  1.8103 -0.7207 -1.3370
   63TMC2    H1  967   3.375   4.297  10.231  0.5389 -2.0943  0.2764
   63TMC2    H2  968   3.600   4.416  10.564  0.1301 -2.5877  1.5545
   63TMC2    C7  969   3.507   4.505  10.338  0.1822  0.2407 -0.3487
   63TMC2    C8  970   3.475   4.243  10.731  0.1412 -0.0091  0.4843
   63TMC2    O1  971   3.434   4.526  10.243 -0.5780  0.1600  0.5691
   63TMC2    O2  972   3.451   4.143  10.798  0.0676 -0.3063 -0.5539
   63TMC2    O5  973   3.513   4.357  10.787  0.0093  0.7695 -0.3318
   63TMC2    H5  974   3.497   4.435  10.729 -2.1929  1.4001  1.1357
   64MPD2     C  975   2.980   3.670  10.307  0.9334 -0.0539  0.6228
   64MPD2    C1  976   3.012   3.699  10.432 -0.3106  0.0558 -0.2584
   64MPD2    C2  977   3.086   3.804  10.467  0.2702 -0.0983  0.3741
   64MPD2    C3  978   3.121   3.895  10.373 -0.6035  0.1868 -0.0365
   64MPD2    C4  979   3.092   3.864  10.241 -0.0018 -0.0042 -0.3195
   64MPD2    C5  980   3.017   3.752  10.204  0.0101 -0.1781 -0.1101
   64MPD2     H  981   3.097   3.833  10.571 -1.0279 -1.3477  0.8668
   64MPD2    H1  982   3.120   3.922  10.153 -0.4615  1.0887  0.2533
   64MPD2    H2  983   2.907   3.595  10.279 -1.7010  1.6816  2.8691
   64MPD2    H3  984   2.983   3.727  10.104 -1.1204 -0.6399  0.4002
   64MPD2     N  985   3.202   4.002  10.415  0.8037 -0.0954  0.4783
   64MPD2    H5  986   3.225   4.013  10.513 -0.1167  1.9746  0.4584
   64MPD2    N1  987   2.966   3.623  10.539 -0.9512  0.0680 -0.0005
   64MPD2    H7  988   3.006   3.648  10.629 -0.9978  0.3285 -0.0532
   65MPD2     C  989   4.687   4.111  15.376  0.2419 -0.0659  0.3321
   65MPD2    C1  990   4.628   4.051  15.266 -0.3706 -0.5324 -0.5157
   65MPD2    C2  991   4.606   3.917  15.271 -0.0022 -0.6578  0.2392
   65MPD2    C3  992   4.640   3.837  15.379 -0.0788  0.9015 -0.0877
   65MPD2    C4  993   4.680   3.899  15.492 -0.3425  0.0540 -0.1723
   65MPD2    C5  994   4.706   4.032  15.491  0.0384 -0.6280  0.3573
   65MPD2     H  995   4.570   3.870  15.180  1.0919  0.2953 -0.6868
   65MPD2    H1  996   4.695   3.843  15.583 -0.0896  0.5674  0.1019
   65MPD2    H2  997   4.705   4.218  15.378  1.8750 -0.3578  0.9459
   65MPD2    H3  998   0.024   4.085  15.579 -1.7532  1.2531 -0.0421
   65MPD2     N  999   4.622   3.699  15.389 -0.6013  0.3668 -0.6283
   65MPD2    H5 1000   4.613   3.675  15.487  1.6390 -1.2672 -0.8399
   65MPD2    N1 1001   4.568   4.118  15.152  0.5974 -0.1532 -0.1063
   65MPD2    H7 1002   4.513   4.059  15.090 -1.4671  0.4530  1.1636
   66TCq2    C1 1003   4.549   4.250  15.139 -0.6555 -0.1205 -0.1465
   66TCq2    O2 1004   4.609   4.338  15.198 -0.7363 -0.3010 -0.3460
   66TCq2    C2 1005   4.421   4.276  15.070  0.5105 -0.7062 -0.1697
   66TCq2    C3 1006   4.312   4.200  15.123  0.6127  0.2800 -0.4685
   66TCq2    C4 1007   4.186   4.250  15.158  0.6879  0.1021  0.2597
   66TCq2    C5 1008   4.163   4.385  15.136  0.9789 -0.2597  0.1799
   66TCq2    C6 1009   4.270   4.457  15.091  0.1956 -0.4516  0.0542
   66TCq2    C7 1010   4.395   4.403  15.063  0.0286 -0.4144  0.4720
   66TCq2    C8 1011   4.269   4.604  15.111 -0.3056 -0.0334 -0.4262
   66TCq2    O4 1012   4.354   4.674  15.055 -0.7689 -0.6895  0.4780
   66TCq2    C9 1013   4.076   4.169  15.205 -0.0394  0.7434  0.0233
   66TCq2    O5 1014   3.989   4.223  15.281  0.4023 -0.4454  0.4041
   66TCq2    O6 1015   4.095   4.049  15.182  0.1546  0.0891  0.6319
   66TCq2    H2 1016   4.320   4.092  15.115  1.2487  0.0485  3.3827
   66TCq2    H3 1017   4.064   4.425  15.154  1.2595  0.7429 -0.5017
   66TCq2    H4 1018   4.464   4.472  15.017  0.7838 -0.9406  0.8153
   67MPD2     C 1019   4.477   3.178  14.017  0.6480 -0.9071 -0.2096
   67MPD2    C1 1020   4.402   3.249  14.107 -0.3684  0.0391  0.9941
   67MPD2    C2 1021   4.270   3.265  14.070  0.3953  1.0164  0.8337
   67MPD2    C3 1022   4.213   3.206  13.958 -0.2966 -0.8900 -0.4160
   67MPD2    C4 1023   4.292   3.129  13.878  0.1991 -1.2572 -0.7096
   67MPD2    C5 1024   4.422   3.119  13.908  0.1279  0.1094  0.1994
   67MPD2     H 1025   4.213   3.323  14.141 -0.8590  0.0620  0.6153
   67MPD2    H1 1026   4.246   3.076  13.795 -0.9094  0.3582 -1.1404
   67MPD2    H2 1027   4.585   3.172  14.022  0.6900  1.7386  1.6016
   67MPD2    H3 1028   4.497   3.064  13.854 -0.4918 -0.7384  0.1998
   67MPD2     N 1029   4.077   3.224  13.922 -0.2854  0.3379  0.0541
   67MPD2    H5 1030   4.044   3.173  13.842 -2.8753 -0.8516  1.8790
   67MPD2    N1 1031   4.451   3.318  14.219  0.1548  0.0197 -0.0652
   67MPD2    H7 1032   4.384   3.373  14.272  1.2241  1.0164  0.2565
   68TCq2    C1 1033   4.580   3.299  14.279  0.1863 -0.8041  0.3227
   68TCq2    O2 1034   4.674   3.237  14.237  0.2339 -0.2035  0.4242
   68TCq2    C2 1035   4.611   3.390  14.384  1.1297  0.9614  1.4889
   68TCq2    C3 1036   4.526   3.490  14.422 -0.1055  0.4565  0.9546
   68TCq2    C4 1037   4.567   3.593  14.497 -0.5844  0.7594  0.2752
   68TCq2    C5 1038   4.688   3.598  14.544 -0.0085  0.2454 -0.3472
   68TCq2    C6 1039   0.061   3.503  14.514  0.4351 -0.0110  0.1797
   68TCq2    C7 1040   0.021   3.394  14.436  0.0793  0.8133 -0.3181
   68TCq2    C8 1041   0.202   3.511  14.550 -0.1632 -0.1985  0.4027
   68TCq2    O4 1042   0.281   3.479  14.460 -0.1388 -0.4073  0.1096
   68TCq2    C9 1043   4.465   3.682  14.550 -0.1279 -0.2950  0.2572
   68TCq2    O5 1044   4.511   3.782  14.602 -0.0824  0.6318 -0.1644
   68TCq2    O6 1045   4.344   3.683  14.510 -0.5159 -0.0653  0.2733
   68TCq2    H2 1046   4.420   3.481  14.398  0.2778  0.3193 -0.6554
   68TCq2    H3 1047   0.001   3.685  14.601  0.2660 -1.2482  1.7907
   68TCq2    H4 1048   0.093   3.317  14.411  0.5921  1.1462  0.1288
   69TMC2    C1 1049   1.903   0.210  12.187  0.6401 -0.9006 -0.0221
   69TMC2    C2 1050   1.810   0.297  12.124  0.4697 -0.9006  0.2289
   69TMC2    C3 1051   1.830   0.318  11.989  0.8444 -0.3551 -0.5881
   69TMC2    C4 1052   2.013   0.160  12.114 -0.5531  0.3421 -0.9322
   69TMC2    C5 1053   2.033   0.200  11.983 -0.2307  0.5214 -0.7502
   69TMC2    C6 1054   1.939   0.276  11.918 -0.2774 -0.1302 -0.9717
   69TMC2     C 1055   1.872   0.134  12.305 -0.5145 -0.3813  0.2419
   69TMC2     O 1056   1.957   0.070  12.363  0.0689 -0.5858  0.7222
   69TMC2     H 1057   1.718   0.337  12.165  0.0467 -0.4414 -1.1762
   69TMC2    H1 1058   2.088   0.103  12.166  0.0890  1.1597 -0.9568
   69TMC2    H2 1059   1.969   0.309  11.820  1.8245 -4.0594 -1.6597
   69TMC2    C7 1060   2.139   0.128  11.909  0.0203  0.7511 -0.4708
   69TMC2    C8 1061   1.732   0.402  11.919 -0.2709  0.1757 -0.8068
   69TMC2    O1 1062   2.241   0.092  11.971  0.6567  0.0071  0.1322
   69TMC2    O2 1063   1.663   0.480  11.981 -0.4135  0.1843 -0.3916
   69TMC2    O5 1064   1.704   0.339  11.801  0.7407 -0.0927  0.4262
   69TMC2    H5 1065   1.767   0.274  11.763  1.4517  0.1594  1.1571
   70MPD2     C 1066   1.531   0.027  12.404 -0.5139 -1.0618 -0.5024
   70MPD2    C1 1067   1.671   0.053  12.423 -0.2484 -0.1938  0.4879
   70MPD2    C2 1068   1.732   0.001  12.537  0.7722  0.1834 -0.6534
   70MPD2    C3 1069   1.653   4.646  12.628  0.6320  0.9502  0.5130
   70MPD2    C4 1070   1.525   4.629  12.614  0.2275  0.8495 -0.7199
   70MPD2    C5 1071   1.459   4.676  12.500 -0.5201 -0.6303  0.5135
   70MPD2     H 1072   1.837   0.024  12.552  0.8031 -0.1956 -0.3009
   70MPD2    H1 1073   1.464   4.573  12.684 -0.2698  2.4565  0.1401
   70MPD2    H2 1074   1.477   0.059  12.315 -0.0634  2.8901  0.6515
   70MPD2    H3 1075   1.351   4.673  12.491 -0.5712 -0.7408  1.1694
   70MPD2     N 1076   1.713   4.588  12.742  0.3752 -0.4982  0.6421
   70MPD2    H5 1077   1.652   4.535  12.804  1.1470 -0.0620  1.7687
   70MPD2    N1 1078   1.738   0.120  12.317  0.4335 -0.5958 -0.2540
   70MPD2    H7 1079   1.683   0.151  12.238  0.2068 -0.4062 -0.0237
   71TMC2    C1 1080   0.034   0.350   1.073  0.0432  0.0413 -0.3183
   71TMC2    C2 1081   0.134   0.255   1.056 -0.2393 -0.0786 -0.2530
   71TMC2    C3 1082   0.156   0.173   1.162  0.1941 -0.5636 -0.4290
   71TMC2    C4 1083   4.664   0.350   1.176 -0.5630 -0.1065 -0.4025
   71TMC2    C5 1084   4.688   0.261   1.278  0.8542 -0.3479  1.0561
   71TMC2    C6 1085   0.080   0.173   1.274  0.9223 -0.7373 -0.4598
   71TMC2     C 1086   0.008   0.453   0.975 -0.5372 -0.5864 -0.0230
   71TMC2     O 1087   4.640   0.536   0.997  0.2151  0.0723  0.0342
   71TMC2     H 1088   0.190   0.228   0.967  1.3382 -0.5863  0.8966
   71TMC2    H1 1089   4.588   0.427   1.181  0.0645  0.5674 -1.3336
   71TMC2    H2 1090   0.114   0.107   1.352  1.4400 -1.1941 -1.0704
   71TMC2    C7 1091   4.586   0.225   1.373 -0.8966 -0.1001 -0.0048
   71TMC2    C8 1092   0.264   0.077   1.166  1.1352  0.5266  0.4181
   71TMC2    O1 1093   4.596   0.112   1.415 -0.1551  0.0825 -0.3591
   71TMC2    O2 1094   0.267   4.707   1.249 -0.5859  0.2296  0.4145
   71TMC2    O5 1095   0.367   0.138   1.107  0.6278 -0.0193 -0.0213
   71TMC2    H5 1096   0.356   0.222   1.057 -0.1803 -0.9442 -1.3953
   72MPD2     C 1097   0.134   0.738   0.565  0.4594  0.2877  0.4498
   72MPD2    C1 1098   0.010   0.715   0.622  1.1173  0.3697  0.3601
   72MPD2    C2 1099   0.005   0.632   0.735 -0.5772 -0.0023 -0.3271
   72MPD2    C3 1100   0.122   0.585   0.802  0.9991 -0.2611  0.7508
   72MPD2    C4 1101   0.246   0.627   0.744  0.4004  0.0627  0.0071
   72MPD2    C5 1102   0.250   0.698   0.622  0.2034  0.1774  0.0675
   72MPD2     H 1103   4.621   0.605   0.760 -1.6481  1.0866 -3.5197
   72MPD2    H1 1104   0.337   0.590   0.789 -0.3792 -0.0829  1.4716
   72MPD2    H2 1105   0.149   0.771   0.463 -0.3347 -0.1390  0.1946
   72MPD2    H3 1106   0.345   0.731   0.583  0.8063 -1.3268  0.2747
   72MPD2     N 1107   0.114   0.486   0.896  0.0035 -0.3340  0.2253
   72MPD2    H5 1108   0.200   0.436   0.918 -0.3536 -0.5689  1.0931
   72MPD2    N1 1109   4.599   0.752   0.568 -0.2180 -0.5711 -0.3331
   72MPD2    H7 1110   4.518   0.716   0.618  1.2166 -3.1202  0.1110
   73TMC2    C1 1111   3.491   1.831  13.679 -0.2745 -0.0826 -0.1870
   73TMC2    C2 1112   3.382   1.829  13.768 -0.3789 -0.6618  0.4019
   73TMC2    C3 1113   3.403   1.752  13.877  0.3443 -0.6914 -1.0171
   73TMC2    C4 1114   3.615   1.767  13.708 -0.1590  0.3843 -0.8175
   73TMC2    C5 1115   3.632   1.707  13.829 -0.8280 -0.2316 -0.0740
   73TMC2    C6 1116   3.525   1.697  13.912  0.1722  0.1614 -0.1970
   73TMC2     C 1117   3.531   1.957  13.615 -0.4302  0.8914 -0.8683
   73TMC2     O 1118   3.645   1.986  13.653 -0.3603 -0.2164 -0.2362
   73TMC2     H 1119   3.301   1.900  13.759  1.7578  1.6736 -0.6754
   73TMC2    H1 1120   3.683   1.757  13.624  2.0433  1.4361  0.8424
   73TMC2    H2 1121   3.533   1.648  14.009 -3.0809  0.0116 -0.0124
   73TMC2    C7 1122   3.766   1.725  13.887 -0.5532 -0.0391  0.4869
   73TMC2    C8 1123   3.295   1.712  13.961  0.6096  0.0628  0.2035
   73TMC2    O1 1124   3.814   1.677  13.987 -0.1174 -0.3297 -0.2937
   73TMC2    O2 1125   3.302   1.690  14.079  0.3792  0.3988 -0.1382
   73TMC2    O5 1126   3.189   1.725  13.888  0.4702 -0.2756  0.6439
   73TMC2    H5 1127   3.204   1.706  13.793 -2.3136  0.2073  0.0912
   74MPD2     C 1128   3.528   2.352  13.312 -0.0392  0.0554 -0.6575
   74MPD2    C1 1129   3.630   2.282  13.365 -0.1861 -0.0280 -0.1907
   74MPD2    C2 1130   3.592   2.176  13.439  0.5662 -0.7220  0.2093
   74MPD2    C3 1131   3.460   2.147  13.470 -0.3181  0.2215 -0.1465
   74MPD2    C4 1132   3.358   2.219  13.417 -0.7073  0.4445 -0.1947
   74MPD2    C5 1133   3.397   2.320  13.333 -0.3128 -0.0468 -0.3309
   74MPD2     H 1134   3.675   2.113  13.470  0.7360  0.4645  2.2054
   74MPD2    H1 1135   3.253   2.194  13.425 -0.6179  0.7025  1.7475
   74MPD2    H2 1136   3.544   2.440  13.251  1.1565  1.6580  1.9685
   74MPD2    H3 1137   3.319   2.380  13.288 -0.5097  1.0525  1.4947
   74MPD2     N 1138   3.432   2.029  13.550 -0.0287 -0.4341  0.5889
   74MPD2    H5 1139   3.334   2.009  13.571 -0.4054 -0.5307 -1.1808
   74MPD2    N1 1140   3.763   2.310  13.335  0.1911 -0.0969 -0.0500
   74MPD2    H7 1141   3.782   2.387  13.272 -1.4039 -0.3274 -0.8141
   75TCq2    C1 1142   3.977   3.280  14.001  0.4205 -0.1151 -0.1085
   75TCq2    O2 1143   3.979   3.307  14.120 -0.2280 -0.0070  0.6607
   75TCq2    C2 1144   3.846   3.274  13.938 -0.6581 -0.1340  0.8185
   75TCq2    C3 1145   3.737   3.288  14.022 -0.6492 -0.3002  0.1399
   75TCq2    C4 1146   3.615   3.291  13.962  0.1530  0.2166  0.1702
   75TCq2    C5 1147   3.604   3.273  13.829 -0.1835 -0.5750 -0.0353
   75TCq2    C6 1148   3.716   3.274  13.747  0.1541 -0.2994 -0.2743
   75TCq2    C7 1149   3.837   3.270  13.802 -0.0206  0.1532 -0.3599
   75TCq2    C8 1150   3.702   3.356  13.626 -0.1573  0.4029 -0.9829
   75TCq2    O4 1151   3.764   3.323  13.528 -0.3659 -0.1921  0.2665
   75TCq2    C9 1152   3.494   3.302  14.044  0.4799  0.4596  0.3342
   75TCq2    O5 1153   3.503   3.325  14.169 -0.5051  0.0060 -0.9006
   75TCq2    O6 1154   3.388   3.292  13.978 -0.0432 -0.1531  0.3345
   75TCq2    H2 1155   3.747   3.291  14.130 -2.0873 -0.0775  0.2603
   75TCq2    H3 1156   3.508   3.269  13.779 -0.6054 -0.1044  0.7340
   75TCq2    H4 1157   3.929   3.283  13.746  0.3371  0.6707  0.3470
   76MPD2     C 1158   3.149   4.289  12.159  0.7242  0.6861 -0.1719
   76MPD2    C1 1159   3.104   4.198  12.069  0.9915  0.0896  1.1976
   76MPD2    C2 1160   3.141   4.065  12.070 -0.5772 -0.5012  0.0971
   76MPD2    C3 1161   3.235   4.019  12.166 -0.1506 -0.0444 -0.7144
   76MPD2    C4 1162   3.283   4.112  12.256 -0.7136  0.0677 -0.2610
   76MPD2    C5 1163   3.241   4.239  12.250  0.3672 -0.1484  0.0026
   76MPD2     H 1164   3.088   3.998  12.004 -1.4200  0.7082 -0.4584
   76MPD2    H1 1165   3.355   4.091  12.334 -0.1272  4.6169  0.4544
   76MPD2    H2 1166   3.123   4.393  12.175 -1.9539  0.0553 -0.3020
   76MPD2    H3 1167   3.280   4.305  12.326 -2.4162  0.6922  0.6865
   76MPD2     N 1168   3.277   3.882  12.172 -0.0819 -0.2518 -0.2776
   76MPD2    H5 1169   3.346   3.869  12.245 -1.0425 -0.6029  0.5772
   76MPD2    N1 1170   3.012   4.239  11.968 -0.3126  0.1051  0.2323
   76MPD2    H7 1171   2.991   4.170  11.897  1.3167 -0.3714  0.2224
   77TCq2    C1 1172   3.220   3.778  12.098 -0.2605 -0.5063  0.2069
   77TCq2    O2 1173   3.125   3.777  12.021 -1.1449 -0.3847 -0.1455
   77TCq2    C2 1174   3.278   3.648  12.119  0.0163 -0.2315 -0.1186
   77TCq2    C3 1175   3.195   3.538  12.088  0.7552 -0.2846 -0.3234
   77TCq2    C4 1176   3.247   3.416  12.114  0.2133  0.3867 -0.3378
   77TCq2    C5 1177   3.376   3.400  12.152  0.1521  0.3681 -0.2064
   77TCq2    C6 1178   3.456   3.505  12.176  0.5263 -1.6652  0.3817
   77TCq2    C7 1179   3.409   3.629  12.172 -0.0478  0.1758 -0.4836
   77TCq2    C8 1180   3.572   3.470  12.256 -0.7091  0.5124  0.9117
   77TCq2    O4 1181   3.584   3.352  12.288  0.0624  0.0660 -0.1195
   77TCq2    C9 1182   3.176   3.298  12.075  0.4664 -0.0632  0.2897
   77TCq2    O5 1183   3.053   3.313  12.049  0.0068 -0.2765 -0.0026
   77TCq2    O6 1184   3.227   3.186  12.094 -0.1263 -0.1083 -0.5202
   77TCq2    H2 1185   3.099   3.550  12.039  1.1853 -2.5712 -1.7357
   77TCq2    H3 1186   3.415   3.299  12.158  0.5679  0.4228 -1.9116
   77TCq2    H4 1187   3.478   3.713  12.174  0.8548 -0.5949  0.5520
   78MPD1     C 1188   3.139   2.833   2.127 -0.3346  0.4981  0.2171
   78MPD1    C1 1189   3.267   2.778   2.120  0.8383  0.5124  0.1766
   78MPD1    C2 1190   3.378   2.853   2.167 -0.2315 -0.5119 -0.3965
   78MPD1    C3 1191   3.366   2.990   2.182  0.4665  0.9903  0.1945
   78MPD1    C4 1192   3.239   3.049   2.166 -0.2952 -0.2119 -0.7243
   78MPD1    C5 1193   3.127   2.970   2.147 -0.1935  0.0098 -0.3365
   78MPD1     H 1194   3.474   2.805   2.181  1.2212  2.1658 -1.4014
   78MPD1    H1 1195   3.224   3.153   2.190  1.4627  0.5431 -2.9407
   78MPD1    H2 1196   3.051   2.784   2.089  0.0004  0.1820 -0.1493
   78MPD1    H3 1197   3.033   3.021   2.125  0.4262  2.7479  3.3329
   78MPD1     N 1198   3.470   3.072   2.228 -0.1568  0.6771 -0.9917
   78MPD1    H5 1199   3.447   3.171   2.238  1.6829  0.9130  1.0229
   78MPD1    N1 1200   3.286   2.642   2.100 -0.2428 -0.1186 -0.2500
   78MPD1    H6 1201   3.217   2.589   2.048 -1.6322  1.4803 -0.0232
   78MPD1    H7 1202   3.377   2.622   2.059 -0.0421 -0.4979  0.3800
   79TCq2    C1 1203   3.600   3.029   2.245  0.1356 -0.3922 -0.4947
   79TCq2    O2 1204   3.656   2.923   2.226  0.1895 -0.2476 -0.2836
   79TCq2    C2 1205   3.689   3.136   2.302 -0.3134 -0.2196 -0.0077
   79TCq2    C3 1206   3.617   3.222   2.380  0.1044 -0.9119  1.1634
   79TCq2    C4 1207   3.678   3.343   2.411 -0.1145  0.0775 -0.2408
   79TCq2    C5 1208   3.810   3.365   2.369 -0.3186 -0.0413 -0.3227
   79TCq2    C6 1209   3.880   3.273   2.292  0.6092 -0.5342  0.6568
   79TCq2    C7 1210   3.807   3.165   2.243  0.1261 -0.3212  0.0545
   79TCq2    C8 1211   4.008   3.316   2.245  0.0468  0.4581  0.2381
   79TCq2    O4 1212   4.016   3.435   2.221  0.1003  0.0475 -0.7582
   79TCq2    C9 1213   3.622   3.433   2.504 -0.5127  0.1487 -0.2674
   79TCq2    O5 1214   3.680   3.543   2.519  0.1722  0.0148  0.2782
   79TCq2    O6 1215   3.506   3.412   2.549 -0.1387  0.2189  0.2543
   79TCq2    H2 1216   3.517   3.207   2.419 -0.0074  0.2666  1.3331
   79TCq2    H3 1217   3.862   3.450   2.411 -0.3424 -0.7135  1.0813
   79TCq2    H4 1218   3.862   3.083   2.199  0.8630 -0.0394  0.4469
   80MPD2     C 1219   1.778   4.072  12.251 -0.3810  1.0925  0.2572
   80MPD2    C1 1220   1.727   4.044  12.123 -0.4063  0.0215 -0.1270
   80MPD2    C2 1221   1.592   4.049  12.106  0.0328  0.0748 -0.1034
   80MPD2    C3 1222   1.504   4.078  12.213 -0.2080 -0.2239  1.2831
   80MPD2    C4 1223   1.554   4.088  12.342 -0.5025 -0.1652 -0.5098
   80MPD2    C5 1224   1.693   4.089  12.358 -0.0202 -0.8113  0.6252
   80MPD2     H 1225   1.550   4.044  12.006  0.1222  1.5791 -0.2139
   80MPD2    H1 1226   1.491   4.106  12.428 -1.2715 -0.2502 -1.0501
   80MPD2    H2 1227   1.884   4.084  12.267 -0.2547  1.3143 -0.7359
   80MPD2    H3 1228   1.737   4.123  12.451 -1.3464  1.8592  0.2553
   80MPD2     N 1229   1.366   4.071  12.210  0.6549 -0.3054  0.4567
   80MPD2    H5 1230   1.315   4.060  12.297 -0.9094 -0.5480 -0.4907
   80MPD2    N1 1231   1.806   4.014  12.010  0.7644  0.3334  0.0522
   80MPD2    H7 1232   1.755   3.992  11.925  2.5496 -1.0686 -0.6800
   81TCq2    C1 1233   1.946   4.001  11.996  0.0152  0.3459 -0.3351
   81TCq2    O2 1234   2.033   4.034  12.077 -0.3685  0.0958 -0.0036
   81TCq2    C2 1235   1.986   3.929  11.876 -0.0552 -0.3060  0.0104
   81TCq2    C3 1236   2.111   3.966  11.827 -0.1036 -0.2935 -0.2013
   81TCq2    C4 1237   2.184   3.870  11.755  0.0330 -0.3712  0.2089
   81TCq2    C5 1238   2.125   3.755  11.710 -0.7613  0.0019 -0.4983
   81TCq2    C6 1239   1.994   3.732  11.755 -0.0511 -0.9514 -1.0592
   81TCq2    C7 1240   1.923   3.813  11.839  0.2820 -0.2162 -0.2044
   81TCq2    C8 1241   1.934   3.612  11.712 -0.0986 -0.0420  0.3863
   81TCq2    O4 1242   1.951   3.572  11.601 -0.1887 -0.0755  0.2277
   81TCq2    C9 1243   2.316   3.898  11.713  0.1191 -0.1633 -0.2859
   81TCq2    O5 1244   2.381   3.999  11.749 -0.3312 -0.2036  0.6624
   81TCq2    O6 1245   2.350   3.816  11.624 -0.2508 -0.4467  0.6941
   81TCq2    H2 1246   2.166   4.053  11.862  0.9580 -0.7246 -0.8213
   81TCq2    H3 1247   2.174   3.677  11.653 -1.5011 -0.0440 -1.0718
   81TCq2    H4 1248   1.833   3.781  11.890 -0.4196 -0.6580 -1.7368
   82MPD2     C 1249   4.595   3.405  10.465  1.0032  0.2144 -0.1083
   82MPD2    C1 1250   4.628   3.292  10.392 -0.0267 -1.1248 -0.0925
   82MPD2    C2 1251   4.711   3.198  10.458 -0.1864  0.2051  0.2315
   82MPD2    C3 1252   0.031   3.222  10.589 -0.1629  0.3965  0.0909
   82MPD2    C4 1253   4.699   3.327  10.659  0.3021 -0.3460 -0.2586
   82MPD2    C5 1254   4.623   3.423  10.599  0.1045 -0.2284  0.7610
   82MPD2     H 1255   0.033   3.120  10.394  1.8609  0.7879  0.7909
   82MPD2    H1 1256   4.714   3.342  10.766 -1.7573 -0.6420  0.0717
   82MPD2    H2 1257   4.533   3.484  10.424 -0.0348 -0.4072  0.2490
   82MPD2    H3 1258   4.595   3.513  10.652 -0.8926  0.5302 -1.0766
   82MPD2     N 1259   0.114   3.135  10.660  0.1177 -0.5358  0.2896
   82MPD2    H5 1260   0.141   3.163  10.754 -0.5927  1.1054  0.0135
   82MPD2    N1 1261   4.600   3.294  10.257  0.3756 -0.3978 -0.3769
   82MPD2    H7 1262   4.555   3.380  10.227 -1.6503 -0.9796  0.9932
   83TCq2    C1 1263   0.138   3.006  10.625 -0.7679  0.1730  0.4094
   83TCq2    O2 1264   0.104   2.940  10.528  0.3871 -0.0144 -0.1777
   83TCq2    C2 1265   0.230   2.944  10.722  0.2445 -0.4172 -0.5106
   83TCq2    C3 1266   0.308   3.022  10.803 -0.5117  0.3640 -0.5332
   83TCq2    C4 1267   0.338   2.970  10.918  0.7672 -0.2136  0.4857
   83TCq2    C5 1268   0.297   2.851  10.955  0.1327  0.1563 -0.1616
   83TCq2    C6 1269   0.242   2.767  10.865 -0.1666  0.1693 -0.1226
   83TCq2    C7 1270   0.203   2.812  10.742  0.5133  0.0226  0.4979
   83TCq2    C8 1271   0.153   2.665  10.921  0.2304 -0.3918  0.2699
   83TCq2    O4 1272   0.107   2.701  11.025  0.7619 -0.0485  0.3543
   83TCq2    C9 1273   0.420   3.046  10.997 -0.4885 -0.2034  0.2660
   83TCq2    O5 1274   0.403   3.172  10.993  0.3809 -0.6505 -0.6128
   83TCq2    O6 1275   0.484   2.989  11.087 -0.2930 -0.5143  0.0899
   83TCq2    H2 1276   0.337   3.124  10.779  1.5270 -0.1581 -0.2391
   83TCq2    H3 1277   0.332   2.800  11.044  0.6686  1.5857  0.4485
   83TCq2    H4 1278   0.145   2.757  10.668  1.1751  0.2754 -0.2112
   84TCq2    C1 1279   1.930   1.510  10.579 -0.1781 -0.2679 -0.5691
   84TCq2    O2 1280   1.819   1.561  10.561 -0.3020 -0.3598 -0.4645
   84TCq2    C2 1281   1.950   1.449  10.719 -0.5290  0.2165 -0.4497
   84TCq2    C3 1282   1.988   1.318  10.738 -0.9402 -0.1460 -0.3303
   84TCq2    C4 1283   1.926   1.248  10.842 -0.8556 -0.6990  0.4948
   84TCq2    C5 1284   1.838   1.303  10.928 -0.2286 -0.0821  0.8912
   84TCq2    C6 1285   1.827   1.441  10.919  0.5346 -0.7255  0.2820
   84TCq2    C7 1286   1.880   1.511  10.810  0.1912 -0.4157  0.1753
   84TCq2    C8 1287   1.716   1.509  10.979 -0.0031 -0.3884  0.0856
   84TCq2    O4 1288   1.669   1.609  10.917  0.0070 -0.3266 -0.6898
   84TCq2    C9 1289   1.946   1.102  10.842 -0.5085  0.0489  0.4388
   84TCq2    O5 1290   1.963   1.051  10.729  0.2940  0.0578  0.2812
   84TCq2    O6 1291   1.897   1.039  10.942 -0.1310  0.6023  0.6650
   84TCq2    H2 1292   2.047   1.266  10.664  0.0564 -2.0534  1.8023
   84TCq2    H3 1293   1.779   1.249  11.002  1.0916 -1.0351  1.2650
   84TCq2    H4 1294   1.850   1.615  10.799  2.3542  0.1659 -0.3837
   85MPD2     C 1295   1.489   0.178  16.395 -0.3787 -0.0821 -0.5373
   85MPD2    C1 1296   1.517   0.147  16.260 -0.1724  0.0747  0.0343
   85MPD2    C2 1297   1.591   0.232  16.182 -0.4140  0.2151 -0.1651
   85MPD2    C3 1298   1.637   0.354  16.238 -0.3563  0.2817  0.7683
   85MPD2    C4 1299   1.607   0.381  16.370 -0.2401 -0.4911 -0.4442
   85MPD2    C5 1300   1.553   0.283  16.448  0.0484  0.2562  0.0235
   85MPD2     H 1301   1.623   0.203  16.083 -1.3680 -0.8308 -0.1614
   85MPD2    H1 1302   1.643   0.470  16.420 -1.0605 -0.0938 -0.5780
   85MPD2    H2 1303   1.426   0.115  16.455  1.0839 -1.0563 -0.0308
   85MPD2    H3 1304   1.542   0.311  16.552  3.0575  2.1982 -0.1886
   85MPD2     N 1305   1.722   0.433  16.167 -0.3040  0.1522 -0.4763
   85MPD2    H5 1306   1.756   0.390  16.081 -2.1038  1.1181 -1.6719
   85MPD2    N1 1307   1.455   0.042  16.195 -0.2294  0.1954 -0.2649
   85MPD2    H7 1308   1.490   0.012  16.105  2.2932  0.8659  0.4937
   86TCq2    C1 1309   1.760   0.563  16.197 -0.1126  0.2468 -0.0136
   86TCq2    O2 1310   1.731   0.625  16.298  0.2668 -0.2387  0.7105
   86TCq2    C2 1311   1.839   0.626  16.095  0.4005  0.3987  0.1930
   86TCq2    C3 1312   1.793   0.751  16.050 -0.5375  0.7530  0.2391
   86TCq2    C4 1313   1.876   0.816  15.961 -0.2042 -0.0344 -0.3608
   86TCq2    C5 1314   1.979   0.751  15.911  0.1072 -0.5408 -0.3280
   86TCq2    C6 1315   2.023   0.633  15.965  1.0552 -0.4854  0.8354
   86TCq2    C7 1316   1.950   0.564  16.053  0.8868  0.0815  0.3425
   86TCq2    C8 1317   2.111   0.547  15.885 -0.6305 -0.2365  0.3940
   86TCq2    O4 1318   2.155   0.443  15.936  0.5151 -0.0646 -0.4889
   86TCq2    C9 1319   1.853   0.950  15.919  0.4359  0.0265  0.4277
   86TCq2    O5 1320   1.742   1.002  15.942  0.5242  0.4362 -0.0275
   86TCq2    O6 1321   1.929   0.993  15.832  0.1410 -0.6694 -0.4181
   86TCq2    H2 1322   1.705   0.797  16.093  0.0862  0.0944  2.2286
   86TCq2    H3 1323   2.050   0.818  15.864  0.2369 -0.8211 -0.5249
   86TCq2    H4 1324   1.981   0.469  16.096  1.0614 -0.0554 -0.0902
   87MPD2     C 1325   4.378   3.983   0.815 -0.2775  0.7492 -0.1975
   87MPD2    C1 1326   4.291   4.007   0.917  0.1009  0.5591  0.2793
   87MPD2    C2 1327   4.274   4.132   0.965 -0.2580  0.6811  0.6356
   87MPD2    C3 1328   4.349   4.238   0.916  0.1511 -0.2141  0.3213
   87MPD2    C4 1329   4.435   4.217   0.809 -0.1916 -0.0020  0.2592
   87MPD2    C5 1330   4.451   4.089   0.768 -0.3371 -0.8262 -0.1384
   87MPD2     H 1331   4.206   4.140   1.049 -1.5037 -0.0762 -0.3119
   87MPD2    H1 1332   4.502   4.293   0.770 -0.1420 -0.3905 -0.4051
   87MPD2    H2 1333   4.398   3.886   0.770  1.7390  0.7691  0.6749
   87MPD2    H3 1334   4.521   4.077   0.685 -2.8060  0.8499 -2.4445
   87MPD2     N 1335   4.337   4.369   0.951  0.2156 -0.1481 -0.7725
   87MPD2    H5 1336   4.383   4.442   0.899  1.3505 -0.4639 -0.2006
   87MPD2    N1 1337   4.224   3.890   0.955  0.3267  0.0224 -0.2818
   87MPD2    H7 1338   4.242   3.806   0.900  0.4544 -0.3140  0.2664
   88TCq2    C1 1339   4.120   3.884   1.049 -0.2709 -0.7623 -0.1737
   88TCq2    O2 1340   4.097   3.964   1.137  0.2204  0.2492  0.1440
   88TCq2    C2 1341   4.054   3.742   1.053  0.2780 -0.3173 -0.1323
   88TCq2    C3 1342   3.983   3.715   1.171 -0.1654 -0.8625  0.1730
   88TCq2    C4 1343   3.898   3.601   1.169  0.3087  0.3208  0.3252
   88TCq2    C5 1344   3.901   3.516   1.061 -0.5477  0.6399 -0.2170
   88TCq2    C6 1345   3.978   3.550   0.951  0.1033  0.6167  0.6483
   88TCq2    C7 1346   4.061   3.657   0.944 -0.4496 -0.5372 -0.6922
   88TCq2    C8 1347   3.973   3.475   0.819  0.1259  0.4035 -0.2994
   88TCq2    O4 1348   4.035   3.526   0.726  0.1544  0.1930 -0.8679
   88TCq2    C9 1349   3.821   3.571   1.287  0.8130  0.0551  0.8242
   88TCq2    O5 1350   3.726   3.495   1.270 -0.0841 -0.0396 -0.2961
   88TCq2    O6 1351   3.866   3.616   1.399  0.6245 -0.3068  0.1706
   88TCq2    H2 1352   3.990   3.781   1.256 -0.4799 -1.1970  0.4529
   88TCq2    H3 1353   3.836   3.430   1.069  0.1896  0.0059 -1.1033
   88TCq2    H4 1354   4.117   3.683   0.855 -0.3050  2.0109  0.1568
   89MPD2     C 1355   0.102   0.556   1.794 -0.1632 -0.1061  0.4094
   89MPD2    C1 1356   0.011   0.644   1.737  0.0116 -0.1003 -0.4695
   89MPD2    C2 1357   0.066   0.750   1.668 -0.1318 -0.4775  0.5134
   89MPD2    C3 1358   0.200   0.759   1.650 -0.3778  0.4279 -0.4984
   89MPD2    C4 1359   0.286   0.666   1.702  1.1040  0.4127  0.3340
   89MPD2    C5 1360   0.231   0.569   1.781  0.2635  0.2534  0.6759
   89MPD2     H 1361   4.716   0.824   1.627  2.8883  2.0695  0.1120
   89MPD2    H1 1362   0.393   0.673   1.686  0.9823  0.5003 -0.4410
   89MPD2    H2 1363   0.066   0.468   1.845  2.1188 -1.9500 -1.1302
   89MPD2    H3 1364   0.291   0.486   1.817  1.1815  1.3698  1.6828
   89MPD2     N 1365   0.244   0.879   1.575  0.6375 -0.4702 -0.7512
   89MPD2    H5 1366   0.172   0.940   1.538 -1.0683 -2.2288 -0.3528
   89MPD2    N1 1367   4.591   0.629   1.747  0.3480 -0.4895  0.1475
   89MPD2    H7 1368   4.542   0.698   1.690  1.5466 -0.7502 -1.1888
   90TCq2    C1 1369   0.375   0.903   1.539  0.3535  0.4550  0.0605
   90TCq2    O2 1370   0.475   0.835   1.552 -0.1242 -0.0881 -0.0251
   90TCq2    C2 1371   0.374   1.033   1.470  0.6057 -1.3603  0.0748
   90TCq2    C3 1372   0.305   1.135   1.524  0.0115 -0.1468  0.1081
   90TCq2    C4 1373   0.304   1.260   1.465  0.0023  0.6788  1.0691
   90TCq2    C5 1374   0.368   1.278   1.343 -0.1619 -0.2732  0.1526
   90TCq2    C6 1375   0.442   1.175   1.295  0.7366 -0.0688 -0.7882
   90TCq2    C7 1376   0.452   1.056   1.361  0.2362  0.1951  0.2932
   90TCq2    C8 1377   0.522   1.185   1.183 -0.6187  0.3584  0.2358
   90TCq2    O4 1378   0.618   1.112   1.175 -0.0115 -0.2505 -0.2056
   90TCq2    C9 1379   0.242   1.368   1.540  0.3443 -0.2737 -0.7474
   90TCq2    O5 1380   0.240   1.487   1.492  0.0622 -0.5949 -0.2707
   90TCq2    O6 1381   0.211   1.341   1.661  0.0223 -0.0594  0.4451
   90TCq2    H2 1382   0.242   1.113   1.610  0.3395  2.5410  1.0337
   90TCq2    H3 1383   0.371   1.382   1.313  2.7638 -0.6778 -0.9276
   90TCq2    H4 1384   0.515   0.973   1.330 -2.0399 -0.4569 -2.5934
   91TMC2    C1 1385   1.865   0.986  17.049  0.4081 -0.3878  1.1584
   91TMC2    C2 1386   1.896   0.989  17.181 -0.1675  0.1180  0.6221
   91TMC2    C3 1387   1.831   1.078  17.252 -0.1044  0.3699  0.3342
   91TMC2    C4 1388   1.772   1.073  16.983 -0.0333 -0.1664 -0.0143
   91TMC2    C5 1389   1.697   1.144  17.074 -0.0663  0.2978  0.1409
   91TMC2    C6 1390   1.730   1.153  17.203  0.1989  0.4163 -0.2866
   91TMC2     C 1391   1.951   0.924  16.949 -0.1011 -1.0707  0.1486
   91TMC2     O 1392   1.896   0.841  16.876  0.8563  0.1808  0.5711
   91TMC2     H 1393   1.978   0.929  17.219  0.7719 -0.1222 -1.7696
   91TMC2    H1 1394   1.754   1.072  16.876  0.8272 -0.2732 -0.1598
   91TMC2    H2 1395   1.675   1.213  17.274 -1.9339 -0.2284 -1.4240
   91TMC2    C7 1396   1.595   1.239  17.035 -0.6364  0.5901 -0.5695
   91TMC2    C8 1397   1.889   1.107  17.382 -0.7083  0.0453  0.4002
   91TMC2    O1 1398   1.545   1.311  17.119 -0.0738 -0.3165 -0.2662
   91TMC2    O2 1399   1.815   1.134  17.479  0.3391 -0.4062  0.3114
   91TMC2    O5 1400   2.013   1.168  17.368 -0.0112 -0.3645  0.0459
   91TMC2    H5 1401   2.058   1.137  17.287 -0.1118  0.4519 -0.3213
   92MPD2     C 1402   2.169   0.808  16.806 -0.2775 -0.4319 -0.1846
   92MPD2    C1 1403   2.179   0.925  16.878 -0.3362  0.0949  0.1484
   92MPD2    C2 1404   2.292   1.003  16.870  0.1902  0.1198  0.1884
   92MPD2    C3 1405   2.402   0.965  16.795  0.6732 -0.0923  0.7177
   92MPD2    C4 1406   2.394   0.846  16.730 -0.4990  0.4952  0.1007
   92MPD2    C5 1407   2.281   0.770  16.746  0.2123  0.5596  0.2572
   92MPD2     H 1408   2.302   1.093  16.929 -0.3524  1.7998 -2.2856
   92MPD2    H1 1409   2.472   0.814  16.662 -0.8125  3.2037 -1.5682
   92MPD2    H2 1410   2.084   0.741  16.799 -1.4025  0.9463  0.3346
   92MPD2    H3 1411   2.276   0.676  16.691  0.0259 -0.3641  1.8627
   92MPD2     N 1412   2.515   1.054  16.770  0.0386 -0.4125  0.5972
   92MPD2    H5 1413   2.505   1.143  16.818  1.1845  0.1147 -0.1565
   92MPD2    N1 1414   2.077   0.970  16.965 -0.5114  0.2903 -0.0272
   92MPD2    H7 1415   2.102   1.041  17.033  3.0304  0.7394 -1.7664
   93MPD2     C 1416   2.876   2.073  12.988 -0.9361  0.2474  0.3145
   93MPD2    C1 1417   2.877   1.961  13.072 -0.9357 -0.4648 -0.1806
   93MPD2    C2 1418   2.754   1.910  13.108 -0.0390 -0.0755 -0.4691
   93MPD2    C3 1419   2.630   1.969  13.070  0.5300 -1.0021 -0.3211
   93MPD2    C4 1420   2.637   2.077  12.986  0.1690 -0.3057 -0.1727
   93MPD2    C5 1421   2.754   2.131  12.947 -0.0978 -0.4144 -0.3315
   93MPD2     H 1422   2.767   1.838  13.188  1.3087  0.5933 -0.0877
   93MPD2    H1 1423   2.550   2.133  12.954  0.5116 -1.0926 -2.4571
   93MPD2    H2 1424   2.959   2.140  12.968 -1.3213  1.0390  1.3571
   93MPD2    H3 1425   2.754   2.223  12.889  1.3991  0.2651  0.7445
   93MPD2     N 1426   2.512   1.928  13.137  0.0760  0.2989 -0.6383
   93MPD2    H5 1427   2.428   1.983  13.119  0.5694  1.3149  0.1449
   93MPD2    N1 1428   2.996   1.909  13.132  0.3725  0.2622  0.4347
   93MPD2    H7 1429   2.984   1.829  13.194  1.6737 -0.5176 -0.3199
   94TCq2    C1 1430   3.119   1.975  13.145  0.1682 -0.1500  0.6499
   94TCq2    O2 1431   3.164   2.059  13.071 -0.1597 -0.3728  0.0605
   94TCq2    C2 1432   3.200   1.917  13.249  0.1565 -0.2400 -0.2915
   94TCq2    C3 1433   3.132   1.870  13.358  0.0901 -0.1130  0.0794
   94TCq2    C4 1434   3.194   1.777  13.448 -0.8055  0.8208  0.2085
   94TCq2    C5 1435   3.320   1.738  13.411  0.1320  0.6642 -1.0724
   94TCq2    C6 1436   3.383   1.801  13.298 -0.3693 -0.5409 -0.6758
   94TCq2    C7 1437   3.324   1.889  13.211  0.4893  0.2324  0.1106
   94TCq2    C8 1438   3.526   1.803  13.302  0.6321 -1.2476 -0.1416
   94TCq2    O4 1439   3.588   1.724  13.372 -0.5024 -0.4033  0.9454
   94TCq2    C9 1440   3.135   1.726  13.565  0.7469  0.0052 -0.1581
   94TCq2    O5 1441   3.200   1.648  13.637  0.2387  0.4080  0.8365
   94TCq2    O6 1442   3.015   1.750  13.586 -0.0571  0.0752  0.0817
   94TCq2    H2 1443   3.037   1.912  13.389  0.6071  2.6597 -2.1526
   94TCq2    H3 1444   3.373   1.671  13.478  0.9153  0.3505 -1.9859
   94TCq2    H4 1445   3.366   1.922  13.117  1.1263 -0.9720 -0.0335
   95TMC2    C1 1446   3.815   3.056  15.906  0.6605  0.2714 -0.2835
   95TMC2    C2 1447   3.781   3.072  16.040  0.0883  0.5735 -0.5089
   95TMC2    C3 1448   3.696   2.989  16.093 -0.7631 -0.6125  0.4062
   95TMC2    C4 1449   3.771   2.946  15.832  0.5324  0.4958 -0.1968
   95TMC2    C5 1450   3.692   2.862  15.903 -0.5293 -0.2719 -0.7765
   95TMC2    C6 1451   3.646   2.877  16.030 -0.0167  0.1032 -0.2657
   95TMC2     C 1452   3.934   3.119  15.856 -0.1466  0.1066 -0.4110
   95TMC2     O 1453   3.994   3.070  15.757  0.1166  0.2090  0.0055
   95TMC2     H 1454   3.830   3.133  16.115 -0.0711  2.2267 -1.7601
   95TMC2    H1 1455   3.807   2.921  15.733 -0.8659 -1.4312 -0.2096
   95TMC2    H2 1456   3.568   2.811  16.065  0.3725 -0.6599 -0.8550
   95TMC2    C7 1457   3.643   2.738  15.839 -0.2759  0.0930 -0.1200
   95TMC2    C8 1458   3.673   3.007  16.234  0.2200  0.3565 -0.3259
   95TMC2    O1 1459   3.618   2.642  15.911  0.7288  0.3181  0.5204
   95TMC2    O2 1460   3.743   3.077  16.308  0.1152  0.3361  0.2844
   95TMC2    O5 1461   3.543   2.971  16.253  0.5073  0.1225  0.1589
   95TMC2    H5 1462   3.487   2.949  16.175  1.7737 -0.1159 -0.6763
   96MPD2     C 1463   4.259   3.513  15.836  0.3696  0.3284 -0.4824
   96MPD2    C1 1464   4.246   3.406  15.752  0.4049 -0.3652  0.0636
   96MPD2    C2 1465   4.153   3.311  15.785 -0.0258 -0.3235  0.5606
   96MPD2    C3 1466   4.069   3.324  15.893  0.1335 -0.1083 -0.4523
   96MPD2    C4 1467   4.086   3.434  15.970 -0.6476  0.5826 -0.2070
   96MPD2    C5 1468   4.171   3.531  15.933  0.7485 -0.3525  0.3611
   96MPD2     H 1469   4.146   3.222  15.723 -0.7886  0.7789 -0.9497
   96MPD2    H1 1470   4.012   3.465  16.044 -1.3503  1.3344 -1.2331
   96MPD2    H2 1471   4.341   3.583  15.826  0.2130  0.8640  2.0752
   96MPD2    H3 1472   4.183   3.624  15.988 -0.3013 -0.2720  0.4576
   96MPD2     N 1473   3.967   3.229  15.933  0.4282 -0.2437  0.0286
   96MPD2    H5 1474   3.912   3.255  16.014  0.3522 -0.9269  0.1968
   96MPD2    N1 1475   4.335   3.407  15.637 -0.0416  0.0120 -0.0906
   96MPD2    H7 1476   4.403   3.481  15.637  1.3913 -1.3064  2.1759
   97MPD2     C 1477   1.407   0.060   1.324 -0.5686  0.0929 -0.4246
   97MPD2    C1 1478   1.317   0.162   1.345  0.4943  0.0753 -0.2981
   97MPD2    C2 1479   1.362   0.290   1.338 -0.0988 -0.4273 -0.3098
   97MPD2    C3 1480   1.490   0.325   1.307  0.1556 -0.5164  0.5069
   97MPD2    C4 1481   1.574   0.225   1.276  0.8572 -0.1640  0.4938
   97MPD2    C5 1482   1.533   0.099   1.281 -0.1785 -0.6000 -0.8001
   97MPD2     H 1483   1.289   0.370   1.345 -0.7399 -1.2642  2.5096
   97MPD2    H1 1484   1.675   0.251   1.249 -0.7613  4.9330 -0.6341
   97MPD2    H2 1485   1.385   4.672   1.334 -1.4833  0.3531  0.2706
   97MPD2    H3 1486   1.607   0.028   1.248 -1.5057 -1.2947 -2.3038
   97MPD2     N 1487   1.539   0.457   1.298 -0.2787 -0.2632  0.0599
   97MPD2    H5 1488   1.638   0.471   1.281  0.0134 -1.0231  1.1170
   97MPD2    N1 1489   1.182   0.131   1.375 -0.5640  0.6354 -0.8321
   97MPD2    H7 1490   1.163   0.033   1.394 -1.0392  1.1196  1.2316
   98TCq2    C1 1491   1.463   0.569   1.329  0.5017 -0.1768 -0.2900
   98TCq2    O2 1492   1.341   0.580   1.334 -0.7030 -0.2350  0.4756
   98TCq2    C2 1493   1.541   0.679   1.366  0.1179 -0.3996 -0.7083
   98TCq2    C3 1494   1.664   0.665   1.422  0.4186 -0.1194  0.4109
   98TCq2    C4 1495   1.721   0.781   1.478 -0.9091 -0.1099 -0.3342
   98TCq2    C5 1496   1.663   0.901   1.462  0.3571 -0.3051 -0.1727
   98TCq2    C6 1497   1.532   0.908   1.418  0.8003  0.2633  0.7841
   98TCq2    C7 1498   1.476   0.799   1.362  0.8042 -0.0520  0.4796
   98TCq2    C8 1499   1.490   1.040   1.374  0.4540 -0.6488 -0.0821
   98TCq2    O4 1500   1.566   1.136   1.375  0.1710  0.0472 -0.0473
   98TCq2    C9 1501   1.855   0.773   1.534 -0.6829 -0.7829  0.0573
   98TCq2    O5 1502   1.915   0.666   1.514  0.4976  0.1582 -0.2463
   98TCq2    O6 1503   1.914   0.881   1.565 -0.0832 -0.1308  0.2141
   98TCq2    H2 1504   1.712   0.569   1.435  1.4570  0.5192  1.2732
   98TCq2    H3 1505   1.710   0.993   1.493 -2.7123  0.8539  1.0235
   98TCq2    H4 1506   1.374   0.800   1.326  1.8541 -0.4884 -2.4639
   99MPD2     C 1507   4.236   2.672   1.341  0.6557 -0.1799  0.2369
   99MPD2    C1 1508   4.331   2.651   1.447  0.4078 -0.3248  0.4961
   99MPD2    C2 1509   4.415   2.542   1.434  0.5723  0.0512  0.6408
   99MPD2    C3 1510   4.417   2.463   1.324  0.2759 -0.4280  0.2295
   99MPD2    C4 1511   4.329   2.488   1.227  0.5747 -0.0491  0.1189
   99MPD2    C5 1512   4.242   2.594   1.232 -0.1477 -0.2307  0.9847
   99MPD2     H 1513   4.480   2.529   1.520 -0.3838 -0.0931  1.3402
   99MPD2    H1 1514   4.319   2.425   1.139 -1.6801  1.8974 -1.0148
   99MPD2    H2 1515   4.173   2.760   1.342  1.6006  0.4868  1.7190
   99MPD2    H3 1516   4.175   2.607   1.148 -1.6063 -0.2744  2.1461
   99MPD2     N 1517   4.508   2.357   1.316 -0.4780  0.1390  0.5771
   99MPD2    H5 1518   4.576   2.347   1.391 -0.6827  1.2779  0.9128
   99MPD2    N1 1519   4.344   2.732   1.559  0.0058  0.6303 -0.2573
   99MPD2    H7 1520   4.392   2.689   1.637 -0.8383 -1.5412 -0.9285
  100TCq2    C1 1521   4.269   2.849   1.583 -0.6591  0.5408  0.4183
  100TCq2    O2 1522   4.219   2.914   1.495 -0.0783  0.1395  0.3144
  100TCq2    C2 1523   4.287   2.904   1.715  0.4141  0.4031 -0.5513
  100TCq2    C3 1524   4.421   2.916   1.757 -0.8876 -0.2504 -0.2889
  100TCq2    C4 1525   4.453   3.018   1.848  0.2142 -0.7859 -0.6470
  100TCq2    C5 1526   4.370   3.118   1.889 -0.0173  0.5833  0.6904
  100TCq2    C6 1527   4.239   3.104   1.844 -0.2810 -0.0666 -1.0342
  100TCq2    C7 1528   4.204   3.005   1.750  0.4133 -0.5669 -0.1547
  100TCq2    C8 1529   4.133   3.190   1.887  0.0066 -0.0834 -0.5721
  100TCq2    O4 1530   4.174   3.300   1.924 -0.3252 -0.0072  0.1037
  100TCq2    C9 1531   4.594   3.021   1.889 -0.3121  0.2824 -0.7035
  100TCq2    O5 1532   4.661   2.913   1.878  0.0836  0.3724 -0.9065
  100TCq2    O6 1533   4.648   3.129   1.918  0.7904 -0.1805  0.3904
  100TCq2    H2 1534   4.493   2.840   1.731 -2.4905 -1.2802 -1.7463
  100TCq2    H3 1535   4.413   3.190   1.957  0.8083  1.8946 -1.2244
  100TCq2    H4 1536   4.108   3.005   1.698  0.9625 -0.5441 -1.1696
  101MPD2     C 1537   0.977   3.582  13.316 -0.5458  0.0355  0.4776
  101MPD2    C1 1538   0.916   3.704  13.301  0.0215  0.0815 -0.1532
  101MPD2    C2 1539   0.776   3.710  13.280 -0.1412  0.1110  0.2225
  101MPD2    C3 1540   0.703   3.593  13.275 -0.8829  0.0678  0.5486
  101MPD2    C4 1541   0.770   3.472  13.270 -0.0744  0.1776  0.2405
  101MPD2    C5 1542   0.910   3.465  13.288  0.3681 -0.2660  0.6872
  101MPD2     H 1543   0.717   3.800  13.271  0.7444  0.7245  0.5634
  101MPD2    H1 1544   0.716   3.380  13.252  0.5984 -0.2008  0.1633
  101MPD2    H2 1545   1.084   3.562  13.321 -0.6187 -0.7114 -0.8159
  101MPD2    H3 1546   0.961   3.369  13.282  0.7646 -0.1105  1.4950
  101MPD2     N 1547   0.563   3.598  13.278 -0.0237 -0.9849 -0.0486
  101MPD2    H5 1548   0.513   3.682  13.306  2.1766  1.2336 -2.7632
  101MPD2    N1 1549   0.997   3.822  13.304 -0.2757  0.8486 -0.7986
  101MPD2    H7 1550   1.095   3.814  13.328 -0.4354  1.4474  0.0377
  102TCq2    C1 1551   1.151   4.277  12.969  1.1712  0.0709  0.3600
  102TCq2    O2 1552   1.257   4.324  12.927 -0.1595 -0.0288  0.3687
  102TCq2    C2 1553   1.150   4.203  13.092  0.1262 -0.1607 -0.2623
  102TCq2    C3 1554   1.255   4.215  13.176  0.5388 -0.2321  0.3413
  102TCq2    C4 1555   1.257   4.147  13.296  0.0327  0.3045  0.6350
  102TCq2    C5 1556   1.159   4.058  13.334  0.4208 -0.7645 -0.3509
  102TCq2    C6 1557   1.059   4.048  13.243  0.6994  0.2626  0.6061
  102TCq2    C7 1558   1.049   4.125  13.127  0.4353  0.2703  0.6770
  102TCq2    C8 1559   0.952   3.944  13.254 -0.8865  0.1254  0.3239
  102TCq2    O4 1560   0.846   3.965  13.193 -0.2700  0.5246 -0.1616
  102TCq2    C9 1561   1.371   4.173  13.377  0.4635 -0.0477 -0.3038
  102TCq2    O5 1562   1.358   4.121  13.492  0.4951  0.2461  0.2237
  102TCq2    O6 1563   1.476   4.201  13.314 -0.2976 -0.0726 -0.3591
  102TCq2    H2 1564   1.333   4.280  13.140 -0.6526 -0.9620 -3.6165
  102TCq2    H3 1565   1.160   4.005  13.429  1.4466 -0.7091 -0.3287
  102TCq2    H4 1566   0.966   4.116  13.059  0.8734 -0.4052  0.2304
  103TMC2    C1 1567   4.102   4.039  12.449  0.3777  0.3137 -0.8302
  103TMC2    C2 1568   4.216   4.058  12.381  0.5456 -0.4256  0.7075
  103TMC2    C3 1569   4.317   4.114  12.458 -0.1813 -0.3149 -0.2066
  103TMC2    C4 1570   4.083   4.079  12.579 -0.5253  0.3527 -0.5208
  103TMC2    C5 1571   4.189   4.130  12.651 -0.4910  0.3798  0.1164
  103TMC2    C6 1572   4.310   4.148  12.592 -0.4344 -0.2634  0.6208
  103TMC2     C 1573   4.014   3.934  12.400  0.1231 -0.2687 -0.0125
  103TMC2     O 1574   3.992   3.934  12.277  0.0224 -1.0612  0.0673
  103TMC2     H 1575   4.237   4.028  12.279  0.3758  0.3520  0.4470
  103TMC2    H1 1576   3.989   4.070  12.632 -2.0072 -0.8130 -3.3288
  103TMC2    H2 1577   4.407   4.173  12.635 -0.0915 -1.4229  0.5146
  103TMC2    C7 1578   4.167   4.176  12.789 -0.2973  0.4833  0.5566
  103TMC2    C8 1579   4.434   4.132  12.373  0.2393  0.0410 -0.3434
  103TMC2    O1 1580   4.058   4.150  12.842 -0.7312  0.3526  0.5503
  103TMC2    O2 1581   4.478   4.060  12.284 -0.0898 -0.1976  0.4528
  103TMC2    O5 1582   4.471   4.257  12.386  0.1242  0.5512 -0.6081
  103TMC2    H5 1583   4.415   4.303  12.452 -1.0520 -3.1092  0.9653
  104MPD2     C 1584   3.952   3.623  12.560  0.4620  0.3315 -0.1389
  104MPD2    C1 1585   3.920   3.727  12.484 -0.4124 -0.0392 -0.5685
  104MPD2    C2 1586   3.821   3.709  12.385  0.3708 -0.3449 -0.0498
  104MPD2    C3 1587   3.757   3.589  12.370 -0.1866 -0.2827  0.9234
  104MPD2    C4 1588   3.787   3.486  12.453  0.0823 -0.5066  0.0931
  104MPD2    C5 1589   3.888   3.502  12.542  0.0113  0.0595 -0.9364
  104MPD2     H 1590   3.803   3.798  12.325 -2.9386  0.2816  1.8374
  104MPD2    H1 1591   3.748   3.386  12.441 -2.9950  0.5466  0.9554
  104MPD2    H2 1592   4.031   3.627  12.634  1.2100  0.3088 -0.9374
  104MPD2    H3 1593   3.922   3.424  12.608  2.8167 -0.3250 -2.8539
  104MPD2     N 1594   3.651   3.583  12.276  0.3244  0.1450  0.1489
  104MPD2    H5 1595   3.617   3.672  12.241  0.3502 -0.2421 -0.8678
  104MPD2    N1 1596   3.997   3.843  12.501  0.0167  0.3980 -0.0562
  104MPD2    H7 1597   4.059   3.853  12.580 -0.2379  0.6137  0.1174
  105MPD2     C 1598   0.141   2.868  17.460  0.7030 -0.4558 -0.7576
  105MPD2    C1 1599   0.133   3.007  17.448  1.3872 -0.2797  0.6451
  105MPD2    C2 1600   0.021   3.068  17.503 -0.1327  0.5562 -0.5732
  105MPD2    C3 1601   4.643   2.996  17.574  0.0192 -0.4630 -0.5811
  105MPD2    C4 1602   4.661   2.859  17.588  0.0821 -0.2206  0.2738
  105MPD2    C5 1603   0.053   2.797  17.531  0.5745  0.4239  0.3746
  105MPD2     H 1604   0.006   3.176  17.498 -0.9507  0.5909  2.4415
  105MPD2    H1 1605   4.609   2.797  17.661 -0.8563  0.8453  0.5074
  105MPD2    H2 1606   0.234   2.831  17.417  2.2324  1.2105  1.1509
  105MPD2    H3 1607   0.075   2.693  17.554 -2.0917 -0.1863  0.2050
  105MPD2     N 1608   4.542   3.074  17.639  0.1759  0.4954 -0.4191
  105MPD2    H5 1609   4.525   3.166  17.599 -0.5295  1.2577  1.6554
  105MPD2    N1 1610   0.224   3.081  17.375  0.3179  0.7617  0.2525
  105MPD2    H7 1611   0.199   3.179  17.371  2.1139  1.2207  0.1050
  106TCq2    C1 1612   4.449   3.030   0.053 -0.1281  0.3581  0.1182
  106TCq2    O2 1613   4.451   2.934   0.129  0.2994 -0.5061 -0.0539
  106TCq2    C2 1614   4.344   3.135   0.080  0.2103 -0.0385 -0.2309
  106TCq2    C3 1615   4.359   3.266   0.048  1.1122  1.0152  0.8021
  106TCq2    C4 1616   4.262   3.350   0.096  0.8299 -0.3608  0.5449
  106TCq2    C5 1617   4.155   3.309   0.179  0.4452  0.9545  0.3817
  106TCq2    C6 1618   4.156   3.172   0.216  0.1540  0.1828  0.1216
  106TCq2    C7 1619   4.252   3.086   0.168 -0.7809  0.0410  0.2816
  106TCq2    C8 1620   4.056   3.121   0.303  0.5115  0.4673  0.1017
  106TCq2    O4 1621   4.020   3.004   0.280 -0.0651  0.5449  0.4219
  106TCq2    C9 1622   4.280   3.490   0.069  0.1134 -0.3529 -0.0204
  106TCq2    O5 1623   4.196   3.557   0.128  0.2222 -0.1658  0.1663
  106TCq2    O6 1624   4.388   3.531   0.020 -0.1013  0.1765  0.3638
  106TCq2    H2 1625   4.442   3.308  17.668 -0.7396  4.0442  0.3272
  106TCq2    H3 1626   4.074   3.374   0.210  0.9101  1.8956 -0.3741
  106TCq2    H4 1627   4.241   2.988   0.212 -0.7003 -0.5844 -1.0817
  107TMC2    C1 1628   1.055   2.142  11.233 -0.5562 -0.1291  0.6582
  107TMC2    C2 1629   1.051   2.155  11.095 -0.1495  0.3980 -0.0610
  107TMC2    C3 1630   1.124   2.060  11.033 -0.4933  0.7224 -0.1248
  107TMC2    C4 1631   1.111   2.034  11.296  0.2607  0.6664 -0.1171
  107TMC2    C5 1632   1.151   1.930  11.219  0.3302  0.8594  0.0872
  107TMC2    C6 1633   1.166   1.945  11.081 -0.0986 -0.3442 -0.1043
  107TMC2     C 1634   0.991   2.245  11.317  0.4784  0.0178  0.2552
  107TMC2     O 1635   1.016   2.227  11.435 -0.5796 -0.2529  0.4436
  107TMC2     H 1636   1.013   2.243  11.044  1.4554 -0.4581 -2.7319
  107TMC2    H1 1637   1.099   2.020  11.403 -0.6810 -3.2138 -0.7403
  107TMC2    H2 1638   1.220   1.871  11.023 -0.6861 -0.2708 -0.7552
  107TMC2    C7 1639   1.216   1.817  11.285  0.7892  0.4520  0.4359
  107TMC2    C8 1640   1.169   2.096  10.901  0.1930  0.4097 -0.7558
  107TMC2    O1 1641   1.172   1.778  11.392  0.1799 -0.0564 -0.1356
  107TMC2    O2 1642   1.102   2.164  10.824  0.1205 -0.0715 -0.1498
  107TMC2    O5 1643   1.287   2.035  10.869 -0.0311  0.6088  0.1929
  107TMC2    H5 1644   1.335   1.997  10.945 -1.3285 -1.7544 -0.1931
  108MPD2     C 1645   0.797   2.527  11.218 -0.2459  0.3726  0.8752
  108MPD2    C1 1646   0.832   2.425  11.301  0.3797 -0.3562  0.7216
  108MPD2    C2 1647   0.787   2.420  11.435  0.5109 -0.9823 -0.3786
  108MPD2    C3 1648   0.707   2.518  11.474 -0.5181  0.7212  0.3212
  108MPD2    C4 1649   0.676   2.618  11.391 -0.3153  0.8747  0.1445
  108MPD2    C5 1650   0.716   2.623  11.261 -0.4439 -0.6796  0.2373
  108MPD2     H 1651   0.819   2.340  11.500  0.9013 -0.2162  0.3737
  108MPD2    H1 1652   0.620   2.707  11.418  1.5359  1.2781  2.6647
  108MPD2    H2 1653   0.837   2.531  11.117  2.0430 -2.2843  1.6743
  108MPD2    H3 1654   0.683   2.706  11.199 -0.6284 -0.4030  0.7045
  108MPD2     N 1655   0.658   2.527  11.602 -0.1941  0.3058 -0.2381
  108MPD2    H5 1656   0.608   2.613  11.624  0.2993  0.0244  2.0748
  108MPD2    N1 1657   0.925   2.340  11.247  0.0034  0.2379  0.5735
  108MPD2    H7 1658   0.953   2.347  11.150 -0.8040  0.7161  0.3831
  109MPD2     C 1659   0.449   3.366   2.098  0.2134 -0.4911  0.1854
  109MPD2    C1 1660   0.415   3.489   2.049  0.3126  0.4191 -0.0884
  109MPD2    C2 1661   0.518   3.575   2.011 -0.1546  0.5734  0.1918
  109MPD2    C3 1662   0.647   3.549   2.050  0.2189  0.3980  0.4892
  109MPD2    C4 1663   0.676   3.418   2.087 -0.4366  0.5401  0.3537
  109MPD2    C5 1664   0.583   3.317   2.104  0.2119  0.2763  0.1232
  109MPD2     H 1665   0.499   3.676   1.978 -0.1260  1.6947  3.5769
  109MPD2    H1 1666   0.779   3.390   2.104  0.2497  3.8071  1.4690
  109MPD2    H2 1667   0.365   3.302   2.125  1.0752 -0.7888  2.2298
  109MPD2    H3 1668   0.609   3.222   2.150 -3.1958 -0.2887  0.8993
  109MPD2     N 1669   0.744   3.652   2.043 -0.3061  0.1713 -0.3580
  109MPD2    H5 1670   0.718   3.734   1.988 -1.2297 -0.9401 -1.6030
  109MPD2    N1 1671   0.284   3.525   2.049 -0.3868  0.0584  0.0205
  109MPD2    H7 1672   0.215   3.451   2.042  0.3154 -0.6413  0.4672
  110TCq2    C1 1673   0.880   3.646   2.077  0.1388 -0.4793 -0.2931
  110TCq2    O2 1674   0.937   3.564   2.150 -0.0401 -0.2538 -0.3729
  110TCq2    C2 1675   0.957   3.764   2.031 -0.3097  1.2010  0.3152
  110TCq2    C3 1676   1.097   3.749   2.027  0.1002 -0.8216 -0.5325
  110TCq2    C4 1677   1.172   3.833   1.952 -1.4617  0.0212 -0.0651
  110TCq2    C5 1678   1.118   3.945   1.903 -0.9754 -0.2896  0.6730
  110TCq2    C6 1679   0.980   3.959   1.906  0.1255  0.5211 -0.0791
  110TCq2    C7 1680   0.896   3.875   1.972  0.6760  0.4969 -0.2504
  110TCq2    C8 1681   0.928   4.089   1.865 -0.4943 -0.6611 -0.1354
  110TCq2    O4 1682   1.003   4.161   1.800  0.7029  0.0709  0.6924
  110TCq2    C9 1683   1.306   3.803   1.948 -0.7847 -0.6207  0.1627
  110TCq2    O5 1684   1.362   3.726   2.036 -0.6820 -0.1504  0.4076
  110TCq2    O6 1685   1.372   3.867   1.859 -0.1538  0.3666 -0.2050
  110TCq2    H2 1686   1.146   3.662   2.071  0.4902 -0.4848 -0.3039
  110TCq2    H3 1687   1.185   4.010   1.849  1.3349 -1.4943  2.0955
  110TCq2    H4 1688   0.791   3.894   1.990  0.8420  2.7165 -1.5852
  111TMC2    C1 1689   0.448   4.615  11.545  0.5885  1.1139 -0.1769
  111TMC2    C2 1690   0.360   4.556  11.633 -0.1945  0.0433  0.0616
  111TMC2    C3 1691   0.417   4.486  11.740 -0.7074 -0.5603 -0.3512
  111TMC2    C4 1692   0.584   4.592  11.555  0.8634  0.1937 -0.3229
  111TMC2    C5 1693   0.630   4.524  11.661 -0.2213  0.3043 -0.0255
  111TMC2    C6 1694   0.546   4.464  11.753 -0.0731 -0.2598  0.0021
  111TMC2     C 1695   0.389   4.691  11.433  0.2257 -0.3847  0.2012
  111TMC2     O 1696   0.457   4.712  11.336  0.6997  0.3234 -0.3799
  111TMC2     H 1697   0.253   4.554  11.618 -0.3997  3.0903  1.1526
  111TMC2    H1 1698   0.652   4.633  11.482  1.2353  1.7525  0.8930
  111TMC2    H2 1699   0.572   4.396  11.832 -1.8983 -0.3102  0.5692
  111TMC2    C7 1700   0.765   4.533  11.708  0.8697  0.8269  0.3102
  111TMC2    C8 1701   0.333   4.436  11.850  0.5951 -0.8084 -0.0970
  111TMC2    O1 1702   0.788   4.560  11.824  0.3067  0.5360  0.0757
  111TMC2    O2 1703   0.353   4.328  11.903 -0.3416  0.6025 -0.1539
  111TMC2    O5 1704   0.306   4.541  11.926 -0.1209  0.4659  1.3006
  111TMC2    H5 1705   0.304   4.627  11.878  2.2806 -0.8642 -1.1547
  112MPD2     C 1706   0.059   0.323  11.260  0.2267  0.1395  0.5858
  112MPD2    C1 1707   0.149   0.248  11.192 -0.3796 -0.0885  0.2076
  112MPD2    C2 1708   0.215   0.151  11.262 -0.1172 -0.3878  1.0247
  112MPD2    C3 1709   0.198   0.128  11.398  0.3002  0.0201 -0.0485
  112MPD2    C4 1710   0.105   0.200  11.461 -1.2797  0.4426  0.3396
  112MPD2    C5 1711   0.033   0.292  11.389 -0.1792  0.3684 -0.2261
  112MPD2     H 1712   0.275   0.087  11.198  1.0996  0.9595  0.8042
  112MPD2    H1 1713   0.092   0.192  11.568 -1.1811 -0.5401  0.2841
  112MPD2    H2 1714   0.006   0.404  11.212 -0.2872  1.1139  2.8330
  112MPD2    H3 1715   4.672   0.347  11.439 -0.8686 -1.0937  0.2982
  112MPD2     N 1716   0.283   0.040  11.475 -0.7448 -0.0515  0.8724
  112MPD2    H5 1717   0.265   0.041  11.575 -1.4570  3.6495  0.7344
  112MPD2    N1 1718   0.178   0.274  11.054  0.4235 -0.8653  0.2511
  112MPD2    H7 1719   0.237   0.200  11.018  1.6719  0.5849 -0.7031
  113MPD2     C 1720   3.215   3.540   0.868 -0.2882 -0.3936 -0.4342
  113MPD2    C1 1721   3.218   3.443   0.961 -0.2161 -0.6958  0.6380
  113MPD2    C2 1722   3.177   3.319   0.918  0.1684 -0.2526 -0.6613
  113MPD2    C3 1723   3.134   3.289   0.795 -0.4693 -0.7200 -0.8237
  113MPD2    C4 1724   3.137   3.394   0.705 -0.0120  0.3566  0.3755
  113MPD2    C5 1725   3.175   3.518   0.741  0.0343  0.5981 -0.2650
  113MPD2     H 1726   3.171   3.247   0.999 -2.2281  0.1370 -0.4776
  113MPD2    H1 1727   3.139   3.378   0.598 -0.5134  1.1754  0.2448
  113MPD2    H2 1728   3.238   3.643   0.896  1.6481 -1.0772  0.4914
  113MPD2    H3 1729   3.177   3.596   0.665  0.3415  0.2365 -0.6309
  113MPD2     N 1730   3.101   3.159   0.744 -0.0374 -0.0895  0.6780
  113MPD2    H5 1731   3.082   3.140   0.646  1.4735  2.9430 -0.1925
  113MPD2    N1 1732   3.258   3.467   1.097  0.3787  0.4245 -0.3600
  113MPD2    H7 1733   3.275   3.384   1.152 -1.5002 -0.5176 -1.2422
  114TCq2    C1 1734   3.115   3.051   0.830 -0.1122 -0.2363  0.5083
  114TCq2    O2 1735   3.093   3.036   0.951 -0.4451 -0.5340  0.0237
  114TCq2    C2 1736   3.126   2.925   0.758  0.1065 -0.6076 -0.3468
  114TCq2    C3 1737   3.163   2.933   0.625 -0.4873  0.4993 -0.1654
  114TCq2    C4 1738   3.157   2.824   0.543 -0.1326  0.1452  0.5707
  114TCq2    C5 1739   3.098   2.715   0.589  0.4967  0.3494  0.0561
  114TCq2    C6 1740   3.066   2.706   0.723  0.0730 -0.3046 -1.0583
  114TCq2    C7 1741   3.077   2.811   0.810  0.1209 -0.8535 -0.2858
  114TCq2    C8 1742   2.984   2.590   0.761  0.6263  0.3928 -0.8846
  114TCq2    O4 1743   2.901   2.549   0.681 -0.3235 -0.2839  0.0262
  114TCq2    C9 1744   3.218   2.835   0.409  0.3937 -0.3594 -0.4477
  114TCq2    O5 1745   3.259   2.944   0.365 -0.3567 -0.1704 -0.1421
  114TCq2    O6 1746   3.235   2.728   0.349  0.0093  0.9760  0.2370
  114TCq2    H2 1747   3.227   3.014   0.593 -0.2634  0.5234  0.3339
  114TCq2    H3 1748   3.096   2.623   0.531  2.7637  1.1914 -1.3643
  114TCq2    H4 1749   3.042   2.801   0.911  0.2926  3.6718  0.2403
  115TMC2    C1 1750   4.627   0.329  17.575  0.1118 -0.2104  0.2989
  115TMC2    C2 1751   0.027   0.264  17.562 -0.1549  0.0113  0.0197
  115TMC2    C3 1752   0.139   0.340  17.544  0.1708  0.5924 -0.0747
  115TMC2    C4 1753   4.624   0.464  17.560 -0.1494  0.5346 -0.3723
  115TMC2    C5 1754   0.020   0.535  17.529  0.1960 -0.1870  0.2803
  115TMC2    C6 1755   0.138   0.473  17.523  0.4363 -0.2497 -0.2083
  115TMC2     C 1756   4.512   0.249  17.573  0.3078 -0.3401  0.2234
  115TMC2     O 1757   4.527   0.128  17.585  0.2789  0.4478  0.1983
  115TMC2     H 1758   0.033   0.156  17.565  0.9317  0.1622  3.1136
  115TMC2    H1 1759   4.531   0.517  17.575  0.2580  1.9670 -2.9970
  115TMC2    H2 1760   0.224   0.515  17.472  0.9082 -0.2076  0.6151
  115TMC2    C7 1761   0.011   0.660  17.449  0.5654 -0.3627  0.2647
  115TMC2    C8 1762   0.256   0.264  17.524 -1.0933 -0.2891 -0.4073
  115TMC2    O1 1763   0.119   0.708  17.416 -0.1166 -0.4304 -0.0743
  115TMC2    O2 1764   0.261   0.170  17.445  0.1802  0.5386  0.3029
  115TMC2    O5 1765   0.360   0.312  17.589  0.3511  0.4230  0.4738
  115TMC2    H5 1766   0.327   0.383  17.648  0.9598  2.0481 -1.1629
  116MPD2     C 1767   4.006   0.163  17.517  0.1493 -0.6017  0.4296
  116MPD2    C1 1768   4.110   0.082  17.474 -0.3847 -0.5891  0.0888
  116MPD2    C2 1769   4.239   0.129  17.498 -0.5936  0.1790 -1.1796
  116MPD2    C3 1770   4.266   0.258  17.544  0.1319 -0.7807  0.6065
  116MPD2    C4 1771   4.159   0.334  17.580  0.4688 -0.1942 -0.2473
  116MPD2    C5 1772   4.031   0.285  17.565  0.2061 -0.0397  0.0485
  116MPD2     H 1773   4.323   0.070  17.464  0.6648  2.0145 -1.2493
  116MPD2    H1 1774   4.157   0.442  17.591 -1.1191  0.0016 -2.5017
  116MPD2    H2 1775   3.904   0.140  17.487  0.7703 -2.3042 -0.3898
  116MPD2    H3 1776   3.944   0.349  17.579 -0.1040 -0.5209  0.2979
  116MPD2     N 1777   4.395   0.319  17.550  0.2818 -0.2451 -0.4399
  116MPD2    H5 1778   4.398   0.420  17.556  3.2242 -0.3335 -0.4597
  116MPD2    N1 1779   4.071   4.673  17.414  0.0445 -0.4694  0.1521
  116MPD2    H7 1780   3.973   4.648  17.401 -0.9744  2.8580  1.3251
  117TMC2    C1 1781   2.608   2.074  14.095 -0.2784 -0.1840  0.1448
  117TMC2    C2 1782   2.595   2.027  14.225  0.1465  0.5175  0.1836
  117TMC2    C3 1783   2.715   1.989  14.282  0.0569  0.2366 -0.1925
  117TMC2    C4 1784   2.731   2.085  14.031 -0.1361 -0.5417  0.3439
  117TMC2    C5 1785   2.841   2.050  14.100 -0.2754 -0.1984  0.1629
  117TMC2    C6 1786   2.831   1.988  14.213 -0.0822 -0.4587 -0.4331
  117TMC2     C 1787   2.491   2.130  14.027 -0.0322 -0.0868 -0.4410
  117TMC2     O 1788   2.501   2.156  13.905  0.4947 -0.0482  0.1195
  117TMC2     H 1789   2.503   2.017  14.280  0.1325 -0.8911 -0.1009
  117TMC2    H1 1790   2.735   2.111  13.926 -0.3127  0.8748  0.6802
  117TMC2    H2 1791   2.927   1.963  14.257  0.7034  1.5736 -1.0023
  117TMC2    C7 1792   2.972   2.079  14.032 -0.2281 -0.2697 -0.3756
  117TMC2    C8 1793   2.703   1.910  14.401  0.1279  0.1398 -1.2341
  117TMC2    O1 1794   2.965   2.141  13.928  0.2166  0.0359 -0.6269
  117TMC2    O2 1795   2.621   1.819  14.395  0.1928 -0.4298  0.0843
  117TMC2    O5 1796   2.831   1.910  14.452  0.0704  0.5831  0.1359
  117TMC2    H5 1797   2.894   1.979  14.422  0.5006 -0.1064 -0.5598
  118MPD2     C 1798   3.317   1.996  14.116 -0.4057  0.4042  0.0105
  118MPD2    C1 1799   3.219   2.049  14.047  0.1758  0.3429 -0.7355
  118MPD2    C2 1800   3.255   2.123  13.936  0.2841 -0.1071 -0.0249
  118MPD2    C3 1801   3.383   2.153  13.908 -0.6940 -0.0165  0.8324
  118MPD2    C4 1802   3.484   2.100  13.986 -0.1282  0.1332 -0.3777
  118MPD2    C5 1803   3.449   2.022  14.092  0.3781  0.3744 -0.3884
  118MPD2     H 1804   3.172   2.165  13.881  1.2420 -1.0972 -2.2475
  118MPD2    H1 1805   3.587   2.128  13.969 -0.3437  1.3499  0.3217
  118MPD2    H2 1806   3.290   1.927  14.195 -0.3856 -1.4122 -1.5622
  118MPD2    H3 1807   3.520   1.975  14.158 -0.0497  1.7981  1.1008
  118MPD2     N 1808   3.428   2.250  13.818  0.4864  0.0048  0.0918
  118MPD2    H5 1809   3.528   2.251  13.803  0.2088  2.3357 -1.6729
  118MPD2    N1 1810   3.085   2.025  14.086 -0.1433 -0.5345  0.6275
  118MPD2    H7 1811   3.068   1.959  14.161  0.2489 -0.7709  0.5104
  119MPD2     C 1812   1.789   3.630  14.059 -0.3408  0.4710 -0.0398
  119MPD2    C1 1813   1.664   3.588  14.025  0.9594 -0.5406 -0.7893
  119MPD2    C2 1814   1.647   3.572  13.888  0.6736 -0.0732 -1.2235
  119MPD2    C3 1815   1.745   3.575  13.795 -0.4532  0.1933 -0.0873
  119MPD2    C4 1816   1.874   3.612  13.833 -0.2283 -0.3214 -0.6760
  119MPD2    C5 1817   1.891   3.636  13.968  0.0862 -0.1834 -0.4251
  119MPD2     H 1818   1.548   3.548  13.852  0.3233 -1.8164  0.9067
  119MPD2    H1 1819   1.955   3.617  13.762 -0.6454  4.7678 -0.7617
  119MPD2    H2 1820   1.808   3.657  14.162  0.6504 -1.8789  0.3912
  119MPD2    H3 1821   1.990   3.671  13.995  0.2021  0.5352 -1.7871
  119MPD2     N 1822   1.720   3.554  13.660  0.1365 -0.5108  0.2525
  119MPD2    H5 1823   1.787   3.596  13.596 -1.4492  0.4938 -0.7502
  119MPD2    N1 1824   1.569   3.579  14.130 -0.1028 -0.5840  0.0069
  119MPD2    H7 1825   1.608   3.563  14.222 -0.0682  0.5148  0.1896
  120TCq2    C1 1826   1.617   3.481  13.618 -0.5803  0.9820  0.3428
  120TCq2    O2 1827   1.554   3.402  13.687 -0.0605  0.3791 -0.0987
  120TCq2    C2 1828   1.609   3.475  13.474  0.2636 -0.4651  0.8082
  120TCq2    C3 1829   1.666   3.562  13.390 -0.3563  0.6476  0.2905
  120TCq2    C4 1830   1.643   3.549  13.254 -0.1608  0.0833 -0.4365
  120TCq2    C5 1831   1.541   3.470  13.211  0.3609 -0.1523  0.4112
  120TCq2    C6 1832   1.481   3.382  13.297  0.3645 -0.1889  0.6704
  120TCq2    C7 1833   1.518   3.384  13.429  0.2615  0.2103 -0.8391
  120TCq2    C8 1834   1.358   3.315  13.267 -0.1675  0.6349  0.3137
  120TCq2    O4 1835   1.344   3.273  13.150 -0.0479  0.6018 -0.4770
  120TCq2    C9 1836   1.684   3.654  13.166 -0.4731  0.7235 -0.2902
  120TCq2    O5 1837   1.689   3.626  13.046  0.6368  0.8228 -0.2044
  120TCq2    O6 1838   1.759   3.746  13.206 -0.4424 -0.7592 -0.2806
  120TCq2    H2 1839   1.736   3.636  13.427 -0.0910  0.5445  0.0036
  120TCq2    H3 1840   1.511   3.478  13.107 -1.3299 -2.5919  0.7020
  120TCq2    H4 1841   1.471   3.315  13.498  1.4037  1.2866  0.9992
  121TMC2    C1 1842   2.923   0.234  14.121  0.1470  0.0027  0.0026
  121TMC2    C2 1843   2.947   0.115  14.048  0.0047 -0.0877 -0.3060
  121TMC2    C3 1844   2.835   0.042  14.017  0.0747 -0.4548  0.2079
  121TMC2    C4 1845   2.807   0.272  14.177 -0.5966  0.1076  0.2166
  121TMC2    C5 1846   2.699   0.210  14.119  0.6485  0.7987  0.0715
  121TMC2    C6 1847   2.713   0.097  14.041 -0.1071  0.4541  0.3445
  121TMC2     C 1848   3.030   0.326  14.137  0.3170 -0.3374  0.2762
  121TMC2     O 1849   3.030   0.396  14.240 -0.2631 -0.2593 -0.1777
  121TMC2     H 1850   3.043   0.089  14.005 -0.5125  1.4967 -2.4260
  121TMC2    H1 1851   2.798   0.368  14.228 -0.2693  0.6843 -0.8159
  121TMC2    H2 1852   2.623   0.055  13.998 -0.7839  1.8671  0.3913
  121TMC2    C7 1853   2.593   0.306  14.088 -0.3914 -0.5363 -0.2068
  121TMC2    C8 1854   2.853   4.631  13.945 -0.4493 -0.2713 -0.0703
  121TMC2    O1 1855   2.631   0.424  14.073  0.6410 -0.2808 -0.4233
  121TMC2    O2 1856   2.959   4.587  13.900  0.1907  0.3571  0.0251
  121TMC2    O5 1857   2.745   4.556  13.993 -0.4282 -0.0047  0.3241
  121TMC2    H5 1858   2.691   4.604  14.059 -2.7307 -1.1255 -0.7647
  122MPD2     C 1859   3.211   0.561  14.089 -0.5846 -0.6545 -0.7804
  122MPD2    C1 1860   3.165   0.479  13.991  0.2484 -0.4673 -0.0775
  122MPD2    C2 1861   3.191   0.514  13.857 -0.1173  0.2550 -0.5295
  122MPD2    C3 1862   3.252   0.637  13.827  0.4688  0.0617 -0.7161
  122MPD2    C4 1863   3.285   0.724  13.930  0.2127 -0.5266  0.7039
  122MPD2    C5 1864   3.265   0.682  14.055  0.0041  0.7620  0.2935
  122MPD2     H 1865   3.143   0.464  13.773  2.0381 -1.6078 -0.6431
  122MPD2    H1 1866   3.345   0.812  13.913 -1.6384  0.5632 -0.1883
  122MPD2    H2 1867   3.201   0.532  14.193  1.3113  0.4735 -0.2901
  122MPD2    H3 1868   3.311   0.743  14.133  0.7815  1.5431 -0.7821
  122MPD2     N 1869   3.286   0.663  13.698  0.5578  0.3113 -0.2866
  122MPD2    H5 1870   3.292   0.759  13.668 -2.1387  0.2231 -1.1179
  122MPD2    N1 1871   3.089   0.364  14.020 -0.0555 -0.0109  0.4286
  122MPD2    H7 1872   3.070   0.309  13.937 -0.0929 -2.4238  2.0359
  123MPD2     C 1873   0.293   1.744   9.433 -0.1362 -0.1972 -0.7948
  123MPD2    C1 1874   0.330   1.844   9.520  0.1254  0.0729 -0.1008
  123MPD2    C2 1875   0.320   1.977   9.482  0.3256  0.2088  0.3948
  123MPD2    C3 1876   0.269   2.012   9.360  0.1151 -0.3210  0.2372
  123MPD2    C4 1877   0.221   1.909   9.277 -0.2808  0.1870 -0.4173
  123MPD2    C5 1878   0.235   1.779   9.311  0.6402 -0.8132 -0.2119
  123MPD2     H 1879   0.350   2.064   9.539  0.9814  0.4514 -0.3231
  123MPD2    H1 1880   0.180   1.925   9.179  0.9416  1.0707 -0.7831
  123MPD2    H2 1881   0.284   1.642   9.468  1.6895  0.1417  0.6672
  123MPD2    H3 1882   0.213   1.691   9.251 -1.9124  0.7590 -1.6115
  123MPD2     N 1883   0.270   2.151   9.329 -0.2422  0.0313  0.1824
  123MPD2    H5 1884   0.308   2.218   9.395 -2.4118  0.3748  1.0701
  123MPD2    N1 1885   0.378   1.806   9.645 -0.5608 -0.9887  0.2136
  123MPD2    H7 1886   0.378   1.706   9.663 -3.3716 -0.4858  2.9413
  124TCq2    C1 1887   0.225   2.200   9.210  0.4656 -0.0531 -0.8043
  124TCq2    O2 1888   0.166   2.156   9.114  0.0239 -0.1148 -0.0762
  124TCq2    C2 1889   0.289   2.325   9.183 -0.0336 -0.3173 -0.6896
  124TCq2    C3 1890   0.239   2.391   9.080  1.2059  0.5386  0.1104
  124TCq2    C4 1891   0.319   2.478   9.008  0.0478  0.0050  0.6375
  124TCq2    C5 1892   0.445   2.517   9.054  0.0385  0.0481  0.8485
  124TCq2    C6 1893   0.490   2.450   9.167 -0.0480  0.0390  0.5985
  124TCq2    C7 1894   0.420   2.342   9.216 -0.0236  0.3596  0.8418
  124TCq2    C8 1895   0.627   2.452   9.209  0.2560 -0.0672  0.6466
  124TCq2    O4 1896   0.669   2.373   9.287 -0.8209 -0.2235  0.4819
  124TCq2    C9 1897   0.265   2.561   8.909  0.4959  0.0601 -0.1641
  124TCq2    O5 1898   0.319   2.677   8.898  0.4873  0.5753  0.2712
  124TCq2    O6 1899   0.159   2.524   8.847 -0.1408  0.3200 -0.1209
  124TCq2    H2 1900   0.144   2.377   9.030  0.8406 -0.1457  0.9896
  124TCq2    H3 1901   0.495   2.603   9.011 -1.2575  1.2466  1.7420
  124TCq2    H4 1902   0.465   2.264   9.277  2.7272  0.0333 -1.6071
  125TMC2    C1 1903   1.991   3.441   9.291  0.3618  0.4590 -0.1020
  125TMC2    C2 1904   1.913   3.508   9.192 -0.2203  0.0089 -0.0360
  125TMC2    C3 1905   1.966   3.623   9.140 -0.1671 -0.6680 -0.1972
  125TMC2    C4 1906   2.106   3.491   9.339 -0.5514  0.6273 -0.2123
  125TMC2    C5 1907   2.152   3.607   9.282 -0.4854 -0.1968  0.4423
  125TMC2    C6 1908   2.088   3.678   9.187  0.7949  0.8545  0.7314
  125TMC2     C 1909   1.919   3.339   9.363 -0.3887  0.2730  0.0928
  125TMC2     O 1910   1.837   3.273   9.304 -0.3084 -0.1376  0.1351
  125TMC2     H 1911   1.810   3.487   9.167 -0.4661  1.3791 -0.1685
  125TMC2    H1 1912   2.166   3.442   9.415  1.2433  0.7634 -1.5380
  125TMC2    H2 1913   2.134   3.766   9.143  1.2422  1.1214  1.7430
  125TMC2    C7 1914   2.273   3.656   9.349  0.8733  0.1298 -0.2322
  125TMC2    C8 1915   1.911   3.692   9.023 -0.6779 -0.5527  0.5231
  125TMC2    O1 1916   2.313   3.611   9.456 -0.6244 -0.3226  0.3998
  125TMC2    O2 1917   1.843   3.641   8.938 -0.2581 -0.5339  0.0235
  125TMC2    O5 1918   1.883   3.814   9.073 -0.4136  0.0190 -0.1668
  125TMC2    H5 1919   1.925   3.825   9.161  1.8147 -1.9782 -1.0047
  126MPD1     C 1920   1.866   3.100   9.806 -0.4235  0.1972  0.1628
  126MPD1    C1 1921   1.908   3.228   9.835  0.0631 -1.0697  0.4207
  126MPD1    C2 1922   1.918   3.311   9.724  0.5982  0.4018  0.0895
  126MPD1    C3 1923   1.912   3.261   9.596 -0.1509  0.4141  0.1680
  126MPD1    C4 1924   1.896   3.125   9.580  0.0268  0.3811  0.0158
  126MPD1    C5 1925   1.871   3.046   9.684 -0.1180 -0.7239 -0.1193
  126MPD1     H 1926   1.946   3.415   9.736 -0.1964  0.3837  2.1055
  126MPD1    H1 1927   1.890   3.078   9.483 -1.6114 -0.0355  0.3198
  126MPD1    H2 1928   1.839   3.032   9.886 -0.7057  1.6675  1.3204
  126MPD1    H3 1929   1.851   2.941   9.666  0.1455 -0.3401 -2.7693
  126MPD1     N 1930   1.940   3.360   9.498  0.1655  0.1223  0.1337
  126MPD1    H5 1931   1.974   3.450   9.529  2.1953 -1.2651  1.9714
  126MPD1    N1 1932   1.898   3.267   9.968 -0.3076  0.3178  0.0782
  126MPD1    H6 1933   1.909   3.195  10.038  2.5078 -0.6887 -1.3855
  126MPD1    H7 1934   1.972   3.336   9.982 -0.8186  0.8792  0.0115
  127MPD2     C 1935   3.325   3.296   9.223  0.0510 -0.1258 -0.1698
  127MPD2    C1 1936   3.334   3.273   9.362  0.0272 -0.4497  0.1084
  127MPD2    C2 1937   3.390   3.372   9.441  0.5366 -0.0081 -0.4358
  127MPD2    C3 1938   3.415   3.497   9.402 -0.2431  0.4839 -0.5521
  127MPD2    C4 1939   3.407   3.519   9.268 -0.1001 -0.2767  0.4083
  127MPD2    C5 1940   3.369   3.418   9.177 -0.0765  0.1092  0.0618
  127MPD2     H 1941   3.376   3.361   9.548 -2.3048 -1.1083 -0.9290
  127MPD2    H1 1942   3.444   3.611   9.224 -3.0890 -0.0955 -1.8114
  127MPD2    H2 1943   3.272   3.229   9.156  1.1523 -0.5138 -0.6565
  127MPD2    H3 1944   3.377   3.436   9.070  1.2522 -0.6650  0.0319
  127MPD2     N 1945   3.446   3.598   9.495  0.2664 -0.5432  0.7546
  127MPD2    H5 1946   3.469   3.570   9.590  0.5939 -0.6572  0.6417
  127MPD2    N1 1947   3.265   3.159   9.405 -0.0308 -0.3862 -0.2157
  127MPD2    H7 1948   3.217   3.103   9.335 -1.2664 -0.0648  0.3733
  128TCq2    C1 1949   3.261   3.112   9.533 -0.1366  0.2235  0.7731
  128TCq2    O2 1950   3.322   3.148   9.630 -0.2607 -0.4274  0.2812
  128TCq2    C2 1951   3.171   3.001   9.549 -0.2080 -0.1046  0.2426
  128TCq2    C3 1952   3.188   2.940   9.674 -0.3237 -0.5422 -0.1798
  128TCq2    C4 1953   3.092   2.854   9.719 -0.5223  1.0863 -0.5617
  128TCq2    C5 1954   2.976   2.846   9.650 -0.7464 -0.2941  0.7805
  128TCq2    C6 1955   2.954   2.922   9.540  0.8120 -0.3245 -0.0898
  128TCq2    C7 1956   3.049   2.994   9.485  0.4765  0.1670 -0.0017
  128TCq2    C8 1957   2.837   2.910   9.459  0.6362 -0.0899  0.6987
  128TCq2    O4 1958   2.812   3.005   9.388  0.2069 -0.3499  0.5905
  128TCq2    C9 1959   3.110   2.784   9.845 -0.0949  0.0951  0.3942
  128TCq2    O5 1960   3.029   2.693   9.872  0.3930 -0.0128  0.3671
  128TCq2    O6 1961   3.191   2.830   9.933 -0.0996  0.3423 -0.3278
  128TCq2    H2 1962   3.281   2.953   9.729 -1.1849  1.7804  0.7366
  128TCq2    H3 1963   2.891   2.804   9.703 -1.6520  0.8244  0.2182
  128TCq2    H4 1964   3.030   3.057   9.399  0.7985 -0.4756 -0.5536
  129MPD2     C 1965   0.645   4.491   1.296 -0.4685 -0.1692 -0.3955
  129MPD2    C1 1966   0.779   4.448   1.288 -0.2588  0.0414 -0.1785
  129MPD2    C2 1967   0.873   4.529   1.231  0.0326 -0.5119  0.3883
  129MPD2    C3 1968   0.846   4.660   1.193 -0.1821 -0.4128  0.6002
  129MPD2    C4 1969   0.709   4.695   1.204 -0.9706 -0.7886  0.3396
  129MPD2    C5 1970   0.609   4.608   1.247 -0.8663  0.0169  0.3373
  129MPD2     H 1971   0.976   4.492   1.232 -0.1448 -1.0305 -1.4103
  129MPD2    H1 1972   0.682   0.079   1.181 -1.8085 -1.0125  0.3277
  129MPD2    H2 1973   0.569   4.440   1.354  0.2156 -2.2268 -1.3030
  129MPD2    H3 1974   0.511   4.650   1.267 -0.5933  0.0664  1.5771
  129MPD2     N 1975   0.960   0.027   1.150 -0.0287  0.5984 -0.3431
  129MPD2    H5 1976   1.051   4.703   1.134 -0.6705 -0.5127 -1.1041
  129MPD2    N1 1977   0.828   4.323   1.332 -0.1257  0.4646  0.1368
  129MPD2    H7 1978   0.927   4.304   1.319 -0.1379  0.1105  0.5444
  130TCq2    C1 1979   0.765   4.243   1.416 -0.1014 -0.0817 -0.7907
  130TCq2    O2 1980   0.649   4.243   1.457 -0.1661 -0.1604 -0.0432
  130TCq2    C2 1981   0.857   4.145   1.464 -0.2388 -0.3788 -0.3338
  130TCq2    C3 1982   0.994   4.148   1.433  0.1630 -0.2435 -0.9916
  130TCq2    C4 1983   1.063   4.036   1.457  0.1138 -0.6917  0.5640
  130TCq2    C5 1984   1.011   3.928   1.519  0.1399  0.7745  0.2234
  130TCq2    C6 1985   0.877   3.931   1.551 -0.5139 -0.1358 -0.4842
  130TCq2    C7 1986   0.804   4.037   1.524 -0.4093  0.2063 -0.1733
  130TCq2    C8 1987   0.811   3.807   1.612  0.1417 -0.1520  0.8148
  130TCq2    O4 1988   0.690   3.801   1.617 -0.1591 -0.0370 -0.3537
  130TCq2    C9 1989   1.200   4.020   1.415  0.8237 -0.1728 -0.8080
  130TCq2    O5 1990   1.234   4.105   1.326 -0.0961 -0.1873 -0.1084
  130TCq2    O6 1991   1.266   3.917   1.444  0.0728  0.3849 -0.0024
  130TCq2    H2 1992   1.054   4.235   1.409  0.7363 -0.0142  1.2293
  130TCq2    H3 1993   1.067   3.835   1.523  0.3239  0.8283 -0.9166
  130TCq2    H4 1994   0.698   4.039   1.548 -0.8455 -0.9902 -1.9540
  131MPD2     C 1995   1.187   2.123  10.154  0.2064 -0.2096  0.1136
  131MPD2    C1 1996   1.132   2.150  10.032  0.5229 -0.6416  0.0834
  131MPD2    C2 1997   1.009   2.099  10.007  0.7000 -0.3843 -0.5823
  131MPD2    C3 1998   0.944   1.999  10.088  0.3120 -0.7113 -0.4329
  131MPD2    C4 1999   1.027   1.948  10.190 -0.0416 -0.1733  0.5161
  131MPD2    C5 2000   1.136   2.021  10.229 -0.4193 -0.0533 -0.5120
  131MPD2     H 2001   0.956   2.131   9.918  2.0272  0.2790 -1.1226
  131MPD2    H1 2002   0.985   1.890  10.271  0.2597  1.2997  1.7113
  131MPD2    H2 2003   1.268   2.179  10.198  0.0228  0.5868 -0.5600
  131MPD2    H3 2004   1.197   1.999  10.316  1.6110  1.0918 -1.6662
  131MPD2     N 2005   0.815   1.952  10.052  0.7516 -0.2595  0.2492
  131MPD2    H5 2006   0.784   1.983   9.961 -0.6558 -0.9413  0.4998
  131MPD2    N1 2007   1.198   2.254   9.963 -0.5991  0.1315  0.2476
  131MPD2    H7 2008   1.278   2.304  10.001 -0.8022  1.2032 -0.7548
  132TCq2    C1 2009   1.614   2.404   9.773 -1.1012 -0.7821  0.3510
  132TCq2    O2 2010   1.636   2.312   9.844 -0.0980  0.1744  0.4225
  132TCq2    C2 2011   1.476   2.429   9.732 -0.3250  0.1713 -0.6662
  132TCq2    C3 2012   1.434   2.532   9.650 -0.0483  0.1187 -0.0844
  132TCq2    C4 2013   1.304   2.569   9.643 -0.0463 -0.4112 -0.4975
  132TCq2    C5 2014   1.206   2.494   9.701  0.1722 -0.3063 -0.5585
  132TCq2    C6 2015   1.250   2.395   9.783  0.0912  0.1764  0.0616
  132TCq2    C7 2016   1.381   2.360   9.800 -0.0465  0.0461  0.5998
  132TCq2    C8 2017   1.150   2.304   9.846 -0.1234  1.1031 -0.4590
  132TCq2    O4 2018   1.041   2.292   9.789  0.7479 -0.0771  0.0891
  132TCq2    C9 2019   1.273   2.684   9.565 -0.0716 -0.1250  0.2118
  132TCq2    O5 2020   1.160   2.733   9.584 -0.0383 -0.2534  0.3170
  132TCq2    O6 2021   1.363   2.736   9.492 -0.1894  0.4283  0.0100
  132TCq2    H2 2022   1.505   2.596   9.600 -0.4255 -0.0102 -0.7967
  132TCq2    H3 2023   1.105   2.527   9.722  0.1945 -0.6448  0.0842
  132TCq2    H4 2024   1.410   2.275   9.860  0.7595  0.9752  1.5400
  133MPD2     C 2025   4.561   2.407   9.215 -0.1398  0.2245  0.0709
  133MPD2    C1 2026   4.632   2.385   9.328  0.3659  0.4143 -0.3293
  133MPD2    C2 2027   4.718   2.486   9.379  0.5871 -0.0467 -0.8500
  133MPD2    C3 2028   0.004   2.607   9.309  0.4453 -0.3478 -0.0774
  133MPD2    C4 2029   4.655   2.619   9.188  0.6268 -0.2971  0.3741
  133MPD2    C5 2030   4.577   2.519   9.141  0.0255 -0.3910  0.0623
  133MPD2     H 2031   0.046   2.477   9.477  0.5659  0.8196 -0.7601
  133MPD2    H1 2032   4.676   2.700   9.119  0.3378 -0.8339 -0.3462
  133MPD2    H2 2033   4.491   2.333   9.177 -0.8300  0.4147  0.9589
  133MPD2    H3 2034   4.520   2.526   9.049  0.2634 -1.8607 -0.1853
  133MPD2     N 2035   0.085   2.714   9.340  0.2846  0.0342 -0.1486
  133MPD2    H5 2036   0.082   2.791   9.274 -0.7700  1.3591  1.4378
  133MPD2    N1 2037   4.625   2.252   9.386  0.0877 -0.6020  0.4312
  133MPD2    H7 2038   4.557   2.191   9.341 -0.1459 -0.4793  0.6206
  134TCq2    C1 2039   4.683   2.208   9.504 -0.3105  0.3735 -0.4312
  134TCq2    O2 2040   0.006   2.266   9.601  0.0908 -0.3195 -0.0013
  134TCq2    C2 2041   4.657   2.063   9.535  0.2928 -0.0675  0.6906
  134TCq2    C3 2042   4.598   1.991   9.436  0.2232  0.1912  0.0397
  134TCq2    C4 2043   4.580   1.862   9.469  0.4394 -0.1625 -0.7504
  134TCq2    C5 2044   4.621   1.808   9.589 -0.7430 -0.0502 -0.1967
  134TCq2    C6 2045   4.687   1.886   9.680  0.2897  0.3388 -0.4164
  134TCq2    C7 2046   4.714   2.016   9.653  1.1847  0.4753 -0.4860
  134TCq2    C8 2047   0.027   1.843   9.802  0.5926 -0.5340  0.2605
  134TCq2    O4 2048   0.077   1.929   9.873 -0.0839 -0.0930 -0.3088
  134TCq2    C9 2049   4.521   1.777   9.366  0.8290  0.3483  1.0489
  134TCq2    O5 2050   4.489   1.834   9.256 -0.0012 -0.4548  0.3950
  134TCq2    O6 2051   4.512   1.651   9.391 -0.6040 -0.1471  0.1586
  134TCq2    H2 2052   4.575   2.032   9.338 -2.2042  0.1825  0.5966
  134TCq2    H3 2053   4.616   1.700   9.600 -3.1707 -0.0760 -1.4422
  134TCq2    H4 2054   0.039   2.091   9.718 -0.2646 -0.0386  1.0660
  135MPD2     C 2055   2.285   4.342   8.807  0.7022 -0.2799  0.7940
  135MPD2    C1 2056   2.351   4.379   8.925  0.0178 -0.4894  0.3998
  135MPD2    C2 2057   2.438   4.486   8.927  0.1154  0.1000 -0.4616
  135MPD2    C3 2058   2.472   4.546   8.808 -0.2861 -0.4696 -0.2794
  135MPD2    C4 2059   2.409   4.516   8.690  0.0619 -0.3404  0.1452
  135MPD2    C5 2060   2.318   4.413   8.691 -0.4695  0.6385 -0.5564
  135MPD2     H 2061   2.484   4.517   9.020  0.0500 -1.9081  0.2397
  135MPD2    H1 2062   2.443   4.560   8.597  0.6307  1.2757  1.1023
  135MPD2    H2 2063   2.197   4.279   8.802  0.1324  0.4911  1.1006
  135MPD2    H3 2064   2.272   4.373   8.601 -0.4430 -2.4798  0.8266
  135MPD2     N 2065   2.579   4.629   8.799 -0.8176 -0.5367  0.5846
  135MPD2    H5 2066   2.584   4.691   8.719  3.0723 -1.0995  0.3687
  135MPD2    N1 2067   2.308   4.323   9.047  0.3695 -0.4102  0.2335
  135MPD2    H7 2068   2.327   4.374   9.133 -1.9630  1.0751 -0.1237
  136TCq2    C1 2069   2.250   4.197   9.062 -0.4091 -0.5238 -0.2069
  136TCq2    O2 2070   2.210   4.120   8.978 -0.2180  0.4269  0.0665
  136TCq2    C2 2071   2.238   4.156   9.201 -0.3141 -0.2889  0.0076
  136TCq2    C3 2072   2.141   4.072   9.236 -0.0610 -0.4916 -0.0216
  136TCq2    C4 2073   2.109   4.045   9.367 -0.2622  0.8210  0.4362
  136TCq2    C5 2074   2.169   4.116   9.469 -0.4457  0.4115  0.3078
  136TCq2    C6 2075   2.265   4.210   9.429 -0.4146 -0.5416  0.4888
  136TCq2    C7 2076   2.302   4.234   9.298 -0.3284 -0.3976  0.8644
  136TCq2    C8 2077   2.342   4.257   9.546 -0.1261 -0.3476 -0.7898
  136TCq2    O4 2078   2.392   4.366   9.534 -0.1480  0.5613  0.2393
  136TCq2    C9 2079   2.005   3.955   9.393  0.4334  0.5485 -0.0635
  136TCq2    O5 2080   1.939   3.907   9.297  0.0084 -0.5878 -0.3465
  136TCq2    O6 2081   2.012   3.905   9.508 -0.1245  0.0462 -0.0136
  136TCq2    H2 2082   2.098   4.012   9.156 -1.4053  0.4122  0.0215
  136TCq2    H3 2083   2.130   4.116   9.570 -3.4969 -1.6014 -0.8787
  136TCq2    H4 2084   2.399   4.278   9.276  0.3667 -2.3695 -0.0837
  137MPD2     C 2085   2.691   3.567   9.445  0.8200 -0.2087 -0.1370
  137MPD2    C1 2086   2.750   3.680   9.387 -0.1777  0.1570  0.6642
  137MPD2    C2 2087   2.793   3.779   9.474  0.5578  0.0845  0.8818
  137MPD2    C3 2088   2.797   3.766   9.608 -0.7317  0.1972 -0.4484
  137MPD2    C4 2089   2.736   3.660   9.663  0.1113 -0.2332 -0.2077
  137MPD2    C5 2090   2.675   3.568   9.583  0.0742 -0.4704  0.1636
  137MPD2     H 2091   2.843   3.865   9.431  0.2630 -0.3458 -0.2990
  137MPD2    H1 2092   2.727   3.656   9.771  2.3531 -0.0485 -0.0154
  137MPD2    H2 2093   2.671   3.474   9.393  0.4400  0.8681 -1.9316
  137MPD2    H3 2094   2.620   3.492   9.637  0.7639 -1.7789 -0.9745
  137MPD2     N 2095   2.853   3.873   9.678  0.3483 -0.0384  0.8170
  137MPD2    H5 2096   2.878   3.958   9.628  0.2251 -0.2285  0.4338
  137MPD2    N1 2097   2.766   3.682   9.244 -0.5350  0.2053  0.6430
  137MPD2    H7 2098   2.731   3.598   9.199  1.0162 -1.2366  2.1288
  138TCq2    C1 2099   2.820   3.779   9.160  0.1765  0.0075 -0.1568
  138TCq2    O2 2100   2.902   3.871   9.179 -0.0874  0.7168 -0.1695
  138TCq2    C2 2101   2.745   3.779   9.035  0.2453 -0.1747  0.1555
  138TCq2    C3 2102   2.794   3.844   8.922 -0.2903 -0.1245  0.2363
  138TCq2    C4 2103   2.731   3.829   8.808 -0.1301 -0.7461  0.2764
  138TCq2    C5 2104   2.628   3.746   8.792  0.0557  0.8196 -0.4279
  138TCq2    C6 2105   2.579   3.684   8.898 -0.0184 -0.2203 -0.2003
  138TCq2    C7 2106   2.642   3.693   9.017 -0.3321 -0.6978 -0.0678
  138TCq2    C8 2107   2.449   3.611   8.886 -0.4093  0.0242 -0.2402
  138TCq2    O4 2108   2.390   3.623   8.779 -0.1260  0.6363  0.3446
  138TCq2    C9 2109   2.776   3.902   8.689 -0.0451  0.6018  0.4231
  138TCq2    O5 2110   2.857   3.996   8.697  0.1297  0.4849  0.7241
  138TCq2    O6 2111   2.729   3.859   8.575 -0.2907 -0.4632  0.1769
  138TCq2    H2 2112   2.867   3.925   8.930 -0.3757 -0.1166  0.8983
  138TCq2    H3 2113   2.585   3.733   8.693  0.9129 -3.4481 -0.1981
  138TCq2    H4 2114   2.577   3.670   9.101 -0.2756  0.0080  0.1717
  139TMC2    C1 2115   2.672   3.515  13.791 -0.0155 -0.1328  0.7320
  139TMC2    C2 2116   2.704   3.569  13.666  0.2641 -0.1771 -0.3708
  139TMC2    C3 2117   2.682   3.708  13.646  0.5631  0.1455  0.1956
  139TMC2    C4 2118   2.626   3.599  13.889 -0.4260  0.4812 -0.2147
  139TMC2    C5 2119   2.584   3.731  13.857 -0.2906 -0.4592 -0.1528
  139TMC2    C6 2120   2.622   3.787  13.739  0.5466  0.1187  0.7569
  139TMC2     C 2121   2.665   3.369  13.801  0.4866 -0.9362  1.0434
  139TMC2     O 2122   2.671   3.303  13.698  0.1251 -0.2411  0.1034
  139TMC2     H 2123   2.740   3.499  13.591  0.3806  2.0669 -2.4350
  139TMC2    H1 2124   2.575   3.545  13.969 -1.0039  0.8776 -0.3125
  139TMC2    H2 2125   2.585   3.887  13.720 -0.1467 -0.1458  0.7212
  139TMC2    C7 2126   2.458   3.791  13.910  0.0969 -0.1289  0.1567
  139TMC2    C8 2127   2.694   3.746  13.504 -0.7018 -0.1496  0.1205
  139TMC2    O1 2128   2.397   3.859  13.828 -0.6477 -0.0466  0.4359
  139TMC2    O2 2129   2.641   3.694  13.411 -0.7188 -0.6008  0.7783
  139TMC2    O5 2130   2.719   3.881  13.514  0.3983 -0.1332  0.3267
  139TMC2    H5 2131   2.787   3.904  13.582  0.1245 -0.6865  0.7800
  140MPD2     C 2132   2.592   3.189  14.114 -0.2926 -0.1786 -0.2587
  140MPD2    C1 2133   2.592   3.204  13.976 -0.8648 -0.3104  0.2682
  140MPD2    C2 2134   2.517   3.123  13.899  0.5918  0.5013 -0.4080
  140MPD2    C3 2135   2.422   3.036  13.951 -0.3504 -0.2650 -0.2595
  140MPD2    C4 2136   2.426   3.018  14.095  0.4272 -0.5545  0.2029
  140MPD2    C5 2137   2.518   3.090  14.173  0.0354 -0.0757 -0.3752
  140MPD2     H 2138   2.534   3.141  13.794  0.8329  0.3110 -0.4032
  140MPD2    H1 2139   2.361   2.953  14.152 -0.9818 -0.5971 -1.4672
  140MPD2    H2 2140   2.656   3.243  14.183  1.9436 -1.5699 -1.2621
  140MPD2    H3 2141   2.523   3.082  14.281 -0.6107  0.1059 -0.3310
  140MPD2     N 2142   2.319   2.976  13.868 -0.2191  0.3081  0.2667
  140MPD2    H5 2143   2.344   2.969  13.770 -1.2206 -1.0803  0.1153
  140MPD2    N1 2144   2.653   3.324  13.930  0.6240 -0.0385 -0.2222
  140MPD2    H7 2145   2.693   3.381  14.004  0.6018 -1.2005  0.6962
  141TCq2    C1 2146   3.432   3.936  14.121  0.1315  0.2013  0.7830
  141TCq2    O2 2147   3.403   4.043  14.074  0.2117 -0.6639 -0.0182
  141TCq2    C2 2148   3.422   3.908  14.260 -0.4003 -0.1723  1.0471
  141TCq2    C3 2149   3.393   3.781  14.313 -0.7138 -0.0665  0.1160
  141TCq2    C4 2150   3.397   3.763  14.448  0.0213 -0.7308  0.4504
  141TCq2    C5 2151   3.419   3.867  14.533 -0.4883  0.0185 -0.0358
  141TCq2    C6 2152   3.441   3.990  14.483 -0.1145  0.5470 -0.1971
  141TCq2    C7 2153   3.433   4.011  14.351  1.0795 -0.2329 -0.4957
  141TCq2    C8 2154   3.474   4.101  14.573  0.0209  0.1517  0.6496
  141TCq2    O4 2155   3.518   4.087  14.687  0.0660  0.0064  0.3455
  141TCq2    C9 2156   3.364   3.636  14.505 -0.3313 -0.6217  0.9228
  141TCq2    O5 2157   3.304   3.545  14.437  0.1794  0.5602  0.3540
  141TCq2    O6 2158   3.361   3.627  14.631  0.0464  0.2581 -0.1062
  141TCq2    H2 2159   3.360   3.701  14.248 -1.5904  0.4777 -0.1079
  141TCq2    H3 2160   3.428   3.854  14.640 -4.1390 -2.0986  0.0061
  141TCq2    H4 2161   3.453   4.109  14.309  1.0371 -0.3770 -0.8503
  142MPD2     C 2162   1.434   1.785  10.052  0.9255 -0.5141 -0.3616
  142MPD2    C1 2163   1.305   1.789   9.992 -0.3533  0.6608  0.3421
  142MPD2    C2 2164   1.292   1.877   9.888 -0.2185  0.4664 -0.6281
  142MPD2    C3 2165   1.410   1.938   9.837  0.0709 -0.5435  0.3279
  142MPD2    C4 2166   1.536   1.933   9.899  0.0425 -0.9849  0.8050
  142MPD2    C5 2167   1.549   1.853  10.007 -0.6764  0.7908  0.6654
  142MPD2     H 2168   1.197   1.896   9.840  0.0342 -0.9614 -1.6910
  142MPD2    H1 2169   1.620   1.994   9.869  1.0295 -3.0313 -0.5691
  142MPD2    H2 2170   1.444   1.716  10.135 -0.5868 -0.6207 -0.2681
  142MPD2    H3 2171   1.643   1.843  10.060 -0.7209  0.1653  0.6313
  142MPD2     N 2172   1.409   2.017   9.718 -0.5063 -0.3057  0.5437
  142MPD2    H5 2173   1.500   2.055   9.693 -0.4006 -1.3557 -0.6610
  142MPD2    N1 2174   1.197   1.706  10.042 -0.6059  0.1075 -0.6814
  142MPD2    H7 2175   1.208   1.657  10.131  2.0480 -0.9673 -1.6164
  143TCq2    C1 2176   1.303   2.049   9.635  0.2380 -0.5494 -0.3972
  143TCq2    O2 2177   1.185   2.020   9.649  0.8605 -0.4475  0.0680
  143TCq2    C2 2178   1.349   2.135   9.530 -0.2450 -0.1877 -0.0439
  143TCq2    C3 2179   1.482   2.185   9.516 -0.2223  0.2767 -0.2452
  143TCq2    C4 2180   1.501   2.282   9.416 -0.5405 -0.1584  0.1219
  143TCq2    C5 2181   1.396   2.348   9.352 -0.3533 -0.2891 -0.2099
  143TCq2    C6 2182   1.269   2.286   9.361 -0.7347 -0.0002  0.9913
  143TCq2    C7 2183   1.252   2.182   9.450  0.0180  0.3311  0.3163
  143TCq2    C8 2184   1.153   2.367   9.345  0.3119 -0.4162 -0.3039
  143TCq2    O4 2185   1.053   2.338   9.406 -0.0762  0.0701 -0.2234
  143TCq2    C9 2186   1.634   2.340   9.388 -0.0973  0.1128  0.5261
  143TCq2    O5 2187   1.729   2.294   9.454  0.0831 -0.5218  0.5788
  143TCq2    O6 2188   1.640   2.426   9.298  0.4059 -0.8580  0.0988
  143TCq2    H2 2189   1.572   2.145   9.561 -1.8722 -0.2707  2.5601
  143TCq2    H3 2190   1.418   2.436   9.294  2.2077 -0.7324  0.0807
  143TCq2    H4 2191   1.153   2.140   9.457 -0.6953  2.1191  0.8527
  144MPD2     C 2192   3.122   2.111   0.858  0.6890  0.0084  0.8987
  144MPD2    C1 2193   3.212   2.081   0.761  0.4188  0.0441 -1.1851
  144MPD2    C2 2194   3.340   2.101   0.788  0.1824  0.5129 -0.1698
  144MPD2    C3 2195   3.382   2.145   0.916  0.0590 -0.5356 -0.6263
  144MPD2    C4 2196   3.291   2.175   1.011 -0.2994 -0.7058 -0.0946
  144MPD2    C5 2197   3.157   2.151   0.980 -0.3191 -0.4727  0.3777
  144MPD2     H 2198   3.411   2.067   0.713 -0.7608  0.8889 -1.2367
  144MPD2    H1 2199   3.311   2.205   1.113 -0.4777  1.6492 -0.7511
  144MPD2    H2 2200   3.016   2.114   0.834  0.2298 -0.1496  2.8869
  144MPD2    H3 2201   3.094   2.163   1.067  0.4289 -3.1812  1.2932
  144MPD2     N 2202   3.516   2.170   0.949  0.1246 -0.3037 -0.0490
  144MPD2    H5 2203   3.537   2.216   1.037  0.2530 -2.0170  0.8116
  144MPD2    N1 2204   3.183   2.052   0.634 -1.0923  0.1552 -0.3136
  144MPD2    H7 2205   3.267   2.023   0.585 -0.3327  0.7991  0.6104
  145TCq2    C1 2206   3.624   2.157   0.865 -0.3239 -0.7031 -0.0791
  145TCq2    O2 2207   3.636   2.118   0.748 -0.3495  0.5358  0.1515
  145TCq2    C2 2208   3.754   2.173   0.931  0.7615  0.2068 -0.2091
  145TCq2    C3 2209   3.867   2.142   0.862  0.3503 -0.2452 -0.3007
  145TCq2    C4 2210   3.989   2.162   0.913  0.2331  0.1084  0.0999
  145TCq2    C5 2211   4.009   2.226   1.033  0.6209 -0.6672  0.1180
  145TCq2    C6 2212   3.892   2.268   1.096  0.7086  0.2470 -0.1265
  145TCq2    C7 2213   3.767   2.236   1.053  0.3901 -0.6723 -0.4552
  145TCq2    C8 2214   3.907   2.331   1.222  0.6793 -0.0684 -0.4354
  145TCq2    O4 2215   4.012   2.317   1.285 -0.3296 -0.0345 -0.0837
  145TCq2    C9 2216   4.106   2.123   0.835  0.2544 -0.6531  0.1535
  145TCq2    O5 2217   4.093   2.075   0.722  0.0499  0.4866 -0.0310
  145TCq2    O6 2218   4.220   2.150   0.886 -0.6016 -0.2541  0.3035
  145TCq2    H2 2219   3.859   2.095   0.765  1.4733 -0.0027 -0.5142
  145TCq2    H3 2220   4.108   2.255   1.066  1.5041 -1.0245 -2.2504
  145TCq2    H4 2221   3.682   2.270   1.111  0.9692 -0.8001  0.4638
  146TMC2    C1 2222   0.763   0.154  11.906 -0.3026  0.0681 -0.3423
  146TMC2    C2 2223   0.760   0.161  11.773 -0.9308 -0.8646  0.2907
  146TMC2    C3 2224   0.874   0.155  11.699 -0.5551  0.1178  0.0166
  146TMC2    C4 2225   0.881   0.126  11.972 -0.7651 -0.0278  0.7302
  146TMC2    C5 2226   0.996   0.123  11.899 -0.0122 -0.5456  0.3852
  146TMC2    C6 2227   0.991   0.137  11.766 -0.1439 -0.0734 -0.2048
  146TMC2     C 2228   0.634   0.167  11.966  0.5029 -0.1740  0.0633
  146TMC2     O 2229   0.527   0.172  11.900  0.2601 -0.0230  1.1735
  146TMC2     H 2230   0.665   0.176  11.723 -0.3972  4.5204  0.9503
  146TMC2    H1 2231   0.883   0.110  12.079  0.6409  0.2092  0.7413
  146TMC2    H2 2232   1.083   0.136  11.709 -0.2160 -1.5912 -0.3077
  146TMC2    C7 2233   1.129   0.135  11.955 -0.5999  0.0902 -0.2665
  146TMC2    C8 2234   0.859   0.156  11.558 -0.1481  0.5938 -0.1322
  146TMC2    O1 2235   1.221   0.155  11.876  0.1080 -0.0120  0.6751
  146TMC2    O2 2236   0.756   0.131  11.500 -0.2135 -0.2995  0.2839
  146TMC2    O5 2237   0.977   0.179  11.494 -0.2385  0.1754  0.0225
  146TMC2    H5 2238   1.046   0.206  11.559 -1.2903  1.6172  0.5374
  147MPD2     C 2239   1.369   0.315  12.377  0.6404 -0.4907  0.7399
  147MPD2    C1 2240   1.267   0.235  12.414 -0.2133 -0.0867 -0.0189
  147MPD2    C2 2241   1.189   0.178  12.314  0.1865 -0.4586 -0.3478
  147MPD2    C3 2242   1.218   0.190  12.182 -0.2472 -0.0991  0.2760
  147MPD2    C4 2243   1.334   0.257  12.144  0.2462  0.8661 -0.5244
  147MPD2    C5 2244   1.400   0.331  12.242 -0.5595 -0.9131 -0.8783
  147MPD2     H 2245   1.104   0.120  12.348  0.1907 -0.7508 -0.8240
  147MPD2    H1 2246   1.342   0.283  12.039 -0.6466  0.6515 -0.6505
  147MPD2    H2 2247   1.421   0.376  12.449  1.5997  0.0653 -0.4303
  147MPD2    H3 2248   1.470   0.410  12.218 -0.6200 -0.4011  0.6672
  147MPD2     N 2249   1.128   0.129  12.097 -0.5643 -0.6232  0.1489
  147MPD2    H5 2250   1.048   0.080  12.137 -0.0287  0.1331  2.1296
  147MPD2    N1 2251   1.249   0.223  12.555 -0.6201  0.4787  0.1605
  147MPD2    H7 2252   1.321   0.268  12.611 -1.3967  2.5610 -0.4934
  148MPD2     C 2253   1.290   3.218  10.097  0.3024  0.2243  0.3463
  148MPD2    C1 2254   1.285   3.082  10.121 -0.4567  0.0108 -0.5946
  148MPD2    C2 2255   1.167   3.031  10.177 -0.7818  0.4464 -0.4925
  148MPD2    C3 2256   1.061   3.115  10.222  1.1904  0.6902  0.9174
  148MPD2    C4 2257   1.071   3.249  10.184  0.2195  1.0051 -0.0215
  148MPD2    C5 2258   1.184   3.300  10.118  0.3749 -0.3631 -0.0312
  148MPD2     H 2259   1.161   2.924  10.198  2.5979  0.1071 -1.3781
  148MPD2    H1 2260   0.989   3.316  10.206 -2.0447 -0.7710 -3.1634
  148MPD2    H2 2261   1.376   3.265  10.052 -0.4911 -0.4163 -1.8699
  148MPD2    H3 2262   1.197   3.405  10.095  1.1546 -0.2454  0.9290
  148MPD2     N 2263   0.951   3.070  10.295 -0.3881 -0.5290  0.2045
  148MPD2    H5 2264   0.875   3.137  10.306  0.6432  0.5100  0.9793
  148MPD2    N1 2265   1.396   2.990  10.096 -0.1498  0.3107 -0.0861
  148MPD2    H7 2266   1.384   2.891  10.116 -2.7566  0.8451  1.1209
  149TCq2    C1 2267   1.521   3.028  10.051  0.5402 -0.2823  0.2357
  149TCq2    O2 2268   1.562   3.146  10.040  0.1189 -0.0143  0.2467
  149TCq2    C2 2269   1.608   2.911  10.027  0.7058  0.0446 -0.5765
  149TCq2    C3 2270   1.727   2.905  10.093 -0.2840 -0.2494  0.1145
  149TCq2    C4 2271   1.788   2.778  10.093  0.3505  0.1645  0.4872
  149TCq2    C5 2272   1.718   2.663  10.076  0.1078  0.3631 -0.2124
  149TCq2    C6 2273   1.586   2.677  10.027 -0.4432 -0.0909  0.0421
  149TCq2    C7 2274   1.536   2.797   9.992  0.0250  0.0460  0.7656
  149TCq2    C8 2275   1.489   2.589  10.088  0.4767  0.0222 -1.0480
  149TCq2    O4 2276   1.380   2.563  10.035 -0.3256  0.2870 -0.3288
  149TCq2    C9 2277   1.893   2.752  10.192 -0.3179 -0.1625 -0.6020
  149TCq2    O5 2278   1.880   2.648  10.262  0.2324 -0.4594 -0.0273
  149TCq2    O6 2279   1.976   2.841  10.221 -0.3043 -0.8139 -0.2921
  149TCq2    H2 2280   1.776   2.996  10.125  1.8888 -1.0059 -1.0261
  149TCq2    H3 2281   1.762   2.566  10.094 -0.0829  0.0437 -1.4515
  149TCq2    H4 2282   1.445   2.806   9.935 -0.3325 -1.4072  1.1141
  150MPD2     C 2283   2.143   2.983  12.354 -0.0463 -0.6060 -1.5743
  150MPD2    C1 2284   2.144   3.048  12.236  0.2846  0.2360  0.3426
  150MPD2    C2 2285   2.246   3.147  12.211  0.1201 -0.4574 -0.0872
  150MPD2    C3 2286   2.340   3.173  12.309 -0.6120 -0.1412 -0.5447
  150MPD2    C4 2287   2.339   3.103  12.431 -0.2048  0.1124  0.4485
  150MPD2    C5 2288   2.239   3.006  12.449  0.3267  0.3603  0.0675
  150MPD2     H 2289   2.253   3.202  12.118 -0.2966 -0.8839 -0.3700
  150MPD2    H1 2290   2.403   3.126  12.516  2.7637 -0.7929 -1.5111
  150MPD2    H2 2291   2.066   2.913  12.384 -0.3421  1.8309  3.4414
  150MPD2    H3 2292   2.220   2.963  12.546  0.0169  0.5959  0.1144
  150MPD2     N 2293   2.424   3.281  12.284 -0.3247  0.0520  1.2422
  150MPD2    H5 2294   2.409   3.333  12.197  3.5115  0.1527  0.6205
  150MPD2    N1 2295   2.034   3.026  12.151 -0.2503 -0.6237  0.2982
  150MPD2    H7 2296   1.960   2.970  12.191  0.7233 -2.5364 -0.5732
  151TCq2    C1 2297   2.508   3.336  12.378 -0.2489  0.3884 -0.1670
  151TCq2    O2 2298   2.575   3.279  12.462 -0.0721 -0.7967  0.0640
  151TCq2    C2 2299   2.542   3.474  12.351 -0.3771  0.7596 -0.0212
  151TCq2    C3 2300   2.463   3.566  12.283 -0.5158 -0.9424  0.5885
  151TCq2    C4 2301   2.494   3.698  12.286  1.0045  0.2578 -0.8785
  151TCq2    C5 2302   2.603   3.746  12.349 -0.0248  0.6699 -0.1662
  151TCq2    C6 2303   2.683   3.658  12.414 -0.8538 -0.0650  0.0213
  151TCq2    C7 2304   2.648   3.526  12.425 -0.5678 -0.1557  0.2878
  151TCq2    C8 2305   2.827   3.694  12.415 -0.2297 -0.5180  0.0536
  151TCq2    O4 2306   2.845   3.809  12.375 -0.5097 -0.2766  0.6579
  151TCq2    C9 2307   2.411   3.800  12.232 -1.0030  0.7144 -0.3791
  151TCq2    O5 2308   2.299   3.768  12.194  0.3185  0.6138 -0.2738
  151TCq2    O6 2309   2.441   3.919  12.255 -0.0326  0.2789  0.2081
  151TCq2    H2 2310   2.373   3.537  12.230  0.0159 -2.2205  0.3750
  151TCq2    H3 2311   2.633   3.849  12.334 -3.0137  1.4070 -0.9986
  151TCq2    H4 2312   2.712   3.458  12.480  0.1658  0.5082  0.2415
  152MPD2     C 2313   2.048   2.911  12.868 -0.2504  0.0452  0.0236
  152MPD2    C1 2314   2.094   3.010  12.786  0.3859  0.7993  0.3192
  152MPD2    C2 2315   2.006   3.066  12.694 -0.0865 -0.4078 -0.3419
  152MPD2    C3 2316   1.879   3.021  12.673 -0.1651 -0.2242 -0.7793
  152MPD2    C4 2317   1.836   2.920  12.754 -0.0266  0.0485  0.3451
  152MPD2    C5 2318   1.920   2.868  12.853  0.0021  0.1282  0.0661
  152MPD2     H 2319   2.039   3.148  12.631  0.2576 -1.0484 -0.9916
  152MPD2    H1 2320   1.739   2.872  12.742 -0.0310  0.3712 -0.9328
  152MPD2    H2 2321   2.110   2.869  12.947  0.5715  0.4248 -0.4193
  152MPD2    H3 2322   1.881   2.785  12.911  2.5483 -1.5357 -0.6020
  152MPD2     N 2323   1.794   3.093  12.595  0.0324 -0.0193 -0.2815
  152MPD2    H5 2324   1.827   3.182  12.557  1.3616 -0.1553  0.5536
  152MPD2    N1 2325   2.222   3.059  12.822  0.1465 -0.0759  0.4767
  152MPD2    H7 2326   2.275   3.012  12.895  0.9762 -0.4249 -0.3439
  153TCq2    C1 2327   2.284   3.168  12.758 -0.3613  0.0456 -0.7815
  153TCq2    O2 2328   2.230   3.263  12.696  0.5144  0.0654 -0.2193
  153TCq2    C2 2329   2.427   3.170  12.785  0.3745  0.1044  0.3255
  153TCq2    C3 2330   2.483   3.064  12.859 -0.3690 -0.0968  0.1876
  153TCq2    C4 2331   2.606   3.091  12.913  0.4136  0.1938 -0.2320
  153TCq2    C5 2332   2.669   3.211  12.890 -0.6643  0.3936 -0.0735
  153TCq2    C6 2333   2.599   3.319  12.829  0.4293 -0.0391 -0.8465
  153TCq2    C7 2334   2.478   3.297  12.774 -0.0584  0.1373 -0.3271
  153TCq2    C8 2335   2.658   3.447  12.787  0.5656 -0.2574 -0.6074
  153TCq2    O4 2336   2.589   3.542  12.761 -0.0258 -0.1071 -0.0049
  153TCq2    C9 2337   2.680   2.988  12.984 -0.0176  0.3802  0.1033
  153TCq2    O5 2338   2.629   2.870  12.990 -1.1454  0.8331 -0.3084
  153TCq2    O6 2339   2.805   3.000  12.988 -0.0775 -0.2309 -0.0344
  153TCq2    H2 2340   2.448   2.962  12.868 -0.0392 -0.5245 -3.3050
  153TCq2    H3 2341   2.761   3.229  12.943  0.8868 -0.8430 -2.3669
  153TCq2    H4 2342   2.425   3.370  12.714 -1.7261  0.1274  1.1399
  154MPD2     C 2343   3.518   4.104   0.464  0.6459 -0.0658 -0.7269
  154MPD2    C1 2344   3.491   4.034   0.579  0.8476 -0.4801  0.4116
  154MPD2    C2 2345   3.472   4.097   0.696 -0.2551  0.5196  0.1232
  154MPD2    C3 2346   3.471   4.240   0.698  0.8054 -0.2597 -0.6405
  154MPD2    C4 2347   3.501   4.309   0.581  0.1077  0.0827  0.4664
  154MPD2    C5 2348   3.527   4.244   0.466 -0.3092  0.0828  0.5959
  154MPD2     H 2349   3.430   4.047   0.782  2.0325 -3.2002 -0.9314
  154MPD2    H1 2350   3.517   4.416   0.575  0.9034 -0.0592  0.0879
  154MPD2    H2 2351   3.546   4.049   0.375 -0.9440 -0.7566 -0.7905
  154MPD2    H3 2352   3.574   4.287   0.379 -2.6172  0.8270 -0.2948
  154MPD2     N 2353   3.412   4.299   0.811 -0.3535  0.3113  0.0258
  154MPD2    H5 2354   3.412   4.237   0.891 -1.0193  0.1664 -0.0858
  154MPD2    N1 2355   3.491   3.896   0.571 -0.4654 -0.5080  0.3819
  154MPD2    H7 2356   3.494   3.856   0.478  2.1738  0.7706 -0.0780
  155TCq2    C1 2357   3.471   3.803   0.672 -0.1147  0.4862 -0.0453
  155TCq2    O2 2358   3.448   3.823   0.789  0.0891  0.1267 -0.1897
  155TCq2    C2 2359   3.512   3.671   0.640 -0.4903 -0.9730 -0.6710
  155TCq2    C3 2360   3.499   3.623   0.510  0.0592  0.2368 -1.1113
  155TCq2    C4 2361   3.521   3.486   0.479  0.2433  0.6926 -0.3370
  155TCq2    C5 2362   3.543   3.400   0.587  0.0336 -0.1001 -0.1475
  155TCq2    C6 2363   3.541   3.445   0.714  0.6899  0.5013  0.8172
  155TCq2    C7 2364   3.523   3.581   0.743 -0.6066  0.7769 -0.4542
  155TCq2    C8 2365   3.561   3.358   0.824  0.1892 -0.9537 -0.0807
  155TCq2    O4 2366   3.578   3.404   0.938 -0.2927 -0.5201 -0.5785
  155TCq2    C9 2367   3.531   3.442   0.339  0.0985  0.3856  0.2993
  155TCq2    O5 2368   3.535   3.540   0.254  0.0217 -0.3739  0.1071
  155TCq2    O6 2369   3.506   3.316   0.301  0.1155  0.0286 -0.0170
  155TCq2    H2 2370   3.491   3.690   0.425  1.0857  1.4494 -0.2586
  155TCq2    H3 2371   3.571   3.296   0.569 -0.2096  0.3666 -3.1991
  155TCq2    H4 2372   3.527   3.614   0.846 -0.5265  1.3849 -0.6525
  156MPD2     C 2373   2.865   1.121  12.540 -0.1862 -0.3289 -0.2868
  156MPD2    C1 2374   2.779   1.176  12.455 -0.0302  0.3449 -0.1157
  156MPD2    C2 2375   2.745   1.307  12.465  0.0326 -0.0792  0.2226
  156MPD2    C3 2376   2.801   1.381  12.571  0.3764 -1.1647  0.7996
  156MPD2    C4 2377   2.893   1.324  12.656 -0.0901 -0.1345  1.1006
  156MPD2    C5 2378   2.912   1.190  12.639 -0.5386  0.1632 -0.2490
  156MPD2     H 2379   2.663   1.341  12.402 -0.5334 -2.8440 -0.5148
  156MPD2    H1 2380   2.940   1.371  12.742  0.0980  0.9282  0.4147
  156MPD2    H2 2381   2.898   1.018  12.532 -0.6666 -0.5097  0.0396
  156MPD2    H3 2382   2.968   1.134  12.713  0.3049  0.6139 -0.5400
  156MPD2     N 2383   2.754   1.515  12.587  0.4936  0.0421  0.1824
  156MPD2    H5 2384   2.695   1.545  12.510  0.5301 -0.1142  0.0957
  156MPD2    N1 2385   2.700   1.101  12.366 -0.8556 -0.2090 -0.0427
  156MPD2    H7 2386   2.720   1.002  12.376 -0.1364 -0.1134 -0.5216
  157TCq2    C1 2387   2.585   1.135  12.293 -0.1426 -0.4985  0.0106
  157TCq2    O2 2388   2.556   1.243  12.238 -0.1995  0.3457  0.3545
  157TCq2    C2 2389   2.525   1.017  12.234 -0.5951  0.1354  0.1387
  157TCq2    C3 2390   2.489   0.904  12.312 -0.3527 -0.2604 -0.1139
  157TCq2    C4 2391   2.404   0.815  12.254  0.0497  0.2534 -0.0678
  157TCq2    C5 2392   2.361   0.831  12.122 -0.4764  0.4796 -0.0649
  157TCq2    C6 2393   2.403   0.935  12.048  0.0380 -0.4503 -0.0525
  157TCq2    C7 2394   2.477   1.036  12.109  0.1368  0.2297  0.0214
  157TCq2    C8 2395   2.359   0.952  11.904 -0.0689 -0.6357 -0.0924
  157TCq2    O4 2396   2.376   1.066  11.863 -0.6158 -0.4277 -0.0123
  157TCq2    C9 2397   2.377   0.696  12.326  0.1993 -0.7918 -0.0348
  157TCq2    O5 2398   2.456   0.656  12.413 -0.8165 -0.4743 -0.2300
  157TCq2    O6 2399   2.263   0.643  12.306  0.3864 -0.2148 -0.2094
  157TCq2    H2 2400   2.524   0.893  12.414  0.0720  1.1541 -0.1095
  157TCq2    H3 2401   2.299   0.755  12.076 -2.3662  1.2501  1.2122
  157TCq2    H4 2402   2.520   1.114  12.047  2.3613 -2.0965 -1.3498
  158TMC2    C1 2403   2.650   4.696  13.344 -0.3426 -0.0773 -0.3603
  158TMC2    C2 2404   2.695   0.105  13.326  0.7294 -0.4062  0.6236
  158TMC2    C3 2405   2.598   0.195  13.296  0.5110 -0.2699  0.9176
  158TMC2    C4 2406   2.512   4.664  13.343  0.8211  0.2556 -0.3295
  158TMC2    C5 2407   2.418   0.042  13.322  0.7390 -0.4525  0.4811
  158TMC2    C6 2408   2.461   0.167  13.298 -0.4710  0.2627 -0.4935
  158TMC2     C 2409   2.747   4.589  13.364  0.3719 -0.3166  0.1200
  158TMC2     O 2410   2.851   4.601  13.304  0.4282  0.1326 -0.2108
  158TMC2     H 2411   2.798   0.139  13.321  0.4639  0.4352  0.7645
  158TMC2    H1 2412   2.494   4.557  13.341  1.8388  0.0833 -0.3396
  158TMC2    H2 2413   2.385   0.243  13.285 -1.5615 -0.3517  2.4829
  158TMC2    C7 2414   2.273   0.014  13.305  0.1247  0.1736 -0.5186
  158TMC2    C8 2415   2.636   0.330  13.261 -0.4243  0.8011  0.3192
  158TMC2    O1 2416   2.212   0.086  13.233  0.1243  0.6543 -0.0743
  158TMC2    O2 2417   2.563   0.427  13.291 -0.0099  0.4339 -0.1813
  158TMC2    O5 2418   2.702   0.304  13.147 -0.1244 -0.2778  0.1801
  158TMC2    H5 2419   2.697   0.206  13.134  1.0951 -0.6073  2.1862
  159MPD2     C 2420   2.919   4.210  13.664 -0.2950  0.1186  0.2014
  159MPD2    C1 2421   2.801   4.253  13.722  0.5436  0.6450 -0.1957
  159MPD2    C2 2422   2.732   4.351  13.653  0.0576 -0.3810  0.4989
  159MPD2    C3 2423   2.786   4.407  13.535 -0.0637 -0.3147 -0.1995
  159MPD2    C4 2424   2.910   4.371  13.490  0.5755 -0.3585 -0.1876
  159MPD2    C5 2425   2.978   4.263  13.555  0.1145  0.0854  0.7983
  159MPD2     H 2426   2.627   4.367  13.676 -0.6107 -3.4158 -0.4260
  159MPD2    H1 2427   2.942   4.405  13.392 -2.3016  1.0171 -0.6581
  159MPD2    H2 2428   2.969   4.131  13.719  0.1555  0.3437  0.1183
  159MPD2    H3 2429   3.071   4.223  13.517  0.3260  2.8634 -1.5972
  159MPD2     N 2430   2.700   4.501  13.467 -0.3640  0.1204 -0.2104
  159MPD2    H5 2431   2.619   4.527  13.523  0.6653 -1.1554  1.8771
  159MPD2    N1 2432   2.751   4.195  13.839 -0.0478  0.5378 -0.8671
  159MPD2    H7 2433   2.807   4.119  13.875  1.0770  0.9874 -1.6348
  160TMC2    C1 2434   2.596   2.492   1.331 -0.3255 -1.3369 -0.5840
  160TMC2    C2 2435   2.660   2.485   1.455 -0.4176  0.2702 -0.5898
  160TMC2    C3 2436   2.778   2.556   1.465  0.0434  0.3834 -0.8767
  160TMC2    C4 2437   2.643   2.559   1.219  0.3156  0.4725 -0.3157
  160TMC2    C5 2438   2.765   2.620   1.234 -0.1076 -0.2808 -0.0613
  160TMC2    C6 2439   2.830   2.613   1.353 -0.5702  0.0575 -0.6400
  160TMC2     C 2440   2.490   2.403   1.314  0.2272  0.4815 -0.3810
  160TMC2     O 2441   2.492   2.298   1.377  0.9269  0.2782 -0.1389
  160TMC2     H 2442   2.620   2.424   1.535 -0.0068 -0.3575 -0.8630
  160TMC2    H1 2443   2.580   2.570   1.131  1.3193 -2.3267 -1.3724
  160TMC2    H2 2444   2.914   2.679   1.367  0.6618 -1.7830  0.6105
  160TMC2    C7 2445   2.807   2.734   1.142  0.2878  0.3834  0.3648
  160TMC2    C8 2446   2.849   2.565   1.592  0.3341 -0.0280  0.6887
  160TMC2    O1 2447   2.888   2.815   1.184  0.4256 -0.0984 -0.3122
  160TMC2    O2 2448   2.968   2.551   1.599  0.0715 -0.5159  0.1274
  160TMC2    O5 2449   2.764   2.565   1.697  0.1590 -0.3716  0.4041
  160TMC2    H5 2450   2.675   2.581   1.659 -0.1467 -3.4478 -0.1519
  161MPD2     C 2451   2.249   2.260   1.214 -0.3192  0.4375  0.0465
  161MPD2    C1 2452   2.262   2.398   1.211 -0.0178 -0.3858  1.0165
  161MPD2    C2 2453   2.162   2.467   1.159  0.3616 -0.0450 -0.1122
  161MPD2    C3 2454   2.046   2.409   1.118  0.3244 -0.0585  0.3514
  161MPD2    C4 2455   2.025   2.276   1.106  0.3978  1.3209  0.1419
  161MPD2    C5 2456   2.135   2.211   1.157  0.6237  0.0158  0.6368
  161MPD2     H 2457   2.176   2.574   1.155 -0.1471  0.0500  0.7313
  161MPD2    H1 2458   1.936   2.225   1.072  1.4100 -0.2114 -0.1643
  161MPD2    H2 2459   2.316   2.188   1.258  0.3832  0.4141 -1.0476
  161MPD2    H3 2460   2.111   2.105   1.164 -1.0185  0.4677  1.9418
  161MPD2     N 2461   1.934   2.482   1.087 -0.2702 -0.2391 -0.5766
  161MPD2    H5 2462   1.865   2.416   1.053  0.8317 -2.0693  0.7115
  161MPD2    N1 2463   2.381   2.464   1.254  0.7028 -0.3740  0.1127
  161MPD2    H7 2464   2.388   2.565   1.246  1.0185 -0.3273  0.9955
  162TMC2    C1 2465   4.632   3.983   1.136  0.0472 -0.1790 -0.2757
  162TMC2    C2 2466   4.583   4.108   1.158 -0.1486  0.1527 -0.8017
  162TMC2    C3 2467   4.495   4.118   1.264 -0.0524 -0.1804 -0.0935
  162TMC2    C4 2468   4.593   3.874   1.213  0.2283 -0.4286 -0.9621
  162TMC2    C5 2469   4.531   3.902   1.330  0.1238  0.0119 -0.3683
  162TMC2    C6 2470   4.475   4.023   1.357  0.3284  0.1091  0.4112
  162TMC2     C 2471   4.717   3.958   1.030 -0.7875  0.4172 -0.4364
  162TMC2     O 2472   0.021   3.841   1.004  0.2284  0.3691  0.1857
  162TMC2     H 2473   4.597   4.188   1.086  2.1894  0.7266  0.3008
  162TMC2    H1 2474   4.643   3.780   1.192 -0.8638 -1.0465 -0.7537
  162TMC2    H2 2475   4.433   4.047   1.454  1.1376  1.5107  0.4166
  162TMC2    C7 2476   4.470   3.794   1.409 -0.1231  0.5635 -0.0499
  162TMC2    C8 2477   4.462   4.256   1.300  0.1685 -0.0067  0.6903
  162TMC2    O1 2478   4.366   3.816   1.468 -0.1557 -0.0366  0.5280
  162TMC2    O2 2479   4.500   4.362   1.259 -0.1432 -0.2592  0.5420
  162TMC2    O5 2480   4.345   4.250   1.367 -0.0512  0.5292 -0.3546
  162TMC2    H5 2481   4.314   4.157   1.368 -1.1287  0.8791 -0.1574
  163MPD2     C 2482   0.285   4.118   0.627  0.3325 -0.5033 -0.3136
  163MPD2    C1 2483   0.260   3.990   0.685  0.2763  0.6071 -0.0697
  163MPD2    C2 2484   0.201   3.975   0.808  0.2686  0.3638 -0.1074
  163MPD2    C3 2485   0.146   4.089   0.866  0.0518 -0.0703  0.0052
  163MPD2    C4 2486   0.166   4.220   0.811  0.4761  0.3369  0.3271
  163MPD2    C5 2487   0.240   4.228   0.696 -0.0247 -0.5467 -0.8610
  163MPD2     H 2488   0.189   3.876   0.848  1.3669  0.9547  1.6665
  163MPD2    H1 2489   0.112   4.305   0.851 -0.3521 -1.1255  2.3399
  163MPD2    H2 2490   0.353   4.127   0.544  0.4097  2.5222  0.1024
  163MPD2    H3 2491   0.261   4.325   0.654 -1.3622 -0.5033 -1.4422
  163MPD2     N 2492   0.060   4.079   0.981  0.1147  0.3967  0.1846
  163MPD2    H5 2493   0.029   4.165   1.025 -2.3127 -1.2184  1.6762
  163MPD2    N1 2494   0.313   3.884   0.612  0.1825  0.2578  0.0638
  163MPD2    H7 2495   0.349   3.910   0.521  1.6035  2.9810  1.4032
  164TCq2    C1 2496   0.790   3.676  10.727 -0.1183 -0.0807 -0.4480
  164TCq2    O2 2497   0.679   3.633  10.754 -0.3990  0.3694  1.0456
  164TCq2    C2 2498   0.805   3.818  10.733  0.6869 -0.5307  0.1694
  164TCq2    C3 2499   0.924   3.880  10.710 -0.0963 -0.6572 -0.4893
  164TCq2    C4 2500   0.950   4.005  10.760  0.8423  0.4626 -0.1338
  164TCq2    C5 2501   0.851   4.076  10.819 -0.1845 -0.0593  0.7016
  164TCq2    C6 2502   0.729   4.017  10.821 -0.0782 -0.7618 -0.1712
  164TCq2    C7 2503   0.701   3.885  10.789 -0.6783  0.9058 -0.5860
  164TCq2    C8 2504   0.617   4.094  10.872  0.3333 -0.3936  0.9049
  164TCq2    O4 2505   0.509   4.072  10.822  0.3611  0.3824 -0.3703
  164TCq2    C9 2506   1.083   4.062  10.752 -0.4349  0.3804 -0.1224
  164TCq2    O5 2507   1.182   3.987  10.715 -0.3850 -0.5240 -0.2469
  164TCq2    O6 2508   1.087   4.182  10.764  0.4116  0.0562  0.0744
  164TCq2    H2 2509   1.006   3.840  10.651  0.0724  0.3241 -0.9149
  164TCq2    H3 2510   0.867   4.178  10.854  1.6605 -0.0303 -0.2359
  164TCq2    H4 2511   0.606   3.842  10.816  0.2649 -0.8066  0.0156
  165MPD2     C 2512   1.554   1.476   1.333 -0.3048 -0.1896  0.4817
  165MPD2    C1 2513   1.691   1.471   1.325  0.3222  0.1517 -0.3395
  165MPD2    C2 2514   1.772   1.585   1.346 -0.3518  0.2464 -0.8079
  165MPD2    C3 2515   1.704   1.708   1.364  0.3270 -0.2601  0.7738
  165MPD2    C4 2516   1.563   1.708   1.361  0.0185 -0.2797 -1.0195
  165MPD2    C5 2517   1.485   1.594   1.337  0.2210 -0.7119 -0.1782
  165MPD2     H 2518   1.879   1.588   1.359 -0.2392 -0.9793 -1.5462
  165MPD2    H1 2519   1.523   1.808   1.374 -1.1062 -1.0730  1.5905
  165MPD2    H2 2520   1.505   1.379   1.333 -2.1012  0.7263  2.3090
  165MPD2    H3 2521   1.382   1.593   1.304  0.4055 -2.2071 -0.7345
  165MPD2     N 2522   1.778   1.826   1.381 -0.0563  0.3521 -0.0520
  165MPD2    H5 2523   1.728   1.911   1.406  1.1630  0.8736  0.6048
  165MPD2    N1 2524   1.759   1.349   1.304  0.0780  0.1160 -0.6008
  165MPD2    H7 2525   1.699   1.268   1.294  0.0661 -0.0640  0.9481
  166TCq2    C1 2526   1.913   1.842   1.397 -0.2519 -0.6343  0.4275
  166TCq2    O2 2527   2.013   1.765   1.414  0.2364 -0.5443  0.0300
  166TCq2    C2 2528   1.953   1.977   1.436  0.4510  0.0272  0.4802
  166TCq2    C3 2529   1.869   2.084   1.414 -0.3032 -0.6964 -0.1807
  166TCq2    C4 2530   1.909   2.205   1.468 -1.4137  1.3270  0.1588
  166TCq2    C5 2531   2.030   2.228   1.525 -1.1633 -0.1762  0.2837
  166TCq2    C6 2532   2.117   2.120   1.518 -0.1036 -0.2007  0.2439
  166TCq2    C7 2533   2.081   1.992   1.490  0.4818  0.0683 -0.0336
  166TCq2    C8 2534   2.245   2.129   1.589  0.7392  1.0234  0.7361
  166TCq2    O4 2535   2.335   2.054   1.551 -0.0394 -0.4146  0.3547
  166TCq2    C9 2536   1.815   2.318   1.451 -0.4136  0.3685 -0.0280
  166TCq2    O5 2537   1.699   2.293   1.410  0.1374  0.5443 -0.5111
  166TCq2    O6 2538   1.856   2.432   1.486  0.7725  0.3550  0.3167
  166TCq2    H2 2539   1.772   2.084   1.367  0.1436 -0.5962 -1.0954
  166TCq2    H3 2540   2.052   2.329   1.557  2.0271 -0.7379 -0.0738
  166TCq2    H4 2541   2.142   1.911   1.526  1.0337  0.0299 -1.0424
  167TMC2    C1 2542   0.483   4.220  12.822 -0.8189  0.3284  0.4495
  167TMC2    C2 2543   0.416   4.274  12.925 -0.0195 -0.0928 -0.2806
  167TMC2    C3 2544   0.324   4.193  12.991  0.0625  0.1421  0.8454
  167TMC2    C4 2545   0.467   4.086  12.785 -0.8926 -0.3244  0.2513
  167TMC2    C5 2546   0.377   4.009  12.860 -0.6101  0.4623 -0.0656
  167TMC2    C6 2547   0.314   4.062  12.967  0.4452  0.1955 -0.2179
  167TMC2     C 2548   0.541   4.319  12.736  0.3891 -0.1428 -0.7048
  167TMC2     O 2549   0.531   4.436  12.769  0.1120  0.3620  0.5118
  167TMC2     H 2550   0.418   4.381  12.943  1.3997  0.1948 -2.1038
  167TMC2    H1 2551   0.521   4.037  12.705 -0.7383  2.4416 -1.3788
  167TMC2    H2 2552   0.234   4.010  13.018  1.9087 -1.7328  0.1031
  167TMC2    C7 2553   0.400   3.865  12.865 -0.0807 -0.3175 -0.2381
  167TMC2    C8 2554   0.217   4.257  13.061 -0.8170  0.8003 -0.3925
  167TMC2    O1 2555   0.387   3.811  12.975 -0.2910  0.2918 -0.4107
  167TMC2    O2 2556   0.141   4.195  13.131  0.2021  0.1143  0.1079
  167TMC2    O5 2557   0.184   4.354  12.975  0.1524 -0.2564 -0.2612
  167TMC2    H5 2558   0.201   4.325  12.883 -0.9806 -0.5285 -0.3956
  168MPD2     C 2559   0.549   4.456  12.463 -0.5600  0.0018 -0.3760
  168MPD2    C1 2560   0.551   4.323  12.486  0.0159 -0.3095  0.3155
  168MPD2    C2 2561   0.541   4.241  12.378  0.0415  0.5087 -0.0767
  168MPD2    C3 2562   0.511   4.294  12.252  0.4720 -0.5102  0.0965
  168MPD2    C4 2563   0.520   4.432  12.231  0.3887  0.1363  0.7498
  168MPD2    C5 2564   0.535   4.515  12.342  0.3419 -0.5969  0.0382
  168MPD2     H 2565   0.545   4.134  12.396  1.0160  0.4271 -0.7927
  168MPD2    H1 2566   0.498   4.480  12.136 -0.3022 -1.5471  0.0543
  168MPD2    H2 2567   0.574   4.533  12.535 -1.3784 -1.8573  1.8897
  168MPD2    H3 2568   0.540   4.623  12.330 -0.0655 -0.5936 -0.1025
  168MPD2     N 2569   0.480   4.195  12.146  0.3499 -0.1007 -0.0864
  168MPD2    H5 2570   0.458   4.236  12.056 -0.4503  4.5930  2.2808
  168MPD2    N1 2571   0.552   4.260  12.607 -0.3407  0.3748 -0.6924
  168MPD2    H7 2572   0.536   4.160  12.597  3.2035 -0.2207 -0.4882
  169MPD1     C 2573   2.498   3.148   8.874 -0.7955  0.0363 -0.6635
  169MPD1    C1 2574   2.433   3.038   8.917 -0.2080  1.1252 -0.3352
  169MPD1    C2 2575   2.502   2.940   8.979  0.5476 -0.9972  0.3947
  169MPD1    C3 2576   2.640   2.955   9.003 -0.2197 -0.0330 -0.0274
  169MPD1    C4 2577   2.701   3.071   8.966  0.4371 -0.9382 -1.1346
  169MPD1    C5 2578   2.631   3.165   8.896 -0.0413  0.6564  0.0421
  169MPD1     H 2579   2.453   2.848   9.006 -0.4990 -1.9462 -4.7595
  169MPD1    H1 2580   2.804   3.090   8.993  0.3924  1.7816 -2.8106
  169MPD1    H2 2581   2.452   3.222   8.810  0.0757  1.5915  0.5197
  169MPD1    H3 2582   2.674   3.258   8.862  0.7229 -0.3387 -1.7165
  169MPD1     N 2583   2.700   2.840   9.063 -1.0092  0.5791  0.0173
  169MPD1    H5 2584   2.639   2.763   9.087  1.3429 -0.5130  2.3357
  169MPD1    N1 2585   2.304   3.020   8.869  0.2338 -0.4412  0.1006
  169MPD1    H6 2586   2.261   3.112   8.864  2.7947  0.6939 -1.0563
  169MPD1    H7 2587   2.244   2.961   8.927  0.6399 -2.6550 -1.7476
  170MPD1     C 2588   0.589   1.232  13.152 -0.0776 -0.1595 -0.2347
  170MPD1    C1 2589   0.537   1.363  13.180  0.4770 -0.4855 -0.5962
  170MPD1    C2 2590   0.587   1.433  13.294  0.0333 -0.8841 -0.0049
  170MPD1    C3 2591   0.672   1.370  13.386 -0.0773 -0.3278 -0.9934
  170MPD1    C4 2592   0.707   1.242  13.361  0.3911  0.0977 -0.7264
  170MPD1    C5 2593   0.674   1.181  13.247 -0.0460  0.8856 -0.3431
  170MPD1     H 2594   0.567   1.539  13.304 -0.2672 -1.2248  2.8805
  170MPD1    H1 2595   0.776   1.182  13.420  2.3700  2.0964 -1.0156
  170MPD1    H2 2596   0.558   1.169  13.069 -0.5863  0.8152 -0.7781
  170MPD1    H3 2597   0.697   1.076  13.240 -1.9077  0.4023  0.7463
  170MPD1     N 2598   0.718   1.444  13.490 -1.0717  0.7477 -0.2310
  170MPD1    H5 2599   0.672   1.534  13.504 -1.6668  0.0049  2.5295
  170MPD1    N1 2600   0.469   1.428  13.081  0.2116  0.0791  0.1977
  170MPD1    H6 2601   0.409   1.360  13.034  0.0654  0.0392  0.4427
  170MPD1    H7 2602   0.405   1.503  13.108  0.2833 -0.4254  1.7702
  171MPD1     C 2603   4.540   1.793  15.001 -0.2498  0.7031  0.5441
  171MPD1    C1 2604   4.450   1.850  15.089  0.9866  0.4905 -0.0117
  171MPD1    C2 2605   4.450   1.804  15.220 -0.4339  0.7542  0.2417
  171MPD1    C3 2606   4.553   1.722  15.265 -0.0766  0.5755  0.2149
  171MPD1    C4 2607   4.643   1.674  15.172 -0.0915  0.5214  0.2317
  171MPD1    C5 2608   4.644   1.716  15.049  0.2547 -0.2928 -0.5909
  171MPD1     H 2609   4.364   1.833  15.278 -1.3212 -0.4126 -0.4987
  171MPD1    H1 2610   0.000   1.605  15.208 -0.0858  0.2601 -0.2879
  171MPD1    H2 2611   4.548   1.815  14.895 -3.9491 -0.6707 -0.0304
  171MPD1    H3 2612   4.715   1.684  14.974  0.9885 -0.4102  0.1545
  171MPD1     N 2613   4.573   1.668  15.393  0.6982  0.1640 -0.2365
  171MPD1    H5 2614   4.647   1.600  15.401  0.0626 -0.5757 -0.7044
  171MPD1    N1 2615   4.342   1.920  15.033  0.1980 -0.2410 -0.0626
  171MPD1    H6 2616   4.357   1.970  14.946 -0.5494 -2.1713 -1.2800
  171MPD1    H7 2617   4.285   1.980  15.093 -0.4070  0.8676 -1.7521
  172MPD1     C 2618   3.198   1.708   0.983 -0.4562 -0.8659 -0.1013
  172MPD1    C1 2619   3.171   1.644   0.869  0.0082  0.0096 -0.5615
  172MPD1    C2 2620   3.244   1.669   0.756  0.2218 -0.3185 -0.4417
  172MPD1    C3 2621   3.360   1.737   0.764  0.2069  0.3003  0.0388
  172MPD1    C4 2622   3.405   1.783   0.886  0.0346 -0.4041 -0.1475
  172MPD1    C5 2623   3.322   1.769   0.996 -0.7033  0.0031  0.4378
  172MPD1     H 2624   3.209   1.622   0.665 -3.1870 -0.8108  1.1155
  172MPD1    H1 2625   3.491   1.848   0.885 -0.2945 -0.0032 -2.0133
  172MPD1    H2 2626   3.137   1.694   1.071  1.6882  0.3502  1.5738
  172MPD1    H3 2627   3.349   1.804   1.095  1.2088  0.9755 -0.4284
  172MPD1     N 2628   3.451   1.750   0.653 -0.3791  0.5307  0.1197
  172MPD1    H5 2629   3.542   1.792   0.667  0.7850 -1.8217 -0.4026
  172MPD1    N1 2630   3.048   1.581   0.857  0.1377  0.8472 -0.1923
  172MPD1    H6 2631   3.056   1.504   0.790  0.8629  0.8640 -0.1346
  172MPD1    H7 2632   3.026   1.537   0.946  1.4325  1.8918  0.6475
  173MPD1     C 2633   0.359   1.981  15.007  0.1077 -0.0312 -0.6040
  173MPD1    C1 2634   0.247   1.973  14.929  0.6642  0.8896 -0.4458
  173MPD1    C2 2635   0.207   1.853  14.875 -0.5667  0.2496  0.1406
  173MPD1    C3 2636   0.282   1.736  14.901 -0.1479 -0.2080  0.2257
  173MPD1    C4 2637   0.399   1.749  14.968  0.1101  0.2614  0.1915
  173MPD1    C5 2638   0.441   1.868  15.019 -0.4011  0.2468 -0.1643
  173MPD1     H 2639   0.119   1.840  14.814  0.6557 -2.1569 -1.1170
  173MPD1    H1 2640   0.470   1.668  14.975  0.7755  0.8511  0.2725
  173MPD1    H2 2641   0.396   2.073  15.051  0.2641 -1.1580  1.6503
  173MPD1    H3 2642   0.537   1.870  15.069 -1.1762 -0.1451  1.3517
  173MPD1     N 2643   0.240   1.616  14.845  0.3606  0.2647 -0.0691
  173MPD1    H5 2644   0.167   1.625  14.775 -0.6115  0.4752  0.9720
  173MPD1    N1 2645   0.181   2.084  14.894 -0.0463  0.2342 -0.3018
  173MPD1    H6 2646   0.215   2.167  14.942  0.5983  0.6659 -1.4925
  173MPD1    H7 2647   0.081   2.078  14.912  0.1782 -0.1554  0.8043
  174MPD1     C 2648   0.093   1.522  14.009  0.5997 -0.6114  0.0286
  174MPD1    C1 2649   0.072   1.391  14.049 -0.0120 -0.9746 -0.4965
  174MPD1    C2 2650   0.079   1.354  14.181 -0.4412 -0.2095 -0.3726
  174MPD1    C3 2651   0.102   1.454  14.280  0.1801 -0.2931 -0.5177
  174MPD1    C4 2652   0.149   1.583  14.243 -0.8659  0.0815 -0.1915
  174MPD1    C5 2653   0.138   1.607  14.106  0.3919 -0.2866  0.1762
  174MPD1     H 2654   0.059   1.252  14.213 -0.7671  0.5644  1.9044
  174MPD1    H1 2655   0.187   1.652  14.317  0.8074 -2.4702  1.3462
  174MPD1    H2 2656   0.085   1.556  13.907  2.2706  1.1961  0.5008
  174MPD1    H3 2657   0.186   1.699  14.076 -3.0853  1.2049 -0.7693
  174MPD1     N 2658   0.106   1.422  14.418 -0.3704 -0.0567  0.4393
  174MPD1    H5 2659   0.133   1.500  14.477 -1.4998  0.3537  0.4110
  174MPD1    N1 2660   0.017   1.298  13.958  0.2685 -0.1290 -0.4977
  174MPD1    H6 2661   0.048   1.206  13.988 -0.8647 -0.0397  0.9669
  174MPD1    H7 2662   0.060   1.322  13.869  0.7411  0.6482 -0.0647
  175MPD1     C 2663   3.977   2.159  15.621 -0.1478 -0.3372  0.7050
  175MPD1    C1 2664   3.856   2.219  15.615 -0.3800 -1.2074 -0.4510
  175MPD1    C2 2665   3.777   2.216  15.731 -1.2518 -0.6505 -0.7367
  175MPD1    C3 2666   3.808   2.133  15.835 -0.3830 -0.7270 -0.3811
  175MPD1    C4 2667   3.935   2.086  15.838 -0.6504  0.1154  0.7578
  175MPD1    C5 2668   4.015   2.092  15.735 -0.2847  0.2778  0.2399
  175MPD1     H 2669   3.687   2.275  15.731 -0.1309  1.0581 -0.4651
  175MPD1    H1 2670   3.968   2.044  15.932  1.3909 -0.2884 -0.1449
  175MPD1    H2 2671   4.046   2.184  15.541  1.5187  1.0860  2.6108
  175MPD1    H3 2672   4.119   2.062  15.738 -0.7261 -1.3802 -0.8389
  175MPD1     N 2673   3.725   2.115  15.948 -0.3177  0.2028  0.0689
  175MPD1    H5 2674   3.772   2.093  16.035  1.0860  0.0700 -0.7215
  175MPD1    N1 2675   3.841   2.317  15.517  0.2287 -0.0033 -0.1648
  175MPD1    H6 2676   3.750   2.362  15.512 -0.2510 -0.7650  1.8111
  175MPD1    H7 2677   3.864   2.287  15.422  1.5291 -0.6230  0.3490
  176MPD1     C 2678   0.502   3.969  17.077  0.1987 -0.1797  0.5434
  176MPD1    C1 2679   0.579   4.003  16.971 -0.5508 -0.1327  0.5974
  176MPD1    C2 2680   0.641   4.126  16.977 -0.1391 -0.4426 -0.0241
  176MPD1    C3 2681   0.632   4.213  17.082 -0.6916 -0.0402 -0.8894
  176MPD1    C4 2682   0.550   4.178  17.189  0.1108 -0.6523  0.1326
  176MPD1    C5 2683   0.489   4.050  17.186  0.4093  0.4307  0.3053
  176MPD1     H 2684   0.688   4.163  16.887  1.3065  1.2326  1.4230
  176MPD1    H1 2685   0.536   4.242  17.275 -1.6301 -0.8355 -0.0094
  176MPD1    H2 2686   0.444   3.878  17.073  0.5164 -0.2784 -2.1698
  176MPD1    H3 2687   0.420   4.026  17.266 -0.6756 -0.3855 -0.8927
  176MPD1     N 2688   0.710   4.332  17.084  0.2093  0.5635 -0.1255
  176MPD1    H5 2689   0.753   4.355  16.995  3.0081 -0.0711  1.0578
  176MPD1    N1 2690   0.583   3.920  16.862 -0.3507  0.0177  0.1413
  176MPD1    H6 2691   0.571   3.822  16.888  2.2139 -0.1768  0.6627
  176MPD1    H7 2692   0.675   3.939  16.822 -1.0884  2.3980 -0.4506
  177MPD1     C 2693   3.833   3.600  10.264 -0.1582  1.1695 -0.5088
  177MPD1    C1 2694   3.757   3.514  10.182 -0.3556  0.3072  0.0108
  177MPD1    C2 2695   3.722   3.568  10.056  0.1237  0.5479  0.3671
  177MPD1    C3 2696   3.771   3.691  10.007 -0.0781 -0.3276 -0.2471
  177MPD1    C4 2697   3.851   3.768  10.090  0.1229  0.5493  0.6655
  177MPD1    C5 2698   3.869   3.724  10.221  0.3068 -0.6565 -0.1225
  177MPD1     H 2699   3.667   3.497   9.995  0.4762 -1.9998  3.0406
  177MPD1    H1 2700   3.896   3.861  10.057 -1.3057  1.7462  2.0729
  177MPD1    H2 2701   3.866   3.581  10.365  0.8626  0.1943 -1.0251
  177MPD1    H3 2702   3.939   3.776  10.286 -1.0572 -0.6391  1.3636
  177MPD1     N 2703   3.718   3.743   9.883  0.8254  0.8143 -0.4298
  177MPD1    H5 2704   3.647   3.687   9.837  1.9237 -0.4869 -0.5235
  177MPD1    N1 2705   3.695   3.398  10.228 -0.0017 -0.4489  0.2640
  177MPD1    H6 2706   3.686   3.326  10.156 -1.6427  0.2586 -0.2512
  177MPD1    H7 2707   3.746   3.346  10.299  2.0917  0.0497 -0.8844
  178MPD1     C 2708   1.108   4.509   0.493  0.0184  0.4581 -0.3256
  178MPD1    C1 2709   1.243   4.524   0.493  0.2019 -0.1251 -0.8338
  178MPD1    C2 2710   1.310   4.562   0.378 -0.0594  0.0087 -0.1834
  178MPD1    C3 2711   1.233   4.591   0.263 -0.2458  0.9322 -0.1269
  178MPD1    C4 2712   1.095   4.586   0.273  0.1368  0.4701  0.2767
  178MPD1    C5 2713   1.033   4.541   0.383  0.3642 -0.5051 -0.0960
  178MPD1     H 2714   1.418   4.569   0.374 -0.1556  1.2079 -0.6095
  178MPD1    H1 2715   1.041   4.618   0.184 -0.8986 -1.9690  0.0403
  178MPD1    H2 2716   1.053   4.483   0.583  0.9554 -0.7455 -0.1113
  178MPD1    H3 2717   0.925   4.543   0.380  0.3324 -2.1557 -0.1197
  178MPD1     N 2718   1.287   4.659   0.149 -0.0269  0.3368  0.1096
  178MPD1    H5 2719   1.227   4.662   0.067 -0.0569  0.0302  0.1201
  178MPD1    N1 2720   1.307   4.456   0.596  0.2445 -0.6125  0.4137
  178MPD1    H6 2721   1.404   4.479   0.613  0.4829 -1.2824 -0.0561
  178MPD1    H7 2722   1.261   4.460   0.687  1.4118  1.2637  0.9096
  179MPD1     C 2723   0.367   3.443  16.126  0.2863 -0.3260  0.7838
  179MPD1    C1 2724   0.344   3.384  16.002 -0.0338 -0.6504 -0.4947
  179MPD1    C2 2725   0.411   3.264  15.974  0.2058 -0.1031  1.1841
  179MPD1    C3 2726   0.494   3.207  16.073  0.3394  0.2337 -0.1630
  179MPD1    C4 2727   0.505   3.261  16.201  0.1724 -0.1364 -0.0796
  179MPD1    C5 2728   0.440   3.381  16.221  0.6987 -0.1021 -0.7180
  179MPD1     H 2729   0.415   3.215  15.877 -1.2649  1.7787  0.1522
  179MPD1    H1 2730   0.561   3.219  16.283  0.0982  3.8153  1.9816
  179MPD1    H2 2731   0.309   3.531  16.151  0.6205  0.3883 -0.8909
  179MPD1    H3 2732   0.468   3.429  16.315  0.5880 -2.3303  0.4580
  179MPD1     N 2733   0.570   3.087  16.063  0.3126  0.3223 -0.0173
  179MPD1    H5 2734   0.634   3.057  16.136  0.4950  1.4711  0.2948
  179MPD1    N1 2735   0.265   3.451  15.905  0.5201 -0.5958  0.1294
  179MPD1    H6 2736   0.177   3.491  15.936  1.3268 -1.1711  3.1294
  179MPD1    H7 2737   0.234   3.386  15.833 -0.5213  0.9722 -0.8550
  180MPD1     C 2738   0.471   4.411  15.038 -0.1725 -0.1342 -0.5723
  180MPD1    C1 2739   0.559   4.506  15.065 -0.0785  0.4942 -0.4612
  180MPD1    C2 2740   0.570   4.612  14.977  0.5780  0.1146 -0.0221
  180MPD1    C3 2741   0.479   4.622  14.869  0.8239  0.0962 -0.5375
  180MPD1    C4 2742   0.372   4.532  14.866  0.3187 -0.1424  0.3641
  180MPD1    C5 2743   0.382   4.418  14.942 -0.6530 -0.6652  0.3913
  180MPD1     H 2744   0.652   4.682  14.987  1.5073 -1.0125  0.1861
  180MPD1    H1 2745   0.296   4.530  14.788  1.1286  2.0144 -0.4836
  180MPD1    H2 2746   0.480   4.320  15.096 -0.7783 -0.0025 -0.2715
  180MPD1    H3 2747   0.312   4.336  14.934 -3.2106  1.5697  0.2503
  180MPD1     N 2748   0.494   0.010  14.783  0.5877 -0.2794 -0.3930
  180MPD1    H5 2749   0.575   0.069  14.800  0.0307  0.2844  0.3288
  180MPD1    N1 2750   0.655   4.491  15.166 -0.2600  0.7100 -0.2090
  180MPD1    H6 2751   0.712   4.573  15.187  0.4110  0.6516 -1.8129
  180MPD1    H7 2752   0.614   4.464  15.255  0.0057 -0.3994 -0.4237
  181MPD1     C 2753   2.286   0.668  10.154  0.3934  0.3436 -0.2227
  181MPD1    C1 2754   2.270   0.798  10.170  0.3142 -0.4314 -0.4348
  181MPD1    C2 2755   2.371   0.887  10.137 -0.4444  0.7351 -0.1661
  181MPD1    C3 2756   2.487   0.837  10.073 -1.0526  0.2457  1.1305
  181MPD1    C4 2757   2.503   0.705  10.067 -0.0582 -0.0848  0.0078
  181MPD1    C5 2758   2.401   0.613  10.105  1.1025  0.1191 -0.2193
  181MPD1     H 2759   2.347   0.993  10.147 -2.2437  0.3907 -0.9274
  181MPD1    H1 2760   2.595   0.664  10.026  1.6602  3.0791  0.7034
  181MPD1    H2 2761   2.214   0.592  10.181  2.1391 -1.8461 -1.6953
  181MPD1    H3 2762   2.420   0.507  10.091  0.8279  0.0209  0.1643
  181MPD1     N 2763   2.591   0.922  10.022 -0.5848 -0.6682 -0.2661
  181MPD1    H5 2764   2.674   0.878   9.983  1.2870  0.8635  2.0452
  181MPD1    N1 2765   2.141   0.857  10.189  0.0452  0.2240  0.2832
  181MPD1    H6 2766   2.086   0.785  10.237  0.3270  1.9944  3.2190
  181MPD1    H7 2767   2.141   0.949  10.232  0.4422  0.6555 -0.6670
  182MPD1     C 2768   3.980   0.868   1.121 -0.6170  0.5212 -0.3838
  182MPD1    C1 2769   3.953   0.797   1.004 -0.3355 -0.1545  0.7191
  182MPD1    C2 2770   3.825   0.824   0.947 -0.4150  0.0503  0.2511
  182MPD1    C3 2771   3.723   0.903   1.010  0.9708 -0.2335 -0.1587
  182MPD1    C4 2772   3.762   0.975   1.122 -0.8048 -0.7831  0.1262
  182MPD1    C5 2773   3.880   0.950   1.174  0.5559 -0.4809 -0.2938
  182MPD1     H 2774   3.798   0.764   0.861 -2.5068  2.4136 -0.7403
  182MPD1    H1 2775   3.692   1.035   1.178 -0.3955  1.2183 -1.5376
  182MPD1    H2 2776   4.068   0.860   1.184 -0.8260 -1.9498 -0.3993
  182MPD1    H3 2777   3.905   0.989   1.272 -0.1561 -0.0398 -0.2891
  182MPD1     N 2778   3.587   0.907   0.966 -0.1383 -0.1550  0.4480
  182MPD1    H5 2779   3.519   0.958   1.022  0.1467  1.3241 -0.5551
  182MPD1    N1 2780   4.052   0.712   0.955  0.5043  0.3026 -0.3662
  182MPD1    H6 2781   4.091   0.666   1.036 -0.0881  0.1330 -0.1796
  182MPD1    H7 2782   4.022   0.649   0.881 -0.7021  1.3172 -0.7493
  183MPD1     C 2783   0.026   1.289   9.625  0.1456 -0.2556 -0.2828
  183MPD1    C1 2784   4.648   1.379   9.594  1.2123  0.2649 -0.2657
  183MPD1    C2 2785   4.528   1.377   9.665 -0.4874 -0.7087  0.2493
  183MPD1    C3 2786   4.502   1.274   9.757 -0.7110 -0.0676  0.4510
  183MPD1    C4 2787   4.603   1.179   9.784  0.0474 -0.4250 -0.8772
  183MPD1    C5 2788   0.006   1.193   9.722  0.0261  0.1745 -0.1976
  183MPD1     H 2789   4.459   1.460   9.660  0.9938  0.3647 -2.1893
  183MPD1    H1 2790   4.592   1.101   9.859  2.0070  2.8277  2.8266
  183MPD1    H2 2791   0.122   1.302   9.575  0.0103  0.9676 -0.2333
  183MPD1    H3 2792   0.094   1.136   9.751  0.0419  0.5268  0.4597
  183MPD1     N 2793   4.374   1.271   9.821  0.3951  0.8768  0.1252
  183MPD1    H5 2794   4.302   1.335   9.789 -0.2498  0.3322  0.4961
  183MPD1    N1 2795   4.682   1.494   9.525  0.0421 -0.1274 -0.7472
  183MPD1    H6 2796   4.607   1.544   9.479 -1.6435 -0.0895  2.0402
  183MPD1    H7 2797   0.048   1.485   9.468  1.1293 -0.8273  0.9454
  184MPD1     C 2798   2.619   2.965   9.893 -0.3470 -0.4508  0.0281
  184MPD1    C1 2799   2.720   3.040   9.948 -0.3325 -0.6521 -0.3553
  184MPD1    C2 2800   2.785   3.131   9.864  0.0724 -0.7323  0.0556
  184MPD1    C3 2801   2.749   3.146   9.728 -0.0544  0.0227 -0.3577
  184MPD1    C4 2802   2.641   3.074   9.680  0.0310 -1.6324  0.2993
  184MPD1    C5 2803   2.570   2.990   9.765 -0.2885 -0.1784 -0.0806
  184MPD1     H 2804   2.876   3.179   9.899  0.1709 -0.5846 -0.4002
  184MPD1    H1 2805   2.622   3.071   9.573 -1.3526 -2.0725  0.5550
  184MPD1    H2 2806   2.559   2.896   9.950 -2.9742  1.8958  0.0785
  184MPD1    H3 2807   2.485   2.937   9.722  0.5670 -0.8462 -0.9460
  184MPD1     N 2808   2.820   3.228   9.635 -0.7007 -0.3471  0.3105
  184MPD1    H5 2809   2.770   3.249   9.549 -1.1161  0.9428  0.8701
  184MPD1    N1 2810   2.774   3.003  10.075 -0.1929 -0.1943  0.2255
  184MPD1    H6 2811   2.807   3.092  10.113  3.9035 -1.2624 -0.9474
  184MPD1    H7 2812   2.698   2.977  10.138  0.9036 -1.3082  1.0779
  185MPD1     C 2813   2.962   3.509   8.692 -0.3981  0.9718 -0.0108
  185MPD1    C1 2814   2.930   3.390   8.756 -0.4410 -0.2645 -0.2931
  185MPD1    C2 2815   2.951   3.383   8.896 -0.0992 -0.2939  0.1014
  185MPD1    C3 2816   3.019   3.486   8.962 -0.3977 -0.3275  0.0200
  185MPD1    C4 2817   3.064   3.594   8.890  0.2541 -0.0042 -1.6772
  185MPD1    C5 2818   3.030   3.609   8.760  0.1700  0.0415  0.4687
  185MPD1     H 2819   2.920   3.295   8.952 -1.0172 -0.3023 -0.4224
  185MPD1    H1 2820   3.134   3.664   8.934  0.9691 -1.2320 -0.8570
  185MPD1    H2 2821   2.936   3.524   8.588 -2.4955  1.1542  0.5464
  185MPD1    H3 2822   3.045   3.702   8.706  0.1477 -0.9770 -1.2963
  185MPD1     N 2823   3.047   3.481   9.100 -0.3703  0.1690  0.1514
  185MPD1    H5 2824   3.090   3.564   9.141  0.9514 -0.5792  0.2778
  185MPD1    N1 2825   2.843   3.301   8.684  0.2287  0.7633  0.2958
  185MPD1    H6 2826   2.879   3.307   8.589  2.8723  0.1668  1.2536
  185MPD1    H7 2827   2.837   3.210   8.728  0.1502  0.7858  0.3322
  186MPD1     C 2828   0.843   4.120  15.653  0.2369  0.0781  0.4770
  186MPD1    C1 2829   0.787   4.094  15.777 -0.0280 -0.1188  0.1251
  186MPD1    C2 2830   0.876   4.050  15.872 -0.2734  0.3047 -0.5626
  186MPD1    C3 2831   1.016   4.030  15.843  0.3136  0.1047 -0.8844
  186MPD1    C4 2832   1.063   4.059  15.722  0.3989  0.0651  0.5855
  186MPD1    C5 2833   0.980   4.097  15.624 -0.6541 -0.5038 -0.2614
  186MPD1     H 2834   0.838   4.032  15.972  0.0237  2.3936 -0.0812
  186MPD1    H1 2835   1.169   4.058  15.698  1.1343  1.1509  3.7694
  186MPD1    H2 2836   0.791   4.160  15.566 -1.4753  1.2607  2.0394
  186MPD1    H3 2837   1.017   4.112  15.523  0.9201 -2.2788  0.0380
  186MPD1     N 2838   1.112   3.975  15.935 -0.6704  0.0865 -0.1671
  186MPD1    H5 2839   1.208   3.978  15.904 -1.5427 -0.1477 -2.8635
  186MPD1    N1 2840   0.658   4.134  15.815 -0.2957 -0.1814 -0.0908
  186MPD1    H6 2841   0.628   4.063  15.882 -0.8675  0.5698  0.4440
  186MPD1    H7 2842   0.591   4.123  15.739 -0.5542  1.4442 -0.0866
  187MPD1     C 2843   1.091   0.698  17.324  0.5748 -0.0000  0.2234
  187MPD1    C1 2844   0.997   0.603  17.358  0.1742  0.2787 -0.2862
  187MPD1    C2 2845   0.881   0.603  17.281  0.6094 -0.2253  0.0886
  187MPD1    C3 2846   0.851   0.693  17.181  0.2972 -0.9037  0.9314
  187MPD1    C4 2847   0.950   0.785  17.158 -0.0972  0.3284  0.7817
  187MPD1    C5 2848   1.067   0.786  17.227 -0.6267 -0.7751 -0.6316
  187MPD1     H 2849   0.809   0.528  17.312  0.2384  0.6843  1.4078
  187MPD1    H1 2850   0.943   0.863  17.084 -0.4266  0.3456  0.8320
  187MPD1    H2 2851   1.188   0.709  17.371  0.3628  2.4605  0.0970
  187MPD1    H3 2852   1.144   0.852  17.189 -1.2279  0.7318  0.7555
  187MPD1     N 2853   0.735   0.677  17.095  0.5717 -0.0970 -0.0679
  187MPD1    H5 2854   0.712   0.750  17.029 -0.3425 -1.9194 -1.7664
  187MPD1    N1 2855   1.031   0.509  17.457  0.1516  0.1358 -0.0437
  187MPD1    H6 2856   1.115   0.540  17.507  0.6202 -0.0448 -0.7221
  187MPD1    H7 2857   0.964   0.495  17.532 -0.9204 -0.8973 -1.1824
  188MPD1     C 2858   1.018   0.158  10.394 -0.1853  0.0409  0.0869
  188MPD1    C1 2859   1.066   0.048  10.326 -0.3163  0.1083  1.0601
  188MPD1    C2 2860   0.981   4.661  10.298  0.2235  0.3457 -0.4516
  188MPD1    C3 2861   0.853   4.654  10.351  0.3276 -0.4087 -0.0469
  188MPD1    C4 2862   0.804   0.046  10.420  0.4188 -0.8992 -0.0561
  188MPD1    C5 2863   0.889   0.152  10.449  0.0644 -0.1701  0.1472
  188MPD1     H 2864   1.001   4.582  10.227 -4.5797  0.3610 -1.8529
  188MPD1    H1 2865   0.714   0.049  10.480  0.6554  0.3529  0.2259
  188MPD1    H2 2866   1.086   0.241  10.413  0.7690 -0.7187  0.0280
  188MPD1    H3 2867   0.859   0.226  10.522 -0.3862 -0.3311  0.1262
  188MPD1     N 2868   0.773   4.544  10.323  0.2582 -0.3882 -0.0047
  188MPD1    H5 2869   0.824   4.469  10.280 -1.6627 -0.2348 -2.5570
  188MPD1    N1 2870   1.200   0.053  10.283  0.0902 -0.3441  1.1870
  188MPD1    H6 2871   1.245   4.680  10.270  1.6863  0.9407 -2.1305
  188MPD1    H7 2872   1.260   0.112  10.340 -0.3888  1.6474 -0.3990
  189MPD1     C 2873   2.379   1.730   0.577  0.3530  0.2904  0.8355
  189MPD1    C1 2874   2.281   1.823   0.537 -0.2598  0.1590  0.4601
  189MPD1    C2 2875   2.159   1.804   0.587 -1.0136  0.1432 -0.5787
  189MPD1    C3 2876   2.124   1.699   0.675  0.1366  0.2544  0.1867
  189MPD1    C4 2877   2.227   1.615   0.704 -0.1951 -0.2456 -0.9447
  189MPD1    C5 2878   2.353   1.628   0.665 -0.1932 -0.3641  0.0441
  189MPD1     H 2879   2.079   1.871   0.560 -3.0360 -2.4814 -1.1174
  189MPD1    H1 2880   2.202   1.537   0.776 -1.4452  1.9372  1.0205
  189MPD1    H2 2881   2.483   1.723   0.545 -0.1247 -2.2451 -0.1904
  189MPD1    H3 2882   2.438   1.583   0.714 -0.3076 -0.1289  0.4628
  189MPD1     N 2883   1.989   1.681   0.714 -0.2029  0.5723 -0.0154
  189MPD1    H5 2884   1.922   1.750   0.681 -0.0802  0.4530 -0.5096
  189MPD1    N1 2885   2.310   1.926   0.443  0.2080  0.2201 -0.3787
  189MPD1    H6 2886   2.265   2.011   0.477  0.4943 -0.1276  0.8613
  189MPD1    H7 2887   2.409   1.934   0.420  0.3768  1.5184  0.7522
  190MPD1     C 2888   1.351   0.907  15.370  0.3596  0.6890  0.1832
  190MPD1    C1 2889   1.425   0.842  15.271  0.2529  0.2608 -0.1310
  190MPD1    C2 2890   1.464   0.713  15.297  0.5070  0.3165  0.2497
  190MPD1    C3 2891   1.434   0.652  15.421  0.5461 -0.3519 -0.6499
  190MPD1    C4 2892   1.368   0.726  15.518  0.0756  0.1479 -0.0874
  190MPD1    C5 2893   1.319   0.847  15.486  0.0442  0.8023  0.3906
  190MPD1     H 2894   1.502   0.647  15.219  0.4321  0.7610 -0.1635
  190MPD1    H1 2895   1.340   0.681  15.612  0.5934 -0.2365 -0.1181
  190MPD1    H2 2896   1.310   1.007  15.361 -1.1391 -0.1532 -2.6483
  190MPD1    H3 2897   1.258   0.903  15.556 -0.5107  3.3436 -2.1241
  190MPD1     N 2898   1.478   0.514  15.431 -0.1132  0.3117 -0.1623
  190MPD1    H5 2899   1.539   0.482  15.357  2.1579  0.1479  1.7801
  190MPD1    N1 2900   1.439   0.901  15.145 -0.4351  0.2032 -0.0948
  190MPD1    H6 2901   1.453   1.001  15.149 -1.8740  0.3629  1.1122
  190MPD1    H7 2902   1.507   0.851  15.087 -1.0521  1.7403 -2.1262
  191MPD1     C 2903   0.484   0.601  12.094 -0.6336 -1.0534  0.4142
  191MPD1    C1 2904   0.408   0.644  12.198 -0.6014 -0.5143  0.4362
  191MPD1    C2 2905   0.397   0.781  12.221 -0.0608 -1.0637  0.0883
  191MPD1    C3 2906   0.468   0.872  12.143  0.1521 -0.7028  0.0928
  191MPD1    C4 2907   0.556   0.828  12.047  0.7093  0.4988  0.0427
  191MPD1    C5 2908   0.562   0.694  12.023 -0.2540  0.2413  0.9238
  191MPD1     H 2909   0.326   0.815  12.295 -0.5224 -0.8924 -0.4301
  191MPD1    H1 2910   0.633   0.884  11.996  1.5933 -0.9846 -0.2775
  191MPD1    H2 2911   0.487   0.497  12.064  1.8436 -0.4367 -1.4830
  191MPD1    H3 2912   0.632   0.659  11.948 -0.0436 -0.9538  1.6773
  191MPD1     N 2913   0.451   1.007  12.171  0.6238  0.0358 -0.8080
  191MPD1    H5 2914   0.372   1.038  12.227  0.7441 -1.2000  0.0384
  191MPD1    N1 2915   0.320   0.554  12.269  0.2592 -0.0227  0.0844
  191MPD1    H6 2916   0.291   0.583  12.362 -1.7530  0.3564 -0.6706
  191MPD1    H7 2917   0.351   0.457  12.277  1.1483  0.3863  1.6116
  192MPD1     C 2918   0.235   1.100  12.972  1.0442  0.0845  0.6532
  192MPD1    C1 2919   0.224   1.235  12.927  0.1411  0.5086 -0.3326
  192MPD1    C2 2920   0.306   1.270  12.823 -0.4279  0.8826  0.5017
  192MPD1    C3 2921   0.385   1.177  12.754 -0.9329  0.1514  0.1336
  192MPD1    C4 2922   0.392   1.049  12.791 -0.0314 -0.3528 -0.1473
  192MPD1    C5 2923   0.321   1.013  12.908  0.1761 -0.6189 -0.1697
  192MPD1     H 2924   0.301   1.375  12.797  1.9635  1.3216  1.8343
  192MPD1    H1 2925   0.449   0.974  12.738  1.1141 -0.6470  1.4946
  192MPD1    H2 2926   0.187   1.055  13.058 -0.0200 -1.6687 -0.8490
  192MPD1    H3 2927   0.331   0.908  12.935  0.6837 -0.6429 -0.4417
  192MPD1     N 2928   0.456   1.219  12.633 -0.3293  0.4658  0.2475
  192MPD1    H5 2929   0.515   1.148  12.592 -3.2635 -1.6529 -0.3294
  192MPD1    N1 2930   0.169   1.324  13.020 -0.3856 -0.0623 -0.5693
  192MPD1    H6 2931   0.088   1.287  13.069  2.1493 -3.2909  1.1791
  192MPD1    H7 2932   0.145   1.417  12.986 -1.2581 -1.1813 -3.0687
  193MPD1     C 2933   4.142   2.051  16.454  0.1142 -0.6311 -0.2167
  193MPD1    C1 2934   4.232   1.991  16.375  0.4242  0.0460  0.0556
  193MPD1    C2 2935   4.363   2.011  16.390  0.4069 -0.9449  0.1260
  193MPD1    C3 2936   4.409   2.085  16.500 -0.6748 -0.0958 -0.4492
  193MPD1    C4 2937   4.316   2.134  16.593 -0.4018 -0.4450  0.6256
  193MPD1    C5 2938   4.184   2.119  16.562 -0.2663 -0.7987 -0.0636
  193MPD1     H 2939   4.425   1.972  16.310  2.6216  1.9858  0.4123
  193MPD1    H1 2940   4.342   2.187  16.684 -1.5364  2.3385 -0.6908
  193MPD1    H2 2941   4.035   2.055  16.437 -0.0209 -2.4682  0.1407
  193MPD1    H3 2942   4.106   2.155  16.628  0.7350  0.2584  0.5241
  193MPD1     N 2943   4.549   2.109  16.525 -0.1178  0.1445  0.1955
  193MPD1    H5 2944   4.564   2.168  16.606  0.2859  0.3766 -0.0483
  193MPD1    N1 2945   4.181   1.927  16.260 -0.3709  0.2572  0.4400
  193MPD1    H6 2946   4.241   1.849  16.232  1.8911  1.6063  1.5033
  193MPD1    H7 2947   4.085   1.894  16.267  0.3670 -1.8951  0.3778
  194MPD1     C 2948   2.134   4.570  16.248  0.9383  0.3005  0.1810
  194MPD1    C1 2949   2.101   4.437  16.260  0.1063 -0.0489 -0.0196
  194MPD1    C2 2950   2.203   4.355  16.307 -0.2009  0.1911  0.0533
  194MPD1    C3 2951   2.333   4.386  16.317 -0.0792 -0.8709 -0.2745
  194MPD1    C4 2952   2.357   4.516  16.309 -0.9538  0.3059 -0.0906
  194MPD1    C5 2953   2.266   4.606  16.276  0.1014  0.1913 -0.1390
  194MPD1     H 2954   2.179   4.257  16.348  0.9141  0.1321  0.5523
  194MPD1    H1 2955   2.462   4.544  16.309 -1.1130  0.8979  0.5036
  194MPD1    H2 2956   2.059   4.646  16.230  0.5540 -0.4933 -1.5656
  194MPD1    H3 2957   2.296   4.710  16.282  1.2219 -0.1489  0.0700
  194MPD1     N 2958   2.434   4.289  16.341  0.1895  0.3839  0.4000
  194MPD1    H5 2959   2.530   4.323  16.349 -0.0911  1.2279  0.2518
  194MPD1    N1 2960   1.966   4.399  16.255 -0.3247  0.1406  0.3549
  194MPD1    H6 2961   1.946   4.307  16.216 -1.9089  0.5172  0.2670
  194MPD1    H7 2962   1.910   4.462  16.198  0.1183  1.3887  1.2967
  195MPD1     C 2963   0.167   1.584  17.386  0.0088 -0.4190  0.1814
  195MPD1    C1 2964   0.267   1.496  17.338  0.5724 -0.3695 -0.7720
  195MPD1    C2 2965   0.266   1.360  17.372  0.1942  0.1119  0.0031
  195MPD1    C3 2966   0.189   1.313  17.473 -0.3570 -0.1733 -0.6850
  195MPD1    C4 2967   0.096   1.398  17.525  0.2659 -0.5901  0.5244
  195MPD1    C5 2968   0.080   1.528  17.484  0.3041 -0.2839 -0.9163
  195MPD1     H 2969   0.336   1.297  17.319  0.2882  1.2222 -1.2131
  195MPD1    H1 2970   0.039   1.357  17.608  0.0319  0.4007  0.8617
  195MPD1    H2 2971   0.149   1.684  17.347  1.1310 -0.4058 -0.3115
  195MPD1    H3 2972   4.711   1.582  17.520  1.1101  0.2881  0.1560
  195MPD1     N 2973   0.200   1.185  17.524 -0.5336 -0.1268 -0.1840
  195MPD1    H5 2974   0.150   1.162  17.609  3.7991 -1.5454  2.0045
  195MPD1    N1 2975   0.354   1.537  17.230 -0.0549 -0.3957  0.6820
  195MPD1    H6 2976   0.388   1.633  17.225 -0.9687 -0.1240 -0.3618
  195MPD1    H7 2977   0.433   1.474  17.222  0.1231  0.0362 -0.9142
  196MPD1     C 2978   3.937   0.226   0.483 -0.2627  0.0102 -0.5465
  196MPD1    C1 2979   3.911   0.318   0.386 -0.1771 -0.2434  0.1015
  196MPD1    C2 2980   4.000   0.420   0.365 -0.5113 -0.2128  0.4988
  196MPD1    C3 2981   4.094   0.444   0.460  0.1117  0.5419  0.4249
  196MPD1    C4 2982   4.106   0.366   0.567  0.6128 -0.2269 -0.0377
  196MPD1    C5 2983   4.029   0.253   0.577  0.7223 -0.7507  0.4903
  196MPD1     H 2984   3.986   0.471   0.270  2.9235 -0.3368 -0.0578
  196MPD1    H1 2985   4.168   0.392   0.652  0.8646 -0.3216 -0.1947
  196MPD1    H2 2986   3.868   0.142   0.490  0.0296 -0.0153  2.2469
  196MPD1    H3 2987   4.049   0.186   0.661  0.8715 -0.2006  0.8905
  196MPD1     N 2988   4.178   0.561   0.449 -0.9597 -0.0519 -0.0423
  196MPD1    H5 2989   4.257   0.560   0.513  1.2055  1.0459 -2.7242
  196MPD1    N1 2990   3.829   0.279   0.278 -0.0389 -0.6131  0.5870
  196MPD1    H6 2991   3.801   0.359   0.222  0.6636 -1.4496 -0.9565
  196MPD1    H7 2992   3.751   0.218   0.300  0.1202 -0.8313  0.5490
  197MPD1     C 2993   3.779   2.134  17.125 -0.8082 -0.2696 -0.1451
  197MPD1    C1 2994   3.884   2.227  17.108 -0.9391  0.1098 -0.3287
  197MPD1    C2 2995   3.864   2.333  17.019 -0.7706  0.2242 -0.2400
  197MPD1    C3 2996   3.743   2.355  16.949  0.9051  0.4394  0.4051
  197MPD1    C4 2997   3.640   2.276  16.985 -0.2880  0.0661 -0.7552
  197MPD1    C5 2998   3.657   2.164  17.071  0.3172  0.2856  0.0347
  197MPD1     H 2999   3.954   2.389  16.995  0.3138 -1.6085 -0.4519
  197MPD1    H1 3000   3.539   2.280  16.944 -0.9668 -0.0427  0.9213
  197MPD1    H2 3001   3.775   2.051  17.195  0.2726 -0.5798 -0.4518
  197MPD1    H3 3002   3.578   2.090  17.083  1.3173 -0.9740 -1.1337
  197MPD1     N 3003   3.718   2.457  16.857  0.4706  0.0870 -0.0942
  197MPD1    H5 3004   3.626   2.451  16.814 -0.3671  1.1959  1.5427
  197MPD1    N1 3005   4.011   2.193  17.161  0.4597 -0.7252 -0.5929
  197MPD1    H6 3006   4.077   2.270  17.160  0.9586 -1.1414  0.1414
  197MPD1    H7 3007   4.012   2.165  17.259  2.0834 -0.9115 -0.6709
  198MPD1     C 3008   0.813   0.838  15.941  0.1081 -0.3474  0.3829
  198MPD1    C1 3009   0.789   0.957  15.877 -0.3034 -1.0386  1.0284
  198MPD1    C2 3010   0.879   1.066  15.910  0.3498  0.5446 -0.9093
  198MPD1    C3 3011   0.970   1.065  16.011  0.1363 -0.5290  0.4039
  198MPD1    C4 3012   0.989   0.942  16.071  0.0939  0.0005 -0.8525
  198MPD1    C5 3013   0.906   0.836  16.039  0.0790 -0.1435  0.1253
  198MPD1     H 3014   0.869   1.167  15.872 -0.6125  1.2271  1.1206
  198MPD1    H1 3015   1.073   0.923  16.136 -0.8076  1.7687  0.8389
  198MPD1    H2 3016   0.765   0.743  15.920 -0.9159  0.5202 -1.1909
  198MPD1    H3 3017   0.915   0.740  16.089  2.6963  0.3823  0.6498
  198MPD1     N 3018   1.037   1.187  16.049 -0.6107  0.0327  0.0943
  198MPD1    H5 3019   1.017   1.273  15.999  3.3981  1.0063  0.1846
  198MPD1    N1 3020   0.724   0.962  15.752  0.1005  0.2068  0.3581
  198MPD1    H6 3021   0.643   0.901  15.741  0.7978 -0.3430 -1.6833
  198MPD1    H7 3022   0.690   1.053  15.722 -0.2977 -0.4286 -1.1134
  199MPD1     C 3023   3.846   1.605   9.951  0.3416 -0.6584  0.4734
  199MPD1    C1 3024   3.815   1.683   9.841  0.7299  0.0614 -0.2054
  199MPD1    C2 3025   3.678   1.708   9.809  0.2843 -0.2776  0.3965
  199MPD1    C3 3026   3.581   1.626   9.865  0.0901  0.2421  0.1138
  199MPD1    C4 3027   3.610   1.538   9.964 -0.6196 -0.0444  1.0661
  199MPD1    C5 3028   3.739   1.529  10.000 -0.0656  0.2881 -0.7690
  199MPD1     H 3029   3.660   1.779   9.730 -0.1181  0.0428  0.7740
  199MPD1    H1 3030   3.534   1.472  10.004 -2.4558  1.5660  0.2558
  199MPD1    H2 3031   3.947   1.594   9.988  0.2699  4.7973  2.1972
  199MPD1    H3 3032   3.767   1.458  10.077 -1.0166  0.3387 -0.3720
  199MPD1     N 3033   3.446   1.635   9.823  0.3532 -0.2048  1.0225
  199MPD1    H5 3034   3.378   1.567   9.856  0.2555 -0.6313 -0.0699
  199MPD1    N1 3035   3.918   1.751   9.777 -0.1745  0.1384 -0.1082
  199MPD1    H6 3036   4.009   1.712   9.799 -0.0313 -0.1124 -1.1389
  199MPD1    H7 3037   3.915   1.753   9.675 -0.0143 -0.9375 -0.1279
  200MPD1     C 3038   1.571   2.290  15.263  0.5412 -0.0590 -0.6625
  200MPD1    C1 3039   1.580   2.258  15.131  0.5948  0.3728  0.0544
  200MPD1    C2 3040   1.703   2.240  15.069 -0.1731  0.4957  0.3027
  200MPD1    C3 3041   1.813   2.263  15.143 -0.0704 -0.6885 -1.3469
  200MPD1    C4 3042   1.806   2.291  15.281 -0.3112  0.5040 -0.1279
  200MPD1    C5 3043   1.680   2.301  15.337  0.7211  0.4605 -0.3934
  200MPD1     H 3044   1.712   2.213  14.965 -2.8020 -1.5922  0.6200
  200MPD1    H1 3045   1.890   2.288  15.349  0.6514 -0.5646 -1.3703
  200MPD1    H2 3046   1.477   2.304  15.314  1.2756 -0.2844  0.7517
  200MPD1    H3 3047   1.676   2.315  15.444 -1.6841 -1.9116 -0.1713
  200MPD1     N 3048   1.931   2.249  15.075 -0.1793  0.1609  0.1879
  200MPD1    H5 3049   1.928   2.211  14.981 -1.0985 -0.4168  0.4491
  200MPD1    N1 3050   1.468   2.226  15.061 -0.4888  0.2664  0.2725
  200MPD1    H6 3051   1.382   2.276  15.084  0.0492  0.9607  0.7435
  200MPD1    H7 3052   1.480   2.236  14.960  0.9389 -3.4075  0.0988
  201MPD1     C 3053   0.168   0.504  12.982 -0.1337 -0.1845 -0.6630
  201MPD1    C1 3054   0.142   0.395  13.058  0.1470 -0.2578 -0.3258
  201MPD1    C2 3055   0.098   0.408  13.193 -0.0158  0.2611  0.7697
  201MPD1    C3 3056   0.068   0.533  13.240 -0.4565 -0.1776  0.0722
  201MPD1    C4 3057   0.097   0.644  13.167  0.9046 -0.3382 -0.5710
  201MPD1    C5 3058   0.141   0.627  13.039 -0.7055  0.4694 -0.6372
  201MPD1     H 3059   0.068   0.321  13.250 -2.5618  0.9259  0.4597
  201MPD1    H1 3060   0.084   0.745  13.204 -0.7640 -0.4022 -0.9715
  201MPD1    H2 3061   0.190   0.507  12.876 -0.2859  3.0313 -0.6066
  201MPD1    H3 3062   0.154   0.717  12.980  0.4190 -0.0164 -1.1320
  201MPD1     N 3063   0.015   0.544  13.369 -0.5116 -0.0537 -0.0598
  201MPD1    H5 3064   4.711   0.454  13.410  3.4320 -0.5224  1.0533
  201MPD1    N1 3065   0.172   0.270  13.005  0.1428 -0.1384 -0.2729
  201MPD1    H6 3066   0.120   0.256  12.918  0.1387  0.9225 -0.4416
  201MPD1    H7 3067   0.152   0.195  13.070 -0.4663 -0.7621 -1.1811
  202MPD1     C 3068   3.903   0.621   9.301 -0.5539 -0.0170 -0.1671
  202MPD1    C1 3069   3.875   0.488   9.293 -0.1801 -0.0084 -0.9833
  202MPD1    C2 3070   3.936   0.421   9.397 -0.5186  0.3534  0.2703
  202MPD1    C3 3071   4.040   0.469   9.476  0.1557  0.5085 -0.2421
  202MPD1    C4 3072   4.074   0.597   9.464 -0.3219  0.3235 -0.0155
  202MPD1    C5 3073   4.001   0.669   9.378  0.5427 -0.0551 -0.0317
  202MPD1     H 3074   3.909   0.316   9.401 -0.3879  0.2929 -0.5389
  202MPD1    H1 3075   4.154   0.644   9.521 -0.7843  0.8760  0.1800
  202MPD1    H2 3076   3.835   0.692   9.255  2.5727  1.7199 -2.0692
  202MPD1    H3 3077   4.029   0.774   9.382  1.2391 -0.1792 -1.3590
  202MPD1     N 3078   4.098   0.389   9.579 -0.0215  0.2531  0.2431
  202MPD1    H5 3079   4.151   0.439   9.649  0.8482 -0.3481  0.0079
  202MPD1    N1 3080   3.756   0.449   9.231 -0.0420  0.0592 -1.0486
  202MPD1    H6 3081   3.744   0.350   9.212  1.2196 -0.2471 -0.2372
  202MPD1    H7 3082   3.744   0.496   9.142  1.1669 -0.5155 -1.5180
  203MPD1     C 3083   2.887   2.059  12.480  0.1277  0.3395 -0.4789
  203MPD1    C1 3084   2.919   1.980  12.366 -0.4742 -0.2919  0.2099
  203MPD1    C2 3085   2.965   1.855  12.397  0.0516 -0.2724  0.3261
  203MPD1    C3 3086   3.019   1.825  12.523  0.7529  0.3376 -0.1507
  203MPD1    C4 3087   2.994   1.909  12.631  0.1788 -0.0790 -0.3533
  203MPD1    C5 3088   2.933   2.028  12.607 -0.3873 -0.1319 -0.6291
  203MPD1     H 3089   2.984   1.784  12.318 -1.9411  1.4988 -1.7496
  203MPD1    H1 3090   3.020   1.880  12.732  1.3214  1.1050 -0.3108
  203MPD1    H2 3091   2.831   2.151  12.467 -0.1698  0.3932  1.1433
  203MPD1    H3 3092   2.918   2.101  12.685  2.6823  0.4082 -0.5160
  203MPD1     N 3093   3.084   1.703  12.539 -0.0346  0.4590  0.0500
  203MPD1    H5 3094   3.088   1.642  12.458  0.6494  0.0781  0.3633
  203MPD1    N1 3095   2.868   2.010  12.237  0.7285  0.1314  0.2072
  203MPD1    H6 3096   2.932   1.968  12.170  0.2872 -0.3659  0.0922
  203MPD1    H7 3097   2.857   2.110  12.221 -1.5462 -0.5636 -2.5788
  204MPD1     C 3098   2.239   2.706   0.027  0.0970 -0.1226 -0.0421
  204MPD1    C1 3099   2.131   2.643  17.641 -0.1197  0.1017 -0.3201
  204MPD1    C2 3100   2.158   2.592  17.513  0.0521  0.1737  0.1320
  204MPD1    C3 3101   2.277   2.617  17.445  0.9677 -0.7530 -1.1840
  204MPD1    C4 3102   2.380   2.687  17.506  0.3941  0.0321 -0.1362
  204MPD1    C5 3103   2.360   2.720  17.638  0.2360  0.4708  0.5554
  204MPD1     H 3104   2.085   2.541  17.452  0.7932 -0.1346 -0.4906
  204MPD1    H1 3105   2.472   2.713  17.456  0.7094 -0.1163  0.3700
  204MPD1    H2 3106   2.227   2.753   0.124 -2.9745  0.4425 -0.7212
  204MPD1    H3 3107   2.430   2.782   0.019  0.6082  0.2874  0.2968
  204MPD1     N 3108   2.278   2.578  17.309  0.2893 -0.8034  0.7651
  204MPD1    H5 3109   2.196   2.527  17.280 -0.4357  0.9944 -0.3856
  204MPD1    N1 3110   2.009   2.628   0.037 -0.0356  0.6541  0.3030
  204MPD1    H6 3111   1.993   2.699   0.108 -1.4853  0.6319 -0.0021
  204MPD1    H7 3112   1.935   2.635  17.644  0.7538 -2.1795 -0.8450
  205MPD1     C 3113   1.849   1.126  16.550 -0.4502  0.0930  0.1827
  205MPD1    C1 3114   1.971   1.103  16.611  0.5219  0.0373  0.5162
  205MPD1    C2 3115   2.008   1.192  16.708 -0.0763  0.0842 -0.4452
  205MPD1    C3 3116   1.925   1.290  16.747 -0.4833 -0.1607 -0.0271
  205MPD1    C4 3117   1.804   1.311  16.679 -0.4020  0.3943  0.3518
  205MPD1    C5 3118   1.767   1.226  16.586  0.3922  0.7598 -0.2654
  205MPD1     H 3119   2.109   1.180  16.745 -0.1514 -1.8372 -0.8591
  205MPD1    H1 3120   1.736   1.390  16.708  1.8929  1.9645  1.4101
  205MPD1    H2 3121   1.807   1.068  16.469  0.7090  0.0002 -0.3476
  205MPD1    H3 3122   1.670   1.234  16.538 -1.1620 -2.5326  2.2485
  205MPD1     N 3123   1.944   1.365  16.867 -0.0836  0.1145  0.3842
  205MPD1    H5 3124   1.874   1.435  16.888 -0.5711 -0.0498 -0.7134
  205MPD1    N1 3125   2.058   1.004  16.571 -0.2223  0.5512  0.0352
  205MPD1    H6 3126   2.009   0.931  16.520 -2.3461  1.4220  0.8275
  205MPD1    H7 3127   2.104   0.958  16.650  0.4940 -0.8029 -1.1602
  206MPD1     C 3128   3.082   3.936  16.841  0.2129 -0.2831  0.2890
  206MPD1    C1 3129   3.004   3.839  16.791 -0.5597 -0.3424  0.8809
  206MPD1    C2 3130   2.994   3.829  16.653  0.3037  0.2174 -0.4660
  206MPD1    C3 3131   3.022   3.940  16.571 -0.1297  0.1605  0.1764
  206MPD1    C4 3132   3.082   4.048  16.629  0.5672  0.1048  0.4862
  206MPD1    C5 3133   3.121   4.041  16.763  0.0521 -0.1633 -0.1630
  206MPD1     H 3134   2.942   3.745  16.607  0.3250 -0.8687  1.5123
  206MPD1    H1 3135   3.116   4.138  16.581  0.0473 -0.6860 -1.3548
  206MPD1    H2 3136   3.106   3.942  16.947 -1.0167  0.1601  0.5508
  206MPD1    H3 3137   3.176   4.119  16.815 -0.2131  0.8034 -1.3380
  206MPD1     N 3138   3.002   3.947  16.433 -0.4541 -0.4881  0.5429
  206MPD1    H5 3139   3.036   4.030  16.386 -2.3360 -0.6656 -1.1576
  206MPD1    N1 3140   2.958   3.735  16.874  0.0713  0.6771 -0.1977
  206MPD1    H6 3141   2.872   3.692  16.840  0.4566  0.9374 -1.5126
  206MPD1    H7 3142   2.931   3.767  16.967  1.0560 -2.9675  1.3338
  207MPD1     C 3143   0.634   0.764   9.926 -0.6925  1.0907 -0.6132
  207MPD1    C1 3144   0.642   0.864   9.831 -0.4229  0.0024  0.6197
  207MPD1    C2 3145   0.693   0.986   9.867  0.3575 -0.1641  0.6333
  207MPD1    C3 3146   0.753   1.016   9.996 -0.7333 -0.0517  0.8082
  207MPD1    C4 3147   0.752   0.915  10.086  0.1003  0.0751 -0.0585
  207MPD1    C5 3148   0.695   0.790  10.053 -0.1864 -0.0118 -0.2762
  207MPD1     H 3149   0.689   1.064   9.791  1.6027 -2.0744 -1.3736
  207MPD1    H1 3150   0.802   0.924  10.182 -2.1440  1.8500  0.9274
  207MPD1    H2 3151   0.622   0.659   9.902  1.0249  0.7440 -0.0010
  207MPD1    H3 3152   0.698   0.710  10.126  0.9805 -0.1356 -0.4597
  207MPD1     N 3153   0.820   1.134  10.033  0.4388 -0.0843  0.1597
  207MPD1    H5 3154   0.849   1.139  10.130  0.8859 -0.7338  0.0597
  207MPD1    N1 3155   0.602   0.840   9.698  0.1485  0.5517  0.4336
  207MPD1    H6 3156   0.607   0.927   9.646 -0.8265  0.0646 -0.4714
  207MPD1    H7 3157   0.511   0.796   9.692  1.2034 -1.3898 -1.4875
  208MPD1     C 3158   2.794   0.510  16.805 -0.4476  0.5978  0.3186
  208MPD1    C1 3159   2.861   0.444  16.908  0.7272 -0.4063  0.3263
  208MPD1    C2 3160   2.860   0.493  17.040  1.7320 -0.3460 -0.3237
  208MPD1    C3 3161   2.767   0.596  17.069 -0.6642  0.5216  0.0152
  208MPD1    C4 3162   2.690   0.648  16.972  0.2090 -1.5268 -0.4726
  208MPD1    C5 3163   2.706   0.606  16.841 -0.1097 -0.0376 -0.1556
  208MPD1     H 3164   2.930   0.460  17.115  0.3739  0.0871  1.1283
  208MPD1    H1 3165   2.600   0.701  17.003 -0.1250 -0.8566 -2.5997
  208MPD1    H2 3166   2.807   0.469  16.706 -2.9691  0.0177  0.2356
  208MPD1    H3 3167   2.631   0.645  16.772 -0.1875  1.0338  0.5315
  208MPD1     N 3168   2.752   0.626  17.207  0.3626  0.8327 -0.0160
  208MPD1    H5 3169   2.795   0.570  17.280 -0.0734 -2.2156 -2.1040
  208MPD1    N1 3170   2.967   0.353  16.874 -0.1959  0.2978 -0.1894
  208MPD1    H6 3171   2.940   0.276  16.813  2.4604  0.3308 -1.4162
  208MPD1    H7 3172   3.013   0.316  16.957  1.1912  0.8990 -0.6875
  209MPD1     C 3173   0.666   1.397  11.734 -0.7576  0.3911 -0.3517
  209MPD1    C1 3174   0.668   1.485  11.627  0.3702  0.4003  0.1906
  209MPD1    C2 3175   0.666   1.439  11.494 -0.5001  0.3818 -0.4018
  209MPD1    C3 3176   0.664   1.302  11.477 -0.6699 -0.7535 -0.0147
  209MPD1    C4 3177   0.658   1.209  11.580  0.4845 -0.3301  0.0894
  209MPD1    C5 3178   0.651   1.261  11.711  0.7438 -0.0587 -0.0030
  209MPD1     H 3179   0.672   1.506  11.409  2.3590  1.8558  0.9833
  209MPD1    H1 3180   0.642   1.102  11.569  0.1082 -0.1920 -0.7125
  209MPD1    H2 3181   0.649   1.429  11.836  3.5642  2.6239 -0.3493
  209MPD1    H3 3182   0.635   1.206  11.803  0.0027  0.2952  0.0791
  209MPD1     N 3183   0.670   1.257  11.338 -0.4407  0.2811 -0.3892
  209MPD1    H5 3184   0.662   1.333  11.271 -0.0065  0.6370 -0.0349
  209MPD1    N1 3185   0.666   1.626  11.659 -0.3193 -0.8102  0.4567
  209MPD1    H6 3186   0.601   1.683  11.604  2.4540  1.8811 -0.0245
  209MPD1    H7 3187   0.638   1.652  11.754 -1.1288  2.1282 -0.5695
  210MPD1     C 3188   0.965   0.402  10.745  0.0680 -0.3329 -0.7264
  210MPD1    C1 3189   0.886   0.407  10.857  0.1537 -0.4195 -0.5037
  210MPD1    C2 3190   0.846   0.533  10.903  0.0189  0.0985 -0.2860
  210MPD1    C3 3191   0.890   0.642  10.837  0.4415 -0.3536 -0.7484
  210MPD1    C4 3192   0.956   0.638  10.721  0.5840 -0.4472 -0.2415
  210MPD1    C5 3193   1.003   0.514  10.680  0.6523  0.2689  0.5700
  210MPD1     H 3194   0.789   0.532  10.995  0.2074  0.8338 -0.1659
  210MPD1    H1 3195   0.989   0.734  10.683  0.5888  1.0205  3.4668
  210MPD1    H2 3196   0.998   0.307  10.707  0.7830 -1.5719  2.9346
  210MPD1    H3 3197   1.074   0.514  10.598  0.7874 -2.2116  0.7039
  210MPD1     N 3198   0.842   0.768  10.882  0.3532 -0.3047  0.3311
  210MPD1    H5 3199   0.858   0.846  10.819  2.4561 -0.6240  0.4484
  210MPD1    N1 3200   0.849   0.291  10.930 -0.2452  0.7646  0.7532
  210MPD1    H6 3201   0.762   0.295  10.984 -1.1862 -0.5721 -0.6430
  210MPD1    H7 3202   0.850   0.205  10.874 -2.3864  2.0420 -1.2585
  211MPD1     C 3203   3.556   1.258  16.468 -0.6473 -0.0741  0.6100
  211MPD1    C1 3204   3.483   1.370  16.431  0.1337 -0.7361  0.1043
  211MPD1    C2 3205   3.343   1.367  16.437 -0.5297 -0.6486 -0.1360
  211MPD1    C3 3206   3.279   1.256  16.499 -0.3895  0.0537  0.3621
  211MPD1    C4 3207   3.360   1.152  16.539 -0.5608  0.1486  0.2038
  211MPD1    C5 3208   3.496   1.150  16.526 -0.1578  0.2897 -1.0015
  211MPD1     H 3209   3.281   1.443  16.390  1.3720  0.1671 -1.3258
  211MPD1    H1 3210   3.307   1.071  16.587  1.1909 -0.7038  0.6898
  211MPD1    H2 3211   3.661   1.270  16.448 -0.4036 -0.2689  1.7299
  211MPD1    H3 3212   3.557   1.088  16.591  0.0962  0.0292 -1.4913
  211MPD1     N 3213   3.135   1.261  16.508 -0.1861 -0.1923  0.2468
  211MPD1    H5 3214   3.101   1.356  16.499 -1.4802 -0.6972 -0.1513
  211MPD1    N1 3215   3.550   1.456  16.342 -0.0101  0.2102 -0.3437
  211MPD1    H6 3216   3.523   1.554  16.338 -2.2322 -0.3760  0.4288
  211MPD1    H7 3217   3.652   1.451  16.340 -0.2020 -3.6473 -0.4972
  212MPD1     C 3218   2.321   4.356  16.708  0.5164  0.7741 -0.1260
  212MPD1    C1 3219   2.237   4.404  16.809 -0.0279 -0.5174  0.1736
  212MPD1    C2 3220   2.133   4.324  16.851  0.5962  0.6589  0.0758
  212MPD1    C3 3221   2.113   4.193  16.807 -0.5703 -0.1088 -0.3669
  212MPD1    C4 3222   2.210   4.143  16.713 -0.3892  0.5080  0.5052
  212MPD1    C5 3223   2.310   4.227  16.665  0.3888  0.5054 -0.4075
  212MPD1     H 3224   2.057   4.366  16.916  0.0170 -1.7688  0.9705
  212MPD1    H1 3225   2.207   4.040  16.679 -0.6488  0.2577  1.2802
  212MPD1    H2 3226   2.391   4.415  16.651  2.2352 -0.6718  0.4888
  212MPD1    H3 3227   2.378   4.199  16.585  1.5918 -0.7434  1.0386
  212MPD1     N 3228   2.007   4.111  16.852  0.0637  0.2647 -0.3883
  212MPD1    H5 3229   1.999   4.026  16.798  3.2549  0.4366 -1.1537
  212MPD1    N1 3230   2.226   4.541  16.829 -0.1351 -0.2554 -0.1576
  212MPD1    H6 3231   2.185   4.548  16.922 -0.8349  3.1324 -0.7062
  212MPD1    H7 3232   2.312   4.595  16.823 -1.4691  1.8560 -0.3590
  213MPD1     C 3233   0.027   0.051  15.422  0.1615 -0.9050 -0.3466
  213MPD1    C1 3234   4.619   4.711  15.399  0.0035 -0.2020  0.6158
  213MPD1    C2 3235   4.555   0.053  15.291 -0.2895 -0.1896 -0.4970
  213MPD1    C3 3236   4.596   0.163  15.222  0.0145 -0.2675  0.6090
  213MPD1    C4 3237   4.711   0.225  15.261  0.3134 -0.7033  0.4827
  213MPD1    C5 3238   0.067   0.171  15.363  0.2909 -0.2312  0.2921
  213MPD1     H 3239   4.473   4.715  15.248 -0.1790  0.1896 -1.1909
  213MPD1    H1 3240   0.028   0.316  15.215 -0.1984 -0.1121  1.2768
  213MPD1    H2 3241   0.090   0.005  15.498 -1.1438 -3.0240 -0.5427
  213MPD1    H3 3242   0.160   0.224  15.379  0.7118 -0.2339 -2.2545
  213MPD1     N 3243   4.520   0.208  15.113  0.0793 -0.1111  0.5049
  213MPD1    H5 3244   4.441   0.149  15.087  1.2258 -1.7500  0.7503
  213MPD1    N1 3245   4.603   4.574  15.420 -0.2823  0.2588  0.6849
  213MPD1    H6 3246   4.644   4.536  15.505 -0.8001  1.6368  1.5286
  213MPD1    H7 3247   4.503   4.555  15.418 -0.4921  1.1395  3.2231
  214MPD1     C 3248   4.147   4.417  14.563  0.3606 -0.2972 -0.4900
  214MPD1    C1 3249   4.162   4.521  14.476  0.7613  0.7326 -0.1292
  214MPD1    C2 3250   4.236   4.631  14.517  0.2747 -0.9192  0.0510
  214MPD1    C3 3251   4.309   4.630  14.635  0.4187 -0.6935  0.3596
  214MPD1    C4 3252   4.317   4.508  14.705 -0.1149 -0.2370 -0.8351
  214MPD1    C5 3253   4.235   4.404  14.667  0.5883 -0.2246 -0.5080
  214MPD1     H 3254   4.207   0.008  14.476  1.4016 -1.5644 -2.2128
  214MPD1    H1 3255   4.382   4.490  14.789 -1.0062  2.1023  0.3473
  214MPD1    H2 3256   4.085   4.332  14.539  0.0483 -0.1757 -0.1102
  214MPD1    H3 3257   4.237   4.308  14.717 -1.0564  0.6836  1.3061
  214MPD1     N 3258   4.373   0.023  14.695 -0.4536 -0.1314  0.5200
  214MPD1    H5 3259   4.400   0.012  14.793  1.6387 -1.8637 -0.2542
  214MPD1    N1 3260   4.073   4.536  14.367 -0.3648 -0.0933 -0.0560
  214MPD1    H6 3261   4.060   4.447  14.319 -1.2810 -1.0244  1.9335
  214MPD1    H7 3262   4.110   4.601  14.298 -1.3805  2.1817  1.5715
  215MPD1     C 3263   0.821   0.887  10.453  0.7393 -0.1685  0.0171
  215MPD1    C1 3264   0.843   1.023  10.447 -0.4629  0.5118 -0.1690
  215MPD1    C2 3265   0.758   1.100  10.518  0.6000  0.9237  0.6098
  215MPD1    C3 3266   0.655   1.051  10.599 -0.3383  0.5909 -0.5365
  215MPD1    C4 3267   0.647   0.916  10.612  0.0452 -0.0429 -0.1513
  215MPD1    C5 3268   0.736   0.839  10.547  0.2138 -0.7981 -0.1053
  215MPD1     H 3269   0.766   1.206  10.500  3.3254  0.8484  1.4691
  215MPD1    H1 3270   0.579   0.865  10.680 -0.5278  0.9799  0.0484
  215MPD1    H2 3271   0.876   0.810  10.401  1.1526  0.7268 -0.8743
  215MPD1    H3 3272   0.724   0.732  10.561 -2.1374 -0.2120  2.2939
  215MPD1     N 3273   0.573   1.137  10.673  0.5486  0.1279 -0.5728
  215MPD1    H5 3274   0.590   1.236  10.661 -1.4531  0.6968  1.1885
  215MPD1    N1 3275   0.935   1.080  10.354 -0.0927 -0.5971 -1.0208
  215MPD1    H6 3276   1.012   1.025  10.316  1.7190  1.2204  0.0400
  215MPD1    H7 3277   0.977   1.162  10.398 -0.8055 -0.9141  0.2750
  216MPD1     C 3278   2.286   3.687  16.293  0.0085  0.0660 -0.1238
  216MPD1    C1 3279   2.329   3.574  16.352  0.3460  0.2037  0.4657
  216MPD1    C2 3280   2.306   3.572  16.487  0.5880 -0.7419  0.2857
  216MPD1    C3 3281   2.233   3.672  16.551 -0.1274 -0.6684 -0.0916
  216MPD1    C4 3282   2.187   3.780  16.488  0.6535  0.5606 -0.3133
  216MPD1    C5 3283   2.216   3.790  16.354 -0.1042  0.5014 -0.3602
  216MPD1     H 3284   2.335   3.480  16.537  1.1631 -1.0626 -0.6407
  216MPD1    H1 3285   2.131   3.859  16.534 -2.8518 -2.9555  1.4436
  216MPD1    H2 3286   2.301   3.707  16.187  1.1885 -1.5594 -0.2769
  216MPD1    H3 3287   2.186   3.867  16.285  0.4933  0.7927 -0.2905
  216MPD1     N 3288   2.204   3.644  16.686 -0.6210 -0.5370 -1.2735
  216MPD1    H5 3289   2.236   3.554  16.720 -0.1487 -0.3908 -1.3386
  216MPD1    N1 3290   2.370   3.461  16.286  0.3941 -0.2357 -0.5226
  216MPD1    H6 3291   2.423   3.409  16.356 -1.7567 -1.6034  0.1009
  216MPD1    H7 3292   2.433   3.474  16.207  0.5349  1.2977 -0.1476
  217MPD1     C 3293   2.682   0.664   8.331 -0.5804  0.7761 -0.3322
  217MPD1    C1 3294   2.793   0.668   8.419  0.5642 -0.2753  0.9820
  217MPD1    C2 3295   2.826   0.553   8.485 -0.1620 -0.5520  0.2705
  217MPD1    C3 3296   2.748   0.437   8.480  0.4423  0.5783 -0.2061
  217MPD1    C4 3297   2.639   0.439   8.402  0.6505  0.1840  0.0965
  217MPD1    C5 3298   2.605   0.552   8.333  0.3891  0.0252 -0.2677
  217MPD1     H 3299   2.910   0.566   8.552  1.3565 -1.7166 -1.4022
  217MPD1    H1 3300   2.571   0.355   8.393  1.5149 -0.5509  0.5107
  217MPD1    H2 3301   2.663   0.740   8.256 -0.2110  0.5507 -0.6512
  217MPD1    H3 3302   2.519   0.558   8.266  0.8449  1.7723 -0.6933
  217MPD1     N 3303   2.771   0.320   8.558 -0.6170 -0.1675  0.4887
  217MPD1    H5 3304   2.714   0.237   8.549 -0.0427 -0.6419  1.2361
  217MPD1    N1 3305   2.889   0.779   8.417  0.0269 -0.0905 -0.1618
  217MPD1    H6 3306   2.844   0.868   8.397 -0.0018 -0.0081  0.2659
  217MPD1    H7 3307   2.953   0.775   8.496 -0.0410  0.2263 -0.0927
  218MPD1     C 3308   4.482   1.252  13.318  0.1339  0.5149 -0.1433
  218MPD1    C1 3309   4.561   1.144  13.286  0.3839 -0.2656  0.2570
  218MPD1    C2 3310   4.618   1.131  13.161 -0.0236  0.1121 -0.7205
  218MPD1    C3 3311   4.574   1.213  13.058 -0.7540 -0.2286  0.2415
  218MPD1    C4 3312   4.492   1.324  13.092  0.3351 -0.4644 -0.4059
  218MPD1    C5 3313   4.441   1.340  13.219  0.4275 -0.0417  0.5095
  218MPD1     H 3314   4.695   1.060  13.131 -1.0503 -0.5863 -1.6894
  218MPD1    H1 3315   4.471   1.404  13.022  0.0537  1.3891  1.8082
  218MPD1    H2 3316   4.453   1.280  13.419  1.3933  0.2230  0.3042
  218MPD1    H3 3317   4.365   1.414  13.239  1.1259 -0.1349  3.5821
  218MPD1     N 3318   4.621   1.187  12.924 -0.6409 -0.0966  0.0709
  218MPD1    H5 3319   4.689   1.115  12.902 -0.4003  0.5603 -1.3729
  218MPD1    N1 3320   4.604   1.052  13.383 -0.3459  0.0775 -0.2870
  218MPD1    H6 3321   4.537   1.025  13.454 -1.0091  0.0166 -0.9294
  218MPD1    H7 3322   4.632   0.959  13.351 -1.1150 -0.3990  0.4285
  219MPD1     C 3323   4.345   1.615  12.046  0.0708  0.2277 -0.1056
  219MPD1    C1 3324   4.483   1.632  12.062  0.6891 -0.0486  0.2649
  219MPD1    C2 3325   4.555   1.554  12.151  0.4416  0.3941  0.0232
  219MPD1    C3 3326   4.484   1.471  12.241  1.1804 -0.2282  0.3880
  219MPD1    C4 3327   4.349   1.463  12.233 -0.7191  0.6627  0.5866
  219MPD1    C5 3328   4.281   1.534  12.137  0.0653  0.1662 -0.2726
  219MPD1     H 3329   4.663   1.561  12.152  0.3906  1.2771 -0.4160
  219MPD1    H1 3330   4.298   1.396  12.302 -1.5239  1.3057  0.6163
  219MPD1    H2 3331   4.285   1.674  11.978 -0.1093  1.3652  1.0368
  219MPD1    H3 3332   4.175   1.527  12.121 -0.1679  0.4671  1.0953
  219MPD1     N 3333   4.546   1.395  12.337 -0.6476  0.2433  0.0730
  219MPD1    H5 3334   4.482   1.324  12.373 -0.4075 -0.7925 -1.5619
  219MPD1    N1 3335   4.557   1.702  11.959 -0.8103  0.1676 -0.1016
  219MPD1    H6 3336   4.641   1.746  11.995 -0.7471 -0.9876  1.1711
  219MPD1    H7 3337   4.505   1.778  11.914 -0.6600  0.3348  0.0082
  220MPD1     C 3338   4.287   2.202   9.554  0.0720  0.1421  0.2233
  220MPD1    C1 3339   4.360   2.241   9.662 -0.2115 -0.9000 -0.5176
  220MPD1    C2 3340   4.379   2.153   9.767 -0.1496 -0.3186  0.2300
  220MPD1    C3 3341   4.336   2.024   9.771 -0.3304 -0.0488  0.3415
  220MPD1    C4 3342   4.264   1.991   9.658 -0.4783  0.0207 -0.0956
  220MPD1    C5 3343   4.246   2.076   9.550 -0.0464 -0.0794  0.3898
  220MPD1     H 3344   4.437   2.186   9.853 -0.5752  1.0698 -0.0050
  220MPD1    H1 3345   4.214   1.894   9.651  2.1165 -1.3971  0.9569
  220MPD1    H2 3346   4.263   2.275   9.478 -0.0263  0.2530  0.3589
  220MPD1    H3 3347   4.185   2.040   9.468  0.2735  0.8617 -0.2612
  220MPD1     N 3348   4.344   1.941   9.887  0.2666 -0.2185  0.2248
  220MPD1    H5 3349   4.382   1.995   9.964 -2.5638  2.4076 -0.2146
  220MPD1    N1 3350   4.397   2.376   9.679 -0.2702 -0.8863  0.2142
  220MPD1    H6 3351   4.481   2.382   9.736  1.0604  2.8301 -2.1021
  220MPD1    H7 3352   4.413   2.415   9.586  0.4571 -2.4582 -0.3251
  221MPD1     C 3353   1.701   1.383  16.250  1.4083 -1.0365  0.9970
  221MPD1    C1 3354   1.733   1.267  16.182  0.2580 -0.0357 -0.3282
  221MPD1    C2 3355   1.855   1.203  16.207 -0.3798  0.3543 -0.6082
  221MPD1    C3 3356   1.956   1.268  16.281 -0.2714 -0.0761  0.4642
  221MPD1    C4 3357   1.925   1.392  16.332 -0.9120  1.5217 -0.5134
  221MPD1    C5 3358   1.798   1.450  16.315  0.2101  0.2769  0.2666
  221MPD1     H 3359   1.869   1.103  16.166  0.6186  0.5753 -0.8119
  221MPD1    H1 3360   1.988   1.450  16.398 -0.2101 -0.9683  1.0002
  221MPD1    H2 3361   1.597   1.411  16.256  1.5991 -0.6876  2.5572
  221MPD1    H3 3362   1.781   1.543  16.367 -0.8479  0.1974  0.0565
  221MPD1     N 3363   2.090   1.219  16.307 -0.3223 -0.6995  0.0752
  221MPD1    H5 3364   2.148   1.274  16.370 -1.3647  0.6857 -0.1886
  221MPD1    N1 3365   1.624   1.200  16.119  0.5838 -0.1383 -0.2103
  221MPD1    H6 3366   1.657   1.121  16.064  1.5558  0.0004  0.1776
  221MPD1    H7 3367   1.575   1.253  16.047  2.4442  2.5423  0.5054
  222MPD1     C 3368   2.487   3.490  17.037  0.1288  0.8006 -0.0112
  222MPD1    C1 3369   2.503   3.578  16.936 -0.4884  0.3733 -0.1293
  222MPD1    C2 3370   2.455   3.709  16.953  0.5658 -0.2853  0.0699
  222MPD1    C3 3371   2.408   3.752  17.074 -0.8022 -0.5072  0.2292
  222MPD1    C4 3372   2.389   3.656  17.175  0.5238 -0.6264 -0.4644
  222MPD1    C5 3373   2.432   3.527  17.153  0.1495  0.2415 -1.1091
  222MPD1     H 3374   2.456   3.774  16.867  3.0295 -3.1599 -2.0633
  222MPD1    H1 3375   2.339   3.678  17.269 -0.8522 -0.9667 -1.1086
  222MPD1    H2 3376   2.514   3.386  17.031  0.4147  0.8388  0.6147
  222MPD1    H3 3377   2.417   3.445  17.222 -1.0650  1.6623  0.3537
  222MPD1     N 3378   2.375   3.890  17.103  0.6961  0.0782 -0.0270
  222MPD1    H5 3379   2.322   3.900  17.189  0.4436 -1.0598 -0.0570
  222MPD1    N1 3380   2.542   3.531  16.813 -0.5870 -0.3608  0.2504
  222MPD1    H6 3381   2.627   3.474  16.809 -1.2489 -1.4856  1.8288
  222MPD1    H7 3382   2.561   3.605  16.746  1.1900 -1.5024 -0.5113
  223MPD1     C 3383   2.848   4.657  17.470  0.0448  0.3482 -0.3624
  223MPD1    C1 3384   2.725   4.635  17.533 -0.0625 -0.5778  0.2024
  223MPD1    C2 3385   2.632   4.565  17.461  0.8814  0.8402 -0.1411
  223MPD1    C3 3386   2.654   4.535  17.330  0.5032  0.1344  0.2824
  223MPD1    C4 3387   2.777   4.552  17.270  0.2208 -0.0765  0.3322
  223MPD1    C5 3388   2.866   4.619  17.338 -0.2395  0.1711  0.2714
  223MPD1     H 3389   2.538   4.541  17.508  0.6436  0.9478 -0.5568
  223MPD1    H1 3390   2.800   4.513  17.172 -0.8583  0.4658 -0.1373
  223MPD1    H2 3391   2.926   0.002  17.511 -0.0660 -0.5649  1.2515
  223MPD1    H3 3392   2.960   4.649  17.293  0.0153 -0.0181  0.6801
  223MPD1     N 3393   2.547   4.467  17.273  0.0019 -0.2879 -0.7742
  223MPD1    H5 3394   2.470   4.440  17.333  1.3518  0.9742  1.5180
  223MPD1    N1 3395   2.692   4.697  17.657 -0.1303  0.0733  0.0709
  223MPD1    H6 3396   2.639   4.637   0.045  1.1530 -1.5966 -0.4471
  223MPD1    H7 3397   2.769   0.014   0.038  0.0972 -0.5756  0.1588
  224MPD1     C 3398   4.218   1.205   9.387  0.3402  0.8756  0.7455
  224MPD1    C1 3399   4.276   1.127   9.480 -0.0221 -0.3573  0.0752
  224MPD1    C2 3400   4.197   1.036   9.553  0.6594  0.4095  0.4920
  224MPD1    C3 3401   4.061   1.032   9.527 -0.3060  0.2264  0.2568
  224MPD1    C4 3402   4.009   1.113   9.426  0.1276  0.8719  0.7722
  224MPD1    C5 3403   4.089   1.201   9.358 -0.3019  0.1535  0.2063
  224MPD1     H 3404   4.246   0.979   9.632 -0.9167 -0.2470  0.9937
  224MPD1    H1 3405   3.903   1.123   9.407 -0.3034 -1.4452  1.9886
  224MPD1    H2 3406   4.287   1.258   9.322 -0.1989  0.6388 -0.0182
  224MPD1    H3 3407   4.060   1.270   9.280 -1.6110  0.5480  1.0375
  224MPD1     N 3408   3.964   0.952   9.600 -0.4341  0.1274 -0.1303
  224MPD1    H5 3409   3.871   0.955   9.559 -0.7634 -1.3462  0.5003
  224MPD1    N1 3410   4.415   1.116   9.478  0.6090 -0.2828  0.1779
  224MPD1    H6 3411   4.454   1.209   9.460 -1.5146  0.5605  0.0094
  224MPD1    H7 3412   4.453   1.087   9.568  1.1586 -0.2298 -0.0352
  225MPD1     C 3413   0.171   2.395  12.160 -0.1282  0.1286  0.1175
  225MPD1    C1 3414   0.078   2.302  12.203  0.6915 -0.0617 -0.3180
  225MPD1    C2 3415   4.660   2.339  12.210 -0.5302  0.2374 -0.4881
  225MPD1    C3 3416   4.618   2.448  12.145 -0.2837  0.6885  0.0078
  225MPD1    C4 3417   4.710   2.536  12.092  0.3089  1.0523  0.1956
  225MPD1    C5 3418   0.124   2.512  12.106  0.3311 -0.0908 -0.0946
  225MPD1     H 3419   4.593   2.273  12.264 -0.3371  1.2914  1.0281
  225MPD1    H1 3420   4.680   2.629  12.046 -1.3488  2.1817  3.5712
  225MPD1    H2 3421   0.278   2.385  12.175  0.1391  0.2827 -1.6950
  225MPD1    H3 3422   0.200   2.576  12.063 -1.2412  1.8118 -0.0035
  225MPD1     N 3423   4.482   2.472  12.112 -0.7413 -0.6187  0.0294
  225MPD1    H5 3424   4.469   2.552  12.051 -1.1453  1.2447  2.5997
  225MPD1    N1 3425   0.118   2.181  12.262  0.4244  0.1374 -0.1046
  225MPD1    H6 3426   0.212   2.151  12.237  0.5091  0.5614 -0.2974
  225MPD1    H7 3427   0.061   2.097  12.259  2.2357 -1.0578 -1.2494
  226MPD1     C 3428   2.426   1.661   9.368  0.2105 -0.7290  0.1841
  226MPD1    C1 3429   2.450   1.523   9.359 -0.3724  0.7108 -0.1993
  226MPD1    C2 3430   2.579   1.478   9.338  0.2353  0.0447 -0.1288
  226MPD1    C3 3431   2.676   1.570   9.319 -0.1506  0.1055  0.4452
  226MPD1    C4 3432   2.652   1.703   9.327 -0.7694 -0.3310 -0.7387
  226MPD1    C5 3433   2.525   1.751   9.341  0.4038 -0.3323  0.6502
  226MPD1     H 3434   2.598   1.371   9.343 -2.2826 -0.3770  0.5145
  226MPD1    H1 3435   2.736   1.771   9.318 -1.2045  0.3256  0.0662
  226MPD1    H2 3436   2.330   1.693   9.407 -0.3598 -1.8879 -0.2646
  226MPD1    H3 3437   2.508   1.856   9.364 -2.2977 -0.7628  0.6867
  226MPD1     N 3438   2.801   1.515   9.305 -0.2703 -0.6697 -0.1065
  226MPD1    H5 3439   2.806   1.414   9.313  0.3891 -0.5879  0.4833
  226MPD1    N1 3440   2.356   1.420   9.386 -0.4293 -0.4104  0.4459
  226MPD1    H6 3441   2.264   1.461   9.373 -0.1907  0.1098  0.4157
  226MPD1    H7 3442   2.368   1.336   9.329 -0.7017 -0.8921  1.1005
  227MPD1     C 3443   2.914   0.668   9.195 -0.3650  0.0994 -0.2794
  227MPD1    C1 3444   2.824   0.767   9.163 -0.3222  0.0373 -0.2546
  227MPD1    C2 3445   2.861   0.899   9.183 -0.2191  0.5919  0.2584
  227MPD1    C3 3446   2.988   0.934   9.217 -0.6343  0.3523  0.0942
  227MPD1    C4 3447   3.081   0.832   9.235  0.2353  0.5280 -0.8957
  227MPD1    C5 3448   3.044   0.700   9.223  0.1637  0.1465  0.4326
  227MPD1     H 3449   2.800   0.984   9.153 -0.1201  0.5204 -0.1476
  227MPD1    H1 3450   3.182   0.845   9.273  0.2929  0.9527 -1.1962
  227MPD1    H2 3451   2.891   0.562   9.194  1.2492 -0.2530 -0.6400
  227MPD1    H3 3452   3.118   0.622   9.240 -0.8891 -1.5180 -2.5177
  227MPD1     N 3453   3.011   1.075   9.229  0.4337 -0.1034 -0.3652
  227MPD1    H5 3454   2.939   1.142   9.206  2.4718  1.9305 -0.8300
  227MPD1    N1 3455   2.693   0.733   9.117 -0.5252  0.0153  0.1944
  227MPD1    H6 3456   2.648   0.802   9.057 -1.2236 -0.8099 -0.2367
  227MPD1    H7 3457   2.699   0.643   9.069  1.3297 -0.0541  0.5488
  228MPD1     C 3458   1.971   0.308  12.976 -0.1212 -1.3054  0.4212
  228MPD1    C1 3459   1.907   0.350  12.864  0.4821  0.5633 -0.0561
  228MPD1    C2 3460   1.778   0.295  12.835 -0.1312  0.5768  0.2381
  228MPD1    C3 3461   1.713   0.218  12.926 -0.2319 -0.1538 -0.4035
  228MPD1    C4 3462   1.772   0.193  13.047 -0.2682 -0.5432  0.0040
  228MPD1    C5 3463   1.904   0.237  13.074 -0.3181  0.2147  0.2691
  228MPD1     H 3464   1.726   0.325  12.745 -0.4234  1.6266  0.7545
  228MPD1    H1 3465   1.724   0.133  13.123 -0.5177  0.0137  0.2865
  228MPD1    H2 3466   2.076   0.323  13.000 -0.0416 -0.0998 -0.6709
  228MPD1    H3 3467   1.953   0.200  13.163  3.3616 -2.2057 -2.7866
  228MPD1     N 3468   1.580   0.175  12.895 -0.2932  0.1210  0.6068
  228MPD1    H5 3469   1.543   0.206  12.805 -1.1690  0.6052  1.1316
  228MPD1    N1 3470   1.978   0.399  12.754  0.6576 -0.4218 -0.4883
  228MPD1    H6 3471   2.059   0.455  12.780  0.5881  0.2033 -1.5752
  228MPD1    H7 3472   1.920   0.459  12.695  0.4054  0.7249  0.9182
  229MPD1     C 3473   0.586   3.295  15.022 -0.2396  0.1117 -0.4376
  229MPD1    C1 3474   0.610   3.342  15.145  0.3778 -0.4445  0.1548
  229MPD1    C2 3475   0.705   3.271  15.215 -0.2017 -0.2325 -0.0067
  229MPD1    C3 3476   0.789   3.181  15.158  0.3907 -0.0553 -0.3672
  229MPD1    C4 3477   0.771   3.145  15.026 -1.3769 -0.4503  0.0019
  229MPD1    C5 3478   0.661   3.198  14.967  0.1883 -0.1703 -0.7715
  229MPD1     H 3479   0.721   3.303  15.317  1.1722 -1.2172  0.0873
  229MPD1    H1 3480   0.822   3.068  14.970 -0.4742  0.3416 -0.2781
  229MPD1    H2 3481   0.514   3.341  14.955  1.8854 -1.7958 -4.0386
  229MPD1    H3 3482   0.634   3.179  14.863 -2.7078 -1.4689  0.2274
  229MPD1     N 3483   0.898   3.117  15.222 -0.3123 -0.0381 -0.5159
  229MPD1    H5 3484   0.953   3.057  15.161 -0.9924 -0.3730 -0.7985
  229MPD1    N1 3485   0.526   3.431  15.205 -0.9772  0.1527  0.2712
  229MPD1    H6 3486   0.499   3.498  15.133 -0.6957 -1.4109 -1.2723
  229MPD1    H7 3487   0.573   3.481  15.280  0.5358  0.0339 -0.5975
  230MPD1     C 3488   1.289   3.347  16.076 -0.4557 -0.3050  0.7054
  230MPD1    C1 3489   1.235   3.421  15.975 -0.5520  0.2368 -0.5897
  230MPD1    C2 3490   1.224   3.366  15.848 -0.6344  0.7059  0.1200
  230MPD1    C3 3491   1.291   3.253  15.815  0.1277  0.3433  0.0558
  230MPD1    C4 3492   1.339   3.173  15.915 -0.3639 -0.0283  0.7931
  230MPD1    C5 3493   1.345   3.223  16.047 -0.2271  0.4483 -0.6008
  230MPD1     H 3494   1.180   3.418  15.763 -2.1388  3.5115  2.6010
  230MPD1    H1 3495   1.368   3.068  15.907 -0.3457  0.1237 -1.1679
  230MPD1    H2 3496   1.293   3.373  16.181 -3.4911 -0.7411  0.9373
  230MPD1    H3 3497   1.380   3.157  16.126 -1.2228 -0.2106 -0.7042
  230MPD1     N 3498   1.283   3.207  15.686 -0.0476  0.7139  0.7065
  230MPD1    H5 3499   1.233   3.264  15.618 -1.1449 -0.7700  0.2559
  230MPD1    N1 3500   1.173   3.541  16.013  0.6482  0.5194  0.3779
  230MPD1    H6 3501   1.180   3.601  15.931 -1.0619 -1.0412 -0.9258
  230MPD1    H7 3502   1.215   3.587  16.093 -1.0000  2.5033  0.1212
  231MPD1     C 3503   3.577   0.101  15.543  0.4194  0.5725  0.3814
  231MPD1    C1 3504   3.605   0.032  15.423  0.1510 -0.7490  0.2814
  231MPD1    C2 3505   3.677   0.097  15.324 -0.5771  0.5652  0.7618
  231MPD1    C3 3506   3.701   0.234  15.329  0.4020  0.4576  0.4531
  231MPD1    C4 3507   3.650   0.307  15.433 -0.1093  0.1865  0.2680
  231MPD1    C5 3508   3.585   0.240  15.539 -0.4378  0.0145 -0.6083
  231MPD1     H 3509   3.697   0.039  15.235  0.1737 -1.7212  2.4272
  231MPD1    H1 3510   3.639   0.414  15.429 -2.6395 -0.1521 -2.1432
  231MPD1    H2 3511   3.528   0.049  15.625 -3.3248  1.3505 -1.3780
  231MPD1    H3 3512   3.538   0.306  15.610 -0.4804 -0.4180 -0.2333
  231MPD1     N 3513   3.774   0.299  15.223 -0.0261  0.3005 -0.4661
  231MPD1    H5 3514   3.813   0.239  15.151 -1.0543 -1.3221  0.3345
  231MPD1    N1 3515   3.582   4.615  15.422 -0.2589  0.1884  0.6460
  231MPD1    H6 3516   3.572   4.585  15.325 -0.4678 -0.7567  0.9654
  231MPD1    H7 3517   3.492   4.596  15.466 -0.9478 -1.4942 -1.5122
  232MPD1     C 3518   1.349   2.783   0.190 -0.1001 -0.0538 -0.1511
  232MPD1    C1 3519   1.252   2.863   0.128  0.6221 -0.0459 -0.2243
  232MPD1    C2 3520   1.189   2.811   0.015  0.0520  0.8112  0.1240
  232MPD1    C3 3521   1.185   2.674  17.666 -0.1581 -0.2982 -0.1754
  232MPD1    C4 3522   1.282   2.595   0.053 -0.3921  0.0558  0.2270
  232MPD1    C5 3523   1.358   2.654   0.151  1.1132  0.2879 -0.2852
  232MPD1     H 3524   1.123   2.878  17.637 -0.8635  0.3066  0.6071
  232MPD1    H1 3525   1.291   2.490   0.026 -2.0309 -0.0602  0.0951
  232MPD1    H2 3526   1.426   2.809   0.262 -0.3440 -1.3493  0.5891
  232MPD1    H3 3527   1.437   2.595   0.196  1.0232  0.9622  0.7596
  232MPD1     N 3528   1.091   2.635  17.565  0.0275  0.6218 -0.1024
  232MPD1    H5 3529   1.040   2.711  17.521  0.4932  1.5833  1.0059
  232MPD1    N1 3530   1.245   2.998   0.150  0.2078 -0.0997 -0.1082
  232MPD1    H6 3531   1.261   3.037   0.243  0.4440 -0.5826  0.0546
  232MPD1    H7 3532   1.150   3.027   0.130  0.7190  2.0756  0.5992
  233MPD1     C 3533   2.565   1.924   1.889 -0.7599 -0.1544 -0.1915
  233MPD1    C1 3534   2.683   1.956   1.947  0.6799  0.3179 -0.5318
  233MPD1    C2 3535   2.798   1.901   1.892  0.4324 -0.2970  0.0394
  233MPD1    C3 3536   2.794   1.822   1.780  0.0497  0.1140 -0.0341
  233MPD1    C4 3537   2.676   1.791   1.727 -0.0893  0.3130  0.4044
  233MPD1    C5 3538   2.560   1.838   1.784 -0.1884  0.3669  0.6593
  233MPD1     H 3539   2.897   1.934   1.920  0.7881 -2.4264  1.3042
  233MPD1    H1 3540   2.662   1.718   1.648  0.2977  0.8362 -0.1407
  233MPD1    H2 3541   2.468   1.954   1.927 -0.7175  0.7977 -0.8375
  233MPD1    H3 3542   2.463   1.816   1.741  0.1592  2.0223 -0.9783
  233MPD1     N 3543   2.908   1.764   1.722 -0.0569 -0.0742 -0.8469
  233MPD1    H5 3544   2.893   1.718   1.632  2.4914 -1.1581 -0.7151
  233MPD1    N1 3545   2.687   2.029   2.070  0.1370 -0.3112 -0.1567
  233MPD1    H6 3546   2.772   2.086   2.065  1.1788 -1.6585  1.9645
  233MPD1    H7 3547   2.605   2.089   2.071  0.3717 -0.0076  0.7074
  234MPD1     C 3548   4.110   3.748   9.320 -0.4878  0.4253  0.1125
  234MPD1    C1 3549   4.068   3.786   9.441  0.0859 -0.5800  0.0428
  234MPD1    C2 3550   3.999   3.906   9.457  0.0243 -1.0155  0.0010
  234MPD1    C3 3551   3.959   3.985   9.354  0.8719  0.3585 -0.0636
  234MPD1    C4 3552   3.995   3.942   9.226 -0.6042 -0.6278  0.3612
  234MPD1    C5 3553   4.078   3.828   9.213  0.6903  0.1004 -1.1517
  234MPD1     H 3554   3.968   3.941   9.555  1.0750  0.7443 -0.2999
  234MPD1    H1 3555   3.969   3.990   9.132  1.7549 -1.6295 -0.7924
  234MPD1    H2 3556   4.164   3.655   9.304 -0.6889  0.3459 -0.1056
  234MPD1    H3 3557   4.103   3.799   9.112 -1.4169  0.7727 -1.8687
  234MPD1     N 3558   3.884   4.104   9.387 -0.4503  0.3309  0.1277
  234MPD1    H5 3559   3.863   4.126   9.484 -1.5697  2.6924 -0.6614
  234MPD1    N1 3560   4.084   3.701   9.550 -0.2937 -0.3059  0.5148
  234MPD1    H6 3561   3.995   3.683   9.596 -0.5676  0.1456  0.1578
  234MPD1    H7 3562   4.124   3.616   9.511  2.5512  0.3170  2.0305
  235MPD1     C 3563   0.353   1.022   9.833 -0.0738  0.2926 -0.0570
  235MPD1    C1 3564   0.357   1.112   9.725 -0.1143  0.2776 -0.1486
  235MPD1    C2 3565   0.387   1.241   9.740  0.1289 -0.5231 -0.2756
  235MPD1    C3 3566   0.417   1.289   9.865  0.5231  0.2060  0.6115
  235MPD1    C4 3567   0.392   1.201   9.969 -0.2090 -0.1579  0.3253
  235MPD1    C5 3568   0.361   1.068   9.960 -0.0506  0.3132  0.4108
  235MPD1     H 3569   0.393   1.313   9.659 -1.4630 -0.1461 -0.0686
  235MPD1    H1 3570   0.393   1.237  10.071  0.5733  0.0141  0.2519
  235MPD1    H2 3571   0.346   0.915   9.822 -0.4416  0.2986  0.1151
  235MPD1    H3 3572   0.366   0.994  10.040 -0.0267 -0.6843 -0.5127
  235MPD1     N 3573   0.454   1.430   9.878 -0.2761 -0.5678  0.2007
  235MPD1    H5 3574   0.452   1.479   9.789 -0.2191  1.0731  1.0981
  235MPD1    N1 3575   0.356   1.060   9.589 -0.3190  0.1623  0.1373
  235MPD1    H6 3576   0.443   1.011   9.569 -0.3367  0.5166 -0.8227
  235MPD1    H7 3577   0.341   1.134   9.521 -2.5960  0.0612  0.5322
  236MPD1     C 3578   0.294   3.562  10.439  0.2974 -0.4616  0.2996
  236MPD1    C1 3579   0.250   3.453  10.367  0.3420  0.1517  0.1037
  236MPD1    C2 3580   0.314   3.337  10.404 -0.0949  0.4266  0.8829
  236MPD1    C3 3581   0.415   3.325  10.503 -0.9597 -0.5848 -0.3600
  236MPD1    C4 3582   0.447   3.442  10.570  0.9414  0.2144  0.2182
  236MPD1    C5 3583   0.392   3.557  10.538  0.1275 -0.5648 -0.1501
  236MPD1     H 3584   0.287   3.246  10.351 -0.1571  0.3147  1.1056
  236MPD1    H1 3585   0.524   3.435  10.646  0.2213 -1.4923  0.7973
  236MPD1    H2 3586   0.245   3.659  10.432  1.3144  0.0782  0.6179
  236MPD1    H3 3587   0.416   3.642  10.601 -0.5716  0.1995 -0.9081
  236MPD1     N 3588   0.508   3.221  10.504 -0.0212 -0.5212 -0.0086
  236MPD1    H5 3589   0.591   3.236  10.560  0.1870 -1.6658 -0.0247
  236MPD1    N1 3590   0.165   3.473  10.256 -0.5000  0.5267 -0.4040
  236MPD1    H6 3591   0.110   3.388  10.243 -0.7403  0.7438 -0.8201
  236MPD1    H7 3592   0.092   3.544  10.267 -1.7880 -0.5845 -1.7190
  237MPD1     C 3593   4.519   1.295  15.108  0.0554 -0.2812 -0.2629
  237MPD1    C1 3594   4.453   1.312  15.228  0.1464 -0.3392  0.6734
  237MPD1    C2 3595   4.340   1.399  15.230 -0.4983  0.6436 -0.3264
  237MPD1    C3 3596   4.295   1.468  15.114  1.1122 -0.0608  0.2141
  237MPD1    C4 3597   4.372   1.452  15.001  0.0539 -0.0027 -0.0881
  237MPD1    C5 3598   4.483   1.375  15.002  0.3798 -0.4139  0.4760
  237MPD1     H 3599   4.284   1.410  15.322 -0.1272  0.9662 -0.1379
  237MPD1    H1 3600   4.360   1.520  14.916 -2.3454 -2.9324 -2.0836
  237MPD1    H2 3601   4.608   1.233  15.113 -1.5021 -2.5300 -0.3969
  237MPD1    H3 3602   4.548   1.378  14.915 -2.2179 -1.3416 -1.4935
  237MPD1     N 3603   4.181   1.551  15.111 -0.0329 -0.1551 -0.0349
  237MPD1    H5 3604   4.169   1.601  15.024  2.4087  0.8740  0.2231
  237MPD1    N1 3605   4.482   1.227  15.337  0.6820  0.2538 -0.3391
  237MPD1    H6 3606   4.444   1.247  15.429  1.2349  1.6289 -0.4036
  237MPD1    H7 3607   4.574   1.184  15.343  0.1529 -0.4503  2.6997
  238MPD1     C 3608   1.574   4.702  14.834  0.1236  0.1177  0.7633
  238MPD1    C1 3609   1.623   0.069  14.738  0.3958  0.1063  0.7577
  238MPD1    C2 3610   1.530   0.145  14.678 -0.5866  0.0887  1.1948
  238MPD1    C3 3611   1.395   0.121  14.697 -0.3636 -0.2906 -0.0711
  238MPD1    C4 3612   1.348   0.029  14.788 -0.0436  0.2606 -0.7293
  238MPD1    C5 3613   1.443   4.688  14.868 -0.1471 -0.4019  0.8511
  238MPD1     H 3614   1.575   0.195  14.593 -1.1267 -1.6353 -0.0791
  238MPD1    H1 3615   1.246   0.022  14.822  0.2902  2.1805  0.7299
  238MPD1    H2 3616   1.645   4.640  14.886  0.9882 -0.6254 -1.2849
  238MPD1    H3 3617   1.415   4.614  14.942  2.3776 -2.1543  0.0039
  238MPD1     N 3618   1.293   0.201  14.641 -0.1310  0.2109  0.4974
  238MPD1    H5 3619   1.199   0.174  14.668 -0.1899 -0.5127 -0.4277
  238MPD1    N1 3620   1.763   0.085  14.721 -0.0530  0.3034  0.0821
  238MPD1    H6 3621   1.814   4.717  14.741 -0.1838  0.7840  2.4968
  238MPD1    H7 3622   1.786   0.123  14.629  1.6641 -0.8876  0.0368
  239MPD1     C 3623   1.698   1.501  15.307  0.8141 -0.9764  0.1263
  239MPD1    C1 3624   1.751   1.437  15.198 -0.2009  0.3992 -0.3841
  239MPD1    C2 3625   1.690   1.461  15.077  0.8842 -0.2317 -0.2279
  239MPD1    C3 3626   1.592   1.564  15.062 -0.3476  0.1727 -0.4859
  239MPD1    C4 3627   1.537   1.617  15.174  0.0969 -0.3014 -0.6192
  239MPD1    C5 3628   1.590   1.584  15.294  0.2752  0.5871 -0.0260
  239MPD1     H 3629   1.732   1.412  14.990 -0.0989 -1.3757 -0.0591
  239MPD1    H1 3630   1.464   1.697  15.174 -0.9286 -1.2430 -1.9850
  239MPD1    H2 3631   1.725   1.473  15.408 -0.5241 -0.1324  0.7184
  239MPD1    H3 3632   1.554   1.623  15.388 -1.8751 -0.7899 -0.2919
  239MPD1     N 3633   1.540   1.600  14.943  0.5290  0.0316 -0.3117
  239MPD1    H5 3634   1.456   1.656  14.955 -0.0249 -0.7798 -0.4315
  239MPD1    N1 3635   1.865   1.362  15.210  0.1634  0.9107  0.7647
  239MPD1    H6 3636   1.850   1.280  15.152  1.6073  1.7327 -0.8138
  239MPD1    H7 3637   1.875   1.337  15.308 -1.2251  1.3670  1.0154
  240MPD1     C 3638   0.322   1.821  13.844  0.2731  0.3291  0.4267
  240MPD1    C1 3639   0.427   1.763  13.917 -0.5051  0.1577 -0.3770
  240MPD1    C2 3640   0.461   1.630  13.891 -0.4816 -0.7339  0.6946
  240MPD1    C3 3641   0.390   1.558  13.797 -0.0709 -0.6239  0.5132
  240MPD1    C4 3642   0.296   1.622  13.717 -0.0318 -0.3230 -0.0595
  240MPD1    C5 3643   0.272   1.757  13.734  0.2717 -0.0389 -0.0103
  240MPD1     H 3644   0.544   1.593  13.950 -1.0251 -2.6935  0.2046
  240MPD1    H1 3645   0.225   1.575  13.651 -0.5640  1.0513 -0.4582
  240MPD1    H2 3646   0.285   1.923  13.850 -1.3240 -0.1560 -1.2449
  240MPD1    H3 3647   0.182   1.796  13.687 -1.1604 -0.4589  2.3681
  240MPD1     N 3648   0.427   1.426  13.773  0.1333 -0.2550 -0.1467
  240MPD1    H5 3649   0.509   1.389  13.819 -0.0845 -0.0449  0.3993
  240MPD1    N1 3650   0.483   1.834  14.020 -0.2360 -0.8606  0.4727
  240MPD1    H6 3651   0.466   1.933  14.001 -1.2206 -0.6665  2.3153
  240MPD1    H7 3652   0.583   1.816  14.022  0.2828  2.0308  0.7239
  241MPD1     C 3653   1.193   1.144  14.006  0.0282  0.1217 -0.2946
  241MPD1    C1 3654   1.089   1.067  14.062 -0.1493 -0.2950 -0.1436
  241MPD1    C2 3655   0.972   1.054  14.001  0.5458 -0.6601 -0.6781
  241MPD1    C3 3656   0.950   1.104  13.871 -0.4217 -0.2333  0.7167
  241MPD1    C4 3657   1.059   1.155  13.803 -0.0649 -0.2325 -0.6292
  241MPD1    C5 3658   1.181   1.176  13.874  0.2142 -0.0076 -0.5236
  241MPD1     H 3659   0.890   1.010  14.057 -1.0905  0.5321 -2.1534
  241MPD1    H1 3660   1.046   1.188  13.701 -0.4071  1.0569 -0.1663
  241MPD1    H2 3661   1.282   1.155  14.066 -0.0348 -1.2809  0.0516
  241MPD1    H3 3662   1.261   1.238  13.834 -0.3229  1.3457  0.4728
  241MPD1     N 3663   0.825   1.108  13.803 -0.3458 -0.3296 -0.1521
  241MPD1    H5 3664   0.822   1.159  13.715  0.7764  1.0526  0.6175
  241MPD1    N1 3665   1.106   1.016  14.194 -0.1547  0.1177 -0.0085
  241MPD1    H6 3666   1.065   0.923  14.204  0.8528 -0.2718  0.5208
  241MPD1    H7 3667   1.202   1.007  14.224  0.1095  0.5983 -0.7037
  242MPD1     C 3668   1.214   0.311  15.168  0.0612 -0.4311 -0.0773
  242MPD1    C1 3669   1.117   0.288  15.075  0.0253 -0.3652  0.7378
  242MPD1    C2 3670   1.075   0.164  15.046  0.2815 -0.2073  0.0741
  242MPD1    C3 3671   1.130   0.058  15.106  0.3214 -0.1243  0.4965
  242MPD1    C4 3672   1.235   0.071  15.196  0.2237  0.6345  0.5348
  242MPD1    C5 3673   1.282   0.203  15.219 -0.6834  0.2723 -0.5998
  242MPD1     H 3674   0.992   0.150  14.978  0.3105 -3.4268  0.6949
  242MPD1    H1 3675   1.289   4.707  15.242 -0.3019  1.9436  3.4886
  242MPD1    H2 3676   1.256   0.409  15.184  1.8187 -1.2283  0.1679
  242MPD1    H3 3677   1.375   0.217  15.274 -0.0785  1.1389 -1.8550
  242MPD1     N 3678   1.089   4.643  15.081 -0.8753  0.0651 -0.2384
  242MPD1    H5 3679   1.158   4.579  15.117 -0.3952 -0.5184 -2.1822
  242MPD1    N1 3680   1.030   0.394  15.029  0.3157 -0.0905  0.3709
  242MPD1    H6 3681   0.984   0.372  14.941 -0.7564 -0.6251  1.0507
  242MPD1    H7 3682   1.096   0.468  15.008 -1.1557  1.2639  0.4885
  243MPD1     C 3683   3.700   2.860  17.457 -0.4585  0.7562  0.1451
  243MPD1    C1 3684   3.644   2.964  17.383  0.6258  0.1185  0.7270
  243MPD1    C2 3685   3.510   2.952  17.339 -0.4255  0.3200  0.5504
  243MPD1    C3 3686   3.438   2.842  17.374 -0.4464 -0.4448 -0.0113
  243MPD1    C4 3687   3.491   2.746  17.465  0.2518  0.2727  0.2956
  243MPD1    C5 3688   3.617   2.762  17.506 -0.3653  0.1024  0.4149
  243MPD1     H 3689   3.470   3.024  17.270  1.1837  0.2943 -0.4148
  243MPD1    H1 3690   3.432   2.663  17.503 -0.0944 -0.1788 -1.2033
  243MPD1    H2 3691   3.806   2.864  17.480 -0.6191 -0.6173  1.1140
  243MPD1    H3 3692   3.665   2.683  17.563  0.3851  1.7916  2.1517
  243MPD1     N 3693   3.307   2.831  17.318 -0.4030 -0.0486  0.1001
  243MPD1    H5 3694   3.283   2.894  17.242  1.3550  1.0657  0.4698
  243MPD1    N1 3695   3.736   3.054  17.330  0.4179  0.2910  0.0053
  243MPD1    H6 3696   3.799   3.079  17.406  0.7462  0.9388 -0.4806
  243MPD1    H7 3697   3.690   3.139  17.300 -1.0006  0.4331  2.5529
  244MPD1     C 3698   2.462   2.381   0.047  0.3844  0.0073  0.5809
  244MPD1    C1 3699   2.554   2.482   0.096 -0.4102 -0.1827 -0.1765
  244MPD1    C2 3700   2.652   2.524   0.010 -0.2022  0.4465 -0.4524
  244MPD1    C3 3701   2.655   2.501  17.545  0.4410  0.4910  0.3005
  244MPD1    C4 3702   2.557   2.407  17.495 -0.2773 -1.2073  0.2837
  244MPD1    C5 3703   2.467   2.351  17.589  0.1614 -0.5962  0.3720
  244MPD1     H 3704   2.730   2.592   0.042 -0.0184 -0.2410  0.5539
  244MPD1    H1 3705   2.559   2.384  17.390 -0.7498 -0.9525  0.2149
  244MPD1    H2 3706   2.401   2.322   0.114 -0.4874  1.1854  0.8198
  244MPD1    H3 3707   2.398   2.276  17.554 -1.0937  2.1795 -3.1498
  244MPD1     N 3708   2.751   2.565  17.458  1.1624  0.1389 -0.0127
  244MPD1    H5 3709   2.812   2.634  17.502  1.2625  0.3743 -0.5291
  244MPD1    N1 3710   2.574   2.510   0.233  0.1233  0.1343  0.4573
  244MPD1    H6 3711   2.484   2.507   0.281  0.0243 -1.8628  0.1740
  244MPD1    H7 3712   2.599   2.608   0.242  0.6294  0.1525 -1.2980
  245MPD1     C 3713   3.902   2.939  13.117  0.5341 -0.5031 -0.3781
  245MPD1    C1 3714   3.812   2.969  13.216  0.8015  0.5207 -0.0044
  245MPD1    C2 3715   3.830   3.087  13.278  0.8560  0.4117  0.2628
  245MPD1    C3 3716   3.928   3.179  13.236  0.0373  0.3961 -0.2210
  245MPD1    C4 3717   4.005   3.148  13.133 -0.0468 -0.7142 -0.7322
  245MPD1    C5 3718   3.994   3.025  13.073 -0.1003  0.0620  0.0390
  245MPD1     H 3719   3.772   3.115  13.365  1.9803  2.7488  0.2465
  245MPD1    H1 3720   4.083   3.209  13.089 -0.0595 -0.6879 -0.7178
  245MPD1    H2 3721   3.898   2.839  13.077 -0.6747 -0.9995  0.9675
  245MPD1    H3 3722   4.055   3.005  12.985 -1.7518 -1.3324 -0.8097
  245MPD1     N 3723   3.939   3.302  13.304  0.2025  0.0950  0.8036
  245MPD1    H5 3724   3.884   3.307  13.389 -0.7587 -0.3853  0.2202
  245MPD1    N1 3725   3.731   2.865  13.271  0.2621 -0.1687 -0.3277
  245MPD1    H6 3726   3.692   2.806  13.198  0.7757  2.4053 -2.6895
  245MPD1    H7 3727   3.667   2.884  13.348  0.6969  0.9597 -0.2511
  246MPD1     C 3728   0.170   1.492  10.138 -0.1231 -0.0447  0.2287
  246MPD1    C1 3729   0.107   1.429  10.038 -0.0371 -0.0614  0.5919
  246MPD1    C2 3730   0.057   1.499   9.931 -0.2223  0.3525 -0.3622
  246MPD1    C3 3731   0.076   1.633   9.921  0.0896 -0.1657 -1.1099
  246MPD1    C4 3732   0.140   1.695  10.028  0.1313 -0.3339  0.1618
  246MPD1    C5 3733   0.190   1.627  10.132  0.7418  0.0574  0.4311
  246MPD1     H 3734   4.712   1.444   9.863 -0.3975  1.5533 -1.1687
  246MPD1    H1 3735   0.176   1.797  10.021 -1.9320  0.2113 -2.3554
  246MPD1    H2 3736   0.189   1.439  10.231  2.4603 -0.5390 -0.5777
  246MPD1    H3 3737   0.237   1.676  10.217 -0.1218 -0.8049  1.3997
  246MPD1     N 3738   0.023   1.707   9.812 -0.2179  0.5274 -0.5840
  246MPD1    H5 3739   4.698   1.647   9.742 -2.9255  0.4487  1.1656
  246MPD1    N1 3740   0.072   1.297  10.059  0.1276 -0.5854  0.4540
  246MPD1    H6 3741   0.070   1.242   9.973  2.4530  0.9739 -0.5720
  246MPD1    H7 3742   0.135   1.252  10.125  1.4325  0.5609 -0.0098
  247MPD1     C 3743   3.490   2.464  15.427  0.3453  0.3351 -0.0920
  247MPD1    C1 3744   3.508   2.418  15.556 -0.0636 -0.7849  0.7941
  247MPD1    C2 3745   3.547   2.514  15.648  0.8227  0.3577  0.5998
  247MPD1    C3 3746   3.588   2.645  15.608  0.1097 -0.0603 -0.5849
  247MPD1    C4 3747   3.585   2.679  15.478 -0.3755 -0.4733  0.2338
  247MPD1    C5 3748   3.518   2.594  15.396  0.9154 -0.4273 -0.3788
  247MPD1     H 3749   3.555   2.477  15.749 -1.7748 -0.3680  0.5638
  247MPD1    H1 3750   3.607   2.781  15.451  0.3464 -0.7574 -0.2249
  247MPD1    H2 3751   3.443   2.406  15.348 -0.8463 -0.1679  0.9774
  247MPD1    H3 3752   3.513   2.632  15.294 -1.1496 -2.4604 -1.0291
  247MPD1     N 3753   3.637   2.747  15.701  0.4638  0.4229  0.1761
  247MPD1    H5 3754   3.657   2.835  15.655 -0.6926  0.7315  0.2568
  247MPD1    N1 3755   3.452   2.297  15.601 -0.2023 -0.0009  0.0142
  247MPD1    H6 3756   3.452   2.221  15.532 -1.3256  1.7383 -1.8936
  247MPD1    H7 3757   3.491   2.264  15.689 -1.1747 -0.7361  0.1664
  248MPD1     C 3758   3.542   2.874   1.024 -1.0681 -0.4316 -0.3222
  248MPD1    C1 3759   3.505   2.875   0.891 -0.0286 -0.0260  0.1399
  248MPD1    C2 3760   3.509   2.990   0.820 -0.5891  0.1797  0.0989
  248MPD1    C3 3761   3.534   3.113   0.873  0.3003 -0.3924  0.1225
  248MPD1    C4 3762   3.555   3.121   1.007  0.1561 -0.1403 -0.1783
  248MPD1    C5 3763   3.559   3.002   1.080  0.2365  0.4562  0.5198
  248MPD1     H 3764   3.472   2.989   0.718  1.2778 -1.9951 -0.5622
  248MPD1    H1 3765   3.559   3.216   1.057 -0.2541 -0.5187  0.5669
  248MPD1    H2 3766   3.534   2.784   1.084 -0.6533 -0.4957 -0.3654
  248MPD1    H3 3767   3.580   3.004   1.186  0.8424  0.1951  0.4058
  248MPD1     N 3768   3.527   3.232   0.790 -0.2148 -0.1122  0.2050
  248MPD1    H5 3769   3.487   3.224   0.698  0.3881  0.7654 -0.1358
  248MPD1    N1 3770   3.488   2.752   0.820  0.6494 -0.2247  0.4200
  248MPD1    H6 3771   3.443   2.765   0.729 -0.3719 -1.9485  0.6907
  248MPD1    H7 3772   3.450   2.671   0.868 -1.1276 -0.0928 -0.7603
  249MPD1     C 3773   1.680   0.694  10.303  0.1264  0.3294 -0.2799
  249MPD1    C1 3774   1.761   0.805  10.326 -0.2968 -0.4921  0.5079
  249MPD1    C2 3775   1.740   0.915  10.243  0.1486  0.1109  0.6349
  249MPD1    C3 3776   1.628   0.930  10.167 -0.3320 -0.5390  0.0738
  249MPD1    C4 3777   1.533   0.822  10.168 -0.2512  0.0303  0.0142
  249MPD1    C5 3778   1.568   0.704  10.228  0.2730  0.3401  0.2812
  249MPD1     H 3779   1.816   0.992  10.239 -0.0046  0.2566  0.5406
  249MPD1    H1 3780   1.443   0.815  10.109 -0.1972  0.3566 -0.1048
  249MPD1    H2 3781   1.701   0.600  10.354  1.1319  1.6103  1.6959
  249MPD1    H3 3782   1.506   0.615  10.218 -1.2665  1.3617  0.7388
  249MPD1     N 3783   1.614   1.043  10.090 -0.1895  0.3092 -0.2627
  249MPD1    H5 3784   1.679   1.118  10.114 -0.0549  0.1896 -0.2547
  249MPD1    N1 3785   1.878   0.805  10.406  0.7603 -0.2446  0.1491
  249MPD1    H6 3786   1.860   0.769  10.500 -0.9668  0.4799  0.0956
  249MPD1    H7 3787   1.928   0.891  10.424 -0.9991  0.6297  0.8652
  250MPD2     C 3788   1.503   2.748  13.564  0.2816  0.6731 -0.6768
  250MPD2    C1 3789   1.589   2.751  13.456 -0.3677  0.5542  0.3954
  250MPD2    C2 3790   1.648   2.638  13.404  0.2747  0.2559 -0.5922
  250MPD2    C3 3791   1.616   2.522  13.471  0.1220  0.6396 -0.2537
  250MPD2    C4 3792   1.544   2.524  13.585 -0.5866 -0.0265 -0.1123
  250MPD2    C5 3793   1.489   2.637  13.633  0.5138  0.3830  0.6094
  250MPD2     H 3794   1.704   2.634  13.312  0.5829  2.3085 -0.4970
  250MPD2    H1 3795   1.523   2.431  13.635  2.7548 -1.9689 -2.3747
  250MPD2    H2 3796   1.449   2.834  13.600 -1.3369 -0.0298 -1.3913
  250MPD2    H3 3797   1.427   2.638  13.722  2.8003  0.3281  2.1873
  250MPD2     N 3798   1.647   2.388  13.425  0.6430  0.0835  0.3116
  250MPD2    H5 3799   1.615   2.311  13.483  0.5851  0.6338  1.0184
  250MPD2    N1 3800   1.604   2.881  13.398  0.0764  0.3033  0.5301
  250MPD2    H7 3801   1.551   2.958  13.438 -0.5722  0.6560 -1.0072
  251TMC3    C1 3802   1.699   3.051  13.282  0.1120 -0.2044  0.3136
  251TMC3    C2 3803   1.749   3.106  13.406 -0.3404  0.7411 -0.0725
  251TMC3    C3 3804   1.839   3.209  13.399 -0.2513  0.0304  0.0295
  251TMC3    C4 3805   1.745   3.103  13.163 -0.7525 -0.4683 -0.5533
  251TMC3    C5 3806   1.827   3.211  13.166  0.0796  0.3805  0.3311
  251TMC3    C6 3807   1.868   3.271  13.283 -0.3172  0.2594  0.0349
  251TMC3     C 3808   1.684   2.909  13.295 -0.4834  0.1096 -0.0262
  251TMC3     O 3809   1.727   2.840  13.210  0.3709  0.3306  0.2765
  251TMC3     H 3810   1.761   3.048  13.497  2.2815  1.7426  0.2384
  251TMC3    H1 3811   1.717   3.063  13.066 -3.1506 -2.8144  1.0749
  251TMC3    H2 3812   1.936   3.355  13.277  1.2517 -1.0355 -0.2922
  251TMC3    C7 3813   1.899   3.245  13.041  0.0199  0.7629 -0.6565
  251TMC3    C8 3814   1.914   3.252  13.522 -0.7854  0.1855  0.2532
  251TMC3    O1 3815   1.834   3.248  12.939 -0.4798  0.1698  0.8613
  251TMC3    O2 3816   1.875   3.204  13.630 -0.2554  0.2743  0.2568
  252TMC3    C1 3817   2.873   2.707   9.157 -0.4926  0.0422  0.0377
  252TMC3    C2 3818   2.993   2.718   9.216 -0.0467 -0.0127  0.5296
  252TMC3    C3 3819   3.032   2.610   9.295  0.5683  0.1517 -0.0220
  252TMC3    C4 3820   2.788   2.599   9.172 -0.2837 -0.0384  0.1070
  252TMC3    C5 3821   2.829   2.496   9.252  0.9023  0.2148  0.1249
  252TMC3    C6 3822   2.950   2.504   9.316 -0.1860  0.6000  0.1147
  252TMC3     C 3823   2.839   2.814   9.067 -0.2724  1.0745  0.2062
  252TMC3     O 3824   2.931   2.881   9.027  0.8752 -0.3399  0.0113
  252TMC3     H 3825   3.057   2.799   9.183 -0.8304  1.0998  1.7442
  252TMC3    H1 3826   2.695   2.592   9.117 -0.0830  0.0114 -0.2381
  252TMC3    H2 3827   2.983   2.427   9.385  1.9851  1.0686 -0.4115
  252TMC3    C7 3828   2.731   2.395   9.287  0.6257  0.3654  0.4379
  252TMC3    C8 3829   3.152   2.615   9.372  0.0347  0.1214  0.1831
  252TMC3    O1 3830   2.615   2.414   9.251  0.6495  0.1381  0.0263
  252TMC3    O2 3831   3.176   2.524   9.453 -0.5948  0.0611 -0.1447
  253MPD2     C 3832   3.938   2.012  15.087 -0.5282 -0.0840 -0.6871
  253MPD2    C1 3833   3.795   2.018  15.091 -0.7190 -0.5781 -0.3589
  253MPD2    C2 3834   3.735   1.993  15.217 -0.1022  0.0866  0.1277
  253MPD2    C3 3835   3.809   1.967  15.330  0.7584 -0.1526  0.3404
  253MPD2    C4 3836   3.946   1.952  15.324 -0.1344 -0.0136  0.8792
  253MPD2    C5 3837   4.008   1.972  15.202  0.4282  0.9564 -0.5389
  253MPD2     H 3838   3.629   2.014  15.226  0.4819  3.0830 -0.0798
  253MPD2    H1 3839   4.006   1.932  15.412  3.3614  1.0052 -1.2390
  253MPD2    H2 3840   3.991   2.038  14.995 -0.3963 -0.1441 -0.6272
  253MPD2    H3 3841   4.117   1.968  15.201  0.2673 -3.3487 -3.5644
  253MPD2     N 3842   3.745   1.950  15.451 -0.0908 -0.5921  0.2405
  253MPD2    H5 3843   3.807   1.922  15.527  1.3277  1.8655  0.0108
  253MPD2    N1 3844   3.725   2.042  14.970 -0.1264 -0.1881 -0.0433
  253MPD2    H7 3845   3.778   2.085  14.896 -0.7431 -0.9464 -0.9299
  254TMC3    C1 3846   3.568   1.936  15.612  0.6402 -0.1590  0.9333
  254TMC3    C2 3847   3.427   1.931  15.613 -0.2767 -1.3168 -0.3829
  254TMC3    C3 3848   3.377   1.862  15.724 -0.5417  0.5122 -0.0788
  254TMC3    C4 3849   3.649   1.860  15.696  0.8081  0.4342 -0.4454
  254TMC3    C5 3850   3.588   1.793  15.799 -0.7075  0.2571  0.7798
  254TMC3    C6 3851   3.450   1.783  15.810 -0.3178  0.1778  0.2189
  254TMC3     C 3852   3.613   1.989  15.485 -0.0556  0.3505 -0.7933
  254TMC3     O 3853   3.535   2.053  15.418 -0.2307 -0.2046  0.1223
  254TMC3     H 3854   3.360   1.974  15.540  0.7918  1.4462  0.2969
  254TMC3    H1 3855   3.752   1.885  15.715  0.9646 -2.3602  2.3737
  254TMC3    H2 3856   3.409   1.742  15.902  0.2767  2.4279  1.4832
  254TMC3    C7 3857   3.642   1.791  15.934 -0.6294 -0.1599 -0.6179
  254TMC3    C8 3858   3.246   1.918  15.774  0.2496 -0.6539  0.8632
  254TMC3    O1 3859   3.558   1.807  16.026  0.7960 -0.0221  0.6902
  254TMC3    O2 3860   3.181   1.992  15.705  0.6985  0.7613  0.6367
  255MPD2     C 3861   2.801   4.061  10.671 -0.5285  0.6270  0.6980
  255MPD2    C1 3862   2.743   3.962  10.601 -0.2725  0.1613  0.6229
  255MPD2    C2 3863   2.773   3.963  10.464  0.6756 -0.5309 -0.6026
  255MPD2    C3 3864   2.830   4.066  10.402 -0.2501 -0.1397 -0.1227
  255MPD2    C4 3865   2.892   4.165  10.480  0.5258 -0.6152  0.0381
  255MPD2    C5 3866   2.873   4.162  10.613  0.0558 -0.4485  0.8682
  255MPD2     H 3867   2.733   3.886  10.400 -1.0814 -2.3572  2.6957
  255MPD2    H1 3868   2.950   4.248  10.440 -1.7260  0.8422 -0.2169
  255MPD2    H2 3869   2.800   4.068  10.779 -2.7503 -1.8863  0.8408
  255MPD2    H3 3870   2.900   4.245  10.677  0.2476  1.9672 -2.3145
  255MPD2     N 3871   2.820   4.071  10.267 -0.0621  0.4170 -0.6085
  255MPD2    H5 3872   2.771   3.993  10.224  1.4316 -1.1807  0.5871
  255MPD2    N1 3873   2.672   3.863  10.667  0.4243 -0.0168 -0.3955
  255MPD2    H7 3874   2.684   3.861  10.768 -1.7035 -0.4443 -0.1511
  256TMC3    C1 3875   2.499   3.804  10.497 -0.4403  0.4683 -0.5539
  256TMC3    C2 3876   2.469   3.928  10.445 -0.5512  0.3049 -0.0351
  256TMC3    C3 3877   2.428   3.939  10.315 -0.1676  0.7304 -0.1662
  256TMC3    C4 3878   2.475   3.691  10.427  0.0191  0.3630 -0.4063
  256TMC3    C5 3879   2.408   3.704  10.301 -0.3461  0.6475  0.2262
  256TMC3    C6 3880   2.393   3.829  10.242 -0.3281 -0.1835  0.3342
  256TMC3     C 3881   2.571   3.784  10.623 -0.7890 -0.2862  0.1341
  256TMC3     O 3882   2.543   3.686  10.694 -0.3249  0.1852 -0.7229
  256TMC3     H 3883   2.492   4.020  10.497  0.9496 -0.9762  1.5584
  256TMC3    H1 3884   2.520   3.599  10.459  0.7429  0.6894 -0.4924
  256TMC3    H2 3885   2.328   3.837  10.156 -0.5891  1.1035  0.6496
  256TMC3    C7 3886   2.357   3.583  10.229  0.0676  0.0510 -0.5893
  256TMC3    C8 3887   2.439   4.074  10.251  0.3034 -0.7445 -0.7796
  256TMC3    O1 3888   2.317   3.599  10.115 -0.1315  0.1467 -0.5008
  256TMC3    O2 3889   2.459   4.179  10.313  0.1590  0.4131 -0.0535
  257MPD2     C 3890   0.858   2.283  13.392  0.6042  0.3268  0.2182
  257MPD2    C1 3891   0.872   2.182  13.300 -0.8997 -0.3081  0.8046
  257MPD2    C2 3892   0.907   2.054  13.340 -0.3514 -0.5436  0.2632
  257MPD2    C3 3893   0.906   2.021  13.471 -0.4506  0.2512 -0.0029
  257MPD2    C4 3894   0.895   2.121  13.562 -0.7273  0.1572 -0.3789
  257MPD2    C5 3895   0.871   2.257  13.524 -0.1839 -1.0820  0.0433
  257MPD2     H 3896   0.926   1.977  13.266 -2.8414 -1.3920  0.4982
  257MPD2    H1 3897   0.895   2.113  13.670 -2.2648  1.7524 -0.2593
  257MPD2    H2 3898   0.837   2.384  13.360  1.3679  0.4689  0.1776
  257MPD2    H3 3899   0.877   2.338  13.596 -3.9965  0.5209 -1.4444
  257MPD2     N 3900   0.924   1.885  13.509  0.1514  0.2759 -0.0254
  257MPD2    H5 3901   0.930   1.823  13.429  2.2765  2.2908 -1.4260
  257MPD2    N1 3902   0.873   2.221  13.160 -0.1029  0.0522  0.1868
  257MPD2    H7 3903   0.863   2.321  13.141  1.5260  0.6604  2.4495
  258TMC3    C1 3904   0.988   1.698  13.649  0.4506  0.1231 -0.3604
  258TMC3    C2 3905   0.891   1.622  13.602 -0.7571  0.0594 -0.1789
  258TMC3    C3 3906   0.871   1.503  13.662 -0.1746 -0.7277  0.2394
  258TMC3    C4 3907   1.067   1.666  13.753 -0.1147  1.3022  0.2002
  258TMC3    C5 3908   1.062   1.540  13.798 -0.7242  0.2226  0.2390
  258TMC3    C6 3909   0.962   1.459  13.759  0.5095 -0.2184 -0.2542
  258TMC3     C 3910   0.958   1.843  13.636 -0.3830  0.3959 -0.1024
  258TMC3     O 3911   0.966   1.912  13.740 -0.0106  0.5140 -0.1733
  258TMC3     H 3912   0.826   1.657  13.522  1.5129  0.1710 -2.0043
  258TMC3    H1 3913   1.151   1.730  13.778  1.3151 -1.1002  1.5234
  258TMC3    H2 3914   0.936   1.373  13.819 -0.1783  0.3240  0.2216
  258TMC3    C7 3915   1.072   1.522  13.941 -0.1785 -0.2548 -0.7830
  258TMC3    C8 3916   0.815   1.405  13.577 -0.1223 -0.3995 -0.3113
  258TMC3    O1 3917   0.973   1.550  14.003 -0.2985 -0.1637  0.3095
  258TMC3    O2 3918   0.838   1.285  13.608  0.1518  0.5601 -0.4668
  259MPD2     C 3919   4.299   3.363   0.555 -0.1802 -0.1275  0.2245
  259MPD2    C1 3920   4.348   3.241   0.602 -0.0438 -0.3019  0.3041
  259MPD2    C2 3921   4.453   3.183   0.528  0.0884  0.1505  0.3702
  259MPD2    C3 3922   4.499   3.240   0.415 -0.3790  0.8160  0.0563
  259MPD2    C4 3923   4.450   3.361   0.374  0.0437  0.0932  0.4291
  259MPD2    C5 3924   4.350   3.429   0.442  0.3571  0.5521  0.3391
  259MPD2     H 3925   4.495   3.088   0.557  2.8508  1.8679  1.9925
  259MPD2    H1 3926   4.484   3.404   0.281  1.1999 -1.4034  0.1654
  259MPD2    H2 3927   4.225   3.408   0.620  1.1881  2.8679 -0.2813
  259MPD2    H3 3928   4.322   3.528   0.406 -0.8705  0.7074  1.6995
  259MPD2     N 3929   4.609   3.171   0.353 -0.4840  0.0849  0.6628
  259MPD2    H5 3930   4.628   3.078   0.387 -0.0338 -0.1908 -0.3354
  259MPD2    N1 3931   4.305   3.186   0.722 -0.0252  0.1306  0.5596
  259MPD2    H7 3932   4.242   3.239   0.782 -0.6087 -1.1057  1.0437
  260TMC3    C1 3933   0.067   3.130   0.201  0.3223 -0.4929  0.7430
  260TMC3    C2 3934   0.178   3.182   0.145  0.5181 -0.0033 -0.0037
  260TMC3    C3 3935   0.289   3.098   0.143 -1.5279  0.4807 -0.0868
  260TMC3    C4 3936   0.051   3.003   0.232  0.3321  0.0726  0.3239
  260TMC3    C5 3937   0.163   2.922   0.213 -0.4078  0.0484 -0.3014
  260TMC3    C6 3938   0.289   2.970   0.184  0.5128  0.1782  0.4594
  260TMC3     C 3939   4.684   3.221   0.250 -0.7175 -0.1677 -0.0584
  260TMC3     O 3940   4.698   3.332   0.213 -0.5637  0.3964  0.6111
  260TMC3     H 3941   0.173   3.284   0.110  0.1966 -0.3071 -0.8501
  260TMC3    H1 3942   4.673   2.959   0.257  0.5664 -0.0053  1.0809
  260TMC3    H2 3943   0.370   2.897   0.181 -1.0882 -1.6459  1.1626
  260TMC3    C7 3944   0.142   2.778   0.188  0.7433 -0.1831 -0.0667
  260TMC3    C8 3945   0.377   3.136   0.035  0.3414  0.2952 -0.4187
  260TMC3    O1 3946   0.221   2.734   0.107  0.0216 -0.6069 -0.3913
  260TMC3    O2 3947   0.407   3.253   0.027  0.5093  0.5375 -0.8116
  261MPD2     C 3948   1.419   1.780  13.005 -0.2177  0.0573 -0.5541
  261MPD2    C1 3949   1.461   1.910  12.997 -0.8568  0.8597  0.8068
  261MPD2    C2 3950   1.486   1.960  12.864 -0.4218  0.2434  0.2308
  261MPD2    C3 3951   1.468   1.878  12.750  0.2241  0.1868  0.5393
  261MPD2    C4 3952   1.429   1.746  12.770  0.2482 -0.4331  0.7227
  261MPD2    C5 3953   1.412   1.696  12.896 -0.3076 -0.1317 -0.1810
  261MPD2     H 3954   1.537   2.055  12.860 -0.8513  0.4593 -0.1173
  261MPD2    H1 3955   1.410   1.686  12.682  1.3527 -1.7880  1.3961
  261MPD2    H2 3956   1.398   1.728  13.098  1.0975  0.1937 -0.1811
  261MPD2    H3 3957   1.388   1.590  12.905 -1.1746  0.0549 -0.2773
  261MPD2     N 3958   1.487   1.950  12.628  0.2824 -0.1338  0.0787
  261MPD2    H5 3959   1.519   2.045  12.645  2.9183 -0.6577 -2.0021
  261MPD2    N1 3960   1.496   1.991  13.101  0.8740  0.2754 -0.2798
  261MPD2    H7 3961   1.540   2.079  13.075 -0.3812  1.0140  0.1084
  262TMC3    C1 3962   1.517   1.985  12.397  0.4764 -0.7071  0.2776
  262TMC3    C2 3963   1.545   2.120  12.440  0.0219  0.4901 -0.1017
  262TMC3    C3 3964   1.660   2.173  12.387 -0.5524 -0.0922 -0.0189
  262TMC3    C4 3965   1.587   1.908  12.313 -0.0929 -0.4240 -0.2458
  262TMC3    C5 3966   1.703   1.976  12.269 -0.0094  0.4690  0.0621
  262TMC3    C6 3967   1.739   2.099  12.307 -0.0298 -0.2287  0.4623
  262TMC3     C 3968   1.455   1.902  12.503 -0.3357 -0.1820 -0.1183
  262TMC3     O 3969   1.424   1.786  12.473 -0.2227  0.0860 -0.3609
  262TMC3     H 3970   1.485   2.180  12.508  1.4165  0.7764  0.8735
  262TMC3    H1 3971   1.571   1.806  12.281 -0.1654 -0.1081 -1.1894
  262TMC3    H2 3972   1.825   2.150  12.264  0.6209 -1.1062  0.7473
  262TMC3    C7 3973   1.739   1.945  12.132  0.7157 -0.5026  0.0608
  262TMC3    C8 3974   1.658   2.311  12.354  0.4517  0.7967  0.0548
  262TMC3    O1 3975   1.737   1.831  12.097  0.4641  0.6756 -0.4639
  262TMC3    O2 3976   1.763   2.368  12.319  0.1755  0.7889 -0.3709
  263MPD2     C 3977   2.712   1.152  11.683  0.0811 -0.1197  0.2767
  263MPD2    C1 3978   2.798   1.157  11.572  0.1405 -0.8173 -0.1162
  263MPD2    C2 3979   2.759   1.199  11.450  0.5068 -0.5366 -0.4062
  263MPD2    C3 3980   2.640   1.265  11.433  0.3025  0.1699  0.4857
  263MPD2    C4 3981   2.551   1.271  11.537 -0.2602  0.0793  0.4959
  263MPD2    C5 3982   2.587   1.211  11.653  0.1813 -0.0218 -0.1458
  263MPD2     H 3983   2.833   1.197  11.371 -1.4893 -2.6423 -2.2268
  263MPD2    H1 3984   2.448   1.305  11.531 -0.1177  0.5200  0.5754
  263MPD2    H2 3985   2.745   1.110  11.777  0.1758  0.7684  0.6473
  263MPD2    H3 3986   2.521   1.222  11.739 -1.7719  0.0620 -1.6417
  263MPD2     N 3987   2.623   1.327  11.307  0.1524  0.4153 -0.2494
  263MPD2    H5 3988   2.704   1.339  11.247 -1.2456  0.0437 -2.2300
  263MPD2    N1 3989   2.933   1.116  11.602  0.3088 -0.2841  0.5863
  263MPD2    H7 3990   2.948   1.067  11.689 -0.1349 -0.4100  0.5955
  264TMC3    C1 3991   2.542   1.469  11.140  0.0886  0.0793 -0.1175
  264TMC3    C2 3992   2.501   1.604  11.128  0.2448  0.9707  0.9483
  264TMC3    C3 3993   2.522   1.660  11.003 -1.6706 -0.1656 -0.2367
  264TMC3    C4 3994   2.602   1.401  11.038  0.1474 -0.7380 -0.2044
  264TMC3    C5 3995   2.616   1.469  10.919  0.0947 -0.3060 -0.8235
  264TMC3    C6 3996   2.573   1.593  10.893 -0.3725 -0.2663 -1.2334
  264TMC3     C 3997   2.514   1.401  11.271 -0.1629 -0.5359 -0.6477
  264TMC3     O 3998   2.432   1.440  11.351 -0.4937  0.1086 -0.0263
  264TMC3     H 3999   2.456   1.658  11.211 -2.0545  0.9328 -0.2790
  264TMC3    H1 4000   2.648   1.305  11.060 -0.3768 -0.8794  0.2804
  264TMC3    H2 4001   2.580   1.643  10.797 -1.1939 -0.2141 -1.2704
  264TMC3    C7 4002   2.732   1.418  10.845  0.5433  0.3976 -0.3436
  264TMC3    C8 4003   2.607   1.774  11.018  0.3439  0.6716 -0.1413
  264TMC3    O1 4004   2.782   1.314  10.877  0.5950  0.4503  0.7734
  264TMC3    O2 4005   2.702   1.783  10.944  0.8353 -0.3864  0.0143
  265MPD2     C 4006   0.019   1.050  15.553  0.8909  0.1642 -0.2826
  265MPD2    C1 4007   0.063   1.175  15.515 -0.6030 -0.5007 -0.8434
  265MPD2    C2 4008   0.154   1.177  15.411 -0.0159 -0.4129 -0.0954
  265MPD2    C3 4009   0.202   1.057  15.354 -0.0050  0.2882  0.0835
  265MPD2    C4 4010   0.156   0.940  15.397 -0.5642 -0.0602 -0.2570
  265MPD2    C5 4011   0.062   0.938  15.495  0.2877  0.0697 -0.3984
  265MPD2     H 4012   0.185   1.274  15.372 -0.6719 -0.4974 -0.8201
  265MPD2    H1 4013   0.191   0.850  15.348 -1.7799 -0.1821 -0.9245
  265MPD2    H2 4014   4.661   1.042  15.630  0.5864 -3.1039 -0.9219
  265MPD2    H3 4015   0.028   0.840  15.525  1.6919  0.4454  2.3943
  265MPD2     N 4016   0.299   1.055  15.253  0.8391  0.0429  0.5005
  265MPD2    H5 4017   0.298   0.965  15.205  1.2430 -0.0699  0.7030
  265MPD2    N1 4018   0.007   1.294  15.570  0.3168 -0.1597 -0.4327
  265MPD2    H7 4019   0.033   1.383  15.529 -0.2078  0.5715  0.8045
  266TMC3    C1 4020   4.639   1.452  15.721  0.0886 -0.5135  0.4119
  266TMC3    C2 4021   4.672   1.510  15.838  0.4785  0.2185  0.5795
  266TMC3    C3 4022   4.657   1.646  15.842  0.9525  0.2435 -0.3196
  266TMC3    C4 4023   4.583   1.511  15.618  0.5418 -0.3733  0.7475
  266TMC3    C5 4024   4.572   1.646  15.625 -0.0128 -0.1305  0.4278
  266TMC3    C6 4025   4.609   1.719  15.736 -0.8482 -0.1339  0.6733
  266TMC3     C 4026   4.668   1.311  15.694  0.1674 -0.2532 -0.2882
  266TMC3     O 4027   4.641   1.236  15.787 -0.3721 -0.0492 -0.0503
  266TMC3     H 4028   4.708   1.455  15.924  0.6818 -1.3900 -0.5310
  266TMC3    H1 4029   4.565   1.461  15.523 -1.3853  0.5800  0.6056
  266TMC3    H2 4030   4.594   1.826  15.734  0.7098  0.0641 -0.5761
  266TMC3    C7 4031   4.522   1.718  15.509 -0.0724 -0.4932  0.8192
  266TMC3    C8 4032   0.024   1.713  15.948 -0.5652  0.5621  1.0679
  266TMC3    O1 4033   4.433   1.799  15.525 -0.3810 -0.2141 -0.2426
  266TMC3    O2 4034   0.119   1.649  15.988 -0.2408  0.0197  0.2561
  267MPD2     C 4035   2.118   3.878   0.034  0.1905 -0.8018 -0.4787
  267MPD2    C1 4036   2.194   3.889  17.594 -0.1523  0.1725 -0.0745
  267MPD2    C2 4037   2.147   3.835  17.473  1.0144  0.2249 -0.3223
  267MPD2    C3 4038   2.024   3.778  17.462 -0.2784 -0.1522  0.1711
  267MPD2    C4 4039   1.951   3.760  17.579  0.4651 -0.1321  0.0837
  267MPD2    C5 4040   1.992   3.821   0.022 -0.0400  0.2621  0.7881
  267MPD2     H 4041   2.209   3.834  17.384  1.2525  1.2750 -0.1755
  267MPD2    H1 4042   1.853   3.715  17.565  0.4971 -1.0095  2.7887
  267MPD2    H2 4043   2.139   3.940   0.121 -0.0860  0.4397 -1.2984
  267MPD2    H3 4044   1.929   3.824   0.110 -0.0075 -1.2598  0.8517
  267MPD2     N 4045   1.965   3.745  17.339  0.7806 -0.5972  0.3579
  267MPD2    H5 4046   1.894   3.672  17.335  0.7202 -0.4468 -1.6050
  267MPD2    N1 4047   2.318   3.946  17.608 -0.1496 -0.1222  0.5118
  267MPD2    H7 4048   2.343   3.987   0.022  0.2757 -0.2142  0.4342
  268TMC3    C1 4049   2.545   4.004  17.548 -0.4437  0.0318 -0.0625
  268TMC3    C2 4050   2.622   4.077  17.462 -0.2465  0.1706 -0.1334
  268TMC3    C3 4051   2.747   4.098  17.507  0.7609  0.0052  0.6585
  268TMC3    C4 4052   2.577   3.979   0.009  0.3533  0.3179  0.8161
  268TMC3    C5 4053   2.703   4.021   0.048 -0.0361 -0.0300 -0.0387
  268TMC3    C6 4054   2.794   4.069  17.632 -0.0747 -0.6197  0.1807
  268TMC3     C 4055   2.412   3.966  17.505  0.3674 -0.6805 -0.1870
  268TMC3     O 4056   2.400   3.949  17.384 -0.2505  0.2021 -0.4583
  268TMC3     H 4057   2.585   4.117  17.368 -0.7112 -1.0628 -0.4808
  268TMC3    H1 4058   2.525   3.915   0.079 -1.6528 -0.5005 -1.4082
  268TMC3    H2 4059   2.902   4.073  17.645 -0.4445 -1.3415  3.5007
  268TMC3    C7 4060   2.756   3.968   0.182 -0.3827  0.3044  0.5625
  268TMC3    C8 4061   2.844   4.161  17.416 -0.0289  0.4157 -0.3798
  268TMC3    O1 4062   2.682   3.895   0.250  0.3176 -0.2014 -0.3362
  268TMC3    O2 4063   2.931   4.236  17.457  0.1360 -0.4128 -0.1547
  269MPD2     C 4064   2.789   2.052  15.728  0.1451 -0.5473  0.9281
  269MPD2    C1 4065   2.693   2.128  15.791  0.3481  0.4559 -0.3119
  269MPD2    C2 4066   2.676   2.261  15.751 -1.1275 -0.4326 -0.4571
  269MPD2    C3 4067   2.756   2.313  15.644 -0.0571  0.5357 -0.1405
  269MPD2    C4 4068   2.839   2.231  15.572  0.0360 -0.2725  0.4112
  269MPD2    C5 4069   2.856   2.097  15.615  0.2890 -0.0953  0.0716
  269MPD2     H 4070   2.605   2.326  15.800 -0.6923 -1.1020  1.0700
  269MPD2    H1 4071   2.890   2.250  15.479 -1.0967 -2.8621 -0.7302
  269MPD2    H2 4072   2.808   1.952  15.765  0.0489 -0.8224  0.2521
  269MPD2    H3 4073   2.913   2.022  15.562 -0.4857  1.8453 -3.5052
  269MPD2     N 4074   2.733   2.446  15.617 -0.3882  0.3740 -0.3978
  269MPD2    H5 4075   2.660   2.486  15.674  0.9519  0.1411  1.4902
  269MPD2    N1 4076   2.607   2.066  15.887 -0.0079 -0.5782 -0.5606
  269MPD2    H7 4077   2.638   1.970  15.902  1.0873 -0.0320  0.7313
  270TMC3    C1 4078   2.424   2.010  16.017 -0.0158 -0.2894 -0.2998
  270TMC3    C2 4079   2.294   2.005  15.979  0.1894 -1.2228 -0.4422
  270TMC3    C3 4080   2.226   1.885  15.966  0.9753  0.7362 -0.6311
  270TMC3    C4 4081   2.493   1.895  16.055  0.2147  0.5454 -1.2980
  270TMC3    C5 4082   2.420   1.780  16.046 -0.2449  0.3292 -0.7776
  270TMC3    C6 4083   2.293   1.765  15.994  0.0406 -0.2070  0.1938
  270TMC3     C 4084   2.498   2.114  15.954  0.1459  0.0155  0.1810
  270TMC3     O 4085   2.451   2.227  15.949 -1.1942 -0.4777  0.0547
  270TMC3     H 4086   2.245   2.095  15.944  2.4665 -0.1570 -0.8435
  270TMC3    H1 4087   2.601   1.890  16.062  0.1626 -0.6639 -1.4263
  270TMC3    H2 4088   2.235   1.673  15.985 -1.1378  0.6756 -1.1001
  270TMC3    C7 4089   2.508   1.662  16.026 -0.1579 -0.2863  0.3887
  270TMC3    C8 4090   2.136   1.875  15.854  0.1458  0.0626 -0.2120
  270TMC3    O1 4091   2.619   1.678  15.982 -0.0738 -0.0498  0.0123
  270TMC3    O2 4092   2.047   1.952  15.848  0.8477 -0.4099  0.1293
  271MPD2     C 4093   1.780   2.056  14.181  0.5957  1.1842 -0.2102
  271MPD2    C1 4094   1.704   2.028  14.293  0.4327  1.0340 -0.2786
  271MPD2    C2 4095   1.572   2.064  14.308  0.5974 -0.5164  0.7768
  271MPD2    C3 4096   1.516   2.141  14.210 -0.2718  0.0874  0.2683
  271MPD2    C4 4097   1.582   2.148  14.090 -0.0634  0.3593  0.4325
  271MPD2    C5 4098   1.711   2.106  14.076 -0.2571 -0.3633  0.5184
  271MPD2     H 4099   1.530   2.035  14.403  0.6117 -1.6967  0.4171
  271MPD2    H1 4100   1.543   2.196  14.001  0.9335  0.8128  0.2377
  271MPD2    H2 4101   1.884   2.030  14.161  0.7745  0.4404  1.6119
  271MPD2    H3 4102   1.778   2.117  13.991  0.9360  0.5295  1.5603
  271MPD2     N 4103   1.386   2.191  14.211 -0.0112  0.0743  0.3213
  271MPD2    H5 4104   1.339   2.210  14.123  1.0519 -0.0752 -0.2765
  271MPD2    N1 4105   1.767   1.959  14.398  0.1385  0.3530  0.0104
  271MPD2    H7 4106   1.711   1.942  14.480 -0.0257 -0.6613 -0.3210
  272TMC3    C1 4107   1.913   1.826  14.530  0.3819 -0.6424  0.7936
  272TMC3    C2 4108   1.998   1.715  14.531  0.2997 -0.9012 -0.9303
  272TMC3    C3 4109   2.021   1.645  14.645 -0.6304 -0.1540  0.0735
  272TMC3    C4 4110   1.851   1.863  14.646 -0.4711  0.2185  0.0079
  272TMC3    C5 4111   1.868   1.783  14.751  0.6819 -0.8648  0.8706
  272TMC3    C6 4112   1.959   1.686  14.757 -0.1346  0.4190 -0.3916
  272TMC3     C 4113   1.884   1.900  14.400  0.3928  0.3506 -1.0098
  272TMC3     O 4114   1.970   1.874  14.318 -0.2452 -0.2688  0.2166
  272TMC3     H 4115   2.030   1.681  14.433 -1.4564 -0.3720 -1.7101
  272TMC3    H1 4116   1.801   1.959  14.657 -0.2077  0.2436  1.0161
  272TMC3    H2 4117   1.971   1.634  14.851 -1.9931  1.7590  0.6015
  272TMC3    C7 4118   1.812   1.835  14.872 -0.2223 -0.4529  0.7205
  272TMC3    C8 4119   2.099   1.527  14.644 -0.5046  0.0396 -0.0446
  272TMC3    O1 4120   1.696   1.869  14.869 -0.0730  0.0609 -0.2531
  272TMC3    O2 4121   2.135   1.495  14.530 -0.3483  0.8414 -0.6866
  273MPD2     C 4122   3.294   3.966  11.536  0.2058 -0.5109  0.3239
  273MPD2    C1 4123   3.336   4.077  11.606  0.6405 -0.3323 -0.3000
  273MPD2    C2 4124   3.296   4.200  11.559  0.2346  0.3202  0.4738
  273MPD2    C3 4125   3.228   4.220  11.442 -0.2299  0.1300  0.2220
  273MPD2    C4 4126   3.187   4.104  11.374 -0.0510  0.0764 -0.5778
  273MPD2    C5 4127   3.211   3.985  11.427 -1.0433  0.4639  0.4098
  273MPD2     H 4128   3.304   4.287  11.623 -2.0267 -0.7125  2.1514
  273MPD2    H1 4129   3.142   4.102  11.276  0.3010  2.2815 -0.7843
  273MPD2    H2 4130   3.313   3.864  11.565  1.7847 -0.3965 -0.2948
  273MPD2    H3 4131   3.179   3.903  11.364  2.2260 -0.8613  0.4823
  273MPD2     N 4132   3.206   4.345  11.380  0.2963  0.1053  0.8013
  273MPD2    H5 4133   3.155   4.353  11.293  0.4596 -1.3602  0.5698
  273MPD2    N1 4134   3.417   4.050  11.721  0.0786  0.2654  0.2384
  273MPD2    H7 4135   3.424   3.952  11.746 -1.7958 -0.3546 -1.7370
  274TMC3    C1 4136   3.226   4.585  11.349 -0.2290  0.0999 -0.3795
  274TMC3    C2 4137   3.126   4.581  11.259  0.1560  0.0626  0.1145
  274TMC3    C3 4138   3.074   4.706  11.218 -0.4801  0.1945 -0.4110
  274TMC3    C4 4139   3.287   4.703  11.387  0.3338  0.2083 -0.0372
  274TMC3    C5 4140   3.229   0.103  11.338 -0.2297 -0.2644 -1.0543
  274TMC3    C6 4141   3.117   0.112  11.260 -0.0059  0.3751 -0.0782
  274TMC3     C 4142   3.258   4.467  11.430  0.3266  0.2774  0.2480
  274TMC3     O 4143   3.316   4.494  11.533  0.0919 -0.0279 -0.3688
  274TMC3     H 4144   3.048   4.510  11.286  0.4839 -0.9943 -1.7071
  274TMC3    H1 4145   3.385   4.704  11.433  0.5042  2.9808 -0.4120
  274TMC3    H2 4146   3.089   0.201  11.205 -0.7316 -1.1124 -2.0934
  274TMC3    C7 4147   3.258   0.233  11.408  0.1285 -0.6346  1.1633
  274TMC3    C8 4148   2.947   4.710  11.141 -0.0356 -0.1213  0.2319
  274TMC3    O1 4149   3.200   0.329  11.361  0.6624  0.1054  0.5650
  274TMC3    O2 4150   2.896   0.101  11.118  0.0366 -0.4604 -0.1620
  275MPD2     C 4151   3.491   2.492  14.632 -0.2982  0.1804  0.2816
  275MPD2    C1 4152   3.418   2.603  14.678 -0.6498 -0.7529 -0.7332
  275MPD2    C2 4153   3.281   2.594  14.702  0.3337  0.1741  0.3823
  275MPD2    C3 4154   3.209   2.473  14.675 -0.2088 -0.3515 -0.1113
  275MPD2    C4 4155   3.286   2.372  14.633  0.1975 -0.7247 -0.0079
  275MPD2    C5 4156   3.425   2.373  14.617 -0.0265  0.8183  0.3556
  275MPD2     H 4157   3.221   2.680  14.730 -0.0422  0.3359 -0.9367
  275MPD2    H1 4158   3.237   2.278  14.607  0.8309 -1.5164  1.6356
  275MPD2    H2 4159   3.595   2.492  14.600  0.0539 -2.0452  1.4706
  275MPD2    H3 4160   3.475   2.289  14.571 -0.3302  0.7871  0.0863
  275MPD2     N 4161   3.067   2.459  14.672 -0.0799  0.1870  0.7383
  275MPD2    H5 4162   3.042   2.373  14.624 -0.4307 -0.4298  2.0356
  275MPD2    N1 4163   3.476   2.727  14.695 -0.3455 -0.1360  0.1676
  275MPD2    H7 4164   3.406   2.793  14.728 -0.1842 -0.2210  0.6857
  276TMC3    C1 4165   3.630   2.900  14.709  0.2189  0.0694 -0.0570
  276TMC3    C2 4166   3.526   2.966  14.772 -0.5150  1.2735 -0.9524
  276TMC3    C3 4167   3.549   3.062  14.866 -0.3765  0.0085 -0.1777
  276TMC3    C4 4168   3.757   2.916  14.758 -0.2877 -0.5660  0.0422
  276TMC3    C5 4169   3.772   2.993  14.870 -0.0119  0.0505 -0.7584
  276TMC3    C6 4170   3.675   3.077  14.913  0.9736  0.0483  0.6190
  276TMC3     C 4171   3.602   2.770  14.653 -0.6217  0.0699 -0.6097
  276TMC3     O 4172   3.685   2.707  14.592  0.6497 -0.0046 -0.0467
  276TMC3     H 4173   3.428   2.968  14.725  0.4345  2.2264 -2.8821
  276TMC3    H1 4174   3.825   2.834  14.739  0.9945  0.5535 -0.2074
  276TMC3    H2 4175   3.679   3.136  15.004 -1.9904 -0.1257  0.8692
  276TMC3    C7 4176   3.908   3.011  14.928  0.2870  0.0807  0.2163
  276TMC3    C8 4177   3.466   3.032  14.981 -0.2843  0.1494  0.4635
  276TMC3    O1 4178   3.914   3.071  15.035  0.1655 -0.0046  0.7137
  276TMC3    O2 4179   3.433   3.114  15.068  0.2977  0.0001 -0.4301
  277MPD2     C 4180   0.296   1.744  13.219 -0.3030 -0.3706 -0.7847
  277MPD2    C1 4181   0.216   1.850  13.208  0.4046 -0.5228 -0.5095
  277MPD2    C2 4182   0.094   1.850  13.269  0.4393  0.2850 -0.6374
  277MPD2    C3 4183   0.060   1.743  13.353  0.3211 -0.2332 -0.0190
  277MPD2    C4 4184   0.146   1.630  13.365  0.5424  1.2932  0.5159
  277MPD2    C5 4185   0.268   1.634  13.301  1.2211  0.2074 -0.2747
  277MPD2     H 4186   0.039   1.944  13.273 -0.8692 -0.5855  2.1013
  277MPD2    H1 4187   0.128   1.536  13.416 -1.9941  1.6223  0.2536
  277MPD2    H2 4188   0.387   1.750  13.160 -0.3632 -0.7575 -0.9147
  277MPD2    H3 4189   0.335   1.549  13.310  1.2106  0.2056 -0.2176
  277MPD2     N 4190   4.651   1.748  13.412 -0.2535  0.3835  0.5265
  277MPD2    H5 4191   4.586   1.826  13.399 -1.2627 -0.5090  0.2298
  277MPD2    N1 4192   0.249   1.966  13.131  0.4553 -0.8856  0.2902
  277MPD2    H7 4193   0.187   2.046  13.134 -1.3040 -2.3573  2.9298
  278TMC3    C1 4194   4.456   1.671  13.512 -0.2369  0.5829 -0.1787
  278TMC3    C2 4195   4.394   1.599  13.606  0.0469 -0.0923 -0.3833
  278TMC3    C3 4196   4.259   1.612  13.632 -0.2919  0.5254 -0.0309
  278TMC3    C4 4197   4.387   1.757  13.427  0.4841  0.5754 -0.0709
  278TMC3    C5 4198   4.248   1.760  13.439  0.2976 -0.7273 -0.0986
  278TMC3    C6 4199   4.191   1.694  13.544  0.3483 -0.0967  0.4420
  278TMC3     C 4200   4.595   1.641  13.479 -0.2888 -0.0152 -0.9307
  278TMC3     O 4201   4.633   1.524  13.513 -0.4065 -0.1211 -0.3064
  278TMC3     H 4202   4.455   1.540  13.673 -0.1838  0.3330  0.2024
  278TMC3    H1 4203   4.433   1.812  13.345  1.9040 -0.3567  0.0957
  278TMC3    H2 4204   4.087   1.704  13.576  1.1810  2.1384  2.4082
  278TMC3    C7 4205   4.174   1.847  13.356  0.0120  0.4312  0.9857
  278TMC3    C8 4206   4.181   1.495  13.684  0.6381 -0.2430  0.1120
  278TMC3    O1 4207   4.240   1.922  13.281 -0.1450  0.2076  0.0189
  278TMC3    O2 4208   4.061   1.507  13.668  0.2353 -0.3026  0.4575
  279MPD2     C 4209   3.486   1.206   0.055  0.2358 -0.2115  0.3066
  279MPD2    C1 4210   3.598   1.264   0.100 -0.0299 -0.0967  0.9289
  279MPD2    C2 4211   3.717   1.206   0.067 -0.1405 -0.9623  0.0596
  279MPD2    C3 4212   3.722   1.086  17.675 -0.4887  0.4526  0.1778
  279MPD2    C4 4213   3.606   1.025  17.642 -0.2506  0.1709  0.5382
  279MPD2    C5 4214   3.484   1.080  17.667  0.4505  0.5184  0.9364
  279MPD2     H 4215   3.807   1.262   0.089 -0.9368  0.5704 -0.5673
  279MPD2    H1 4216   3.620   0.931  17.591 -0.5191 -0.7695  2.1840
  279MPD2    H2 4217   3.388   1.249   0.070 -0.4042 -2.2124  1.8839
  279MPD2    H3 4218   3.392   1.043  17.623  0.4564  2.3874 -0.6530
  279MPD2     N 4219   3.845   1.016  17.656 -0.3323 -0.2355 -0.4401
  279MPD2    H5 4220   3.843   0.953  17.576  0.3618 -1.6606  0.6654
  279MPD2    N1 4221   3.584   1.389   0.173  0.5902  0.1256  0.1174
  279MPD2    H7 4222   3.491   1.416   0.204  0.6676 -0.3982  0.7972
  280TMC3    C1 4223   3.661   1.590   0.267 -0.2927 -0.1687 -0.2040
  280TMC3    C2 4224   3.571   1.575   0.369  0.8833  0.1360  0.8285
  280TMC3    C3 4225   3.558   1.684   0.453  0.5511 -0.6267 -0.3369
  280TMC3    C4 4226   3.732   1.710   0.246  0.1345  0.3770 -0.7130
  280TMC3    C5 4227   3.702   1.816   0.330  0.8180  0.7882  0.0331
  280TMC3    C6 4228   3.628   1.804   0.440 -0.2218  0.4999 -0.4394
  280TMC3     C 4229   3.687   1.479   0.178 -0.0868  0.0814  0.2877
  280TMC3     O 4230   3.798   1.476   0.122  0.0116  0.0610  0.1871
  280TMC3     H 4231   3.512   1.486   0.389  1.5836 -0.6595 -0.5897
  280TMC3    H1 4232   3.803   1.722   0.165 -0.7559 -0.9082 -1.7039
  280TMC3    H2 4233   3.613   1.889   0.506  0.2829  0.0348  0.2720
  280TMC3    C7 4234   3.781   1.935   0.310 -0.2638 -0.0530  0.3993
  280TMC3    C8 4235   3.436   1.673   0.538 -0.2339  0.1888 -0.2627
  280TMC3    O1 4236   3.830   2.004   0.402 -0.1590 -0.1468  0.2823
  280TMC3    O2 4237   3.345   1.604   0.494  0.3878 -0.4422  0.1946
  281TMC3    C1 4238   2.127   2.860  13.811 -0.7473 -0.8791 -0.3252
  281TMC3    C2 4239   2.138   2.913  13.680  0.4508 -0.1990 -0.5075
  281TMC3    C3 4240   2.067   2.848  13.581  0.1330  0.0260  0.1819
  281TMC3    C4 4241   2.053   2.749  13.830 -0.1271 -0.1968  0.6225
  281TMC3    C5 4242   1.984   2.687  13.727  0.0247 -0.0442 -0.1759
  281TMC3    C6 4243   1.988   2.741  13.598  0.3536 -1.1549 -0.7960
  281TMC3     C 4244   2.208   2.913  13.916  0.1659 -0.3550  0.3343
  281TMC3     O 4245   2.166   2.895  14.031  0.3021  0.2660  0.1338
  281TMC3     H 4246   2.189   3.006  13.656  0.6294 -0.1771 -0.0445
  281TMC3    H1 4247   2.076   2.695  13.920  2.1494 -2.5935 -1.4050
  281TMC3    H2 4248   1.939   2.692  13.515 -0.1924  1.3163 -1.9240
  281TMC3    C7 4249   1.917   2.555  13.744 -0.2891  0.4185  1.0489
  281TMC3    C8 4250   2.065   2.914  13.449 -0.1631  0.1137  0.0137
  281TMC3    O1 4251   1.861   2.540  13.850  0.6237 -0.2398 -0.6956
  281TMC3    O2 4252   1.973   2.887  13.374  0.4419  0.8652  0.0965
  282MPD2     C 4253   0.562   3.662  14.895  0.0050 -0.6904 -0.1634
  282MPD2    C1 4254   0.432   3.676  14.954 -0.3515 -0.1549  0.5100
  282MPD2    C2 4255   0.323   3.643  14.870  0.3579 -0.3635  0.3559
  282MPD2    C3 4256   0.338   3.595  14.742  0.0998  0.0233  0.0301
  282MPD2    C4 4257   0.461   3.576  14.690 -0.6159  0.3793 -0.2710
  282MPD2    C5 4258   0.566   3.606  14.770 -0.5682 -0.0908  0.3251
  282MPD2     H 4259   0.222   3.652  14.910 -0.1238  2.3088 -1.4646
  282MPD2    H1 4260   0.483   3.551  14.587  0.8824 -0.3457  0.2170
  282MPD2    H2 4261   0.660   3.679  14.937 -0.1432 -2.7307  1.0252
  282MPD2    H3 4262   0.665   3.591  14.730 -1.2871  0.1229 -1.5226
  282MPD2     N 4263   0.215   3.562  14.673 -0.3273  0.3888 -0.5109
  282MPD2    H5 4264   0.133   3.598  14.720 -0.4379  0.4279 -0.7347
  282MPD2    N1 4265   0.410   3.723  15.085 -0.1894  0.5639 -0.2319
  282MPD2    H7 4266   0.320   3.698  15.124  1.0655 -1.0171  1.6543
  283TMC3    C1 4267   0.426   3.840  15.280  0.0156 -0.0514 -0.4085
  283TMC3    C2 4268   0.433   3.968  15.330  0.0015 -0.5328  0.2588
  283TMC3    C3 4269   0.364   3.997  15.443 -0.7946  0.3324 -0.3049
  283TMC3    C4 4270   0.368   3.737  15.342 -0.2144  0.5963 -0.9178
  283TMC3    C5 4271   0.305   3.770  15.466  0.2465  0.2783  0.0762
  283TMC3    C6 4272   0.308   3.902  15.514  0.4543 -0.2453 -0.4867
  283TMC3     C 4273   0.489   3.812  15.156  0.3719  0.2201  0.6675
  283TMC3     O 4274   0.590   3.867  15.115  0.0663  0.3358 -0.3173
  283TMC3     H 4275   0.481   4.046  15.272  1.5351 -1.8802 -0.2903
  283TMC3    H1 4276   0.378   3.635  15.306  2.1660  0.1585  0.9857
  283TMC3    H2 4277   0.283   3.926  15.616 -0.4502 -1.7352 -0.3644
  283TMC3    C7 4278   0.230   3.673  15.532 -0.0722 -0.3033 -1.1500
  283TMC3    C8 4279   0.376   4.129  15.495 -0.0817  0.2910 -0.5789
  283TMC3    O1 4280   0.183   3.700  15.642  0.4376  0.0993 -0.1506
  283TMC3    O2 4281   0.408   4.130  15.616 -0.0998  0.3771 -0.4717
  284MPD2     C 4282   2.893   3.117  11.598  0.3976  0.1225 -0.0844
  284MPD2    C1 4283   2.960   2.996  11.598 -0.0322  0.0458  0.4092
  284MPD2    C2 4284   2.898   2.881  11.648 -0.3947 -0.3443 -0.4223
  284MPD2    C3 4285   2.766   2.889  11.698  0.3932  0.0318  0.2970
  284MPD2    C4 4286   2.700   3.006  11.674 -0.8778  0.5401 -0.0526
  284MPD2    C5 4287   2.760   3.119  11.624 -0.3666 -0.3683 -0.3231
  284MPD2     H 4288   2.942   2.782  11.652 -0.4814 -0.3294  1.1956
  284MPD2    H1 4289   2.601   3.020  11.718  0.5053  1.3781  2.8231
  284MPD2    H2 4290   2.941   3.213  11.586 -1.2709  0.6069 -2.9267
  284MPD2    H3 4291   2.716   3.218  11.622  2.3938  0.8424  0.1523
  284MPD2     N 4292   2.695   2.773  11.735 -0.5415 -0.8251  0.0601
  284MPD2    H5 4293   2.594   2.781  11.741 -0.7121 -1.2499 -2.2069
  284MPD2    N1 4294   3.093   2.983  11.560  0.2175 -0.0839  0.4001
  284MPD2    H7 4295   3.129   2.888  11.562 -1.6640 -0.8201 -0.6736
  285TMC3    C1 4296   3.308   3.040  11.481 -0.5736  0.0475  0.0692
  285TMC3    C2 4297   3.336   2.913  11.436  0.6514  0.2099 -0.4084
  285TMC3    C3 4298   3.466   2.888  11.413 -0.3188 -0.0455  0.4389
  285TMC3    C4 4299   3.401   3.133  11.493 -0.3728 -0.2938  0.0126
  285TMC3    C5 4300   3.529   3.100  11.471  0.3281  0.0935  0.0857
  285TMC3    C6 4301   3.569   2.978  11.431  0.4334 -0.6530 -0.8336
  285TMC3     C 4302   3.174   3.083  11.513  0.3291  0.1137  0.6411
  285TMC3     O 4303   3.149   3.206  11.496  0.2290 -0.7762  0.1800
  285TMC3     H 4304   3.252   2.854  11.400  0.0264  1.9758 -1.8662
  285TMC3    H1 4305   3.377   3.236  11.514  0.7355 -0.5777  2.8013
  285TMC3    H2 4306   3.673   2.948  11.420 -0.5179 -3.2432 -3.0490
  285TMC3    C7 4307   3.627   3.201  11.519  0.2153  0.0879 -0.5450
  285TMC3    C8 4308   3.495   2.752  11.369 -0.0288  0.5521  1.0048
  285TMC3    O1 4309   3.588   3.314  11.529 -0.0890  0.0563  0.0531
  285TMC3    O2 4310   3.410   2.667  11.399  0.4780  0.7369 -0.2006
  286MPD2     C 4311   3.560   1.949   1.761  0.3184  0.0939 -0.8108
  286MPD2    C1 4312   3.480   1.907   1.652 -0.1883 -0.0323 -0.1664
  286MPD2    C2 4313   3.528   1.815   1.560  0.1300 -0.2839  0.3358
  286MPD2    C3 4314   3.651   1.759   1.580  0.1674 -0.6575 -1.0288
  286MPD2    C4 4315   3.717   1.777   1.698 -0.1971 -0.8035  0.5938
  286MPD2    C5 4316   3.675   1.876   1.788 -0.1848 -0.2886  0.4809
  286MPD2     H 4317   3.477   1.801   1.466  0.7148  0.7635 -0.1418
  286MPD2    H1 4318   3.795   1.712   1.736  1.0061 -0.0355 -0.5694
  286MPD2    H2 4319   3.534   2.024   1.835 -0.6772 -0.4840 -0.5699
  286MPD2    H3 4320   3.730   1.894   1.881  0.9761  0.3860 -0.3247
  286MPD2     N 4321   3.708   1.660   1.494 -0.4494 -0.0456 -0.3210
  286MPD2    H5 4322   3.797   1.625   1.529  0.4409  1.4566 -1.1076
  286MPD2    N1 4323   3.360   1.968   1.621 -0.3998 -0.0483 -0.4504
  286MPD2    H7 4324   3.323   1.942   1.530  1.2386  1.2195 -1.4795
  287TMC3    C1 4325   3.741   1.497   1.327 -0.5662  0.6477  0.6728
  287TMC3    C2 4326   3.713   1.460   1.200 -0.8805  0.3326 -0.3126
  287TMC3    C3 4327   3.788   1.356   1.148  0.1588  0.0905  0.4002
  287TMC3    C4 4328   3.836   1.436   1.410 -0.0774  0.7461 -0.0054
  287TMC3    C5 4329   3.912   1.337   1.349 -0.2563 -0.2126 -0.1128
  287TMC3    C6 4330   3.890   1.295   1.220  0.6136  0.2068 -0.0941
  287TMC3     C 4331   3.661   1.608   1.376 -0.1431 -0.3155  0.6013
  287TMC3     O 4332   3.549   1.624   1.325 -0.4470  0.4802 -0.4956
  287TMC3     H 4333   3.648   1.525   1.142 -0.0656 -0.6097 -2.3146
  287TMC3    H1 4334   3.837   1.456   1.516  0.0938 -1.5829  0.4429
  287TMC3    H2 4335   3.937   1.210   1.173  1.7003 -0.1601  1.6695
  287TMC3    C7 4336   4.003   1.262   1.429  0.6008 -0.5690  0.2350
  287TMC3    C8 4337   3.771   1.318   1.008 -0.2214 -0.0401 -0.2305
  287TMC3    O1 4338   4.040   1.154   1.386  0.1935 -0.0304  0.2470
  287TMC3    O2 4339   3.867   1.258   0.952 -0.2344 -0.0112  0.6209
  288TMC3    C1 4340   0.090   1.309  14.617 -0.1658 -0.8360  0.1203
  288TMC3    C2 4341   0.042   1.207  14.695  0.2063  0.0669 -0.1854
  288TMC3    C3 4342   0.073   1.198  14.827  0.5833 -0.8152  0.2428
  288TMC3    C4 4343   0.177   1.402  14.674 -0.5500  0.4180  0.2465
  288TMC3    C5 4344   0.205   1.392  14.807 -0.5233  0.1246  0.0031
  288TMC3    C6 4345   0.154   1.295  14.890 -0.0966 -0.1431 -0.7972
  288TMC3     C 4346   0.058   1.310  14.474 -0.6822 -0.0329 -0.6015
  288TMC3     O 4347   0.000   1.210  14.427  0.2275  0.3121 -0.5985
  288TMC3     H 4348   4.692   1.135  14.650  1.3398 -0.3952 -1.1510
  288TMC3    H1 4349   0.223   1.482  14.617 -0.2224 -1.4601 -2.1051
  288TMC3    H2 4350   0.175   1.287  14.996  0.3208 -0.8898 -0.9353
  288TMC3    C7 4351   0.276   1.494  14.879  0.4879  0.5377 -0.7968
  288TMC3    C8 4352   0.047   1.079  14.907  0.1855  0.0108  0.5056
  288TMC3    O1 4353   0.351   1.457  14.972 -0.2518 -0.0481 -0.6707
  288TMC3    O2 4354   0.130   1.067  14.998 -0.1385 -0.1262  0.0002
  289MPD2     C 4355   0.296   0.533  13.822 -0.3145  1.0045  0.3058
  289MPD2    C1 4356   0.260   0.664  13.836 -0.7704  0.0499  0.2961
  289MPD2    C2 4357   0.158   0.694  13.924  1.0561  0.1434  0.1953
  289MPD2    C3 4358   0.093   0.594  13.990 -0.0824 -0.2227 -0.3628
  289MPD2    C4 4359   0.129   0.458  13.968 -0.1197 -0.5517  0.2297
  289MPD2    C5 4360   0.236   0.433  13.892 -0.2843 -0.7552 -0.3954
  289MPD2     H 4361   0.130   0.797  13.944  0.2788  0.0664 -0.4986
  289MPD2    H1 4362   0.082   0.379  14.025  1.8636 -2.2407 -0.4983
  289MPD2    H2 4363   0.372   0.503  13.751 -1.2667  0.3918 -0.4540
  289MPD2    H3 4364   0.266   0.335  13.858 -1.7155 -1.2229 -0.3083
  289MPD2     N 4365   4.697   0.613  14.069 -0.3099  0.1186 -0.1081
  289MPD2    H5 4366   4.643   0.527  14.071 -1.6179  0.9572 -0.0505
  289MPD2    N1 4367   0.325   0.767  13.767  0.3304 -0.1952 -0.2501
  289MPD2    H7 4368   0.412   0.745  13.719  0.5154 -1.1070  0.5181
  290TMC3    C1 4369   4.504   0.725  14.158  0.0685 -0.5070  0.3512
  290TMC3    C2 4370   4.442   0.850  14.159 -0.0093  0.0556  0.2477
  290TMC3    C3 4371   4.310   0.855  14.133  0.0272  0.6480 -0.2568
  290TMC3    C4 4372   4.434   0.607  14.150 -0.5669 -0.0009  0.0005
  290TMC3    C5 4373   4.300   0.621  14.125 -0.1458 -0.3051  0.3074
  290TMC3    C6 4374   4.233   0.741  14.113 -0.0239  0.3357  0.4946
  290TMC3     C 4375   4.637   0.738  14.100 -0.5474 -0.6084 -0.5369
  290TMC3     O 4376   4.689   0.849  14.096 -0.3322 -0.4142  0.1877
  290TMC3     H 4377   4.501   0.940  14.171  0.5965 -0.3393  0.2044
  290TMC3    H1 4378   4.493   0.516  14.157  0.1465  0.5188  0.8200
  290TMC3    H2 4379   4.126   0.745  14.095  0.0477 -0.6440 -0.1499
  290TMC3    C7 4380   4.218   0.509  14.093 -0.4196  0.6307  0.0301
  290TMC3    C8 4381   4.239   0.987  14.132  0.0165  0.1476 -0.4287
  290TMC3    O1 4382   4.108   0.532  14.052  0.0165 -0.6000 -0.1235
  290TMC3    O2 4383   4.123   0.978  14.095 -0.2281  0.9132 -0.2326
  291MPD2     C 4384   4.353   0.593   0.123 -0.5976 -0.2901  0.2954
  291MPD2    C1 4385   4.470   0.540   0.167  0.9816  0.0872 -0.5894
  291MPD2    C2 4386   4.580   0.620   0.158  0.4517  0.4975  0.3810
  291MPD2    C3 4387   4.585   0.744   0.105  0.0309  0.2123 -0.5675
  291MPD2    C4 4388   4.465   0.799   0.060  0.8369 -0.0076  0.8644
  291MPD2    C5 4389   4.350   0.725   0.063 -0.1652 -0.1427 -0.1451
  291MPD2     H 4390   4.670   0.574   0.198  0.3774  0.6474  0.7132
  291MPD2    H1 4391   4.468   0.897   0.014 -2.1682  0.0656  0.7886
  291MPD2    H2 4392   4.264   0.532   0.126  0.7612 -2.3727 -1.2128
  291MPD2    H3 4393   4.258   0.762   0.022  0.2733  1.6309  0.4567
  291MPD2     N 4394   4.704   0.826   0.081 -0.0437 -0.5849 -0.0615
  291MPD2    H5 4395   4.690   0.920   0.046 -1.6381 -0.9993 -0.5544
  291MPD2    N1 4396   4.489   0.408   0.220 -0.1169  0.1871 -0.1198
  291MPD2    H7 4397   4.583   0.385   0.247 -0.1936  0.4251  0.3421
  292TMC3    C1 4398   4.449   0.182   0.270 -0.3137 -0.1315  0.2304
  292TMC3    C2 4399   4.575   0.173   0.318 -0.3507 -0.4295  0.5935
  292TMC3    C3 4400   4.643   0.056   0.309 -0.1003 -0.3300  0.3491
  292TMC3    C4 4401   4.401   0.068   0.205  0.3295  0.7924 -0.0604
  292TMC3    C5 4402   4.480   4.676   0.177  0.0637 -0.1752 -0.2761
  292TMC3    C6 4403   4.606   4.670   0.232 -0.1680  0.6069 -0.5914
  292TMC3     C 4404   4.389   0.317   0.234  0.4696 -0.3957  0.1258
  292TMC3     O 4405   4.274   0.317   0.194 -0.1583 -0.1217 -0.1915
  292TMC3     H 4406   4.624   0.257   0.367 -3.4740  1.5013  0.4201
  292TMC3    H1 4407   4.307   0.082   0.152  1.1937  1.4557 -1.4194
  292TMC3    H2 4408   4.675   4.589   0.213 -0.4005 -0.1769  1.9753
  292TMC3    C7 4409   4.414   4.547   0.144  0.1001  0.1549  0.6027
  292TMC3    C8 4410   0.035   0.037   0.398 -0.1052 -0.0769 -0.3256
  292TMC3    O1 4411   4.488   4.449   0.145 -0.1553  0.1027  0.3201
  292TMC3    O2 4412   0.133   4.690   0.366 -0.5697  0.1697 -0.9053
  293MPD2     C 4413   1.326   2.381  12.941 -0.2508  0.3089 -0.1421
  293MPD2    C1 4414   1.272   2.254  12.957 -0.0421  0.4536  0.1668
  293MPD2    C2 4415   1.252   2.215  13.089 -0.4017  0.0523  0.2842
  293MPD2    C3 4416   1.283   2.293  13.195 -0.0281  0.6842  0.1306
  293MPD2    C4 4417   1.359   2.406  13.173  0.4641  0.1216 -0.2267
  293MPD2    C5 4418   1.377   2.445  13.047 -0.1221 -0.3306 -0.3573
  293MPD2     H 4419   1.207   2.117  13.100 -1.2608  0.3101 -0.9191
  293MPD2    H1 4420   1.374   2.474  13.255 -0.1466  0.4457 -0.3824
  293MPD2    H2 4421   1.330   2.432  12.845 -1.6830 -2.4690 -1.7034
  293MPD2    H3 4422   1.411   2.547  13.031  0.8664 -0.7468 -0.9084
  293MPD2     N 4423   1.252   2.245  13.328 -0.0021 -0.2069  0.1027
  293MPD2    H5 4424   1.231   2.146  13.331 -1.8649  0.1163 -1.8293
  293MPD2    N1 4425   1.232   2.185  12.840  0.3055  0.3683  0.1897
  293MPD2    H7 4426   1.248   2.234  12.753 -1.0696  0.7817  0.1762
  294TMC3    C1 4427   1.126   2.025  12.705 -0.2908 -0.2721 -0.0460
  294TMC3    C2 4428   1.049   1.913  12.697  0.1304 -0.4579 -0.2861
  294TMC3    C3 4429   1.004   1.874  12.571  0.1165  0.0344  0.2807
  294TMC3    C4 4430   1.158   2.091  12.593 -0.5271 -0.3791 -0.4004
  294TMC3    C5 4431   1.121   2.044  12.469 -0.6307 -0.0161  0.1237
  294TMC3    C6 4432   1.048   1.931  12.458 -0.3943 -0.5991  0.3855
  294TMC3     C 4433   1.153   2.072  12.839 -0.2731  0.4055 -0.3231
  294TMC3     O 4434   1.098   2.018  12.932  0.1705 -0.6313  0.0590
  294TMC3     H 4435   1.045   1.847  12.782  2.9594 -1.3330 -0.8091
  294TMC3    H1 4436   1.234   2.168  12.598 -1.7336  0.7102  1.5094
  294TMC3    H2 4437   0.992   1.897  12.371  2.2108 -0.1013 -1.4912
  294TMC3    C7 4438   1.174   2.118  12.359 -0.8754 -0.6893  0.7620
  294TMC3    C8 4439   0.939   1.742  12.568  0.1007 -0.8352  0.0808
  294TMC3    O1 4440   1.245   2.213  12.377  0.3961  0.5457 -0.1405
  294TMC3    O2 4441   0.907   1.686  12.672 -0.0198  0.1240 -0.0544
  295MPD2     C 4442   1.599   4.396   0.754  0.4030 -0.3001 -0.0302
  295MPD2    C1 4443   1.597   4.523   0.699  0.9479  0.1800  0.1098
  295MPD2    C2 4444   1.530   4.631   0.760  0.6519 -1.4493 -0.0202
  295MPD2    C3 4445   1.454   4.607   0.872 -0.5360 -0.4035  0.1255
  295MPD2    C4 4446   1.449   4.480   0.924 -0.2160  0.6546  0.3364
  295MPD2    C5 4447   1.524   4.384   0.866 -0.2691  0.1235  0.4347
  295MPD2     H 4448   1.545   0.012   0.717 -1.9772 -2.3272 -2.9551
  295MPD2    H1 4449   1.394   4.465   1.016  0.5797  2.1303  1.0456
  295MPD2    H2 4450   1.649   4.306   0.719  1.1327  0.8601 -1.9457
  295MPD2    H3 4451   1.516   4.282   0.902 -1.2334  0.4074  1.0304
  295MPD2     N 4452   1.377   4.711   0.926  0.2466 -0.7219 -0.9501
  295MPD2    H5 4453   1.315   4.673   0.997 -1.5903 -3.2269 -3.8901
  295MPD2    N1 4454   1.655   4.554   0.576 -0.1625  0.1241  0.1964
  295MPD2    H7 4455   1.642   4.647   0.537 -0.7720  1.3065  3.2443
  296TMC3    C1 4456   1.278   0.206   0.968  0.2414 -0.0335  0.1354
  296TMC3    C2 4457   1.287   0.343   0.981 -0.1425  0.2873  0.5008
  296TMC3    C3 4458   1.173   0.416   1.023  1.0518  0.4974 -0.1938
  296TMC3    C4 4459   1.165   0.136   0.998 -0.1011 -0.4392  0.1547
  296TMC3    C5 4460   1.057   0.217   1.041 -0.1268 -0.2924  1.1010
  296TMC3    C6 4461   1.056   0.348   1.046  0.2619 -0.2991  0.0586
  296TMC3     C 4462   1.389   0.127   0.911 -0.1063  0.0218  0.3888
  296TMC3     O 4463   1.476   0.185   0.847  0.2400 -0.2116 -0.0368
  296TMC3     H 4464   1.382   0.393   0.967  0.1382  0.0291  1.4672
  296TMC3    H1 4465   1.144   0.030   0.993 -1.2846 -0.0856 -2.3774
  296TMC3    H2 4466   0.985   0.409   1.102  0.2051 -2.2299  2.0747
  296TMC3    C7 4467   0.935   0.155   1.096 -0.0480  0.2153  0.1626
  296TMC3    C8 4468   1.158   0.557   1.017  0.5477 -0.0529  1.0693
  296TMC3    O1 4469   0.834   0.221   1.099  0.7760 -0.4320 -0.1962
  296TMC3    O2 4470   1.046   0.610   0.984  0.2792  0.0328 -0.4612
  297MPD2     C 4471   3.860   2.290  16.576  0.3022 -0.2376  0.7849
  297MPD2    C1 4472   3.851   2.281  16.437  0.0155 -0.4576 -0.4309
  297MPD2    C2 4473   3.940   2.345  16.365  0.5203  0.2392 -0.7128
  297MPD2    C3 4474   4.042   2.418  16.423  0.6127 -0.4518 -0.0396
  297MPD2    C4 4475   4.044   2.436  16.555 -0.0870  0.4168  0.0949
  297MPD2    C5 4476   3.958   2.368  16.634 -0.6299  0.6530 -0.2845
  297MPD2     H 4477   3.923   2.347  16.258 -0.1636  0.8169 -0.5904
  297MPD2    H1 4478   4.128   2.492  16.595  0.7214  0.5878 -1.8272
  297MPD2    H2 4479   3.797   2.238  16.646 -0.6967  1.3361  1.0611
  297MPD2    H3 4480   3.963   2.380  16.742  0.2546 -1.7569 -0.0716
  297MPD2     N 4481   4.137   2.490  16.348 -0.1625 -0.2959  0.2348
  297MPD2    H5 4482   4.201   2.555  16.393  0.1080  0.0680 -0.6816
  297MPD2    N1 4483   3.749   2.208  16.372  0.3686  0.5540 -0.3037
  297MPD2    H7 4484   3.755   2.195  16.271  2.2929  1.8026 -0.3549
  298TMC3    C1 4485   3.549   2.091  16.327 -0.3625 -0.1414 -0.3964
  298TMC3    C2 4486   3.606   2.087  16.202 -0.1507  0.0070 -0.5257
  298TMC3    C3 4487   3.535   2.125  16.092  0.3022  0.2983  0.1284
  298TMC3    C4 4488   3.423   2.140  16.353  0.3281  0.0366  0.0413
  298TMC3    C5 4489   3.360   2.190  16.236  0.4889  0.3759  0.8748
  298TMC3    C6 4490   3.406   2.178  16.108  0.7628 -0.0990  0.0069
  298TMC3     C 4491   3.644   2.140  16.430 -0.6942  0.3107  0.5462
  298TMC3     O 4492   3.603   2.159  16.541 -0.2513  1.0763  0.0131
  298TMC3     H 4493   3.702   2.039  16.187  0.9076  0.4124  4.9509
  298TMC3    H1 4494   3.392   2.168  16.453 -2.3865 -1.2072 -0.4526
  298TMC3    H2 4495   3.355   2.234  16.031  0.1711 -2.2043 -1.1294
  298TMC3    C7 4496   3.270   2.299  16.271 -0.0688 -0.4216 -0.4027
  298TMC3    C8 4497   3.589   2.134  15.954  0.7007 -0.1440  0.1726
  298TMC3    O1 4498   3.268   2.347  16.382 -0.1045  0.6690 -0.1034
  298TMC3    O2 4499   3.514   2.158  15.857 -0.3414  0.0838 -0.6556
  299MPD2     C 4500   4.705   1.558  11.074  0.1643  0.9691 -0.1893
  299MPD2    C1 4501   4.667   1.653  10.980  0.1521  0.5860  0.7951
  299MPD2    C2 4502   4.575   1.616  10.883  0.6697 -0.1856 -0.4524
  299MPD2    C3 4503   4.526   1.487  10.870  0.6033  0.0049 -0.1571
  299MPD2    C4 4504   4.565   1.392  10.960 -0.4781 -0.9713  0.0826
  299MPD2    C5 4505   4.647   1.435  11.065 -0.5374  0.7463  0.5489
  299MPD2     H 4506   4.551   1.687  10.805  0.0104  2.8150  2.4519
  299MPD2    H1 4507   4.528   1.290  10.952 -1.8230 -0.4657 -0.1983
  299MPD2    H2 4508   0.049   1.575  11.162 -1.1440  1.8801  0.5534
  299MPD2    H3 4509   4.679   1.359  11.135 -1.0254 -0.7797 -0.9018
  299MPD2     N 4510   4.433   1.466  10.772 -0.4863  0.0107 -0.0388
  299MPD2    H5 4511   4.426   1.549  10.713 -1.1682  0.5778  0.8464
  299MPD2    N1 4512   0.002   1.786  10.988 -0.3252 -0.4413 -0.2492
  299MPD2    H7 4513   0.071   1.794  11.063  0.5785 -1.1919 -1.0039
  300TMC3    C1 4514   4.259   1.391  10.648 -0.4052 -0.2588 -0.9508
  300TMC3    C2 4515   4.272   1.511  10.584 -1.2503  0.2266  0.5810
  300TMC3    C3 4516   4.157   1.584  10.557 -0.5456 -0.3925 -0.5254
  300TMC3    C4 4517   4.131   1.342  10.672  0.3382 -0.1537 -0.1544
  300TMC3    C5 4518   4.024   1.413  10.631  0.1146  0.5226 -0.5213
  300TMC3    C6 4519   4.032   1.537  10.577 -0.0049  0.2599  1.2873
  300TMC3     C 4520   4.359   1.351  10.746 -0.3679  0.4137  0.2702
  300TMC3     O 4521   4.318   1.266  10.825 -0.3758  0.0949 -0.1597
  300TMC3     H 4522   4.368   1.533  10.539 -1.1548 -0.4247  0.4606
  300TMC3    H1 4523   4.115   1.245  10.719  1.3625  0.3025  1.1429
  300TMC3    H2 4524   3.942   1.595  10.563  1.0483  1.7751  0.7532
  300TMC3    C7 4525   3.883   1.371  10.676 -0.1089  0.0174  0.7041
  300TMC3    C8 4526   4.176   1.724  10.527  0.2026  1.0222 -0.5654
  300TMC3    O1 4527   3.873   1.250  10.691  0.1718  0.1445  0.0072
  300TMC3    O2 4528   4.288   1.773  10.544  0.1624 -0.1176  0.2558
  301MPD2     C 4529   1.297   3.000   1.668  0.1181  0.2338  0.1664
  301MPD2    C1 4530   1.257   3.023   1.533  0.1498 -0.1206 -0.2398
  301MPD2    C2 4531   1.337   2.984   1.432  0.3390 -0.9706 -0.6962
  301MPD2    C3 4532   1.460   2.920   1.453  0.2783  1.5258 -0.1879
  301MPD2    C4 4533   1.499   2.905   1.585 -0.4276  0.4890 -0.5262
  301MPD2    C5 4534   1.412   2.937   1.691  0.0949 -0.5844 -0.0626
  301MPD2     H 4535   1.305   3.002   1.330  0.2132  0.0622 -0.4724
  301MPD2    H1 4536   1.592   2.852   1.601 -1.2747 -1.0558 -0.7802
  301MPD2    H2 4537   1.237   3.033   1.752  0.3810 -0.2100  0.5259
  301MPD2    H3 4538   1.460   2.932   1.788  0.2852 -1.9819 -0.2202
  301MPD2     N 4539   1.539   2.868   1.348 -0.0644  0.2231 -0.1873
  301MPD2    H5 4540   1.622   2.814   1.366  0.5692  1.2868  0.1060
  301MPD2    N1 4541   1.142   3.088   1.510  0.2117  0.4519  0.2438
  301MPD2    H7 4542   1.119   3.116   1.415  0.6504 -0.2017 -0.0559
  302TMC3    C1 4543   1.586   2.775   1.138  0.0447 -0.9951  0.0307
  302TMC3    C2 4544   1.718   2.751   1.150 -0.0300  0.0720 -0.7488
  302TMC3    C3 4545   1.783   2.655   1.074 -0.2079  0.7430 -0.1142
  302TMC3    C4 4546   1.510   2.698   1.050  0.3335  0.2712  0.0552
  302TMC3    C5 4547   1.572   2.602   0.973 -0.3881  0.1615  0.1142
  302TMC3    C6 4548   1.707   2.595   0.980  0.3494  0.2853 -0.7909
  302TMC3     C 4549   1.514   2.881   1.212 -0.3459  0.0377  0.1280
  302TMC3     O 4550   1.431   2.947   1.156 -0.0879  0.5474  0.0366
  302TMC3     H 4551   1.767   2.808   1.228 -0.7453 -2.5670  1.6197
  302TMC3    H1 4552   1.408   2.726   1.027  0.8605  0.7616 -1.7228
  302TMC3    H2 4553   1.756   2.522   0.917 -3.7708 -2.0307 -1.3129
  302TMC3    C7 4554   1.510   2.554   0.847  0.5444 -0.2800  0.0485
  302TMC3    C8 4555   1.914   2.612   1.110 -0.4868 -0.0098  0.1517
  302TMC3    O1 4556   1.585   2.514   0.761 -0.2705 -0.3537 -0.3344
  302TMC3    O2 4557   1.971   2.699   1.174  0.2056  0.4993 -0.0536
  303MPD2     C 4558   2.134   1.156  10.427  0.5858  0.4123  0.2152
  303MPD2    C1 4559   2.015   1.157  10.367  0.3193 -0.5487  0.8572
  303MPD2    C2 4560   2.010   1.166  10.224 -0.6461 -0.4766  0.1179
  303MPD2    C3 4561   2.125   1.199  10.148  0.6414 -0.6549  0.0496
  303MPD2    C4 4562   2.240   1.205  10.221  0.1148  0.2431 -0.3330
  303MPD2    C5 4563   2.246   1.188  10.352  0.2182  0.9043 -0.2166
  303MPD2     H 4564   1.912   1.165  10.177 -0.2437 -0.5128 -0.7143
  303MPD2    H1 4565   2.332   1.233  10.171 -0.7622  1.4893 -1.2688
  303MPD2    H2 4566   2.144   1.151  10.535 -2.0787 -0.5881  0.4131
  303MPD2    H3 4567   2.339   1.209  10.405  0.0345  0.6694  0.2029
  303MPD2     N 4568   2.132   1.229  10.013  0.0217  0.1682 -0.5130
  303MPD2    H5 4569   2.225   1.254   9.982  0.9685 -1.3664  1.0900
  303MPD2    N1 4570   1.897   1.153  10.449  0.0087 -0.1910  0.4941
  303MPD2    H7 4571   1.914   1.136  10.547 -1.3425 -1.9995  0.4228
  304TMC3    C1 4572   1.675   1.196  10.513  0.3110  0.1428  0.7399
  304TMC3    C2 4573   1.564   1.276  10.488  0.2875 -0.1128  0.5364
  304TMC3    C3 4574   1.441   1.240  10.542  0.0874 -0.3329  0.2304
  304TMC3    C4 4575   1.668   1.080  10.583 -0.2801 -0.2685  0.3304
  304TMC3    C5 4576   1.548   1.051  10.644 -0.6095 -1.7279 -0.0953
  304TMC3    C6 4577   1.435   1.131  10.626 -0.2386  0.4531 -0.1333
  304TMC3     C 4578   1.773   1.199  10.409 -0.3326 -0.3383  0.2471
  304TMC3     O 4579   1.740   1.226  10.298  0.1179  0.4147  0.3717
  304TMC3     H 4580   1.573   1.358  10.416 -2.2039 -0.0221  0.3430
  304TMC3    H1 4581   1.751   1.010  10.582  0.1042  0.1775  1.0019
  304TMC3    H2 4582   1.342   1.092  10.665  0.4410 -0.6010  0.4406
  304TMC3    C7 4583   1.513   0.909  10.649  0.8652 -0.1814 -0.0976
  304TMC3    C8 4584   1.341   1.225  10.440 -1.0969  0.1911  0.5847
  304TMC3    O1 4585   1.604   0.843  10.696 -0.0021 -0.0312  0.4003
  304TMC3    O2 4586   1.286   1.116  10.443  0.5214  0.3528  0.2909
  305MPD2     C 4587   4.638   3.581  14.030 -0.4517 -0.5668 -0.1553
  305MPD2    C1 4588   0.044   3.634  13.994  0.0931 -0.5733  0.4498
  305MPD2    C2 4589   0.094   3.603  13.868  0.1882 -0.3314 -0.8013
  305MPD2    C3 4590   0.024   3.521  13.780 -0.3979 -0.2967  0.3797
  305MPD2    C4 4591   4.618   3.483  13.813  0.0386  0.9208 -0.0379
  305MPD2    C5 4592   4.560   3.510  13.935  0.1989 -0.4467  0.3288
  305MPD2     H 4593   0.192   3.642  13.842  0.7016 -0.6932  0.5838
  305MPD2    H1 4594   4.566   3.424  13.739  0.1492  1.5723 -0.6356
  305MPD2    H2 4595   4.608   3.575  14.135 -1.0822  0.8945 -0.2456
  305MPD2    H3 4596   4.460   3.476  13.959  0.2240 -2.0580 -1.9226
  305MPD2     N 4597   0.063   3.496  13.647 -0.1589  0.1006 -0.2593
  305MPD2    H5 4598   4.716   3.435  13.599 -1.8568  1.4215  0.3618
  305MPD2    N1 4599   0.113   3.717  14.089 -1.1179 -0.5314 -0.2843
  305MPD2    H7 4600   0.075   3.732  14.183  0.5377  0.5052  0.2217
  306TMC3    C1 4601   0.288   3.805  14.209  0.0182  0.3295 -0.6146
  306TMC3    C2 4602   0.411   3.770  14.245  0.2967 -0.1146  0.2187
  306TMC3    C3 4603   0.438   3.773  14.378 -0.5466 -0.0329  0.2899
  306TMC3    C4 4604   0.195   3.856  14.297 -0.3630  0.3718  0.1178
  306TMC3    C5 4605   0.240   3.893  14.418  0.4498  0.6387 -0.5395
  306TMC3    C6 4606   0.352   3.834  14.467  0.3364  0.6942 -0.5382
  306TMC3     C 4607   0.240   3.761  14.081 -0.1609 -0.6605 -0.3289
  306TMC3     O 4608   0.326   3.751  13.996 -0.3961  0.2839 -0.0428
  306TMC3     H 4609   0.493   3.754  14.175  0.5958 -0.0671  0.5628
  306TMC3    H1 4610   0.104   3.905  14.265 -0.5450  0.0561  0.1453
  306TMC3    H2 4611   0.380   3.846  14.571  0.4292  1.7758 -0.6876
  306TMC3    C7 4612   0.223   4.038  14.449  0.0081  0.6972  0.4383
  306TMC3    C8 4613   0.568   3.815  14.407  0.4441  0.8507  1.0907
  306TMC3    O1 4614   0.147   4.113  14.382  0.2281  0.3092 -0.2087
  306TMC3    O2 4615   0.613   3.774  14.513  0.0239 -0.8453 -0.2981
  307MPD2     C 4616   2.958   1.531   0.305 -0.8339  0.1435 -0.0198
  307MPD2    C1 4617   2.837   1.585   0.273  0.7975  0.8009 -0.5698
  307MPD2    C2 4618   2.777   1.676   0.355 -0.4590 -0.4230 -0.5362
  307MPD2    C3 4619   2.828   1.708   0.480  0.4539  0.3118 -0.7250
  307MPD2    C4 4620   2.953   1.656   0.509  0.0347  0.0366  0.5735
  307MPD2    C5 4621   3.022   1.574   0.418 -0.2218  0.2203 -0.2331
  307MPD2     H 4622   2.680   1.714   0.326  0.0541  0.4406 -1.1269
  307MPD2    H1 4623   3.005   1.685   0.600  0.4861  2.0883 -0.3382
  307MPD2    H2 4624   3.008   1.467   0.233 -0.6843 -1.4537  1.5193
  307MPD2    H3 4625   3.122   1.540   0.441 -0.4798 -1.3903 -1.4673
  307MPD2     N 4626   2.769   1.798   0.570 -0.0875  0.1214  0.6330
  307MPD2    H5 4627   2.812   1.819   0.659  0.4643 -1.8430  0.8310
  307MPD2    N1 4628   2.768   1.560   0.152 -0.0667  0.5144 -0.4030
  307MPD2    H7 4629   2.684   1.612   0.128 -0.9646 -0.6357  0.2628
  308TMC3    C1 4630   2.484   1.986   0.823 -1.0373  0.2094  0.2356
  308TMC3    C2 4631   2.464   2.117   0.792  0.2283 -0.1661 -0.3393
  308TMC3    C3 4632   2.534   2.175   0.697 -0.3461 -0.6523  0.0624
  308TMC3    C4 4633   2.588   1.923   0.762 -0.5779  0.8364 -0.1601
  308TMC3    C5 4634   2.651   1.984   0.656  0.2373  0.3189 -0.2174
  308TMC3    C6 4635   2.621   2.109   0.624 -0.5351  0.2921 -0.0391
  308TMC3     C 4636   2.387   1.915   0.897  0.8401  0.5511 -0.0284
  308TMC3     O 4637   2.420   1.804   0.939  0.2070 -0.3409 -0.0849
  308TMC3     H 4638   2.402   2.175   0.860  0.3514  1.3195 -1.4885
  308TMC3    H1 4639   2.615   1.824   0.796  2.2947  1.7871  0.3504
  308TMC3    H2 4640   2.668   2.158   0.539  0.0647 -1.0954 -0.4972
  308TMC3    C7 4641   2.674   1.898   0.538  0.3522 -0.0540 -0.0698
  308TMC3    C8 4642   2.484   2.309   0.654  0.2302  0.5422  0.1261
  308TMC3    O1 4643   2.628   1.919   0.429 -0.2893  0.1268 -0.7057
  308TMC3    O2 4644   2.453   2.389   0.741  0.3740 -0.1869  0.2757
  309MPD2     C 4645   1.710   1.621  17.158  0.4661 -0.0882  0.0359
  309MPD2    C1 4646   1.632   1.702  17.087 -0.6317  0.1397 -0.4669
  309MPD2    C2 4647   1.526   1.763  17.152  0.8694 -0.7413 -0.7089
  309MPD2    C3 4648   1.501   1.749  17.288  0.3086 -0.3442 -0.1684
  309MPD2    C4 4649   1.594   1.666  17.357 -0.6781 -0.3231  0.0632
  309MPD2    C5 4650   1.697   1.607  17.291  0.1011 -0.6187 -0.8255
  309MPD2     H 4651   1.468   1.829  17.088 -1.4527  0.2577  2.4188
  309MPD2    H1 4652   1.581   1.660  17.464  1.1529  0.9873  0.3664
  309MPD2    H2 4653   1.784   1.563  17.104 -1.3231 -0.1675 -2.3046
  309MPD2    H3 4654   1.767   1.540  17.340 -1.0196 -1.1819 -0.0053
  309MPD2     N 4655   1.402   1.829  17.353 -0.2360 -0.5096 -0.4731
  309MPD2    H5 4656   1.400   1.823  17.454  1.3925 -0.4904 -0.4500
  309MPD2    N1 4657   1.645   1.742  16.949  0.1869 -0.7383 -0.5489
  309MPD2    H7 4658   1.593   1.822  16.914  0.8569 -0.1438 -0.1963
  310TMC3    C1 4659   1.770   1.745  16.749  0.1292  0.1076 -0.3464
  310TMC3    C2 4660   1.762   1.882  16.752 -0.2627  0.4165  0.7218
  310TMC3    C3 4661   1.845   1.953  16.668  0.3990 -0.4579  0.7266
  310TMC3    C4 4662   1.874   1.686  16.683 -0.2399  0.0797  0.4913
  310TMC3    C5 4663   1.956   1.764  16.605  0.2211 -0.3827 -0.4414
  310TMC3    C6 4664   1.940   1.897  16.589  0.2862 -0.3227  1.1900
  310TMC3     C 4665   1.719   1.670  16.859  0.6167 -0.7005  0.1048
  310TMC3     O 4666   1.749   1.554  16.874  0.0582 -0.1330 -0.3579
  310TMC3     H 4667   1.675   1.930  16.797 -1.6675 -0.7751 -0.7137
  310TMC3    H1 4668   1.894   1.580  16.676  2.6755  0.5527  1.7038
  310TMC3    H2 4669   2.005   1.960  16.529 -0.0001  0.3059  1.5369
  310TMC3    C7 4670   2.093   1.718  16.593  0.4548  0.8435  0.1786
  310TMC3    C8 4671   1.794   2.081  16.620 -0.3303  0.2901 -0.4371
  310TMC3    O1 4672   2.106   1.599  16.569 -0.6398  0.0691  0.1628
  310TMC3    O2 4673   1.677   2.110  16.650  0.1617 -0.6257  0.1921
  311MPD2     C 4674   4.211   3.094  12.666 -0.1988  0.3945 -0.0837
  311MPD2    C1 4675   4.222   3.188  12.763 -0.0834 -0.5874 -0.5907
  311MPD2    C2 4676   4.103   3.242  12.820 -0.7785  0.3492  0.8195
  311MPD2    C3 4677   3.987   3.192  12.787 -0.0258 -0.2344 -0.3953
  311MPD2    C4 4678   3.980   3.095  12.688 -0.2174  0.0352 -0.2116
  311MPD2    C5 4679   4.090   3.047  12.629 -0.3963  0.1210 -0.8976
  311MPD2     H 4680   4.103   3.336  12.873 -0.9384  0.5802  0.4080
  311MPD2    H1 4681   3.884   3.054  12.661 -0.6385  0.3890  0.7336
  311MPD2    H2 4682   4.294   3.034  12.631 -0.0025  0.0810  0.8946
  311MPD2    H3 4683   4.077   2.980  12.545 -0.3285 -1.3201  0.2442
  311MPD2     N 4684   3.868   3.261  12.829  0.0270  0.0692 -0.0180
  311MPD2    H5 4685   3.881   3.350  12.875  0.1125 -0.6608  1.3810
  311MPD2    N1 4686   4.345   3.242  12.807  0.6285  0.0192  0.0593
  311MPD2    H7 4687   4.335   3.320  12.871 -0.5030 -0.9786  1.1045
  312TMC3    C1 4688   3.645   3.325  12.856  0.4605  0.3404 -0.7613
  312TMC3    C2 4689   3.525   3.340  12.794  1.2490 -0.2667 -0.0988
  312TMC3    C3 4690   3.446   3.447  12.835  0.2857 -0.2171 -0.8955
  312TMC3    C4 4691   3.687   3.412  12.950  0.4539 -0.4015 -0.0346
  312TMC3    C5 4692   3.606   3.511  12.988  1.1166  0.3103  0.5873
  312TMC3    C6 4693   3.479   3.526  12.940 -0.0230  0.4738  0.6896
  312TMC3     C 4694   3.737   3.227  12.796  0.0327 -0.1222 -0.3940
  312TMC3     O 4695   3.688   3.130  12.748  0.0712  0.0057 -0.6991
  312TMC3     H 4696   3.489   3.262  12.728 -1.8995  1.5662 -0.5438
  312TMC3    H1 4697   3.767   3.384  13.018 -1.1510  2.3812  2.9939
  312TMC3    H2 4698   3.411   3.604  12.970 -0.2289  0.5123  0.1226
  312TMC3    C7 4699   3.633   3.555  13.124 -0.2362 -0.1161  0.4792
  312TMC3    C8 4700   3.310   3.443  12.807  0.1100 -0.5444  0.8915
  312TMC3    O1 4701   3.735   3.529  13.179 -0.2850  0.0448 -0.6729
  312TMC3    O2 4702   3.261   3.333  12.787 -0.1505 -0.1956 -0.0063
  313MPD2     C 4703   3.754   2.441  10.046 -0.4977  0.2834 -0.1451
  313MPD2    C1 4704   3.829   2.435  10.162  0.4852  0.6373 -0.6672
  313MPD2    C2 4705   3.818   2.327  10.243  0.4625 -0.6128 -0.3441
  313MPD2    C3 4706   3.730   2.228  10.212  0.1847 -0.6382 -0.8603
  313MPD2    C4 4707   3.651   2.235  10.103 -0.7036  1.1446 -0.2731
  313MPD2    C5 4708   3.662   2.334  10.015  0.6555  0.6093 -0.4985
  313MPD2     H 4709   3.876   2.333  10.334 -2.1548 -1.2574  1.3567
  313MPD2    H1 4710   3.584   2.153  10.079  1.1299  0.3134 -2.4849
  313MPD2    H2 4711   3.761   2.516   9.968 -1.7135 -0.5128 -1.0253
  313MPD2    H3 4712   3.598   2.333   9.928 -1.0228 -1.8484  0.7873
  313MPD2     N 4713   3.698   2.118  10.295 -0.3225  0.1838 -0.0784
  313MPD2    H5 4714   3.630   2.052  10.259 -1.9206  2.5480 -1.3886
  313MPD2    N1 4715   3.917   2.540  10.196  0.2427  0.2322 -0.1063
  313MPD2    H7 4716   3.985   2.507  10.264 -0.0383 -0.0400  0.0406
  314TMC3    C1 4717   4.050   2.743  10.180 -0.0220  0.7320 -0.0312
  314TMC3    C2 4718   4.093   2.723  10.310 -0.9843  0.3392 -0.1321
  314TMC3    C3 4719   4.189   2.806  10.355 -0.8237  0.3240  0.4698
  314TMC3    C4 4720   4.094   2.836  10.095 -0.0852  0.2974 -0.2576
  314TMC3    C5 4721   4.180   2.925  10.148  0.3634  0.0306  0.3823
  314TMC3    C6 4722   4.227   2.916  10.277 -0.6825  0.0374 -0.2069
  314TMC3     C 4723   3.940   2.657  10.127 -0.0024  0.4442  0.3048
  314TMC3     O 4724   3.873   2.703  10.034  0.6610 -0.5751 -0.0269
  314TMC3     H 4725   4.044   2.652  10.375 -0.7888  1.3527  1.1222
  314TMC3    H1 4726   4.065   2.838   9.991 -0.3263 -0.1606 -0.1966
  314TMC3    H2 4727   4.304   2.986  10.308 -1.3187  0.3417  0.6790
  314TMC3    C7 4728   4.165   3.070  10.112  0.3478  0.2318  0.2660
  314TMC3    C8 4729   4.205   2.824  10.500  0.1252  0.5601  0.2402
  314TMC3    O1 4730   4.211   3.158  10.190 -0.1795 -0.0209 -0.0819
  314TMC3    O2 4731   4.127   2.772  10.576 -0.7980  0.3818  0.1668
  315MPD2     C 4732   2.881   2.205  17.551  0.7092  0.2488 -0.0442
  315MPD2    C1 4733   2.996   2.174  17.622  0.0968 -0.5297 -0.4838
  315MPD2    C2 4734   3.114   2.212  17.579 -0.0187  0.5457  0.2983
  315MPD2    C3 4735   3.123   2.276  17.452  0.2938  0.4348  0.3051
  315MPD2    C4 4736   3.007   2.300  17.382  0.0301 -0.5397 -0.0937
  315MPD2    C5 4737   2.889   2.264  17.433  0.4460  0.6611  0.7920
  315MPD2     H 4738   3.201   2.195  17.642 -1.0714 -0.6289  1.4120
  315MPD2    H1 4739   2.998   2.347  17.285 -0.1692 -0.7891 -0.1976
  315MPD2    H2 4740   2.787   2.164  17.587  0.8030 -0.4392 -0.5882
  315MPD2    H3 4741   2.796   2.277  17.379  0.6050  0.8303  0.5568
  315MPD2     N 4742   3.250   2.305  17.400  0.1342 -0.0211  0.7333
  315MPD2    H5 4743   3.326   2.286  17.465  0.4666  1.0620  0.6669
  315MPD2    N1 4744   2.995   2.105   0.069 -0.1466 -0.1228 -0.5241
  315MPD2    H7 4745   3.087   2.082   0.105  0.2322  1.1789 -0.6643
  316TMC3    C1 4746   3.409   2.391  17.249 -0.0391  0.0819 -0.8151
  316TMC3    C2 4747   3.515   2.355  17.329  0.0258  0.3874 -0.4214
  316TMC3    C3 4748   3.635   2.420  17.317 -0.4546  0.4898  0.2900
  316TMC3    C4 4749   3.419   2.494  17.165  0.5640 -0.7033 -0.6493
  316TMC3    C5 4750   3.541   2.565  17.158  0.2579  0.1672  0.2188
  316TMC3    C6 4751   3.644   2.526  17.231  0.2262 -0.4884  0.4462
  316TMC3     C 4752   3.274   2.347  17.271  0.4236  0.2428 -0.1602
  316TMC3     O 4753   3.190   2.375  17.184  0.4510  0.2830 -0.0144
  316TMC3     H 4754   3.501   2.258  17.375  2.2536  0.1099 -0.3602
  316TMC3    H1 4755   3.329   2.536  17.122 -1.0806 -1.4417  2.1211
  316TMC3    H2 4756   3.736   2.584  17.233 -0.3393  0.4183  0.0340
  316TMC3    C7 4757   3.551   2.687  17.083  0.5798  0.7854  0.0370
  316TMC3    C8 4758   3.738   2.410  17.422 -0.4833 -1.0248  0.1528
  316TMC3    O1 4759   3.660   2.739  17.089  0.0467  0.0205 -0.3358
  316TMC3    O2 4760   3.825   2.495  17.440  0.4480  0.4611 -0.0677
  317MPD2     C 4761   0.401   0.211  12.148  0.5342  0.0540  0.1060
  317MPD2    C1 4762   0.530   0.195  12.185 -0.5792  0.4520 -0.1555
  317MPD2    C2 4763   0.556   0.189  12.321  0.1422  0.2440  0.3616
  317MPD2    C3 4764   0.454   0.189  12.420 -0.4281  0.1171 -0.5324
  317MPD2    C4 4765   0.325   0.212  12.373  0.4456  0.6096  0.1225
  317MPD2    C5 4766   0.300   0.213  12.242  0.3368  0.5581 -0.2212
  317MPD2     H 4767   0.658   0.189  12.357 -0.1900  0.0043  1.2848
  317MPD2    H1 4768   0.237   0.215  12.436 -0.4460 -0.9262 -1.0474
  317MPD2    H2 4769   0.360   0.192  12.049 -2.0113  0.3945  1.0908
  317MPD2    H3 4770   0.201   0.220  12.200 -0.2055 -0.3949  0.8776
  317MPD2     N 4771   0.493   0.178  12.553 -0.2783 -0.3108  0.4492
  317MPD2    H5 4772   0.593   0.166  12.566 -0.2310  0.4745  0.7912
  317MPD2    N1 4773   0.642   0.180  12.104  0.0837 -0.1149  0.1624
  317MPD2    H7 4774   0.734   0.172  12.146  0.8249 -2.4178 -1.8968
  318TMC3    C1 4775   0.497   0.144  12.781 -0.1857  0.4803  0.4550
  318TMC3    C2 4776   0.475   0.042  12.868  0.6005  0.3290 -0.3043
  318TMC3    C3 4777   0.569   0.006  12.963 -0.5259  0.0403 -0.3764
  318TMC3    C4 4778   0.612   0.216  12.796 -0.7170  0.4523 -0.3164
  318TMC3    C5 4779   0.699   0.182  12.901 -0.1027  0.2681 -0.0214
  318TMC3    C6 4780   0.678   0.081  12.989 -0.1358 -0.3275  0.2266
  318TMC3     C 4781   0.412   0.157  12.665  0.5214  0.9766 -0.2071
  318TMC3     O 4782   0.296   0.138  12.673 -0.5755  0.8819  0.2805
  318TMC3     H 4783   0.391   4.701  12.836  0.1195  0.1460  1.2739
  318TMC3    H1 4784   0.621   0.307  12.738 -0.0040 -0.0056 -0.9174
  318TMC3    H2 4785   0.741   0.053  13.073 -0.1241  0.6579  0.5380
  318TMC3    C7 4786   0.828   0.246  12.894 -1.2177 -0.6228 -0.6111
  318TMC3    C8 4787   0.529   4.621  13.058  0.6675 -0.2259  1.0370
  318TMC3    O1 4788   0.838   0.300  12.784  0.4444  0.3447 -0.1834
  318TMC3    O2 4789   0.411   4.602  13.086 -0.4183 -0.3240  0.3740
  319MPD2     C 4790   1.013   1.647  16.799 -0.6332 -0.2990 -0.2301
  319MPD2    C1 4791   1.023   1.511  16.819  0.4604 -0.1063  0.6459
  319MPD2    C2 4792   0.987   1.427  16.719  0.0427  0.2281  0.0527
  319MPD2    C3 4793   0.934   1.471  16.601 -0.4011 -0.2983  0.7016
  319MPD2    C4 4794   0.940   1.610  16.582 -0.2536  0.4517 -0.4803
  319MPD2    C5 4795   0.979   1.696  16.682  0.8915 -0.2409  0.2067
  319MPD2     H 4796   1.013   1.324  16.744 -0.9885 -0.1053 -0.2381
  319MPD2    H1 4797   0.891   1.661  16.500  1.3973 -0.4566 -2.0142
  319MPD2    H2 4798   1.049   1.724  16.866 -2.6261  0.6340 -0.2126
  319MPD2    H3 4799   0.977   1.804  16.668 -0.0734 -0.2114  0.5485
  319MPD2     N 4800   0.895   1.385  16.494  0.2929  0.4826  0.1783
  319MPD2    H5 4801   0.855   1.416  16.406 -3.3407 -0.1598  1.6026
  319MPD2    N1 4802   1.067   1.456  16.940 -0.5110 -0.5803  0.4148
  319MPD2    H7 4803   1.055   1.356  16.951  3.7588 -1.1015  0.3864
  320TMC3    C1 4804   0.812   1.183  16.405  0.0346  0.5666  0.7393
  320TMC3    C2 4805   0.767   1.256  16.294 -0.9668 -0.3734 -1.4960
  320TMC3    C3 4806   0.704   1.190  16.193  1.3386 -0.1334 -0.6140
  320TMC3    C4 4807   0.797   1.043  16.415 -0.1837  0.0395 -0.2879
  320TMC3    C5 4808   0.721   0.990  16.317 -0.4270  0.4871 -0.3148
  320TMC3    C6 4809   0.673   1.059  16.204 -0.0032  0.3246  0.9809
  320TMC3     C 4810   0.878   1.247  16.521  1.1747  0.2057  0.1959
  320TMC3     O 4811   0.922   1.172  16.605  0.0505  0.4369  0.0316
  320TMC3     H 4812   0.796   1.358  16.274 -3.5807  1.1407  2.5075
  320TMC3    H1 4813   0.841   0.991  16.499 -1.5460  0.6887  0.8273
  320TMC3    H2 4814   0.630   1.003  16.122 -0.8217 -0.7388  2.1416
  320TMC3    C7 4815   0.690   0.842  16.322 -0.3231 -0.0013  0.1153
  320TMC3    C8 4816   0.654   1.271  16.086  0.7701  0.2528 -0.6102
  320TMC3    O1 4817   0.619   0.800  16.228  0.0089  0.3395 -0.0460
  320TMC3    O2 4818   0.686   1.390  16.077  0.2604  0.0466 -0.7310
  321TMC3    C1 4819   1.119   1.453  17.176 -0.0856 -0.0720  0.3693
  321TMC3    C2 4820   1.086   1.319  17.178  0.0871  0.3907  0.7864
  321TMC3    C3 4821   1.044   1.268  17.292 -0.4118 -0.4523 -0.6247
  321TMC3    C4 4822   1.121   1.525  17.286  0.0118  0.0021  0.1416
  321TMC3    C5 4823   1.075   1.469  17.400  0.3405 -0.7042 -0.1287
  321TMC3    C6 4824   1.025   1.342  17.405  0.3189  0.2685  0.0455
  321TMC3     C 4825   1.118   1.529  17.048 -0.1571  0.2082 -1.0104
  321TMC3     O 4826   1.119   1.648  17.061  0.2685  0.1860 -0.1526
  321TMC3     H 4827   1.080   1.256  17.090  0.0521  0.0084  1.0660
  321TMC3    H1 4828   1.143   1.631  17.284  0.5576 -0.0724  1.9668
  321TMC3    H2 4829   0.987   1.296  17.496 -1.6435  0.2308 -0.7915
  321TMC3    C7 4830   1.165   1.490  17.515 -0.6915  0.5035  0.6387
  321TMC3    C8 4831   1.108   1.146  17.320  1.0275 -0.5006 -0.2283
  321TMC3    O1 4832   1.273   1.543  17.505  0.3183 -0.3556 -0.5736
  321TMC3    O2 4833   1.073   1.093  17.425 -0.5874  0.2250 -0.3594
  322MPD2     C 4834   0.296   3.113  13.463  0.4444 -0.0409  0.4102
  322MPD2    C1 4835   0.244   3.072  13.588  0.0903  0.2549 -0.0527
  322MPD2    C2 4836   0.202   2.946  13.612  0.3071  0.0812 -0.5403
  322MPD2    C3 4837   0.208   2.853  13.507  0.0753 -0.0776 -0.0810
  322MPD2    C4 4838   0.244   2.900  13.383 -0.0499 -0.4222  0.3930
  322MPD2    C5 4839   0.297   3.024  13.364 -0.3542  0.4282 -0.4890
  322MPD2     H 4840   0.180   2.901  13.708  3.8379  2.6910  1.5020
  322MPD2    H1 4841   0.250   2.831  13.300 -0.6030  1.2686 -1.0721
  322MPD2    H2 4842   0.332   3.212  13.434  0.2033 -0.3025 -0.7765
  322MPD2    H3 4843   0.331   3.059  13.267  0.7373  0.3164 -0.1464
  322MPD2     N 4844   0.166   2.719  13.525  0.0533 -0.0321 -0.5886
  322MPD2    H5 4845   0.148   2.703  13.623 -0.2699 -1.4312 -0.8766
  322MPD2    N1 4846   0.253   3.166  13.692  0.4743  0.1654 -0.2302
  322MPD2    H7 4847   0.312   3.247  13.676 -0.4799  1.0391  0.6279
  323TMC3    C1 4848   0.227   3.247  13.906  0.0216 -0.2370 -0.5296
  323TMC3    C2 4849   0.316   3.346  13.879  0.1000  0.4961 -0.5228
  323TMC3    C3 4850   0.358   3.434  13.986  0.2930 -0.4016 -0.1617
  323TMC3    C4 4851   0.203   3.206  14.033 -0.2342  0.6624  0.3850
  323TMC3    C5 4852   0.257   3.283  14.133 -0.0719  0.3901 -0.1731
  323TMC3    C6 4853   0.316   3.399  14.106 -0.5833  0.0978 -0.1370
  323TMC3     C 4854   0.180   3.157  13.806  0.1638  0.1984 -0.9134
  323TMC3     O 4855   0.088   3.085  13.835 -0.1772 -0.8788 -0.2384
  323TMC3     H 4856   0.346   3.368  13.778 -0.7314 -0.5199 -0.9858
  323TMC3    H1 4857   0.138   3.121  14.050  0.7600 -0.5316 -1.7667
  323TMC3    H2 4858   0.323   3.480  14.178  1.7058  0.4513 -0.7491
  323TMC3    C7 4859   0.317   3.201  14.240  0.5254  0.1171 -0.1141
  323TMC3    C8 4860   0.490   3.472  13.998  0.2185  0.1851  0.6115
  323TMC3    O1 4861   0.263   3.093  14.267  0.4589 -0.3022  0.4841
  323TMC3    O2 4862   0.543   3.481  14.114  0.5498  0.1171 -0.6854
  324MPD2     C 4863   1.989   4.455  14.783 -0.6297 -0.0925  0.1201
  324MPD2    C1 4864   2.020   4.479  14.647  0.5287 -0.1532 -0.2033
  324MPD2    C2 4865   1.913   4.512  14.560  0.2775  0.8637 -0.9289
  324MPD2    C3 4866   1.785   4.496  14.595 -0.4819 -0.4179 -0.1557
  324MPD2    C4 4867   1.760   4.449  14.720  0.2023 -0.1446  0.1608
  324MPD2    C5 4868   1.859   4.436  14.812  0.3639  0.0010 -0.0147
  324MPD2     H 4869   1.939   4.542  14.459 -0.3903 -0.9916 -1.6437
  324MPD2    H1 4870   1.657   4.430  14.750 -0.4936  0.0911 -2.0916
  324MPD2    H2 4871   2.055   4.436  14.867  0.2505 -0.1359 -0.5835
  324MPD2    H3 4872   1.838   4.404  14.913  1.5958 -0.3977  0.1231
  324MPD2     N 4873   1.679   4.525  14.506  0.2882  0.9327  0.1149
  324MPD2    H5 4874   1.588   4.487  14.531  0.4031 -0.3718 -1.4508
  324MPD2    N1 4875   2.151   4.491  14.598 -0.2154  0.2456  0.7225
  324MPD2    H7 4876   2.156   4.547  14.514 -0.8998  0.0340  0.5369
  325TMC3    C1 4877   1.562   4.560  14.313  0.5986  0.6645  0.7025
  325TMC3    C2 4878   1.482   4.446  14.340  0.3563 -0.0297 -0.0495
  325TMC3    C3 4879   1.358   4.431  14.292  0.5644  0.1074 -0.1980
  325TMC3    C4 4880   1.523   4.656  14.231  0.5202  0.2797  0.0453
  325TMC3    C5 4881   1.398   4.645  14.186 -0.1210  0.1336 -0.5272
  325TMC3    C6 4882   1.318   4.537  14.214 -0.8272 -0.0623 -0.6291
  325TMC3     C 4883   1.691   4.578  14.373  0.3435  0.0584 -0.0301
  325TMC3     O 4884   1.781   4.634  14.312  0.2034  0.1315 -0.6274
  325TMC3     H 4885   1.528   4.361  14.389 -0.5480 -0.8359 -0.6030
  325TMC3    H1 4886   1.579   0.029  14.210  1.2508 -0.6662 -2.1603
  325TMC3    H2 4887   1.219   4.533  14.171 -0.7381  0.8368 -0.9191
  325TMC3    C7 4888   1.333   0.052  14.132 -0.4628  0.0520 -0.1614
  325TMC3    C8 4889   1.321   4.301  14.247 -0.5150 -0.6576 -0.3686
  325TMC3    O1 4890   1.397   0.122  14.052  0.3712  0.3812  0.5550
  325TMC3    O2 4891   1.415   4.223  14.234 -0.1890  0.0728  0.0514
  326MPD2     C 4892   2.449   0.515  11.235  0.9727 -0.2786 -0.6403
  326MPD2    C1 4893   2.499   0.449  11.122  0.2939 -0.7307  0.0101
  326MPD2    C2 4894   2.640   0.426  11.116  0.5787  0.6600 -0.4763
  326MPD2    C3 4895   2.717   0.458  11.226  0.9136 -0.0696  0.3735
  326MPD2    C4 4896   2.665   0.505  11.341  0.4613  0.3091  0.5341
  326MPD2    C5 4897   2.531   0.541  11.342  0.5314  0.0120  0.2531
  326MPD2     H 4898   2.682   0.373  11.031 -0.6755 -0.8044 -0.1844
  326MPD2    H1 4899   2.720   0.536  11.428 -0.6343  1.0888  0.9435
  326MPD2    H2 4900   2.345   0.545  11.241  1.1008 -0.0633  0.4749
  326MPD2    H3 4901   2.479   0.598  11.418 -0.0469 -1.0079  0.6180
  326MPD2     N 4902   2.859   0.465  11.207 -0.0063  0.1448 -0.2988
  326MPD2    H5 4903   2.921   0.477  11.287  1.2215 -2.0794 -0.9068
  326MPD2    N1 4904   2.429   0.412  11.008  0.1339  0.1876 -0.6997
  326MPD2    H7 4905   2.482   0.368  10.933 -1.4087  0.7343 -2.1088
  327TMC3    C1 4906   2.265   0.337  10.878 -0.0389  0.1313  0.1867
  327TMC3    C2 4907   2.250   0.410  10.761 -0.4305  0.4613  0.3366
  327TMC3    C3 4908   2.281   0.342  10.642  0.3278 -0.1209 -0.6694
  327TMC3    C4 4909   2.320   0.216  10.883  0.7137  0.1483  0.1748
  327TMC3    C5 4910   2.338   0.149  10.765  0.4653  0.0333  0.2140
  327TMC3    C6 4911   2.326   0.209  10.641 -0.0985  0.0031  0.5256
  327TMC3     C 4912   2.292   0.421  10.991 -0.1759  0.1395  0.4745
  327TMC3     O 4913   2.197   0.460  11.057  0.2948 -0.0931 -0.0298
  327TMC3     H 4914   2.246   0.518  10.753  0.8527  0.4133 -1.0426
  327TMC3    H1 4915   2.319   0.163  10.977  0.4594 -0.7743 -0.3515
  327TMC3    H2 4916   2.352   0.144  10.559  0.2914  0.7336  0.0726
  327TMC3    C7 4917   2.419   0.032  10.766 -0.5562 -0.3130 -0.1287
  327TMC3    C8 4918   2.334   0.434  10.543 -0.4174  0.0532 -0.0675
  327TMC3    O1 4919   2.408   4.680  10.665 -0.1149 -0.5011 -0.2978
  327TMC3    O2 4920   2.293   0.547  10.537  0.0140  0.4293  0.1365
  328MPD2     C 4921   0.627   0.303  16.685  0.4234  0.5623 -0.3644
  328MPD2    C1 4922   0.543   0.243  16.780  0.4084 -0.0484 -0.1449
  328MPD2    C2 4923   0.406   0.242  16.763  0.9148 -0.0706 -0.2591
  328MPD2    C3 4924   0.351   0.303  16.655 -0.2526  0.2167 -0.0970
  328MPD2    C4 4925   0.428   0.362  16.560  0.4395  0.6503 -0.4048
  328MPD2    C5 4926   0.561   0.363  16.580 -0.1542  0.3432  0.0725
  328MPD2     H 4927   0.349   0.184  16.835  0.4506  1.0165  0.2540
  328MPD2    H1 4928   0.382   0.421  16.481 -0.0789 -1.1877 -1.4794
  328MPD2    H2 4929   0.735   0.298  16.687  0.4972  1.5470 -1.4793
  328MPD2    H3 4930   0.623   0.425  16.517  0.8901  0.4341  1.1867
  328MPD2     N 4931   0.212   0.323  16.633  0.1543 -0.1178  0.2333
  328MPD2    H5 4932   0.187   0.375  16.550  0.9795 -0.9386 -0.5265
  328MPD2    N1 4933   0.612   0.182  16.890  0.0599 -0.5578  0.7202
  328MPD2    H7 4934   0.709   0.205  16.907  0.0471  2.9102 -3.6736
  329TMC3    C1 4935   0.651   0.014  17.040  0.3228 -0.4884 -0.0685
  329TMC3    C2 4936   0.708   0.102  17.123  0.0732 -0.6888 -0.0250
  329TMC3    C3 4937   0.786   0.051  17.228 -0.6872  0.4089  0.0789
  329TMC3    C4 4938   0.674   4.598  17.050 -0.9915  0.5652  0.4165
  329TMC3    C5 4939   0.754   4.553  17.147 -0.2854 -0.0179 -0.7014
  329TMC3    C6 4940   0.808   4.639  17.237 -0.5147 -0.4946 -0.1347
  329TMC3     C 4941   0.562   0.062  16.941  0.4930 -0.2786  0.0792
  329TMC3     O 4942   0.461   4.716  16.909  0.3302  0.2830  0.5247
  329TMC3     H 4943   0.679   0.206  17.120  0.7976 -0.4911 -0.1151
  329TMC3    H1 4944   0.624   4.540  16.973  2.3522  1.8216 -2.6979
  329TMC3    H2 4945   0.849   4.594  17.326  2.4475  1.7653 -0.3578
  329TMC3    C7 4946   0.727   4.419  17.189  0.2204  0.0921  0.4801
  329TMC3    C8 4947   0.792   0.124  17.353 -0.1746 -0.0791 -0.0056
  329TMC3    O1 4948   0.726   4.396  17.310 -0.0517  0.6513  0.3594
  329TMC3    O2 4949   0.869   0.070  17.433 -0.0571  0.2093  0.5869
  330TMC3    C1 4950   3.536   4.053   9.593  0.0147 -0.0503  0.2410
  330TMC3    C2 4951   3.458   3.957   9.531  0.4973 -0.1506 -0.6416
  330TMC3    C3 4952   3.491   3.827   9.561  0.8560  0.2829  0.1513
  330TMC3    C4 4953   3.634   4.022   9.687  0.1893  0.8831  0.6705
  330TMC3    C5 4954   3.662   3.896   9.719  0.0899 -0.4221 -0.5069
  330TMC3    C6 4955   3.605   3.797   9.644 -0.1127  0.3431 -0.1583
  330TMC3     C 4956   3.472   4.188   9.611 -0.4923  0.1186  0.1875
  330TMC3     O 4957   3.475   4.240   9.726  0.1853  0.0473 -0.0104
  330TMC3     H 4958   3.364   3.978   9.482  0.6956  2.5361  0.1235
  330TMC3    H1 4959   3.670   4.109   9.741  0.5096  1.4387 -0.4337
  330TMC3    H2 4960   3.628   3.692   9.654 -3.1750 -0.3609 -0.7032
  330TMC3    C7 4961   3.739   3.871   9.832  0.6988 -0.0010 -0.3464
  330TMC3    C8 4962   3.447   3.734   9.460  0.8233  0.5939  0.4063
  330TMC3    O1 4963   3.803   3.967   9.871  0.3824  0.4298 -0.5224
  330TMC3    O2 4964   3.399   3.785   9.360 -0.5490  0.1818  0.4254
  331MPD2     C 4965   0.883   3.587  12.410  0.2843  0.1217  0.1704
  331MPD2    C1 4966   0.980   3.615  12.314 -0.6180  0.0281 -0.5000
  331MPD2    C2 4967   1.071   3.524  12.285  0.8316  0.1583  0.6114
  331MPD2    C3 4968   1.078   3.402  12.353  0.3521 -0.4442  0.1085
  331MPD2    C4 4969   0.977   3.365  12.441 -0.3630 -0.0622  0.1837
  331MPD2    C5 4970   0.886   3.464  12.471  0.9969 -0.0597  0.1215
  331MPD2     H 4971   1.145   3.554  12.211  2.1107 -1.4837  1.2201
  331MPD2    H1 4972   0.974   3.268  12.489 -0.0669 -0.9457 -1.5794
  331MPD2    H2 4973   0.812   3.664  12.439  0.4806  0.2348  0.3521
  331MPD2    H3 4974   0.821   3.452  12.557  1.4339 -1.6340  0.2292
  331MPD2     N 4975   1.194   3.326  12.329 -0.1252 -0.2299 -0.3138
  331MPD2    H5 4976   1.254   3.364  12.256  0.2593  1.7253  1.0200
  331MPD2    N1 4977   0.995   3.732  12.244  0.2560 -0.3095 -0.1911
  331MPD2    H7 4978   1.070   3.733  12.176 -1.5855 -0.4834 -2.2187
  332TMC3    C1 4979   1.387   3.199  12.384 -0.7344 -0.5829 -0.5446
  332TMC3    C2 4980   1.446   3.213  12.262 -0.4025 -1.3126 -0.0771
  332TMC3    C3 4981   1.580   3.197  12.260  0.3031  0.3660  0.1396
  332TMC3    C4 4982   1.460   3.171  12.498 -0.3139 -0.2328 -0.6934
  332TMC3    C5 4983   1.594   3.156  12.486  0.1440 -0.4093 -0.0462
  332TMC3    C6 4984   1.652   3.163  12.365  0.0065  0.1464  0.4573
  332TMC3     C 4985   1.245   3.226  12.411  0.2913 -0.2294 -0.5019
  332TMC3     O 4986   1.191   3.167  12.503 -0.3839 -0.1159 -0.1745
  332TMC3     H 4987   1.386   3.233  12.174  0.6846 -2.2369 -1.0268
  332TMC3    H1 4988   1.414   3.124  12.584 -0.0938  0.6890 -0.0729
  332TMC3    H2 4989   1.759   3.150  12.353 -0.1291  0.7890 -1.3413
  332TMC3    C7 4990   1.662   3.065  12.577 -0.2552 -0.3272  0.5532
  332TMC3    C8 4991   1.655   3.227  12.139 -0.2261  0.2310  0.1297
  332TMC3    O1 4992   1.587   2.972  12.610 -0.7989  0.4931  0.3904
  332TMC3    O2 4993   1.772   3.254  12.159  0.4263 -0.2561  0.1234
  333MPD2     C 4994   1.343   3.384  10.844 -0.5923 -0.2162 -0.1580
  333MPD2    C1 4995   1.444   3.296  10.870 -0.2783 -0.5148 -0.4612
  333MPD2    C2 4996   1.420   3.199  10.968 -0.3326 -0.2050 -0.0624
  333MPD2    C3 4997   1.298   3.195  11.040  0.3114  0.5051 -0.2193
  333MPD2    C4 4998   1.200   3.287  11.013  0.0326  0.3928  0.4053
  333MPD2    C5 4999   1.224   3.372  10.910 -0.1401  0.0009 -0.3152
  333MPD2     H 5000   1.497   3.123  10.977  2.2445  2.1366 -2.2276
  333MPD2    H1 5001   1.101   3.281  11.058 -0.2814  0.6459 -0.2452
  333MPD2    H2 5002   1.363   3.466  10.776 -0.7461  0.1289  0.2140
  333MPD2    H3 5003   1.149   3.448  10.888  0.1215  1.1030  2.5236
  333MPD2     N 5004   1.288   3.081  11.122 -0.0769 -0.3808  0.0160
  333MPD2    H5 5005   1.369   3.019  11.126  1.0226  1.0318 -0.2123
  333MPD2    N1 5006   1.564   3.294  10.798 -0.4594  0.3214 -0.6727
  333MPD2    H7 5007   1.598   3.383  10.762  0.7466 -0.7057 -2.0623
  334TMC3    C1 5008   1.780   3.231  10.707 -0.2617 -0.4161  0.4742
  334TMC3    C2 5009   1.852   3.129  10.650 -0.7480 -0.3539  0.0110
  334TMC3    C3 5010   1.962   3.158  10.580 -0.4414 -0.2583 -0.5144
  334TMC3    C4 5011   1.819   3.364  10.687  0.3030 -0.5637  0.2026
  334TMC3    C5 5012   1.932   3.389  10.612 -0.3749 -0.4511 -0.2250
  334TMC3    C6 5013   2.004   3.290  10.556 -0.3286  0.1345  0.5258
  334TMC3     C 5014   1.652   3.191  10.778 -0.6662  0.4730 -0.0571
  334TMC3     O 5015   1.640   3.075  10.813  0.1748 -0.7637  0.3272
  334TMC3     H 5016   1.832   3.027  10.679 -0.0206 -0.6919 -0.6585
  334TMC3    H1 5017   1.772   3.445  10.742  1.5307  0.1332  0.2436
  334TMC3    H2 5018   2.090   3.316  10.497  0.6767  1.2489  2.4757
  334TMC3    C7 5019   1.997   3.520  10.611 -0.5891 -0.1234 -0.1513
  334TMC3    C8 5020   2.066   3.059  10.584  0.0870  0.1747 -0.4663
  334TMC3    O1 5021   1.984   3.584  10.717  0.3501  0.2484 -0.7888
  334TMC3    O2 5022   2.045   2.940  10.554  0.3213 -0.2800  0.0790
  335TMC3    C1 5023   1.447   0.035  17.666  0.5089  1.2594  0.1343
  335TMC3    C2 5024   1.374   4.714  17.559  0.3582  0.0412  0.0426
  335TMC3    C3 5025   1.435   0.012  17.438 -1.3758  0.1976  0.2349
  335TMC3    C4 5026   1.569   0.087  17.655  0.3376 -0.2373 -0.1569
  335TMC3    C5 5027   1.624   0.107  17.530  1.3869  0.5344 -0.0134
  335TMC3    C6 5028   1.562   0.067  17.424  0.4634  0.3342 -0.2874
  335TMC3     C 5029   1.416   4.697   0.125 -0.3622  0.5595 -0.0733
  335TMC3     O 5030   1.511   4.706   0.205 -0.0952  0.4450  0.5583
  335TMC3     H 5031   1.276   4.670  17.564 -0.6490  2.0161 -2.0813
  335TMC3    H1 5032   1.630   0.121   0.062 -3.3874  2.6441  1.4028
  335TMC3    H2 5033   1.597   0.090  17.324 -1.2056  2.0603 -0.4738
  335TMC3    C7 5034   1.749   0.180  17.511  0.2854 -0.3186 -0.4278
  335TMC3    C8 5035   1.362   4.694  17.317 -0.4103 -0.7133  0.4023
  335TMC3    O1 5036   1.788   0.193  17.395  0.6117  0.0073 -0.1411
  335TMC3    O2 5037   1.385   0.047  17.219  0.1866  0.6543  0.2412
  336MPD2     C 5038   1.078   2.615  16.438  0.0169 -0.7333  0.1733
  336MPD2    C1 5039   1.022   2.539  16.336  0.0352  0.4254 -0.3713
  336MPD2    C2 5040   1.055   2.403  16.338  0.4509 -0.3057  0.2300
  336MPD2    C3 5041   1.160   2.357  16.418 -0.1815 -0.3549  0.3356
  336MPD2    C4 5042   1.219   2.435  16.509  0.4337 -0.4217 -0.3498
  336MPD2    C5 5043   1.179   2.561  16.517  0.5847 -0.0602 -0.4524
  336MPD2     H 5044   1.015   2.338  16.261  1.2641  0.5776 -0.9432
  336MPD2    H1 5045   1.302   2.392  16.564  0.6269  1.6162  0.9399
  336MPD2    H2 5046   1.053   2.719  16.454 -0.0431 -0.8408  0.7823
  336MPD2    H3 5047   1.214   2.626  16.596  0.4594  0.4751 -0.8340
  336MPD2     N 5048   1.211   2.224  16.414  0.6266 -0.1777 -0.4636
  336MPD2    H5 5049   1.304   2.207  16.451 -0.4945 -2.2049  1.4052
  336MPD2    N1 5050   0.943   2.580  16.223  0.5165 -0.2488  0.0871
  336MPD2    H7 5051   0.934   2.512  16.148  0.1924 -0.8129  0.6448
  337TMC3    C1 5052   0.808   2.741  16.089 -0.9605 -0.1039 -0.4690
  337TMC3    C2 5053   0.794   2.641  15.997  0.1859  0.2100 -0.0240
  337TMC3    C3 5054   0.694   2.659  15.902 -0.4686 -0.7075  0.1938
  337TMC3    C4 5055   0.742   2.864  16.084 -0.0903 -0.2996  0.4269
  337TMC3    C5 5056   0.656   2.883  15.975 -0.0547 -0.2207  0.2082
  337TMC3    C6 5057   0.637   2.785  15.886  0.4426 -0.3306  0.9006
  337TMC3     C 5058   0.895   2.709  16.204 -0.9688 -0.2169 -0.2172
  337TMC3     O 5059   0.915   2.799  16.284  0.4328 -0.1423  0.2122
  337TMC3     H 5060   0.851   2.549  15.986 -1.0640 -0.4727 -0.7604
  337TMC3    H1 5061   0.780   2.942  16.148 -1.2296  1.6320 -1.2627
  337TMC3    H2 5062   0.559   2.793  15.811 -1.4130  2.2670  3.0897
  337TMC3    C7 5063   0.575   3.003  15.955 -0.6172  0.4581 -0.1289
  337TMC3    C8 5064   0.693   2.570  15.784  0.3317 -0.4288  0.3168
  337TMC3    O1 5065   0.524   3.032  15.849  0.1454  0.3277  0.0358
  337TMC3    O2 5066   0.795   2.503  15.770  0.1651  0.1478  0.5818
  338MPD2     C 5067   1.007   2.235   0.999 -0.3528 -0.2754  0.1080
  338MPD2    C1 5068   1.026   2.189   0.869 -0.3282 -0.0634  0.6114
  338MPD2    C2 5069   0.928   2.162   0.777  0.3992 -0.0368  0.4500
  338MPD2    C3 5070   0.795   2.162   0.811  0.0320 -0.0832 -0.6742
  338MPD2    C4 5071   0.773   2.204   0.944  0.8982  0.6279  0.1750
  338MPD2    C5 5072   0.869   2.247   1.033  0.3363 -0.0203 -0.0520
  338MPD2     H 5073   0.968   2.142   0.678 -0.2434  2.2321 -0.2735
  338MPD2    H1 5074   0.670   2.217   0.976  0.4536 -2.7498  0.1408
  338MPD2    H2 5075   1.088   2.248   1.070 -0.9700  0.9393  0.5947
  338MPD2    H3 5076   0.837   2.275   1.133  2.1390 -0.8268  0.7496
  338MPD2     N 5077   0.696   2.119   0.724  0.2297 -0.5278 -0.0484
  338MPD2    H5 5078   0.723   2.099   0.628 -0.2030 -2.8308  0.2953
  338MPD2    N1 5079   1.153   2.163   0.818  0.0920 -0.8388 -0.0952
  338MPD2    H7 5080   1.150   2.121   0.726  3.7186 -1.4030  0.0405
  339TMC3    C1 5081   0.527   1.986   0.653  0.4227  0.1762 -0.2210
  339TMC3    C2 5082   0.518   1.854   0.685  0.2021  0.0416  0.1670
  339TMC3    C3 5083   0.507   1.764   0.578  0.8964  0.5790 -0.4517
  339TMC3    C4 5084   0.544   2.041   0.531  0.5664  0.6489 -0.0762
  339TMC3    C5 5085   0.530   1.953   0.428  0.1034  0.5658  0.2470
  339TMC3    C6 5086   0.517   1.816   0.450 -0.7096  0.2543 -0.0492
  339TMC3     C 5087   0.578   2.064   0.761  0.1811  0.0505 -0.8815
  339TMC3     O 5088   0.544   2.029   0.872  0.2664 -0.0711 -0.6347
  339TMC3     H 5089   0.517   1.817   0.787  0.4216  1.8262  0.8201
  339TMC3    H1 5090   0.545   2.147   0.510  2.7827  0.5263 -0.5945
  339TMC3    H2 5091   0.528   1.753   0.362  0.7629  1.4804 -0.7427
  339TMC3    C7 5092   0.548   2.011   0.302 -0.3499  0.9310  0.0872
  339TMC3    C8 5093   0.558   1.632   0.592  0.1581 -0.2350  0.0126
  339TMC3    O1 5094   0.619   2.114   0.308  0.0478 -0.4695 -0.2905
  339TMC3    O2 5095   0.599   1.561   0.502  0.2910  0.1271  0.5091
  340MPD2     C 5096   2.362   3.070  10.176  0.2144  0.4588 -0.6934
  340MPD2    C1 5097   2.343   3.166  10.087  0.5533 -0.2424 -0.2328
  340MPD2    C2 5098   2.349   3.303  10.125 -0.8639  0.0589  0.5774
  340MPD2    C3 5099   2.362   3.330  10.260 -0.7747 -0.4380 -0.5557
  340MPD2    C4 5100   2.363   3.225  10.349 -0.0647  0.0396 -0.2448
  340MPD2    C5 5101   2.368   3.097  10.306 -0.0305 -0.1344 -0.2605
  340MPD2     H 5102   2.350   3.384  10.052 -2.2996 -0.9125 -0.5065
  340MPD2    H1 5103   2.367   3.241  10.456  1.2871 -0.4316 -0.2246
  340MPD2    H2 5104   2.364   2.968  10.141 -1.0858  0.1048  0.2845
  340MPD2    H3 5105   2.391   3.015  10.372  0.5705  0.0861 -0.1965
  340MPD2     N 5106   2.370   3.471  10.308 -0.1645 -0.1282  0.1540
  340MPD2    H5 5107   2.414   3.481  10.399 -1.6164 -1.3983  0.9990
  340MPD2    N1 5108   2.312   3.118   9.959  0.3572 -0.3374 -0.3597
  340MPD2    H7 5109   2.315   3.018   9.946  1.1329 -0.3857  0.1681
  341TMC3    C1 5110   2.275   3.127   9.719  0.9301 -0.4044 -0.6700
  341TMC3    C2 5111   2.206   3.011   9.725  0.6702 -0.2829  0.1051
  341TMC3    C3 5112   2.171   2.947   9.608  0.7726  0.4362  0.5241
  341TMC3    C4 5113   2.295   3.189   9.598  0.6819  0.0562  0.4921
  341TMC3    C5 5114   2.261   3.124   9.486  0.2787 -0.7684 -0.3702
  341TMC3    C6 5115   2.205   2.997   9.483  0.3735 -1.1773 -0.6036
  341TMC3     C 5116   2.293   3.200   9.848  0.5348 -0.9496  0.0334
  341TMC3     O 5117   2.285   3.323   9.837 -0.4412 -0.0123 -0.5805
  341TMC3     H 5118   2.156   2.984   9.818 -1.2673 -0.6212 -1.0337
  341TMC3    H1 5119   2.350   3.282   9.603  1.1033 -0.1838  0.3041
  341TMC3    H2 5120   2.169   2.942   9.397 -0.3444 -2.7777  0.7122
  341TMC3    C7 5121   2.308   3.182   9.364 -0.0966 -0.4555  0.2518
  341TMC3    C8 5122   2.087   2.825   9.614 -0.5430  0.2473 -0.3345
  341TMC3    O1 5123   2.410   3.248   9.377 -0.8825  0.0925  0.3238
  341TMC3    O2 5124   2.005   2.808   9.529 -0.0113 -0.4496  0.2869
  342MPD2     C 5125   3.996   3.111  17.571  0.7556  0.3178 -0.1865
  342MPD2    C1 5126   4.111   3.125  17.499  0.8771 -0.8095  0.0285
  342MPD2    C2 5127   4.160   3.250  17.462 -0.1003 -0.8659  0.2641
  342MPD2    C3 5128   4.084   3.367  17.499 -0.6837  0.0263 -0.4604
  342MPD2    C4 5129   3.967   3.347  17.571  0.4605  0.2068 -0.5472
  342MPD2    C5 5130   3.924   3.225  17.600  0.1459  0.2529 -0.8151
  342MPD2     H 5131   4.255   3.264  17.411 -0.9887  0.4566 -1.0238
  342MPD2    H1 5132   3.925   3.434  17.619 -1.4493 -0.3139 -1.2977
  342MPD2    H2 5133   3.963   3.020  17.620 -0.9139  0.7643 -0.4847
  342MPD2    H3 5134   3.831   3.220  17.655 -0.2732  0.1492 -1.5321
  342MPD2     N 5135   4.123   3.504  17.477 -0.1095  0.2634  0.0306
  342MPD2    H5 5136   4.055   3.572  17.509 -0.0367  0.5713 -0.4718
  342MPD2    N1 5137   4.200   3.018  17.464 -0.5832  0.8580 -0.2232
  342MPD2    H7 5138   4.273   3.051  17.402  1.9666  0.0674  2.4025
  343TMC3    C1 5139   4.283   2.799  17.464  0.5029  0.2871 -0.7680
  343TMC3    C2 5140   4.356   2.821  17.346  0.1552  0.3353  0.5491
  343TMC3    C3 5141   4.451   2.727  17.311  0.0086  0.6310 -0.6162
  343TMC3    C4 5142   4.294   2.678  17.531  0.5069 -0.6759 -0.2669
  343TMC3    C5 5143   4.382   2.588  17.484  0.4393 -0.5674 -0.3018
  343TMC3    C6 5144   4.460   2.606  17.376  0.0587  0.2739  0.1736
  343TMC3     C 5145   4.176   2.889  17.503  0.0507  0.2001 -0.2848
  343TMC3     O 5146   4.089   2.837  17.573  0.4055 -0.0686  0.2288
  343TMC3     H 5147   4.323   2.904  17.284  0.3666  0.9168  1.2004
  343TMC3    H1 5148   4.235   2.649  17.617  1.1011  3.1529  1.4621
  343TMC3    H2 5149   4.531   2.532  17.342 -1.2929 -0.0721 -1.8799
  343TMC3    C7 5150   4.359   2.447  17.511  0.1834  0.9363 -0.0104
  343TMC3    C8 5151   4.536   2.765  17.201  0.1257  0.6885  0.3929
  343TMC3    O1 5152   4.383   2.368  17.419  0.1615  0.1344  0.0085
  343TMC3    O2 5153   4.558   2.887  17.183  0.0781 -0.3795  0.3357
  344MPD2     C 5154   0.660   1.942  10.953 -0.2078 -0.0993  0.1136
  344MPD2    C1 5155   0.564   1.996  10.873 -0.3694  0.2496  0.3013
  344MPD2    C2 5156   0.602   2.039  10.747  0.5881  0.3607  0.0644
  344MPD2    C3 5157   0.732   2.030  10.708  0.1078  0.3104  0.2168
  344MPD2    C4 5158   0.826   1.971  10.793 -0.2101  0.4454  0.0228
  344MPD2    C5 5159   0.787   1.932  10.913  0.3353  0.2771 -0.3148
  344MPD2     H 5160   0.522   2.068  10.680 -0.2379 -3.8011 -0.7726
  344MPD2    H1 5161   0.931   1.959  10.766 -0.3017  0.1683 -0.2164
  344MPD2    H2 5162   0.634   1.926  11.057 -1.7413 -1.2545 -0.4497
  344MPD2    H3 5163   0.866   1.893  10.976 -1.6606 -0.8065  1.4987
  344MPD2     N 5164   0.768   2.061  10.575 -0.2133 -0.2151 -0.1114
  344MPD2    H5 5165   0.868   2.071  10.560 -0.4677  0.7587 -1.2049
  344MPD2    N1 5166   0.427   2.025  10.913  0.5084 -0.2120  0.3033
  344MPD2    H7 5167   0.367   2.066  10.842 -1.0651 -0.7447  1.3300
  345TMC3    C1 5168   0.747   2.155  10.357 -0.3641  0.2051  0.2966
  345TMC3    C2 5169   0.863   2.231  10.373  0.4257 -0.1940  0.0456
  345TMC3    C3 5170   0.906   2.319  10.270 -0.0228 -0.0211  0.0533
  345TMC3    C4 5171   0.668   2.193  10.253  0.8605 -0.3217 -0.6028
  345TMC3    C5 5172   0.705   2.286  10.160 -0.8120 -0.5709 -0.3854
  345TMC3    C6 5173   0.823   2.350  10.167  0.9521  0.0249 -0.3018
  345TMC3     C 5174   0.681   2.085  10.469  0.4981  0.1484 -0.2656
  345TMC3     O 5175   0.564   2.068  10.452  0.2218 -0.1125 -0.0956
  345TMC3     H 5176   0.924   2.222  10.462 -0.1400  0.0783  0.4601
  345TMC3    H1 5177   0.567   2.155  10.245  0.2294  1.0639  0.7117
  345TMC3    H2 5178   0.863   2.418  10.092  0.5806  0.5879  0.0049
  345TMC3    C7 5179   0.599   2.350  10.086 -0.1591 -0.0880 -0.2710
  345TMC3    C8 5180   1.030   2.395  10.287 -0.1310 -0.2301  0.3649
  345TMC3    O1 5181   0.505   2.278  10.058 -0.2981  0.5421  0.2536
  345TMC3    O2 5182   1.045   2.484  10.205 -0.2388  0.0580  0.2390
  346MPD2     C 5183   0.204   4.504  14.098 -0.5031 -0.5281 -0.2630
  346MPD2    C1 5184   0.275   4.617  14.048 -0.1506  0.4079 -0.6270
  346MPD2    C2 5185   0.271   0.020  14.114  0.4613  0.1589  0.4681
  346MPD2    C3 5186   0.225   0.024  14.248  0.3363  0.1193 -0.4426
  346MPD2    C4 5187   0.170   4.632  14.302 -0.2404 -0.0283  0.1265
  346MPD2    C5 5188   0.151   4.519  14.226 -1.2917  0.1638 -0.0628
  346MPD2     H 5189   0.326   0.096  14.060 -1.3765  1.2358  0.1031
  346MPD2    H1 5190   0.138   4.626  14.406  1.7805  1.0783  0.8085
  346MPD2    H2 5191   0.191   4.409  14.048  0.2196  0.3354 -2.0920
  346MPD2    H3 5192   0.103   4.429  14.265  1.1032 -0.6035  1.1021
  346MPD2     N 5193   0.256   0.131  14.337  0.2895  0.6108 -0.0702
  346MPD2    H5 5194   0.241   0.123  14.437  1.8090  3.0455  0.3619
  346MPD2    N1 5195   0.327   4.624  13.916  0.1562  0.8257 -0.2218
  346MPD2    H7 5196   0.363   4.712  13.882  1.1194 -0.0728 -1.5400
  347TMC3    C1 5197   0.385   0.297  14.421 -0.0949 -0.2891  0.2634
  347TMC3    C2 5198   0.518   0.315  14.389  0.1305  0.1086  0.1018
  347TMC3    C3 5199   0.617   0.256  14.468 -0.0866 -0.6751 -0.2324
  347TMC3    C4 5200   0.351   0.231  14.534  0.3407  0.1261  0.6648
  347TMC3    C5 5201   0.450   0.164  14.601  0.3835  0.7985  0.2802
  347TMC3    C6 5202   0.578   0.167  14.567 -0.0305 -0.5851 -0.2855
  347TMC3     C 5203   0.328   0.247  14.298  0.2095 -0.2108  0.2005
  347TMC3     O 5204   0.369   0.282  14.185 -0.1683  0.6147 -0.6973
  347TMC3     H 5205   0.548   0.386  14.312  1.7002 -2.8481 -2.0417
  347TMC3    H1 5206   0.253   0.242  14.579  0.3060  0.2661  0.5542
  347TMC3    H2 5207   0.641   0.098  14.622 -0.7089  1.5826  3.2172
  347TMC3    C7 5208   0.401   0.054  14.690 -0.7088 -0.2623 -0.2240
  347TMC3    C8 5209   0.748   0.228  14.423  0.6323  0.9627  0.6263
  347TMC3    O1 5210   0.292   0.002  14.672 -0.0584  0.0637 -0.4659
  347TMC3    O2 5211   0.805   0.132  14.478  0.0749  0.2941 -0.1612
  348MPD2     C 5212   3.896   3.529  12.027 -0.3131  0.2948  0.6343
  348MPD2    C1 5213   3.955   3.655  12.030  0.6565 -0.3371 -0.2836
  348MPD2    C2 5214   3.914   3.745  11.931 -0.2028  0.1264  0.0076
  348MPD2    C3 5215   3.815   3.707  11.833 -0.2399  0.2853  0.2739
  348MPD2    C4 5216   3.758   3.582  11.833 -0.4316  0.4410 -0.3110
  348MPD2    C5 5217   3.804   3.494  11.930 -0.3309  0.4390 -0.3143
  348MPD2     H 5218   3.941   3.849  11.949  1.0638  0.0648 -1.5038
  348MPD2    H1 5219   3.686   3.538  11.764  1.0524  0.0991 -1.6331
  348MPD2    H2 5220   3.921   3.462  12.108  2.3187 -0.7892 -1.0632
  348MPD2    H3 5221   3.760   3.395  11.935 -1.8722  1.1895  1.0265
  348MPD2     N 5222   3.780   3.794  11.726 -0.0866  0.4047 -0.4157
  348MPD2    H5 5223   3.838   3.877  11.725 -0.8836  0.9490 -0.6573
  348MPD2    N1 5224   4.044   3.695  12.131 -0.3953 -0.1245  0.6982
  348MPD2    H7 5225   4.067   3.794  12.134  0.7130 -0.3462 -0.6666
  349TMC3    C1 5226   4.227   3.683  12.278  0.1110  0.3974  0.0994
  349TMC3    C2 5227   4.286   3.583  12.343  0.0335 -0.2481  0.6703
  349TMC3    C3 5228   4.406   3.531  12.296 -0.9908  0.0356 -0.3123
  349TMC3    C4 5229   4.308   3.754  12.189  0.3809 -0.0438 -0.4168
  349TMC3    C5 5230   4.437   3.715  12.163 -0.3397 -0.3024  0.4319
  349TMC3    C6 5231   4.485   3.599  12.207  0.3264 -0.4338 -0.0030
  349TMC3     C 5232   4.115   3.615  12.217 -1.0610 -0.0028 -0.3001
  349TMC3     O 5233   4.113   3.492  12.230  0.0924  0.6196 -0.1221
  349TMC3     H 5234   4.219   3.538  12.415  1.4895  0.5760  2.5643
  349TMC3    H1 5235   4.266   3.836  12.133  0.2756  0.2826  0.1430
  349TMC3    H2 5236   4.579   3.557  12.174 -0.2431 -1.2558 -0.6037
  349TMC3    C7 5237   4.491   3.770  12.040  0.0139 -0.1030 -0.4597
  349TMC3    C8 5238   4.429   3.388  12.308  0.4415  0.3554 -0.1246
  349TMC3    O1 5239   4.521   3.686  11.956  0.1276 -0.2851  0.3232
  349TMC3    O2 5240   4.541   3.345  12.296 -0.2947  0.1287  0.4955
  350MPD2     C 5241   3.039   1.690  10.000 -0.1852  0.5095 -0.1448
  350MPD2    C1 5242   3.093   1.577  10.055  0.1962  0.6322  0.6592
  350MPD2    C2 5243   3.216   1.583  10.119  0.3627  0.3852  0.0665
  350MPD2    C3 5244   3.283   1.703  10.133  0.3657  0.3598 -0.3914
  350MPD2    C4 5245   3.236   1.813  10.071 -0.5048  0.7054  0.1249
  350MPD2    C5 5246   3.115   1.806  10.007 -0.4432  0.4114 -0.3526
  350MPD2     H 5247   3.259   1.491  10.158  1.2132  0.4264 -0.7839
  350MPD2    H1 5248   3.289   1.907  10.082 -2.4828  1.9356 -0.8155
  350MPD2    H2 5249   2.944   1.693   9.948 -0.5552 -1.5046  0.3984
  350MPD2    H3 5250   3.096   1.902   9.960 -0.1327  0.1824 -0.9603
  350MPD2     N 5251   3.393   1.702  10.222  0.5380  0.4487 -0.1275
  350MPD2    H5 5252   3.410   1.611  10.264 -1.2746 -0.6544 -1.7624
  350MPD2    N1 5253   3.029   1.456  10.044 -0.3837 -0.9194 -0.0108
  350MPD2    H7 5254   3.073   1.373  10.083  2.4314  1.2929  1.5277
  351TMC3    C1 5255   2.878   1.293   9.994 -0.1583  0.6131  0.7219
  351TMC3    C2 5256   2.986   1.219   9.958 -0.1704 -0.2475 -0.4166
  351TMC3    C3 5257   2.962   1.093   9.906  0.2303  0.2672  0.0309
  351TMC3    C4 5258   2.749   1.248   9.997  0.3623  0.4134 -0.9922
  351TMC3    C5 5259   2.728   1.112   9.974  0.3720  0.4389 -0.3728
  351TMC3    C6 5260   2.836   1.042   9.917  0.0136 -0.8921 -0.6680
  351TMC3     C 5261   2.904   1.428   9.999  0.3928 -0.0006 -0.2049
  351TMC3     O 5262   2.814   1.506   9.974  0.0499  0.2858 -0.6581
  351TMC3     H 5263   3.084   1.262   9.941  0.6250 -3.3460 -3.6115
  351TMC3    H1 5264   2.670   1.312  10.034 -1.3179 -1.7947 -0.7677
  351TMC3    H2 5265   2.817   0.935   9.908  1.0835 -1.1734  0.4476
  351TMC3    C7 5266   2.600   1.060  10.017 -0.1792 -0.2105  0.1577
  351TMC3    C8 5267   3.069   1.030   9.838  0.2157 -0.0966  0.3622
  351TMC3    O1 5268   2.510   1.131  10.052  0.1876 -0.5466 -0.3298
  351TMC3    O2 5269   3.180   1.086   9.852  0.6537 -0.1271  1.0731
  352MPD2     C 5270   0.978   3.880   1.181 -0.3018 -1.0854  0.1428
  352MPD2    C1 5271   0.851   3.846   1.212  0.0558  0.1230  0.2420
  352MPD2    C2 5272   0.830   3.719   1.260 -0.3961 -0.1199 -1.0337
  352MPD2    C3 5273   0.939   3.631   1.271 -0.6103  0.3561  0.6292
  352MPD2    C4 5274   1.064   3.664   1.241 -0.2424  0.3106 -0.8199
  352MPD2    C5 5275   1.085   3.790   1.195 -0.1449 -0.7075 -0.1509
  352MPD2     H 5276   0.734   3.676   1.286 -0.1598 -0.4485 -0.7121
  352MPD2    H1 5277   1.143   3.590   1.244  1.7083  2.4212 -0.1564
  352MPD2    H2 5278   1.005   3.978   1.144 -0.8120 -1.7001 -1.8658
  352MPD2    H3 5279   1.182   3.828   1.162 -1.3740  1.0972 -1.7123
  352MPD2     N 5280   0.921   3.498   1.315 -0.1978  0.8299  0.2066
  352MPD2    H5 5281   1.007   3.446   1.332  2.0397  3.6205 -2.5646
  352MPD2    N1 5282   0.755   3.953   1.203  0.2408  0.5927 -0.1259
  352MPD2    H7 5283   0.790   4.042   1.170  0.7956  0.1832 -0.6392
  353TMC3    C1 5284   0.814   3.309   1.398 -0.1063 -0.1565 -0.2550
  353TMC3    C2 5285   0.919   3.273   1.472 -0.7606  0.5661  0.2398
  353TMC3    C3 5286   0.920   3.145   1.525  0.3556 -0.5739  0.5093
  353TMC3    C4 5287   0.713   3.218   1.363  0.5576  0.7360  0.5328
  353TMC3    C5 5288   0.728   3.088   1.409 -0.2926  0.0010 -0.1466
  353TMC3    C6 5289   0.825   3.056   1.498 -0.3524 -0.1497  0.6557
  353TMC3     C 5290   0.801   3.434   1.338  0.0190  0.5854 -0.6117
  353TMC3     O 5291   0.681   3.463   1.320  0.0638  0.0202  0.8140
  353TMC3     H 5292   0.998   3.339   1.506 -0.4421 -0.0429  0.6857
  353TMC3    H1 5293   0.637   3.246   1.290  1.4710  0.0810 -0.6669
  353TMC3    H2 5294   0.847   2.955   1.530  0.5686 -0.4853 -1.0263
  353TMC3    C7 5295   0.643   2.992   1.341 -0.0451  0.0491 -0.3472
  353TMC3    C8 5296   1.036   3.095   1.591  0.4825 -0.5286 -0.4819
  353TMC3    O1 5297   0.588   3.025   1.233 -0.1948 -0.3389  0.1586
  353TMC3    O2 5298   1.013   3.050   1.705 -0.0867  0.1556 -0.0849
  354TMC3    C1 5299   3.321   0.615  13.468  0.0099 -0.0967 -0.1541
  354TMC3    C2 5300   3.258   0.735  13.437  0.4460  0.6042 -0.1659
  354TMC3    C3 5301   3.222   0.755  13.310  0.6972  1.0786  0.8321
  354TMC3    C4 5302   3.340   0.515  13.366 -0.1689  0.1495  0.9742
  354TMC3    C5 5303   3.308   0.548  13.241 -0.1238 -0.1879  0.5482
  354TMC3    C6 5304   3.236   0.661  13.210  0.3988  0.1198 -0.0839
  354TMC3     C 5305   3.306   0.564  13.607  0.2522 -0.1601 -0.2011
  354TMC3     O 5306   3.325   0.445  13.623  0.7299 -0.1344  0.0044
  354TMC3     H 5307   3.223   0.810  13.507  1.1685  0.4178  0.3990
  354TMC3    H1 5308   3.403   0.429  13.387  0.4876  0.5520  0.6174
  354TMC3    H2 5309   3.195   0.677  13.111 -0.6925 -0.7119  0.2285
  354TMC3    C7 5310   3.340   0.451  13.142  1.1926 -0.3257  0.1177
  354TMC3    C8 5311   3.221   0.888  13.255 -0.9586 -0.0850  0.0908
  354TMC3    O1 5312   3.323   0.335  13.174 -0.1777 -0.9475 -0.1518
  354TMC3    O2 5313   3.176   0.898  13.140  0.1323  0.1867  0.3628
  355MPD2     C 5314   2.830   1.524  11.681  0.3503  0.1782 -0.1926
  355MPD2    C1 5315   2.916   1.514  11.575  1.0506 -0.7830 -0.0966
  355MPD2    C2 5316   3.050   1.494  11.604 -0.2824  0.3386  0.8463
  355MPD2    C3 5317   3.100   1.505  11.733  0.1746 -0.1105 -1.1091
  355MPD2    C4 5318   3.008   1.529  11.828 -0.4741 -1.1465 -0.1749
  355MPD2    C5 5319   2.875   1.536  11.809 -0.5345  0.0774 -0.3473
  355MPD2     H 5320   3.115   1.492  11.517 -0.5123  2.3578  0.6317
  355MPD2    H1 5321   3.032   1.520  11.933  0.1342 -5.0514 -0.6242
  355MPD2    H2 5322   2.724   1.537  11.664  0.7516  4.0951  0.1776
  355MPD2    H3 5323   2.815   1.533  11.900 -0.2017 -0.3189 -0.1438
  355MPD2     N 5324   3.237   1.495  11.761 -0.0273 -0.6564  0.2492
  355MPD2    H5 5325   3.255   1.522  11.857  0.0735  1.1913 -0.2886
  355MPD2    N1 5326   2.851   1.507  11.447 -0.2472  0.3959 -0.3307
  355MPD2    H7 5327   2.753   1.480  11.448 -0.2710  0.4757 -0.4840
  356TMC3    C1 5328   3.461   1.538  11.712  0.1700  0.6288 -0.5008
  356TMC3    C2 5329   3.535   1.585  11.607 -0.5818 -0.2011  0.1126
  356TMC3    C3 5330   3.631   1.679  11.633  0.0470 -0.0356 -0.2211
  356TMC3    C4 5331   3.477   1.598  11.836  0.1555  0.0398 -0.3248
  356TMC3    C5 5332   3.575   1.683  11.861 -0.0905  0.0341 -0.0348
  356TMC3    C6 5333   3.656   1.728  11.760 -0.0915 -0.0385  0.2496
  356TMC3     C 5334   3.338   1.471  11.672 -0.3409 -0.4071 -0.1230
  356TMC3     O 5335   3.331   1.413  11.562  0.1215  0.3426 -0.0807
  356TMC3     H 5336   3.506   1.553  11.508 -0.3835 -2.4000  0.7734
  356TMC3    H1 5337   3.419   1.557  11.918  1.2840 -0.2848  0.3096
  356TMC3    H2 5338   3.737   1.792  11.792  0.0390  0.0190 -0.1938
  356TMC3    C7 5339   3.590   1.731  11.995 -0.6438 -0.2948  0.4880
  356TMC3    C8 5340   3.738   1.687  11.537 -0.1300  0.0984 -0.0938
  356TMC3    O1 5341   3.559   1.653  12.080  0.0661  0.1733 -0.0480
  356TMC3    O2 5342   3.726   1.610  11.442  0.0938  0.3934 -0.2187
  357MPD2     C 5343   2.839   1.312   0.971  0.0760  0.5483  0.3286
  357MPD2    C1 5344   2.968   1.300   1.002 -0.9365  0.4068  0.7219
  357MPD2    C2 5345   3.015   1.377   1.107  0.3104 -0.7242  0.1369
  357MPD2    C3 5346   2.935   1.446   1.195 -0.3434 -0.8790  0.4377
  357MPD2    C4 5347   2.798   1.442   1.163 -0.4656 -0.0751 -0.4506
  357MPD2    C5 5348   2.746   1.378   1.053  0.1271 -0.2916 -0.0389
  357MPD2     H 5349   3.122   1.378   1.126  0.5556  3.9311 -1.5573
  357MPD2    H1 5350   2.731   1.496   1.229  0.2802 -1.5904  1.5523
  357MPD2    H2 5351   2.799   1.254   0.888  0.5034  0.7865 -0.0485
  357MPD2    H3 5352   2.641   1.385   1.028 -0.1709  0.9797  1.5971
  357MPD2     N 5353   2.988   1.526   1.302  0.0851 -0.3120 -0.4186
  357MPD2    H5 5354   2.918   1.563   1.365 -1.1655  0.2340 -2.1233
  357MPD2    N1 5355   3.059   1.236   0.913 -0.0953  0.3831 -0.2854
  357MPD2    H7 5356   3.019   1.197   0.828  0.4777 -1.6298  0.3772
  358TMC3    C1 5357   3.243   1.100   0.855 -0.1255  1.0305 -0.4532
  358TMC3    C2 5358   3.176   1.069   0.737 -0.7202  0.4751  0.1212
  358TMC3    C3 5359   3.242   0.979   0.653  0.6459 -0.1869  0.7887
  358TMC3    C4 5360   3.358   1.042   0.893 -0.0119  0.3215  0.7004
  358TMC3    C5 5361   3.414   0.945   0.810  0.2604  0.1692 -0.3492
  358TMC3    C6 5362   3.351   0.915   0.690  0.3210 -0.6913  0.1152
  358TMC3     C 5363   3.188   1.199   0.942 -1.0099  0.2976  0.9928
  358TMC3     O 5364   3.252   1.227   1.043 -0.0185 -0.0478 -0.1639
  358TMC3     H 5365   3.089   1.120   0.698 -0.1551  2.6136  1.6596
  358TMC3    H1 5366   3.395   1.059   0.994 -0.5783  1.5641  0.7036
  358TMC3    H2 5367   3.414   0.879   0.609 -0.1319 -0.8692 -0.1595
  358TMC3    C7 5368   3.536   0.869   0.842 -0.1760  0.2503 -0.1034
  358TMC3    C8 5369   3.164   0.914   0.553  1.1917 -0.2439 -0.2413
  358TMC3    O1 5370   3.577   0.783   0.765 -0.5901 -0.0385 -0.0779
  358TMC3    O2 5371   3.066   0.973   0.515  0.1400 -0.5853 -0.1961
  359MPD2     C 5372   3.639   4.072  12.509 -0.5475  0.2303  0.1042
  359MPD2    C1 5373   3.714   4.132  12.408  0.2947  0.0776 -0.1239
  359MPD2    C2 5374   3.808   4.230  12.441 -0.6302  0.4815 -0.6055
  359MPD2    C3 5375   3.821   4.271  12.573  0.6557  0.1224  0.1056
  359MPD2    C4 5376   3.762   4.203  12.677 -0.2055  0.0539  0.1753
  359MPD2    C5 5377   3.672   4.104  12.642  0.0138  0.9710  0.7248
  359MPD2     H 5378   3.871   4.266  12.360  1.8685 -6.0885 -1.5677
  359MPD2    H1 5379   3.758   4.227  12.782 -2.1780  2.2056 -0.3777
  359MPD2    H2 5380   3.574   3.990  12.484  0.1955 -0.8404  1.6771
  359MPD2    H3 5381   3.617   4.052  12.719  0.3639 -1.0256 -0.3872
  359MPD2     N 5382   3.889   4.389  12.605 -0.8853  0.2500 -0.6557
  359MPD2    H5 5383   3.875   4.417  12.702  2.8013  1.4628 -0.4646
  359MPD2    N1 5384   3.703   4.111  12.272 -0.0351  0.5031 -0.3448
  359MPD2    H7 5385   3.759   4.166  12.208  1.9674 -1.9390 -0.6740
  360TMC3    C1 5386   3.678   4.019  12.071 -0.1475 -0.0279 -0.5275
  360TMC3    C2 5387   3.798   4.077  12.045  0.3571 -0.2969 -0.8331
  360TMC3    C3 5388   3.810   4.165  11.939 -0.0136  0.5956  0.1017
  360TMC3    C4 5389   3.575   4.027  11.981 -0.6066  0.2000  0.3377
  360TMC3    C5 5390   3.588   4.119  11.884  0.1280  0.6230  0.4269
  360TMC3    C6 5391   3.703   4.197  11.865  0.1336  0.3243 -0.2867
  360TMC3     C 5392   3.634   4.013  12.210 -0.1228  0.4220  0.1912
  360TMC3     O 5393   3.549   3.935  12.253  0.4840 -0.4324  0.3556
  360TMC3     H 5394   3.892   4.043  12.087  0.3302  0.5647 -0.0757
  360TMC3    H1 5395   3.477   3.989  12.008 -0.3312 -0.4080  0.4827
  360TMC3    H2 5396   3.723   4.260  11.779 -1.9656  1.7388  0.2718
  360TMC3    C7 5397   3.490   4.152  11.786 -0.5625 -0.0325 -0.0858
  360TMC3    C8 5398   3.917   4.262  11.959  0.1594 -0.1800 -0.7832
  360TMC3    O1 5399   3.491   4.271  11.758 -0.2201 -0.2335 -0.5249
  360TMC3    O2 5400   3.949   4.290  12.077  0.3286 -0.5006  0.1604
  361MPD2     C 5401   0.603   3.596  16.432  0.2985 -0.2363  0.4222
  361MPD2    C1 5402   0.527   3.578  16.547 -0.3317 -0.0227  0.4193
  361MPD2    C2 5403   0.564   3.485  16.643  0.3376 -0.0522 -0.1398
  361MPD2    C3 5404   0.684   3.419  16.625 -0.0098  1.4869  0.4779
  361MPD2    C4 5405   0.761   3.440  16.515 -0.9306 -0.1796  0.1498
  361MPD2    C5 5406   0.721   3.532  16.418 -0.3803 -0.1164 -0.4499
  361MPD2     H 5407   0.500   3.462  16.727  0.7018  3.8928  1.2145
  361MPD2    H1 5408   0.850   3.379  16.506 -0.2995  0.7707 -0.1126
  361MPD2    H2 5409   0.560   3.665  16.359  1.9158 -0.6105 -0.8745
  361MPD2    H3 5410   0.765   3.527  16.319  1.4662 -0.0241  0.3653
  361MPD2     N 5411   0.729   3.325  16.718  0.5009 -0.0481 -0.1661
  361MPD2    H5 5412   0.812   3.271  16.697  0.8628  0.3302  0.2991
  361MPD2    N1 5413   0.412   3.650  16.554 -0.1522 -0.1000  0.5817
  361MPD2    H7 5414   0.399   3.706  16.471  0.1905  0.2777  0.7817
  362TMC3    C1 5415   0.213   3.745  16.648 -0.1245  0.2271  0.7652
  362TMC3    C2 5416   0.175   3.808  16.760 -0.5165 -0.8356 -0.9075
  362TMC3    C3 5417   0.087   3.912  16.754  0.2622  0.2505 -0.1741
  362TMC3    C4 5418   0.166   3.778  16.526 -0.2461  0.5924 -0.6886
  362TMC3    C5 5419   0.078   3.886  16.518  0.1857  0.0461 -0.1310
  362TMC3    C6 5420   0.036   3.954  16.633 -0.0839  0.0449  0.5527
  362TMC3     C 5421   0.335   3.658  16.667 -0.8004 -0.2439 -0.0805
  362TMC3     O 5422   0.340   3.602  16.776  0.6551  0.2656  0.0809
  362TMC3     H 5423   0.224   3.784  16.853  1.3929 -2.0301 -2.2347
  362TMC3    H1 5424   0.193   3.720  16.439  3.4113  1.5053 -0.1422
  362TMC3    H2 5425   4.694   4.043  16.626 -0.6288 -0.5560 -2.4190
  362TMC3    C7 5426   0.032   3.945  16.390  0.1672 -0.3384  0.2676
  362TMC3    C8 5427   0.094   3.996  16.866  0.3895 -0.4804  0.5426
  362TMC3    O1 5428   4.711   4.062  16.394  0.4338  0.1650  0.2420
  362TMC3    O2 5429   0.196   4.060  16.881  0.0743 -0.6121 -0.7598
  363TMC3    C1 5430   4.193   1.159   9.921  0.0710  0.3806  0.4058
  363TMC3    C2 5431   4.164   1.072  10.023 -0.3047 -0.3070  0.1157
  363TMC3    C3 5432   4.030   1.054  10.043  0.3869  0.6367 -0.3713
  363TMC3    C4 5433   4.098   1.217   9.848  0.7086 -0.0791 -0.1748
  363TMC3    C5 5434   3.966   1.194   9.873  0.1863  0.2370 -0.2841
  363TMC3    C6 5435   3.923   1.108   9.976 -0.3559 -0.9625 -0.3374
  363TMC3     C 5436   4.335   1.176   9.907  0.2780  0.4363  0.0297
  363TMC3     O 5437   4.405   1.099   9.966 -0.0470 -0.4422  0.7979
  363TMC3     H 5438   4.231   1.047  10.104  0.3888  1.8659  0.2223
  363TMC3    H1 5439   4.132   1.260   9.754 -0.3656  2.8880  0.7833
  363TMC3    H2 5440   3.823   1.103  10.017 -1.0740  4.5776 -1.4417
  363TMC3    C7 5441   3.862   1.228   9.776  0.1412  0.8125 -0.0478
  363TMC3    C8 5442   3.995   0.940  10.124  0.6541  0.2381 -0.4348
  363TMC3    O1 5443   3.755   1.173   9.797  0.2464 -0.6257  0.4474
  363TMC3    O2 5444   3.879   0.923  10.170 -0.0782 -0.0634  0.2857
  364MPD2     C 5445   2.741   0.544  10.256  0.3228 -0.0198 -0.1030
  364MPD2    C1 5446   2.671   0.625  10.336  0.4307 -0.6249  0.3615
  364MPD2    C2 5447   2.563   0.572  10.407 -0.3529 -0.0649  0.1804
  364MPD2    C3 5448   2.545   0.433  10.408  0.3223 -0.3529 -0.1454
  364MPD2    C4 5449   2.625   0.353  10.331  0.4922 -0.1461  0.2024
  364MPD2    C5 5450   2.717   0.417  10.254 -0.0753  0.4932  0.6168
  364MPD2     H 5451   2.507   0.639  10.471 -0.4092 -0.3359  0.4143
  364MPD2    H1 5452   2.621   0.245  10.332 -2.4106 -0.0060  1.2248
  364MPD2    H2 5453   2.827   0.574  10.197 -0.1519  1.7513  0.1308
  364MPD2    H3 5454   2.772   0.350  10.189 -1.0413  0.2423  0.0475
  364MPD2     N 5455   2.435   0.372  10.474  0.1302  0.6733  0.5389
  364MPD2    H5 5456   2.445   0.271  10.476 -1.5368  0.4443 -2.1319
  364MPD2    N1 5457   2.711   0.766  10.327 -0.3669 -0.1610  0.2539
  364MPD2    H7 5458   2.791   0.785  10.267 -1.2860  0.7447 -0.6896
  365TMC3    C1 5459   2.702   1.001  10.365  0.3918 -0.8590 -0.3099
  365TMC3    C2 5460   2.839   1.006  10.357  0.4918 -0.2851 -0.3497
  365TMC3    C3 5461   2.895   1.130  10.345 -0.3791 -0.7192  0.2837
  365TMC3    C4 5462   2.621   1.107  10.359 -0.2560  0.2105  0.1054
  365TMC3    C5 5463   2.679   1.224  10.332  0.0323 -0.1058 -0.5947
  365TMC3    C6 5464   2.810   1.238  10.333 -0.5677 -0.1685 -0.2191
  365TMC3     C 5465   2.641   0.871  10.387  0.0654  0.2266  0.9015
  365TMC3     O 5466   2.547   0.870  10.468  0.0358 -0.1178  0.1450
  365TMC3     H 5467   2.899   0.918  10.377 -0.4142 -1.4351 -2.6097
  365TMC3    H1 5468   2.515   1.089  10.346 -0.2182  1.6158 -2.1197
  365TMC3    H2 5469   2.847   1.340  10.328 -1.4366  0.1519 -0.0082
  365TMC3    C7 5470   2.605   1.344  10.368  0.7453  0.3409  0.2082
  365TMC3    C8 5471   3.033   1.146  10.295  0.1299 -0.4870 -0.0816
  365TMC3    O1 5472   2.618   1.439  10.293  0.6371 -0.1443  0.0069
  365TMC3    O2 5473   3.076   1.262  10.269 -0.0631  0.0750 -0.1270
  366MPD2     C 5474   0.681   2.401  14.961 -0.3406  0.5213 -0.4547
  366MPD2    C1 5475   0.740   2.407  15.082 -0.1277 -0.4223 -0.8837
  366MPD2    C2 5476   0.782   2.290  15.150 -0.2444 -0.4654  0.4928
  366MPD2    C3 5477   0.776   2.166  15.091  0.3258  0.0768 -0.0486
  366MPD2    C4 5478   0.712   2.162  14.968  0.4845 -0.6826 -0.4448
  366MPD2    C5 5479   0.659   2.274  14.909 -0.9479  0.1577  0.4619
  366MPD2     H 5480   0.836   2.309  15.243  0.3781 -1.9538  0.4427
  366MPD2    H1 5481   0.711   2.077  14.901 -0.4052  0.0997 -1.4289
  366MPD2    H2 5482   0.653   2.490  14.907  2.8913 -0.1323 -3.1738
  366MPD2    H3 5483   0.621   2.262  14.808 -0.0777 -2.3316  0.4189
  366MPD2     N 5484   0.835   2.051  15.158 -0.4619  0.5208 -0.3991
  366MPD2    H5 5485   0.884   2.066  15.246  1.9614  1.2512 -1.8733
  366MPD2    N1 5486   0.778   2.530  15.137 -0.4689 -0.2463 -0.0062
  366MPD2    H7 5487   0.828   2.527  15.225  0.8643  1.0400 -0.7056
  367TMC3    C1 5488   0.764   2.756  15.178 -0.1508  0.2547 -0.1663
  367TMC3    C2 5489   0.845   2.737  15.281  0.0374 -0.0454  0.3786
  367TMC3    C3 5490   0.809   2.789  15.405  0.0308 -0.1113 -0.3367
  367TMC3    C4 5491   0.647   2.821  15.187 -0.2202  1.1547 -0.0036
  367TMC3    C5 5492   0.608   2.855  15.313  0.1657 -0.3239  0.3919
  367TMC3    C6 5493   0.684   2.845  15.427  0.2625 -0.1162 -0.1763
  367TMC3     C 5494   0.752   2.651  15.081  0.2249  0.6904 -0.0226
  367TMC3     O 5495   0.687   2.687  14.983 -0.2365 -0.2888  0.5398
  367TMC3     H 5496   0.949   2.706  15.270 -0.3194 -0.9732 -0.3247
  367TMC3    H1 5497   0.576   2.823  15.106 -0.6997  0.2759  0.3930
  367TMC3    H2 5498   0.650   2.881  15.524  1.4356  0.5266  0.0021
  367TMC3    C7 5499   0.473   2.824  15.331 -0.4251  0.1217 -0.8755
  367TMC3    C8 5500   0.910   2.777  15.508 -0.1719 -0.1037  0.5800
  367TMC3    O1 5501   0.426   2.759  15.240 -0.1926  0.0928 -0.4936
  367TMC3    O2 5502   0.974   2.671  15.512 -0.4332  0.1724  0.3281
  368MPD2     C 5503   2.358   4.250  13.328 -0.5181  0.1072 -0.0794
  368MPD2    C1 5504   2.350   4.321  13.213  1.2489 -0.0665 -0.5332
  368MPD2    C2 5505   2.463   4.336  13.135 -0.3339 -0.4091 -0.2620
  368MPD2    C3 5506   2.585   4.297  13.185 -0.1965  0.0080  0.1175
  368MPD2    C4 5507   2.593   4.233  13.304 -0.4195 -0.0657  0.6037
  368MPD2    C5 5508   2.480   4.199  13.371 -0.2478 -0.6243 -0.0633
  368MPD2     H 5509   2.447   4.380  13.037  1.0279  0.3979 -0.1147
  368MPD2    H1 5510   2.687   4.196  13.343 -0.5437 -0.6468  0.3624
  368MPD2    H2 5511   2.268   4.230  13.386 -0.4912 -0.4266 -0.2172
  368MPD2    H3 5512   2.491   4.139  13.461 -0.7061 -1.1868 -0.3887
  368MPD2     N 5513   2.710   4.305  13.118 -0.9461  0.1810 -0.8018
  368MPD2    H5 5514   2.782   4.260  13.174 -1.0410  1.2915  0.2067
  368MPD2    N1 5515   2.210   4.355  13.173  1.2226 -0.2118 -0.2864
  368MPD2    H7 5516   2.134   4.326  13.234  1.1417 -0.7688 -0.6524
  369TMC3    C1 5517   2.046   4.412  13.021  0.0742 -0.5740 -0.2261
  369TMC3    C2 5518   1.999   4.512  12.946  0.3097 -0.7603  0.3017
  369TMC3    C3 5519   1.876   4.493  12.884  0.2246  0.4892  0.4212
  369TMC3    C4 5520   1.977   4.293  13.045  0.6302 -0.0900 -0.6275
  369TMC3    C5 5521   1.855   4.285  12.990 -0.4253 -0.1226 -0.0476
  369TMC3    C6 5522   1.800   4.378  12.902 -0.2404  0.2043  0.7899
  369TMC3     C 5523   2.182   4.421  13.056  0.1493  0.3570  0.2676
  369TMC3     O 5524   2.258   4.469  12.971  0.3812  0.1747  0.1144
  369TMC3     H 5525   2.066   4.591  12.915 -1.9237  1.2634  0.6055
  369TMC3    H1 5526   2.018   4.211  13.103 -0.6257 -1.2957 -1.4392
  369TMC3    H2 5527   1.700   4.364  12.863 -0.4293 -1.4539  1.8308
  369TMC3    C7 5528   1.782   4.166  13.036  0.1294 -0.6468  0.4942
  369TMC3    C8 5529   1.847   4.579  12.774 -0.4100  0.4989 -1.1708
  369TMC3    O1 5530   1.826   4.098  13.127  0.1403  0.4421 -0.0372
  369TMC3    O2 5531   1.944   4.641  12.726  0.1376 -0.3844  0.2846
  370TMC3    C1 5532   1.354   4.545  16.191  0.6161 -0.6169  0.1669
  370TMC3    C2 5533   1.274   4.452  16.256  0.5894 -0.4870  0.2060
  370TMC3    C3 5534   1.300   4.319  16.227  0.7918  0.4838  0.0375
  370TMC3    C4 5535   1.441   4.515  16.096  0.0463 -0.3532 -0.3404
  370TMC3    C5 5536   1.462   4.382  16.063  0.2721  0.2136 -0.3152
  370TMC3    C6 5537   1.392   4.285  16.126 -0.1342  0.4590  0.0835
  370TMC3     C 5538   1.369   4.672  16.256  0.3966 -0.6459  0.0445
  370TMC3     O 5539   1.286   4.694  16.340 -0.2750  0.1364 -0.2493
  370TMC3     H 5540   1.201   4.489  16.329 -0.4603 -0.4996 -0.8356
  370TMC3    H1 5541   1.499   4.583  16.035  1.8726 -1.2313  0.4157
  370TMC3    H2 5542   1.399   4.178  16.109  0.6781  0.3506  1.0864
  370TMC3    C7 5543   1.555   4.356  15.950 -0.1249  0.4149 -0.2905
  370TMC3    C8 5544   1.312   4.235  16.341  0.3599 -0.1155 -0.5342
  370TMC3    O1 5545   1.609   4.457  15.902  0.4109  0.3709  0.0091
  370TMC3    O2 5546   1.266   4.120  16.328 -0.2707  1.1826  0.3028
  371TMC3    C1 5547   2.746   2.657  15.524  0.2742 -0.9283 -0.2980
  371TMC3    C2 5548   2.672   2.695  15.630  0.0419  0.0091 -0.0049
  371TMC3    C3 5549   2.648   2.826  15.637 -0.3545  0.0691  0.2305
  371TMC3    C4 5550   2.791   2.740  15.426  0.3105  0.0570 -0.6888
  371TMC3    C5 5551   2.739   2.866  15.421 -0.1941 -0.6269 -0.1617
  371TMC3    C6 5552   2.661   2.913  15.525 -0.2827 -0.0998 -0.3892
  371TMC3     C 5553   2.803   2.524  15.528 -0.3047  0.3007 -0.2460
  371TMC3     O 5554   2.905   2.502  15.464 -0.2273 -0.0432  0.1565
  371TMC3     H 5555   2.653   2.636  15.719 -2.8291 -0.3302 -0.8620
  371TMC3    H1 5556   2.842   2.685  15.347  0.8559 -0.1967 -0.1535
  371TMC3    H2 5557   2.623   3.013  15.510  0.9994  0.3579 -0.5741
  371TMC3    C7 5558   2.793   2.964  15.325  0.2657 -0.8344  0.0670
  371TMC3    C8 5559   2.580   2.857  15.766 -0.0384  0.3459 -0.2722
  371TMC3    O1 5560   2.763   3.082  15.332 -0.3546  0.3341 -0.4905
  371TMC3    O2 5561   2.620   2.788  15.861  0.2572 -0.0645  0.3300
  372MPD2     C 5562   1.998   4.632  13.310  0.2654  0.2135  0.5167
  372MPD2    C1 5563   2.100   4.588  13.400  0.1808  0.2392  0.2649
  372MPD2    C2 5564   2.059   4.490  13.488 -1.1276 -0.4550 -0.1355
  372MPD2    C3 5565   1.934   4.434  13.484  0.4660  0.0787 -0.4279
  372MPD2    C4 5566   1.836   4.475  13.397 -0.4427 -0.1040 -0.7873
  372MPD2    C5 5567   1.869   4.579  13.317  0.5793 -0.2667 -0.2503
  372MPD2     H 5568   2.129   4.450  13.560 -0.6131  0.9383  0.1373
  372MPD2    H1 5569   1.734   4.441  13.404 -0.8195  1.6820  2.4209
  372MPD2    H2 5570   2.020   4.701  13.229  3.1822 -0.1357  1.0115
  372MPD2    H3 5571   1.797   4.631  13.254  1.4075 -1.3934 -2.1183
  372MPD2     N 5572   1.896   4.340  13.585  0.7684 -0.0447 -0.7978
  372MPD2    H5 5573   1.816   4.278  13.573  0.0740  0.4743  1.2574
  372MPD2    N1 5574   2.232   4.622  13.378 -0.0628 -0.0606  0.1870
  372MPD2    H7 5575   2.296   4.589  13.450 -0.5541 -0.8506  0.2562
  373TMC3    C1 5576   1.868   4.278  13.823  0.2288  0.3111 -0.6704
  373TMC3    C2 5577   1.857   4.333  13.940  0.1822  0.3681 -0.0138
  373TMC3    C3 5578   1.830   4.258  14.052  0.1590 -0.0916  0.3270
  373TMC3    C4 5579   1.854   4.141  13.810  0.3034 -0.3138 -0.0474
  373TMC3    C5 5580   1.834   4.058  13.915 -0.2891 -0.4227  0.2921
  373TMC3    C6 5581   1.814   4.121  14.039 -0.0282 -0.0215  0.6968
  373TMC3     C 5582   1.943   4.357  13.719  0.1032 -0.8008 -0.1176
  373TMC3     O 5583   1.998   4.456  13.761  0.4507 -0.2630  0.5571
  373TMC3     H 5584   1.866   4.440  13.953 -2.1383  0.4330  1.2617
  373TMC3    H1 5585   1.877   4.099  13.712 -1.3260  0.3023 -0.6982
  373TMC3    H2 5586   1.787   4.063  14.126  3.1025  0.5589  2.0491
  373TMC3    C7 5587   1.948   3.969  13.927 -0.1686 -0.2171 -0.6423
  373TMC3    C8 5588   1.867   4.314  14.180 -0.2334  0.4944  0.0922
  373TMC3    O1 5589   2.016   3.948  13.824  0.5751 -0.2232  0.4151
  373TMC3    O2 5590   1.941   4.411  14.179  0.3175 -0.6707 -0.1974
  374TMC3    C1 5591   2.976   3.376   9.556 -0.3147 -0.2197 -0.2331
  374TMC3    C2 5592   3.025   3.494   9.593  0.0765 -0.2968  0.1833
  374TMC3    C3 5593   3.070   3.576   9.494  0.3280  0.0759 -0.9015
  374TMC3    C4 5594   2.982   3.330   9.424  0.5415 -0.3027  0.9298
  374TMC3    C5 5595   3.019   3.424   9.328 -0.0252  0.2519 -0.0227
  374TMC3    C6 5596   3.059   3.544   9.364 -0.1980 -0.2611 -0.3005
  374TMC3     C 5597   2.946   3.280   9.659  0.4537 -0.1463 -0.0876
  374TMC3     O 5598   3.015   3.279   9.758  0.1038 -0.0202 -0.4187
  374TMC3     H 5599   3.008   3.521   9.697 -0.4164  1.5308 -0.3723
  374TMC3    H1 5600   2.943   3.232   9.397 -0.3877 -0.8067  4.1189
  374TMC3    H2 5601   3.091   3.617   9.290 -0.2424 -0.7339 -0.7893
  374TMC3    C7 5602   3.015   3.381   9.189  0.9862  0.3373  0.1892
  374TMC3    C8 5603   3.118   3.706   9.536 -0.0930  0.5142 -0.1901
  374TMC3    O1 5604   2.955   3.276   9.172  0.2936 -0.7736  0.1332
  374TMC3    O2 5605   3.122   3.792   9.448  0.4826 -0.2434 -0.3844
  375MPD2     C 5606   3.012   0.199  17.204  0.0629  0.0754 -0.5040
  375MPD2    C1 5607   2.911   0.159  17.120  0.6327  0.1039 -0.3813
  375MPD2    C2 5608   2.941   0.083  17.011 -0.6494  0.7641 -0.2843
  375MPD2    C3 5609   3.068   0.048  16.986  0.7571 -0.3320  0.5902
  375MPD2    C4 5610   3.165   0.080  17.069  0.3183  0.4641 -0.5887
  375MPD2    C5 5611   3.136   0.151  17.181 -0.4740 -0.0307 -0.2955
  375MPD2     H 5612   2.858   0.053  16.947 -1.7605 -0.0852  1.5615
  375MPD2    H1 5613   3.267   0.049  17.053  0.3895  0.1843  0.4036
  375MPD2    H2 5614   2.992   0.271  17.282  1.2028 -0.7970  0.5840
  375MPD2    H3 5615   3.217   0.184  17.246 -0.4335 -1.2033  0.2423
  375MPD2     N 5616   3.105   4.696  16.867  0.3394 -0.0377 -0.9464
  375MPD2    H5 5617   3.205   4.678  16.861  0.5847  0.3855  1.7273
  375MPD2    N1 5618   2.776   0.195  17.132 -0.2535 -0.0636  0.5407
  375MPD2    H7 5619   2.712   0.163  17.060  0.3937 -1.9692  0.8316
  376TMC3    C1 5620   3.092   4.609  16.655  0.3684  0.4498 -0.1557
  376TMC3    C2 5621   3.224   4.618  16.648  0.2809 -0.3499 -0.1766
  376TMC3    C3 5622   3.283   4.537  16.554 -0.7974 -0.1180 -0.3934
  376TMC3    C4 5623   3.017   4.538  16.570  0.3681 -1.2763  0.2007
  376TMC3    C5 5624   3.084   4.458  16.474 -0.3120  0.6703  0.1599
  376TMC3    C6 5625   3.222   4.455  16.468 -0.4127 -0.3268 -0.0184
  376TMC3     C 5626   3.019   4.660  16.767 -0.2988 -0.5166 -0.2298
  376TMC3     O 5627   2.899   4.681  16.754 -0.5806 -0.3276 -0.2444
  376TMC3     H 5628   3.276   4.690  16.710 -0.0139 -0.3441  0.0677
  376TMC3    H1 5629   2.909   4.548  16.571  0.5287  0.6636 -1.7158
  376TMC3    H2 5630   3.281   4.399  16.397  0.8521  0.3771  0.4692
  376TMC3    C7 5631   3.011   4.461  16.344  0.1440 -0.0676 -0.4898
  376TMC3    C8 5632   3.420   4.564  16.519 -0.1993 -0.2190 -0.0277
  376TMC3    O1 5633   2.936   4.560  16.331  0.0376  0.1994 -0.1735
  376TMC3    O2 5634   3.437   4.673  16.473 -0.8336  0.1135  0.3921
  377MPD2     C 5635   0.934   4.502  12.574  0.0519  0.4476  0.5192
  377MPD2    C1 5636   1.060   4.439  12.582 -0.0462 -0.0974  0.0298
  377MPD2    C2 5637   1.090   4.373  12.699 -0.8374  0.4512  0.8787
  377MPD2    C3 5638   0.996   4.351  12.797 -0.6018 -0.0301 -0.4689
  377MPD2    C4 5639   0.876   4.416  12.788  0.4546 -0.0669  0.7459
  377MPD2    C5 5640   0.847   4.492  12.682 -0.0662 -0.2089  0.3942
  377MPD2     H 5641   1.191   4.338  12.714 -1.2964  0.0875  2.9890
  377MPD2    H1 5642   0.812   4.401  12.874  0.2074  1.5276  0.8440
  377MPD2    H2 5643   0.899   4.565  12.493  1.9661 -0.2347 -0.8431
  377MPD2    H3 5644   0.748   4.536  12.678 -1.7483 -4.0197  0.1476
  377MPD2     N 5645   1.021   4.288  12.916 -0.2952 -0.8851 -0.1413
  377MPD2    H5 5646   0.941   4.264  12.974  0.5520 -0.6293  1.1292
  377MPD2    N1 5647   1.153   4.441  12.470 -0.6074 -0.2270  0.2299
  377MPD2    H7 5648   1.120   4.491  12.388 -1.9474 -3.2633 -1.0728
  378TMC3    C1 5649   1.303   4.467  12.105  0.0442  0.3357  0.1069
  378TMC3    C2 5650   1.240   4.426  12.221 -0.4541 -0.5673  0.0579
  378TMC3    C3 5651   1.326   4.381  12.320 -0.3086  0.3633 -0.6856
  378TMC3    C4 5652   1.441   4.470  12.096  0.1107 -0.0521 -0.0365
  378TMC3    C5 5653   1.514   4.430  12.199 -0.1347 -0.3084  0.1502
  378TMC3    C6 5654   1.460   4.384  12.309  0.1723 -0.8667 -0.6694
  378TMC3     C 5655   1.210   4.498  11.996 -0.1739 -0.5863  0.1464
  378TMC3     O 5656   1.095   4.521  12.027  0.1130  0.4960 -0.5031
  378TMC3     H 5657   1.133   4.408  12.230  0.1208 -3.5013  0.6848
  378TMC3    H1 5658   1.491   4.493  12.003 -1.3248 -0.7386 -0.9825
  378TMC3    H2 5659   1.528   4.364  12.391  1.7436  0.8250 -1.5493
  378TMC3    C7 5660   1.659   4.456  12.190 -0.1359 -0.3769  0.2939
  378TMC3    C8 5661   1.269   4.369  12.452  0.6218 -0.3481 -0.4507
  378TMC3    O1 5662   1.723   4.475  12.292 -0.5937  1.1752 -0.5666
  378TMC3    O2 5663   1.337   4.320  12.545  0.1252 -0.1588  0.0838
  379MPD2     C 5664   1.832   2.518  16.366 -0.2223 -0.2182 -0.2390
  379MPD2    C1 5665   1.726   2.427  16.377  0.5080  0.2599  0.5538
  379MPD2    C2 5666   1.742   2.314  16.458  0.4931 -1.0059  0.1738
  379MPD2    C3 5667   1.867   2.288  16.517  0.0428  0.6316 -0.9296
  379MPD2    C4 5668   1.974   2.375  16.496 -0.6442  0.0320  0.5475
  379MPD2    C5 5669   1.953   2.490  16.427 -0.2029  0.4787  0.2335
  379MPD2     H 5670   1.664   2.240  16.473 -2.7723  2.5953  1.1152
  379MPD2    H1 5671   2.069   2.366  16.547 -0.0573 -0.6181 -0.6580
  379MPD2    H2 5672   1.821   2.605  16.303 -2.0899 -0.2255  0.0961
  379MPD2    H3 5673   2.040   2.554  16.416 -0.0839  0.2264 -0.3210
  379MPD2     N 5674   1.893   2.166  16.584 -0.1428 -0.5066  0.1103
  379MPD2    H5 5675   1.988   2.139  16.609 -1.0044 -0.9966  2.7935
  379MPD2    N1 5676   1.605   2.445  16.311  0.1182  0.1224 -0.4632
  379MPD2    H7 5677   1.586   2.536  16.269 -1.0496 -0.2164 -0.6713
  380TMC3    C1 5678   1.402   2.399  16.202  0.2014 -0.0510  0.0069
  380TMC3    C2 5679   1.436   2.334  16.086  0.6496 -0.3074  0.1225
  380TMC3    C3 5680   1.418   2.382  15.959 -0.5555  1.0023  0.2816
  380TMC3    C4 5681   1.354   2.522  16.196 -0.1356  0.3147  0.6107
  380TMC3    C5 5682   1.339   2.578  16.069  0.1133 -0.0730 -0.8568
  380TMC3    C6 5683   1.360   2.504  15.957  0.4423  0.3614  0.1279
  380TMC3     C 5684   1.497   2.363  16.303 -0.5315 -0.1536 -0.1694
  380TMC3     O 5685   1.502   2.248  16.347 -0.9775 -0.6767  0.2906
  380TMC3     H 5686   1.449   2.228  16.106  0.3347 -0.3778 -0.0505
  380TMC3    H1 5687   1.334   2.568  16.292 -0.4916  1.0588  0.1801
  380TMC3    H2 5688   1.340   2.560  15.866 -1.8721 -0.2633  0.2622
  380TMC3    C7 5689   1.261   2.697  16.060 -0.8895  0.4452 -0.6091
  380TMC3    C8 5690   1.542   2.381  15.881  0.5773  0.7813  0.4594
  380TMC3    O1 5691   1.277   2.767  16.159  0.2160  0.4791  0.0748
  380TMC3    O2 5692   1.549   2.444  15.778  0.0339 -0.1962  0.1028
  381TMC3    C1 5693   1.187   3.879  16.137  0.2754 -0.0987 -0.5049
  381TMC3    C2 5694   1.310   3.916  16.106  0.1507 -1.0444  0.0344
  381TMC3    C3 5695   1.416   3.853  16.172 -0.6278  0.5828 -0.1342
  381TMC3    C4 5696   1.154   3.779  16.226 -0.0550  0.0137 -0.1870
  381TMC3    C5 5697   1.263   3.716  16.281 -0.5246  0.0815 -0.8416
  381TMC3    C6 5698   1.390   3.744  16.251  0.5141 -0.2657  0.5797
  381TMC3     C 5699   1.071   3.929  16.059 -0.0827 -0.2914 -0.1311
  381TMC3     O 5700   0.964   3.897  16.106  0.1016  0.2754 -0.3146
  381TMC3     H 5701   1.324   4.003  16.043  0.1775  0.7173  2.5198
  381TMC3    H1 5702   1.049   3.759  16.244 -0.6602  3.5530  0.3564
  381TMC3    H2 5703   1.462   3.696  16.316  1.1251 -0.5792 -0.3271
  381TMC3    C7 5704   1.235   3.618  16.382 -0.6388  0.1479 -0.0279
  381TMC3    C8 5705   1.536   3.928  16.201 -0.4155  0.2660  0.2803
  381TMC3    O1 5706   1.318   3.531  16.398 -0.0802 -0.0961  0.1693
  381TMC3    O2 5707   1.558   4.025  16.131 -0.1994  0.6817  0.4175
  382MPD2     C 5708   0.504   1.318  16.556  0.6281  0.0423 -0.5803
  382MPD2    C1 5709   0.567   1.268  16.666 -0.0052 -0.3172  0.1137
  382MPD2    C2 5710   0.567   1.133  16.698  0.4931  0.3590  0.0477
  382MPD2    C3 5711   0.502   1.041  16.614 -0.6918  0.2614 -0.0669
  382MPD2    C4 5712   0.436   1.095  16.504  0.0555 -0.0393 -0.3822
  382MPD2    C5 5713   0.441   1.229  16.475  0.2465 -0.2815  0.1293
  382MPD2     H 5714   0.609   1.102  16.793 -1.4072 -0.8094  0.5142
  382MPD2    H1 5715   0.374   1.028  16.446  0.3961 -0.3957 -0.3279
  382MPD2    H2 5716   0.497   1.423  16.531  1.3442 -0.6014 -3.4482
  382MPD2    H3 5717   0.386   1.276  16.395  1.1567 -0.8799 -0.8541
  382MPD2     N 5718   0.487   0.907  16.651 -0.0400  0.6607  0.0817
  382MPD2    H5 5719   0.423   0.850  16.596 -0.2010  0.7760  0.1490
  382MPD2    N1 5720   0.628   1.347  16.759 -0.8260 -0.0400 -0.4501
  382MPD2    H7 5721   0.651   1.303  16.848 -0.5607  1.4197  0.2065
  383TMC3    C1 5722   0.514   0.726  16.803 -0.0686 -0.6042 -0.4237
  383TMC3    C2 5723   0.379   0.704  16.806  0.2145 -0.4255 -0.0637
  383TMC3    C3 5724   0.343   0.608  16.902 -0.2583  0.2685  0.3390
  383TMC3    C4 5725   0.604   0.684  16.892  0.6613  0.0518 -0.4372
  383TMC3    C5 5726   0.562   0.577  16.971  0.6451  0.5860  0.6379
  383TMC3    C6 5727   0.432   0.550  16.989  0.0904 -0.3556 -0.0721
  383TMC3     C 5728   0.566   0.846  16.743 -0.4980  1.1360 -0.4670
  383TMC3     O 5729   0.657   0.895  16.803  0.4946  0.3377  0.0187
  383TMC3     H 5730   0.309   0.759  16.745  1.6506  0.5838 -0.7978
  383TMC3    H1 5731   0.704   0.681  16.851  0.8741 -0.9384  0.1523
  383TMC3    H2 5732   0.410   0.479  17.068 -1.5329  1.4662  1.1220
  383TMC3    C7 5733   0.651   0.567  17.083 -0.2175 -0.1788  0.4887
  383TMC3    C8 5734   0.198   0.596  16.918 -0.3631  0.2891  0.0091
  383TMC3    O1 5735   0.654   0.459  17.144 -0.2298  0.1200  0.2644
  383TMC3    O2 5736   0.122   0.656  16.843 -0.4261  0.4892  0.8160
  384MPD2     C 5737   2.028   2.660  12.090  0.1884  0.4211 -0.6626
  384MPD2    C1 5738   1.999   2.567  12.189  0.5919  0.1838  0.3613
  384MPD2    C2 5739   2.045   2.437  12.176  0.1058  0.4667  0.5445
  384MPD2    C3 5740   2.098   2.398  12.055  0.2880  0.5912  0.6542
  384MPD2    C4 5741   2.096   2.483  11.945  0.2842 -0.4805  0.6431
  384MPD2    C5 5742   2.073   2.615  11.975  0.1151 -0.4317 -0.3130
  384MPD2     H 5743   2.027   2.373  12.262  0.6480 -1.9594 -1.1512
  384MPD2    H1 5744   2.130   2.451  11.847  1.2500  1.1875  0.4417
  384MPD2    H2 5745   2.010   2.765  12.113  1.8670 -0.2040  3.3890
  384MPD2    H3 5746   2.078   2.687  11.894 -2.6248  1.3706  1.0926
  384MPD2     N 5747   2.145   2.264  12.058 -0.0993  0.2443 -0.3040
  384MPD2    H5 5748   2.140   2.221  12.150 -0.9706  2.0362  0.4947
  384MPD2    N1 5749   1.949   2.601  12.313 -0.1331 -0.6152 -0.5155
  384MPD2    H7 5750   1.948   2.526  12.381  0.9294  0.3057  0.5017
  385TMC3    C1 5751   2.262   2.060  11.991  0.3054 -0.2527 -0.2584
  385TMC3    C2 5752   2.178   1.969  11.943 -0.3092  0.1129  0.1753
  385TMC3    C3 5753   2.131   1.871  12.027 -0.2775  0.5712  0.5177
  385TMC3    C4 5754   2.297   2.066  12.121 -0.7004  0.8318 -0.0329
  385TMC3    C5 5755   2.244   1.977  12.203 -0.0348  0.7688  0.5672
  385TMC3    C6 5756   2.168   1.870  12.156 -0.5323  0.0420 -0.6053
  385TMC3     C 5757   2.201   2.191  11.951 -0.0769  0.4714 -0.1367
  385TMC3     O 5758   2.186   2.208  11.837 -0.1074 -0.6443 -0.0412
  385TMC3     H 5759   2.122   1.983  11.851 -0.0621 -0.7981 -0.1027
  385TMC3    H1 5760   2.359   2.147  12.158  0.0754 -0.1932  0.8829
  385TMC3    H2 5761   2.129   1.792  12.221  0.9552  0.4380  0.7634
  385TMC3    C7 5762   2.185   2.041  12.327 -0.4525 -0.3194  0.1431
  385TMC3    C8 5763   2.055   1.764  11.980  0.9578  0.9059 -0.3656
  385TMC3    O1 5764   2.185   2.163  12.325  0.3625  0.1216 -0.4792
  385TMC3    O2 5765   2.015   1.681  12.062 -1.0356 -0.2762  0.2096
  386TMC3    C1 5766   2.863   4.371  11.835  0.5244 -0.0100 -0.2699
  386TMC3    C2 5767   2.918   4.346  11.713 -0.5080  0.8080 -0.0658
  386TMC3    C3 5768   2.856   4.403  11.604 -0.0381 -0.3307 -0.4573
  386TMC3    C4 5769   2.757   4.456  11.855 -0.2986  0.1312 -0.7405
  386TMC3    C5 5770   2.697   4.505  11.742 -0.8005 -0.5717 -0.0003
  386TMC3    C6 5771   2.749   4.489  11.614 -0.4224  0.7480 -0.3476
  386TMC3     C 5772   2.955   4.366  11.951  0.1605 -0.4085  0.9042
  386TMC3     O 5773   2.976   4.472  12.009 -0.0068 -0.1434  0.1185
  386TMC3     H 5774   3.010   4.292  11.693  0.3915  1.7391  1.5606
  386TMC3    H1 5775   2.705   4.481  11.947 -0.7715  1.0845 -1.2620
  386TMC3    H2 5776   2.723   4.540  11.522  1.1837  1.1098 -0.5905
  386TMC3    C7 5777   2.564   4.557  11.755 -0.1646  0.6904  0.1589
  386TMC3    C8 5778   2.873   4.345  11.473  0.4800  0.2660  0.3193
  386TMC3    O1 5779   2.515   4.558  11.865  0.0050  0.0254  0.2401
  386TMC3    O2 5780   2.854   4.419  11.379 -0.2050 -0.0886 -0.3055
  387MPD2     C 5781   0.276   4.027   9.921 -0.4359 -0.4590  0.1100
  387MPD2    C1 5782   0.271   3.982  10.051  0.0730 -0.8851  0.2427
  387MPD2    C2 5783   0.250   3.846  10.071  0.3949 -0.3510 -0.4499
  387MPD2    C3 5784   0.269   3.756   9.972 -0.6023  0.5126  0.7601
  387MPD2    C4 5785   0.271   3.805   9.843  0.0484  0.4278  0.6920
  387MPD2    C5 5786   0.264   3.937   9.820  0.6307  0.2736 -0.2163
  387MPD2     H 5787   0.251   3.811  10.174 -1.3356 -1.7516 -0.9249
  387MPD2    H1 5788   0.279   3.742   9.755 -0.8249  0.9603  0.2340
  387MPD2    H2 5789   0.281   4.132   9.897 -2.4656 -0.1847  0.8647
  387MPD2    H3 5790   0.257   3.967   9.716  5.2177  1.9638 -0.0549
  387MPD2     N 5791   0.275   3.619  10.000 -0.6869 -0.2889  0.7240
  387MPD2    H5 5792   0.251   3.587  10.093  0.2748 -1.0531  0.7134
  387MPD2    N1 5793   0.309   4.064  10.159 -0.5028 -0.5601 -0.0024
  387MPD2    H7 5794   0.312   4.018  10.250  0.0745 -1.4517 -0.4684
  388TMC3    C1 5795   0.426   4.228  10.277  0.0888 -0.3412  0.4192
  388TMC3    C2 5796   0.466   4.361  10.288  0.0422 -0.2610 -0.8226
  388TMC3    C3 5797   0.592   4.389  10.341  0.4125 -0.3014 -0.1253
  388TMC3    C4 5798   0.494   4.134  10.348  0.2476 -0.5221 -0.3797
  388TMC3    C5 5799   0.609   4.163  10.420 -0.2461 -0.4473  0.0173
  388TMC3    C6 5800   0.662   4.293  10.405 -0.4795 -0.3207 -0.4180
  388TMC3     C 5801   0.358   4.191  10.157 -0.3256 -0.2543 -0.1431
  388TMC3     O 5802   0.339   4.270  10.065  0.3412  0.0537  0.4579
  388TMC3     H 5803   0.401   4.435  10.243  0.9214  1.5289  0.8520
  388TMC3    H1 5804   0.469   4.029  10.338  2.2050 -1.1100  0.9870
  388TMC3    H2 5805   0.759   4.311  10.449 -0.3085  0.3098 -1.0498
  388TMC3    C7 5806   0.713   4.061  10.431 -0.1625  0.7077  0.5440
  388TMC3    C8 5807   0.635   4.529  10.332  0.3630 -0.3951 -0.3071
  388TMC3    O1 5808   0.827   4.102  10.439 -0.6863  0.0148  1.1290
  388TMC3    O2 5809   0.549   4.614  10.349  0.0150  0.4173 -0.0936
  389MPD2     C 5810   4.454   2.754  11.090  0.0462 -0.1376  0.7493
  389MPD2    C1 5811   4.358   2.665  11.039  0.6918  0.3666  0.6757
  389MPD2    C2 5812   4.255   2.615  11.120 -0.6388 -0.2907  0.1352
  389MPD2    C3 5813   4.254   2.655  11.249  0.3915  1.2664  0.0960
  389MPD2    C4 5814   4.357   2.729  11.302 -0.4736  0.1852  0.0255
  389MPD2    C5 5815   4.453   2.786  11.222 -0.0014 -0.1070 -0.0399
  389MPD2     H 5816   4.180   2.549  11.077 -0.2356 -1.9036  1.9239
  389MPD2    H1 5817   4.367   2.746  11.408  2.0116 -1.6659  0.0742
  389MPD2    H2 5818   4.531   2.802  11.030  0.8868 -2.8088 -0.3088
  389MPD2    H3 5819   4.537   2.838  11.266 -1.0812  0.1872  1.6843
  389MPD2     N 5820   4.156   2.607  11.336  0.4967 -0.3192 -0.7289
  389MPD2    H5 5821   4.153   2.649  11.428  0.1572 -1.2098 -0.3339
  389MPD2    N1 5822   4.370   2.627  10.899 -0.1667  0.3747 -0.6018
  389MPD2    H7 5823   4.458   2.655  10.857  0.3759 -2.3143 -1.3151
  390TMC3    C1 5824   3.963   2.501  11.405 -0.1354  0.6938 -0.1528
  390TMC3    C2 5825   3.904   2.382  11.416 -0.0686 -0.2560 -0.5786
  390TMC3    C3 5826   3.801   2.368  11.499 -0.0389 -0.0823  0.5782
  390TMC3    C4 5827   3.920   2.620  11.468 -0.3609 -0.2522  0.5497
  390TMC3    C5 5828   3.810   2.602  11.549 -0.9260  1.0402 -0.0252
  390TMC3    C6 5829   3.751   2.478  11.562  0.4649  0.1094 -0.4245
  390TMC3     C 5830   4.069   2.505  11.311 -1.1380  0.1324  0.1933
  390TMC3     O 5831   4.064   2.425  11.219 -0.4302  0.2143  0.1556
  390TMC3     H 5832   3.938   2.302  11.351  1.1923  0.3383 -0.6657
  390TMC3    H1 5833   3.957   2.719  11.441 -1.2641 -0.0638  0.0208
  390TMC3    H2 5834   3.656   2.465  11.612  0.9663 -0.0165  0.4970
  390TMC3    C7 5835   3.769   2.717  11.630 -0.4396 -1.0878  0.7366
  390TMC3    C8 5836   3.737   2.234  11.502  0.6299  1.0932  0.2156
  390TMC3    O1 5837   3.809   2.826  11.595 -0.2256  0.4465 -0.2822
  390TMC3    O2 5838   3.748   2.173  11.401  0.1328 -0.0439 -0.2332
  391MPD2     C 5839   3.415   3.584  11.075  0.5409 -0.1534  0.0883
  391MPD2    C1 5840   3.486   3.701  11.055  0.3387 -0.3900  0.0706
  391MPD2    C2 5841   3.474   3.764  10.928 -0.2799 -0.3689 -0.1807
  391MPD2    C3 5842   3.413   3.705  10.826 -0.0557  0.0484  0.1724
  391MPD2    C4 5843   3.338   3.595  10.848 -0.4823 -0.4301  0.3610
  391MPD2    C5 5844   3.344   3.534  10.974 -0.1466  0.3559 -0.3049
  391MPD2     H 5845   3.524   3.858  10.907  0.3571 -0.7820 -0.4913
  391MPD2    H1 5846   3.282   3.533  10.779  0.2273 -0.2441 -0.3775
  391MPD2    H2 5847   3.411   3.538  11.173  0.6141 -0.9536 -0.2902
  391MPD2    H3 5848   3.283   3.445  10.985  0.8617 -0.6206 -2.7810
  391MPD2     N 5849   3.427   3.769  10.703  0.3751 -0.5900 -0.1282
  391MPD2    H5 5850   3.484   3.852  10.713 -0.2406 -0.2609  0.7269
  391MPD2    N1 5851   3.539   3.769  11.168 -0.1763 -0.4066  0.6523
  391MPD2    H7 5852   3.540   3.720  11.256  1.3467 -2.0825 -0.2929
  392TMC3    C1 5853   3.454   3.784  10.467  0.4700  0.7823 -0.3848
  392TMC3    C2 5854   3.420   3.743  10.348 -0.3717  0.3674  0.3503
  392TMC3    C3 5855   3.468   3.810  10.238 -0.1775 -0.1944  0.9739
  392TMC3    C4 5856   3.543   3.888  10.484  0.2605 -0.3390 -0.2960
  392TMC3    C5 5857   3.606   3.933  10.376  0.2045 -0.1045  0.3443
  392TMC3    C6 5858   3.563   3.902  10.248  0.1635 -0.1406 -0.3986
  392TMC3     C 5859   3.394   3.710  10.584 -0.5235 -0.5546 -0.2282
  392TMC3     O 5860   3.325   3.611  10.562 -0.1316  0.1671  0.0893
  392TMC3     H 5861   3.337   3.674  10.343  0.2600 -0.3891  0.3005
  392TMC3    H1 5862   3.588   3.920  10.577  0.6122 -0.8383 -0.2891
  392TMC3    H2 5863   3.614   3.928  10.156  1.7450 -0.3631  0.4197
  392TMC3    C7 5864   3.703   4.045  10.391 -0.4255 -0.4898 -1.0143
  392TMC3    C8 5865   3.391   3.791  10.116  0.0312 -0.0252 -0.2342
  392TMC3    O1 5866   3.729   4.089  10.500 -0.7125 -0.3698  0.6960
  392TMC3    O2 5867   3.348   3.677  10.092  0.2041  0.1037 -0.4773
  393TMC3    C1 5868   2.580   2.105  10.676 -0.0155 -0.1587  0.5373
  393TMC3    C2 5869   2.477   2.101  10.763 -0.1878  0.1649  0.6609
  393TMC3    C3 5870   2.499   2.142  10.891  0.4538 -0.5457  0.1448
  393TMC3    C4 5871   2.706   2.142  10.719 -0.3144 -0.6112 -0.1040
  393TMC3    C5 5872   2.733   2.172  10.853  0.3677  0.5048 -0.5404
  393TMC3    C6 5873   2.625   2.180  10.941  0.2867 -0.0077 -0.5021
  393TMC3     C 5874   2.558   2.066  10.542 -0.1587  0.6063  0.6661
  393TMC3     O 5875   2.450   2.039  10.500  0.0168 -0.5705  0.4478
  393TMC3     H 5876   2.375   2.080  10.733 -0.5395  0.8642  1.3622
  393TMC3    H1 5877   2.789   2.141  10.649 -2.3924 -0.6932 -2.5282
  393TMC3    H2 5878   2.652   2.197  11.044  1.6243  1.0086 -1.0305
  393TMC3    C7 5879   2.860   2.225  10.888 -0.5377  0.1969  0.1397
  393TMC3    C8 5880   2.378   2.157  10.971  0.7185 -0.4504 -0.1045
  393TMC3    O1 5881   2.862   2.301  10.986  0.1609 -0.3528 -0.1894
  393TMC3    O2 5882   2.277   2.093  10.944  0.4927  0.4451 -0.6634
  394TMC3    C1 5883   4.347   2.507  10.691  0.2656  0.0316 -0.0471
  394TMC3    C2 5884   4.268   2.431  10.616 -0.8029 -0.1809  0.7552
  394TMC3    C3 5885   4.310   2.405  10.493  0.3968 -0.0149  0.7141
  394TMC3    C4 5886   4.468   2.560  10.651  0.2641 -0.2597  0.0228
  394TMC3    C5 5887   4.510   2.521  10.526  0.6903 -0.2293 -0.0835
  394TMC3    C6 5888   4.437   2.442  10.440  0.2792 -0.5100  0.0557
  394TMC3     C 5889   4.297   2.537  10.828 -0.2480 -0.3597  0.6354
  394TMC3     O 5890   4.190   2.490  10.860 -0.1375 -0.2235 -1.0392
  394TMC3     H 5891   4.165   2.417  10.647 -0.5330 -2.7573  0.5025
  394TMC3    H1 5892   4.515   2.644  10.701 -1.3457  0.9931 -0.5330
  394TMC3    H2 5893   4.473   2.429  10.339  0.6456 -0.3515  0.1671
  394TMC3    C7 5894   4.644   2.560  10.490  0.1531 -0.2271  0.7275
  394TMC3    C8 5895   4.221   2.342  10.401  0.2903 -0.4044  0.8339
  394TMC3    O1 5896   4.697   2.661  10.531  0.3959  0.1486  0.4983
  394TMC3    O2 5897   4.200   2.385  10.287  0.0581 -0.0365  0.7967
  395TMC3    C1 5898   3.390   0.165  14.107 -0.2852  0.1358  0.6008
  395TMC3    C2 5899   3.328   0.099  14.200 -0.5420 -0.3180 -0.5561
  395TMC3    C3 5900   3.304   0.164  14.313 -0.3179 -0.3078 -0.1968
  395TMC3    C4 5901   3.456   0.285  14.136 -0.3228  0.0896 -0.7256
  395TMC3    C5 5902   3.426   0.350  14.253 -0.2951 -0.5381  0.0929
  395TMC3    C6 5903   3.350   0.289  14.345 -0.4784 -0.1064 -0.7089
  395TMC3     C 5904   3.491   0.079  14.059  0.2053 -0.1614 -0.3967
  395TMC3     O 5905   3.600   0.125  14.088  0.0170  0.1951 -0.7246
  395TMC3     H 5906   3.262   0.014  14.185  0.1026 -0.5943 -1.7889
  395TMC3    H1 5907   3.507   0.328  14.050  0.4817 -0.5242 -0.5540
  395TMC3    H2 5908   3.327   0.341  14.437  1.4661  0.0011 -0.2970
  395TMC3    C7 5909   3.546   0.392  14.319 -0.4184 -0.0618 -0.0522
  395TMC3    C8 5910   3.338   0.087  14.434  0.0195 -0.3163 -0.0324
  395TMC3    O1 5911   3.533   0.484  14.398 -0.2208 -0.5543 -0.1760
  395TMC3    O2 5912   3.414   0.143  14.511  0.5201 -0.3608 -0.0558
  396MPD2     C 5913   2.950   1.289  16.933 -0.2298 -0.4279 -0.9985
  396MPD2    C1 5914   3.062   1.207  16.935 -0.6446 -0.6261  0.1636
  396MPD2    C2 5915   3.186   1.264  16.909  0.2963  0.1300  0.1274
  396MPD2    C3 5916   3.200   1.393  16.864  0.0921  0.1407 -0.1688
  396MPD2    C4 5917   3.091   1.470  16.868 -0.1993 -0.3287  0.4869
  396MPD2    C5 5918   2.968   1.425  16.910 -0.0321 -0.7483  0.3633
  396MPD2     H 5919   3.278   1.212  16.890 -0.5531 -0.9923 -0.9051
  396MPD2    H1 5920   3.099   1.577  16.849 -0.5206 -0.5566 -0.9788
  396MPD2    H2 5921   2.853   1.252  16.961  0.5072  0.6976  3.1113
  396MPD2    H3 5922   2.884   1.493  16.906  0.9782  0.4540 -0.2825
  396MPD2     N 5923   3.333   1.429  16.829  0.5185 -0.4595 -0.0828
  396MPD2    H5 5924   3.419   1.376  16.837  0.3910 -0.7460 -0.5863
  396MPD2    N1 5925   3.044   1.073  16.979 -0.3230  0.4782 -0.3458
  396MPD2    H7 5926   2.951   1.044  17.006 -0.3347 -2.0244 -2.9689
  397TMC3    C1 5927   3.103   0.864  17.048 -0.8920 -0.2982 -0.5346
  397TMC3    C2 5928   3.057   0.794  16.942  0.2333 -0.0080 -0.3823
  397TMC3    C3 5929   3.127   0.680  16.907  1.0321 -0.4908  0.0390
  397TMC3    C4 5930   3.194   0.807  17.130 -0.0940 -0.5499  0.0657
  397TMC3    C5 5931   3.235   0.680  17.112  0.3218  0.2785 -0.3202
  397TMC3    C6 5932   3.196   0.610  17.003  0.3287 -0.5503 -1.3024
  397TMC3     C 5933   3.148   0.986  16.991 -0.0976  0.4749 -0.5397
  397TMC3     O 5934   3.270   1.012  17.007  0.1348 -0.0878  0.1738
  397TMC3     H 5935   2.999   0.846  16.867 -0.8401 -0.7086 -0.0420
  397TMC3    H1 5936   3.239   0.867  17.208 -1.5896 -0.6420  0.9970
  397TMC3    H2 5937   3.237   0.515  16.969  2.6538 -0.4743  1.2933
  397TMC3    C7 5938   3.357   0.633  17.173  0.4807 -0.1020  0.1958
  397TMC3    C8 5939   3.217   0.702  16.794 -0.3048  0.1564  0.3983
  397TMC3    O1 5940   3.415   0.544  17.111  0.6063 -0.0674  0.3394
  397TMC3    O2 5941   3.193   0.804  16.728 -0.3431 -0.1848  0.0113
  398MPD2     C 5942   1.511   1.643   0.264 -0.0652 -0.3772 -0.8496
  398MPD2    C1 5943   1.592   1.719   0.345 -0.0221 -0.1385  0.3981
  398MPD2    C2 5944   1.670   1.818   0.285  0.6886  0.1959  0.3123
  398MPD2    C3 5945   1.665   1.835   0.148 -0.4050 -0.1738  0.1764
  398MPD2    C4 5946   1.594   1.748   0.072  0.1309 -0.2908  0.1371
  398MPD2    C5 5947   1.510   1.659   0.131 -0.5265 -0.2344  0.3332
  398MPD2     H 5948   1.742   1.871   0.346  0.5814 -0.2691  0.8471
  398MPD2    H1 5949   1.576   1.755  17.641 -0.6035  0.1355  0.2937
  398MPD2    H2 5950   1.449   1.565   0.307  2.1022 -2.9364 -2.3916
  398MPD2    H3 5951   1.445   1.588   0.081 -0.1818  0.3101 -0.8821
  398MPD2     N 5952   1.737   1.940   0.094 -0.3981  0.1308  0.1131
  398MPD2    H5 5953   1.788   1.998   0.160 -2.1140  1.7070  0.0752
  398MPD2    N1 5954   1.606   1.696   0.485  0.3082  0.0962 -0.0735
  398MPD2    H7 5955   1.677   1.753   0.528  0.8160 -1.0351  0.5897
  399TMC3    C1 5956   1.594   1.601   0.696  0.0387  0.4440  0.9012
  399TMC3    C2 5957   1.725   1.624   0.696 -0.6719 -0.5032 -0.2542
  399TMC3    C3 5958   1.792   1.584   0.813  0.2368 -0.7209 -0.5438
  399TMC3    C4 5959   1.525   1.546   0.802 -0.5329  0.1676  0.7156
  399TMC3    C5 5960   1.596   1.511   0.910  0.3174 -0.3345  0.1514
  399TMC3    C6 5961   1.733   1.524   0.918  0.4184  0.1297 -0.7755
  399TMC3     C 5962   1.531   1.617   0.565 -0.2371  0.0934  0.1041
  399TMC3     O 5963   1.433   1.549   0.539  0.4051  0.2728 -0.5021
  399TMC3     H 5964   1.785   1.654   0.611 -0.1952 -1.3304 -0.2144
  399TMC3    H1 5965   1.417   1.552   0.805 -0.5533 -0.8789  1.9644
  399TMC3    H2 5966   1.792   1.477   0.997  3.0510  4.0932 -0.3958
  399TMC3    C7 5967   1.549   1.397   0.984 -0.7830  0.7099  0.6800
  399TMC3    C8 5968   1.937   1.578   0.793  0.6218  0.0741  0.5474
  399TMC3    O1 5969   1.630   1.315   1.014  1.0679  0.9471 -0.0010
  399TMC3    O2 5970   1.991   1.508   0.879  0.6317  0.1697 -0.1106
  400TMC3    C1 5971   4.702   0.336  16.676  0.8059 -0.6266 -0.6524
  400TMC3    C2 5972   4.586   0.259  16.679 -0.4009 -0.2041 -0.5653
  400TMC3    C3 5973   4.474   0.318  16.622  0.6619 -0.3673  0.2802
  400TMC3    C4 5974   4.709   0.467  16.627 -1.0090  0.4149 -0.1042
  400TMC3    C5 5975   4.589   0.523  16.598  0.9995  0.5824  0.0312
  400TMC3    C6 5976   4.479   0.446  16.582  0.7530  0.8605 -0.3389
  400TMC3     C 5977   0.111   0.271  16.712 -0.4615 -0.2885  0.1567
  400TMC3     O 5978   0.111   0.196  16.807 -0.3938  0.0314  0.1741
  400TMC3     H 5979   4.587   0.155  16.709  0.0870  0.4844  1.8180
  400TMC3    H1 5980   0.085   0.522  16.627 -2.3215  2.6723  1.3902
  400TMC3    H2 5981   4.403   0.497  16.524  1.1293  1.4074 -0.3493
  400TMC3    C7 5982   4.586   0.667  16.565 -0.2426 -0.0614  0.4138
  400TMC3    C8 5983   4.387   0.242  16.542  0.0145  0.8581  0.3573
  400TMC3    O1 5984   4.510   0.695  16.474 -0.1177 -0.2807  0.1573
  400TMC3    O2 5985   4.344   0.279  16.434 -0.1938 -0.0613 -0.1254
  401MPD2     C 5986   3.852   0.210   1.308 -0.1850 -0.7918 -0.3209
  401MPD2    C1 5987   3.858   0.117   1.210  0.0032 -0.2522  0.3638
  401MPD2    C2 5988   3.749   0.061   1.160  0.5340  0.8549  0.3308
  401MPD2    C3 5989   3.625   0.090   1.209  0.6488  0.2242  0.2910
  401MPD2    C4 5990   3.609   0.184   1.309 -0.4539 -0.2337 -0.1400
  401MPD2    C5 5991   3.724   0.243   1.360 -0.0579  0.2388 -0.2509
  401MPD2     H 5992   3.764   4.696   1.092 -0.2637  0.8237  0.1907
  401MPD2    H1 5993   3.513   0.229   1.335  0.5347  1.7432  0.1051
  401MPD2    H2 5994   3.943   0.246   1.354 -0.3691  1.1381 -1.4209
  401MPD2    H3 5995   3.708   0.315   1.440  0.4222  3.2436 -2.8558
  401MPD2     N 5996   3.511   0.016   1.159  0.2736 -0.3679  0.5351
  401MPD2    H5 5997   3.532   4.662   1.091  1.0383 -1.1143  1.5491
  401MPD2    N1 5998   3.981   0.065   1.175  0.2717  0.6007  0.2772
  401MPD2    H7 5999   3.982   4.700   1.116 -0.0429  0.2842  0.7196
  402TMC3    C1 6000   3.306   4.625   1.139  0.1567 -1.1499 -0.1368
  402TMC3    C2 6001   3.260   4.526   1.223 -0.0738  0.5451 -0.0912
  402TMC3    C3 6002   3.241   4.399   1.174 -0.4421 -0.1286 -0.2155
  402TMC3    C4 6003   3.342   4.593   1.011 -0.7488 -0.1819 -0.3575
  402TMC3    C5 6004   3.333   4.465   0.972  0.3572 -0.1235  0.0316
  402TMC3    C6 6005   3.282   4.365   1.047 -0.2149 -0.1825  0.6472
  402TMC3     C 6006   3.381   0.010   1.205 -0.1158  0.0662  0.6311
  402TMC3     O 6007   3.335   0.063   1.302 -0.0047 -0.1592 -0.1963
  402TMC3     H 6008   3.253   4.547   1.329  0.9811  0.6051 -0.0327
  402TMC3    H1 6009   3.361   4.679   0.948 -1.5838  0.3020  0.0526
  402TMC3    H2 6010   3.284   4.262   1.013  0.3690 -0.6547  2.1067
  402TMC3    C7 6011   3.382   4.434   0.834  0.8973  0.2802  0.3332
  402TMC3    C8 6012   3.237   4.282   1.258 -0.7222  0.3287 -0.3041
  402TMC3    O1 6013   3.372   4.518   0.747  0.1263 -0.1049 -0.2414
  402TMC3    O2 6014   3.187   4.181   1.214 -0.4799  0.0058 -0.1118
  403MPD2     C 6015   1.161   2.673  14.007  0.4391  0.1060  0.2893
  403MPD2    C1 6016   1.234   2.554  13.995  0.0149  0.5255  0.6390
  403MPD2    C2 6017   1.348   2.529  14.072  0.2269  0.2403  0.1570
  403MPD2    C3 6018   1.395   2.629  14.161  0.4066  0.3801 -0.7106
  403MPD2    C4 6019   1.321   2.742  14.168 -0.5309 -0.7160  0.6032
  403MPD2    C5 6020   1.206   2.761  14.103  0.5948 -0.0089  0.0851
  403MPD2     H 6021   1.399   2.434  14.069  1.3009  0.7763  1.4454
  403MPD2    H1 6022   1.356   2.826  14.227  0.7449 -0.7053 -0.1687
  403MPD2    H2 6023   1.068   2.693  13.954  1.8381  4.5534 -0.4413
  403MPD2    H3 6024   1.163   2.859  14.116 -0.2913 -0.3391 -0.3175
  403MPD2     N 6025   1.514   2.610  14.237  0.8011  0.6629  0.5320
  403MPD2    H5 6026   1.573   2.531  14.211  0.6113  1.3888 -2.0642
  403MPD2    N1 6027   1.185   2.463  13.903 -0.2808  0.5453  0.3717
  403MPD2    H7 6028   1.116   2.497  13.837  0.3281  0.0853 -0.4837
  404TMC3    C1 6029   1.158   2.263  13.788  0.9855  0.3110 -0.0726
  404TMC3    C2 6030   1.185   2.130  13.795 -0.8887 -0.3342  0.3218
  404TMC3    C3 6031   1.236   2.061  13.686  0.4862 -0.0915  0.5166
  404TMC3    C4 6032   1.171   2.328  13.665  0.9019 -0.8043  0.3886
  404TMC3    C5 6033   1.208   2.254  13.558 -0.0920 -0.9119  0.6651
  404TMC3    C6 6034   1.252   2.124  13.567 -0.3896  0.2012 -0.6200
  404TMC3     C 6035   1.220   2.328  13.902  1.1325  0.4970  0.7115
  404TMC3     O 6036   1.280   2.260  13.982  0.5262 -0.2786  0.5312
  404TMC3     H 6037   1.186   2.084  13.893 -0.3021 -3.4974 -1.1366
  404TMC3    H1 6038   1.164   2.435  13.647 -2.4444 -0.9461  0.7316
  404TMC3    H2 6039   1.290   2.064  13.485 -0.0913  1.2333 -1.2400
  404TMC3    C7 6040   1.231   2.323  13.436  0.1973  0.2345  0.4185
  404TMC3    C8 6041   1.346   1.969  13.721  0.2634 -1.0238 -0.1117
  404TMC3    O1 6042   1.218   2.447  13.429  0.0444 -0.1562 -0.1986
  404TMC3    O2 6043   1.438   1.959  13.640  0.5889  0.3247  0.5354
  405MPD2     C 6044   2.187   2.892  15.097 -0.0586  0.1897  0.7568
  405MPD2    C1 6045   2.137   2.804  15.009  0.1585  0.1743  0.9338
  405MPD2    C2 6046   2.014   2.845  14.961  0.3505 -0.8052  0.2475
  405MPD2    C3 6047   1.952   2.964  14.989 -0.8377  0.1297  0.1736
  405MPD2    C4 6048   2.015   3.053  15.066  0.0612  0.1326 -0.4675
  405MPD2    C5 6049   2.140   3.016  15.113  0.2493  0.3457  0.6076
  405MPD2     H 6050   1.957   2.788  14.888  1.4442 -0.3714 -0.9314
  405MPD2    H1 6051   1.978   3.151  15.096  0.5747  0.3784 -0.6377
  405MPD2    H2 6052   2.286   2.885  15.141 -0.2454  0.1619  1.1657
  405MPD2    H3 6053   2.186   3.081  15.186 -0.0306 -1.0509  2.0365
  405MPD2     N 6054   1.827   2.984  14.925  0.8308  0.1908  1.1087
  405MPD2    H5 6055   1.800   2.931  14.843  0.4472  2.0947  0.0194
  405MPD2    N1 6056   2.199   2.679  14.981  0.0617 -0.4645  0.5744
  405MPD2    H7 6057   2.278   2.657  15.041  0.7983 -1.7237 -0.8771
  406TMC3    C1 6058   1.374   3.065  14.910 -0.2992  0.0806 -0.1145
  406TMC3    C2 6059   1.365   2.945  14.844 -0.3159 -0.1278  0.5148
  406TMC3    C3 6060   1.480   2.888  14.802  0.1042  0.9601 -0.3104
  406TMC3    C4 6061   1.496   3.111  14.948 -0.3593 -0.1741  0.7638
  406TMC3    C5 6062   1.612   3.057  14.894  0.2892 -0.1357  0.1121
  406TMC3    C6 6063   1.603   2.949  14.816  0.0802 -0.1080  0.4718
  406TMC3     C 6064   1.251   3.144  14.919 -0.1452  0.7664  0.1570
  406TMC3     O 6065   1.153   3.074  14.905  0.5417 -0.1580 -0.2985
  406TMC3     H 6066   1.273   2.888  14.832 -0.4778  0.6407 -1.8467
  406TMC3    H1 6067   1.502   3.205  15.002 -1.5607 -0.0393  0.6733
  406TMC3    H2 6068   1.682   2.920  14.748 -0.3675 -2.2111  0.8611
  406TMC3    C7 6069   1.735   3.065  14.972 -0.0153  0.0421  0.4491
  406TMC3    C8 6070   1.466   2.754  14.740 -0.1706  0.1878  0.2010
  406TMC3    O1 6071   1.731   3.110  15.086  0.3105  0.5494 -0.5026
  406TMC3    O2 6072   1.352   2.707  14.721  0.1697 -0.3726 -0.3937
  407MPD2     C 6073   0.118   3.478   9.283  0.7017 -1.1883  0.4048
  407MPD2    C1 6074   0.126   3.424   9.408  0.5979  0.9324  0.2140
  407MPD2    C2 6075   0.085   3.499   9.512 -0.3326 -0.8465  0.1971
  407MPD2    C3 6076   0.011   3.616   9.496  0.4658 -0.7066 -0.0044
  407MPD2    C4 6077   0.005   3.672   9.370 -0.0359  0.6802 -0.4680
  407MPD2    C5 6078   0.059   3.603   9.264  0.6392  0.4355  0.5643
  407MPD2     H 6079   0.099   3.452   9.609 -0.7598 -1.9329 -0.2704
  407MPD2    H1 6080   4.657   3.754   9.343  0.2496 -0.3487 -4.1912
  407MPD2    H2 6081   0.155   3.427   9.195 -2.6726 -1.1515 -1.0028
  407MPD2    H3 6082   0.039   3.634   9.162  2.0637  0.3651  0.2608
  407MPD2     N 6083   4.670   3.682   9.606 -0.3086 -0.3451 -0.4078
  407MPD2    H5 6084   4.620   3.768   9.586 -0.5874  0.3659  3.3665
  407MPD2    N1 6085   0.188   3.298   9.436 -0.3771  0.4258  0.3073
  407MPD2    H7 6086   0.207   3.274   9.532  3.7305 -0.7473 -0.7804
  408TMC3    C1 6087   0.275   3.075   9.383  0.1397  0.9468  0.2377
  408TMC3    C2 6088   0.379   3.090   9.476  0.1885  0.3877 -0.4079
  408TMC3    C3 6089   0.398   2.989   9.556  0.2918 -0.0532  0.6200
  408TMC3    C4 6090   0.192   2.960   9.377  0.5008  0.4658 -0.0762
  408TMC3    C5 6091   0.225   2.859   9.463  0.6788 -0.3694 -0.1385
  408TMC3    C6 6092   0.326   2.876   9.557 -0.4155 -0.6254 -0.4425
  408TMC3     C 6093   0.209   3.199   9.336 -0.3090 -0.0184 -0.0963
  408TMC3     O 6094   0.154   3.194   9.224 -0.4301  0.6722  0.7492
  408TMC3     H 6095   0.443   3.177   9.465  0.3255  0.1789 -1.2895
  408TMC3    H1 6096   0.110   2.963   9.306 -2.3775 -1.5221  3.1825
  408TMC3    H2 6097   0.343   2.800   9.632  0.5677  2.3238  2.3123
  408TMC3    C7 6098   0.165   2.727   9.449  1.2394  0.0166  0.1105
  408TMC3    C8 6099   0.523   2.991   9.629  0.3064  0.8489 -0.1663
  408TMC3    O1 6100   0.174   2.657   9.546 -0.5976 -0.9954 -0.2287
  408TMC3    O2 6101   0.582   2.887   9.661 -0.2316  0.4264  0.4130
  409MPD2     C 6102   3.863   4.519  16.753  0.1061 -0.6374  0.0833
  409MPD2    C1 6103   3.926   4.583  16.850  0.4570  0.1321 -0.4163
  409MPD2    C2 6104   3.951   4.717  16.842  0.4137 -0.1954 -0.0895
  409MPD2    C3 6105   3.922   0.066  16.723  0.3220 -0.0613  0.9181
  409MPD2    C4 6106   3.881   4.714  16.615  0.7454  0.2020  1.3782
  409MPD2    C5 6107   3.847   4.585  16.632 -0.2748 -0.2398  0.8686
  409MPD2     H 6108   3.987   0.061  16.924 -2.0428  0.1571  0.7139
  409MPD2    H1 6109   3.868   0.044  16.519 -0.9605 -2.0633  0.4802
  409MPD2    H2 6110   3.839   4.413  16.757  0.3688 -0.8178 -3.3055
  409MPD2    H3 6111   3.804   4.529  16.550  0.6496  0.4219 -0.0642
  409MPD2     N 6112   3.961   0.204  16.703  0.0358  0.5685 -0.1793
  409MPD2    H5 6113   3.975   0.233  16.607  3.0145 -0.6835 -0.1205
  409MPD2    N1 6114   3.953   4.514  16.972 -0.1785 -0.4067 -0.0051
  409MPD2    H7 6115   3.976   4.572  17.052  1.5585  0.1998 -0.9408
  410TMC3    C1 6116   4.058   0.406  16.764  0.0709  0.1340  0.3417
  410TMC3    C2 6117   4.156   0.445  16.849 -0.1991 -0.3373  0.2099
  410TMC3    C3 6118   4.247   0.543  16.816  0.5497  0.5355  0.2918
  410TMC3    C4 6119   4.030   0.479  16.652  0.3162  0.0311 -0.4702
  410TMC3    C5 6120   4.118   0.584  16.615 -0.2433  0.0892 -0.2664
  410TMC3    C6 6121   4.230   0.613  16.698  1.4136  0.7074 -0.7247
  410TMC3     C 6122   3.986   0.292  16.801  0.5034  0.0746  0.3625
  410TMC3     O 6123   3.984   0.283  16.922 -0.7004  0.5669  0.3605
  410TMC3     H 6124   4.169   0.402  16.948 -0.4916  0.0368  0.4123
  410TMC3    H1 6125   3.957   0.438  16.584 -0.8034  1.0738  0.1169
  410TMC3    H2 6126   4.312   0.679  16.673  2.5212 -0.2927  0.2372
  410TMC3    C7 6127   4.104   0.626  16.476 -0.2547  0.7969 -1.1123
  410TMC3    C8 6128   4.375   0.561  16.886  0.1247  0.7081  0.2032
  410TMC3    O1 6129   4.012   0.575  16.406 -0.5290  0.6361  0.2748
  410TMC3    O2 6130   4.451   0.652  16.853  0.1104 -0.1155  0.5065
  411MPD2     C 6131   4.120   0.731  14.455  0.2777  0.2830  0.2148
  411MPD2    C1 6132   4.032   0.822  14.393 -0.1825  0.4503 -0.1925
  411MPD2    C2 6133   3.923   0.773  14.312 -0.6414 -0.4021 -0.6154
  411MPD2    C3 6134   3.917   0.635  14.286  0.1275  0.1233  0.0367
  411MPD2    C4 6135   4.002   0.547  14.348 -0.1981  0.4042  0.0499
  411MPD2    C5 6136   4.101   0.600  14.428  0.4709 -0.3492 -0.5568
  411MPD2     H 6137   3.872   0.845  14.250  0.2886  0.6202 -0.1882
  411MPD2    H1 6138   4.005   0.440  14.329 -1.1172  0.5345 -0.8910
  411MPD2    H2 6139   4.199   0.753  14.526  1.2888  2.9149 -1.7323
  411MPD2    H3 6140   4.174   0.539  14.479 -0.2153 -0.4667  0.2973
  411MPD2     N 6141   3.836   0.586  14.179  0.4324 -0.8899 -0.2069
  411MPD2    H5 6142   3.845   0.489  14.151 -1.3855 -1.1588  0.1309
  411MPD2    N1 6143   4.035   0.962  14.411  0.2826  0.0845  0.4114
  411MPD2    H7 6144   3.956   1.004  14.363 -0.3626  1.3376  2.6076
  412TMC3    C1 6145   3.674   0.591  14.000 -0.6266  0.5326 -0.0650
  412TMC3    C2 6146   3.618   0.666  13.903  0.0385  0.2281 -0.4286
  412TMC3    C3 6147   3.615   0.622  13.776  0.2061 -0.0318  0.0948
  412TMC3    C4 6148   3.715   0.461  13.963  0.2162  0.5603  0.3469
  412TMC3    C5 6149   3.687   0.408  13.836  0.1610  0.8919  0.5697
  412TMC3    C6 6150   3.637   0.489  13.744  0.3847 -0.1116 -0.2681
  412TMC3     C 6151   3.731   0.658  14.119 -0.6524  0.0921  0.5101
  412TMC3     O 6152   3.690   0.773  14.146 -0.0044  0.0836 -0.9820
  412TMC3     H 6153   3.605   0.770  13.933  0.1552  0.5371 -1.4377
  412TMC3    H1 6154   3.760   0.398  14.038 -1.5362 -1.6291 -0.4461
  412TMC3    H2 6155   3.635   0.446  13.644 -1.1785 -0.9536  0.1201
  412TMC3    C7 6156   3.818   0.350  13.790 -0.4347 -0.8179  0.5071
  412TMC3    C8 6157   3.657   0.711  13.677  0.1833 -0.7435  0.0791
  412TMC3    O1 6158   3.823   0.231  13.799  0.4556 -1.1473 -0.1171
  412TMC3    O2 6159   3.680   0.660  13.575  0.1378 -0.7110  0.0647
  413MPD2     C 6160   1.317   4.174  15.394  0.4594 -0.1110 -0.0364
  413MPD2    C1 6161   1.232   4.111  15.315 -0.7415 -0.3435  0.4686
  413MPD2    C2 6162   1.230   3.974  15.321 -0.7542 -1.1473  0.0904
  413MPD2    C3 6163   1.323   3.903  15.399 -0.2908 -0.4126  0.0079
  413MPD2    C4 6164   1.399   3.978  15.489 -0.8343  0.0524 -0.3946
  413MPD2    C5 6165   1.387   4.113  15.490  0.0768 -0.5415  0.6928
  413MPD2     H 6166   1.172   3.912  15.254 -1.6063 -0.6897  0.4096
  413MPD2    H1 6167   1.469   3.939  15.562 -0.9257 -1.1683 -0.9553
  413MPD2    H2 6168   1.321   4.282  15.403  0.2412  0.0641 -2.2248
  413MPD2    H3 6169   1.438   4.178  15.560 -2.4608 -0.4371  2.4252
  413MPD2     N 6170   1.333   3.758  15.377 -0.0889 -0.1473 -1.1390
  413MPD2    H5 6171   1.283   3.710  15.303  0.4268 -2.3837 -0.0396
  413MPD2    N1 6172   1.153   4.186  15.226  0.3126 -0.0622  0.3907
  413MPD2    H7 6173   1.185   4.281  15.211 -3.0617  1.0516  0.2455
  414TMC3    C1 6174   1.462   3.560  15.380 -0.2637  0.1237  0.6975
  414TMC3    C2 6175   1.505   3.456  15.457  0.2920 -0.3327 -0.4645
  414TMC3    C3 6176   1.544   3.340  15.402 -0.2137  0.1345  0.0077
  414TMC3    C4 6177   1.464   3.556  15.244  0.3631  0.3768 -0.4706
  414TMC3    C5 6178   1.507   3.435  15.190  0.0302  0.5477  0.2211
  414TMC3    C6 6179   1.555   3.332  15.271  0.4456 -0.0004  0.2889
  414TMC3     C 6180   1.431   3.687  15.444  0.1743  0.0288  0.1045
  414TMC3     O 6181   1.482   3.708  15.556 -0.6272  0.3738 -0.0852
  414TMC3     H 6182   1.486   3.469  15.563 -3.1724  0.1590 -1.1250
  414TMC3    H1 6183   1.440   3.640  15.180  2.1139  0.7601 -0.6211
  414TMC3    H2 6184   1.598   3.244  15.224  0.4927 -0.9566  2.1040
  414TMC3    C7 6185   1.573   3.447  15.062 -0.0483 -0.4462 -0.1926
  414TMC3    C8 6186   1.612   3.243  15.477 -0.0268  0.1306 -0.2448
  414TMC3    O1 6187   1.507   3.471  14.962 -0.5601  0.3488  0.5960
  414TMC3    O2 6188   1.617   3.132  15.427 -0.0026 -0.3966  0.2258
  415TMC3    C1 6189   2.073   1.198   9.791 -0.0256  1.0496 -0.5284
  415TMC3    C2 6190   2.211   1.190   9.766  0.2099  0.1715  0.2557
  415TMC3    C3 6191   2.245   1.131   9.638 -0.0036 -0.3549  0.2451
  415TMC3    C4 6192   1.977   1.155   9.704 -0.0713  0.4940 -0.4680
  415TMC3    C5 6193   2.017   1.101   9.582  0.7065  0.4074  0.3147
  415TMC3    C6 6194   2.155   1.086   9.550  0.1287  0.2690  0.2484
  415TMC3     C 6195   2.031   1.201   9.931  0.0794  0.8090  0.3271
  415TMC3     O 6196   1.917   1.162   9.956  0.3209 -0.0422  0.6313
  415TMC3     H 6197   2.293   1.220   9.830  0.4782  0.3773 -0.1849
  415TMC3    H1 6198   1.876   1.189   9.722 -0.3386 -0.0513 -0.9297
  415TMC3    H2 6199   2.188   1.031   9.462 -0.2627  0.2055  0.1414
  415TMC3    C7 6200   1.935   0.995   9.525  0.5535  0.1074  0.2197
  415TMC3    C8 6201   2.377   1.082   9.619  0.2219  0.1953 -0.6221
  415TMC3    O1 6202   1.963   0.946   9.414 -0.3404  0.0349  0.1190
  415TMC3    O2 6203   2.393   0.978   9.557  0.0845 -0.0979 -0.1979
  416MPD2     C 6204   3.549   0.519  11.729 -0.5021 -0.3156  0.2070
  416MPD2    C1 6205   3.457   0.556  11.633  0.8993  0.2786  0.0289
  416MPD2    C2 6206   3.400   0.463  11.551  0.1688  0.0934  0.8540
  416MPD2    C3 6207   3.418   0.331  11.582  0.3885  0.4395  0.2537
  416MPD2    C4 6208   3.513   0.289  11.679  0.0572 -0.0187 -0.0031
  416MPD2    C5 6209   3.583   0.389  11.746 -0.2937  0.0242  0.2131
  416MPD2     H 6210   3.320   0.497  11.486 -0.7552 -1.0983  1.3621
  416MPD2    H1 6211   3.557   0.190  11.673  1.5785  0.6066  0.6906
  416MPD2    H2 6212   3.599   0.593  11.791  0.5174  0.0109 -1.0110
  416MPD2    H3 6213   3.670   0.361  11.804 -1.9340 -0.8165  2.2827
  416MPD2     N 6214   3.352   0.229  11.511  0.0356  0.0094 -0.1977
  416MPD2    H5 6215   3.382   0.134  11.531 -0.8869 -0.0125  1.0116
  416MPD2    N1 6216   3.428   0.687  11.617  0.5760 -0.0898 -0.1475
  416MPD2    H7 6217   3.483   0.754  11.670 -1.8984  1.5325  0.3663
  417TMC3    C1 6218   3.308   0.888  11.598  1.2120 -0.0319  0.5583
  417TMC3    C2 6219   3.346   0.931  11.726 -0.0850 -0.2749  0.0610
  417TMC3    C3 6220   3.293   1.039  11.778 -0.7679  0.9394  0.6352
  417TMC3    C4 6221   3.218   0.965  11.529  0.0002 -0.0814  0.3286
  417TMC3    C5 6222   3.163   1.073  11.579 -0.2801 -0.6394  0.4280
  417TMC3    C6 6223   3.200   1.116  11.710  0.6634  0.0200  0.0098
  417TMC3     C 6224   3.313   0.739  11.563 -0.1885  0.5669 -0.2513
  417TMC3     O 6225   3.229   0.684  11.496  0.1395 -0.4999 -0.2668
  417TMC3     H 6226   3.414   0.876  11.791  1.3679 -1.6421 -2.6067
  417TMC3    H1 6227   3.171   0.927  11.438  0.1031  0.2005  0.1585
  417TMC3    H2 6228   3.163   1.206  11.758 -0.1391  0.8450 -2.1256
  417TMC3    C7 6229   3.042   1.126  11.518 -0.0202  0.5420  0.0353
  417TMC3    C8 6230   3.304   1.062  11.914  0.0348 -0.4893  0.1743
  417TMC3    O1 6231   3.050   1.159  11.401 -0.0453 -0.3162  0.2148
  417TMC3    O2 6232   3.348   1.165  11.962  0.3738 -0.3384 -0.0789
  418TMC3    C1 6233   1.991   2.230  17.499  0.5984  0.4930 -0.6220
  418TMC3    C2 6234   1.894   2.134  17.505 -0.4326 -0.2773 -0.2029
  418TMC3    C3 6235   1.831   2.100  17.624  0.6283  0.4593  0.5324
  418TMC3    C4 6236   2.033   2.300  17.612  0.4175  0.0286 -0.3063
  418TMC3    C5 6237   1.979   2.259   0.057 -0.2815  1.1750  0.7020
  418TMC3    C6 6238   1.877   2.164   0.062 -0.0157  0.1698  0.4237
  418TMC3     C 6239   2.092   2.207  17.398 -0.4516 -0.2977  0.6776
  418TMC3     O 6240   2.106   2.299  17.322 -0.1487 -0.0474  0.6045
  418TMC3     H 6241   1.856   2.078  17.420 -0.2501  0.0526 -0.5017
  418TMC3    H1 6242   2.126   2.357  17.613  0.8654 -0.6993 -0.5650
  418TMC3    H2 6243   1.843   2.148   0.164 -1.7885 -1.9970 -0.5231
  418TMC3    C7 6244   2.077   2.257   0.158  0.2896 -0.1820 -0.0469
  418TMC3    C8 6245   1.757   1.974  17.637  0.6115  0.0422  0.6797
  418TMC3    O1 6246   2.108   2.156   0.213  0.3932  0.2566 -0.1195
  418TMC3    O2 6247   1.721   1.913  17.538  0.0151 -0.4347  0.2515
  419MPD2     C 6248   0.905   0.653  11.834 -0.0398  0.3172 -0.1287
  419MPD2    C1 6249   0.897   0.754  11.930 -0.7372 -0.4187 -0.0814
  419MPD2    C2 6250   0.892   0.718  12.062  0.2619 -0.6172  0.0636
  419MPD2    C3 6251   0.883   0.582  12.095 -0.2884 -0.2839  0.3158
  419MPD2    C4 6252   0.893   0.485  11.997 -0.6618  0.0086  0.7231
  419MPD2    C5 6253   0.903   0.522  11.868  0.8733  0.2590  0.0307
  419MPD2     H 6254   0.874   0.793  12.139  0.7152  0.5623 -0.9822
  419MPD2    H1 6255   0.903   0.383  12.034  0.1351 -0.7028 -1.4941
  419MPD2    H2 6256   0.918   0.675  11.729 -0.3945 -1.5602 -0.5649
  419MPD2    H3 6257   0.910   0.442  11.795 -1.3440 -0.0428  0.1234
  419MPD2     N 6258   0.877   0.548  12.236 -0.0118  0.5063  0.5218
  419MPD2    H5 6259   0.883   0.630  12.295 -2.7872 -0.1072  1.6533
  419MPD2    N1 6260   0.930   0.886  11.908 -0.6231  0.2326  0.3118
  419MPD2    H7 6261   0.951   0.935  11.995 -1.6881  0.0110  0.6927
  420TMC3    C1 6262   0.833   0.422  12.432 -0.4107  0.2747 -0.0494
  420TMC3    C2 6263   0.708   0.462  12.474 -0.3050  0.3823 -0.7680
  420TMC3    C3 6264   0.698   0.552  12.580  0.3476  0.4555  0.3500
  420TMC3    C4 6265   0.946   0.471  12.494  0.1257 -0.3485 -0.8212
  420TMC3    C5 6266   0.936   0.548  12.605  0.0391 -0.1408 -0.4431
  420TMC3    C6 6267   0.811   0.601  12.638  0.9192  0.1023  0.0615
  420TMC3     C 6268   0.851   0.422  12.291 -0.1195 -0.9699  0.9187
  420TMC3     O 6269   0.849   0.313  12.238 -0.1658  0.3285 -0.1793
  420TMC3     H 6270   0.632   0.452  12.397 -1.9309 -0.2591  0.9135
  420TMC3    H1 6271   1.048   0.456  12.462  0.4175  0.5898 -0.3354
  420TMC3    H2 6272   0.793   0.676  12.714  2.2533  1.1865 -0.6948
  420TMC3    C7 6273   1.053   0.614  12.652  0.0750  0.8341 -1.0244
  420TMC3    C8 6274   0.575   0.628  12.592 -0.4021  0.2787 -0.0471
  420TMC3    O1 6275   1.158   0.622  12.583 -0.0117 -0.2352 -0.2174
  420TMC3    O2 6276   0.582   0.745  12.614  0.6454 -0.2669  0.0611
  421TMC3    C1 6277   1.713   2.661  14.362 -0.2678 -0.5287 -0.1513
  421TMC3    C2 6278   1.769   2.757  14.448 -0.4501 -0.0816  1.2008
  421TMC3    C3 6279   1.899   2.746  14.475  0.2838  0.6493 -0.1560
  421TMC3    C4 6280   1.787   2.559  14.306 -0.0320  0.4529  0.8858
  421TMC3    C5 6281   1.917   2.546  14.354 -0.1461  0.2795  0.1949
  421TMC3    C6 6282   1.976   2.635  14.440 -0.4615 -0.4587 -0.1327
  421TMC3     C 6283   1.573   2.696  14.326  0.2456  0.7678 -0.0514
  421TMC3     O 6284   1.526   2.797  14.380 -0.4420 -0.3523 -0.2976
  421TMC3     H 6285   1.718   2.845  14.486  0.1536  0.8927 -0.2881
  421TMC3    H1 6286   1.752   2.481  14.239  0.2168 -1.8700  3.4714
  421TMC3    H2 6287   2.070   2.617  14.491 -0.3697  0.5291  0.0371
  421TMC3    C7 6288   2.012   2.448  14.310 -0.5951 -0.8904  0.3439
  421TMC3    C8 6289   1.964   2.831  14.573 -0.0362 -0.1338 -0.4075
  421TMC3    O1 6290   2.122   2.449  14.363  0.4973 -1.3084 -0.1978
  421TMC3    O2 6291   1.889   2.888  14.649 -0.4813  0.3590  0.2848
  422TMC3    C1 6292   0.014   3.464  12.675  0.0378 -0.0968  0.0969
  422TMC3    C2 6293   0.021   3.540  12.792  0.8274  0.4785  0.0253
  422TMC3    C3 6294   4.656   3.512  12.896 -0.6287 -0.3700 -0.4602
  422TMC3    C4 6295   4.640   3.361  12.665  0.6495 -0.1943 -0.6477
  422TMC3    C5 6296   4.570   3.321  12.777  0.0177  0.5607 -0.0188
  422TMC3    C6 6297   4.575   3.399  12.889 -0.4202  0.6281 -0.0430
  422TMC3     C 6298   0.098   3.498  12.557 -0.5086  0.0965 -0.2804
  422TMC3     O 6299   0.130   3.611  12.538  0.1780 -0.1020  0.6787
  422TMC3     H 6300   0.108   3.602  12.812 -0.8003  2.2060  1.7073
  422TMC3    H1 6301   4.619   3.310  12.572  1.5683  0.3987 -1.1902
  422TMC3    H2 6302   4.519   3.358  12.973  3.5476 -0.6303  2.0131
  422TMC3    C7 6303   4.466   3.222  12.744 -0.0645 -0.7776  0.0660
  422TMC3    C8 6304   4.661   3.600  13.012  0.0369  0.8387 -0.0928
  422TMC3    O1 6305   4.501   3.139  12.661  0.4603 -0.4211  0.2228
  422TMC3    O2 6306   0.031   3.679  13.020 -0.2002  0.5536  0.0808
  423MPD2     C 6307   0.536   4.388   0.637 -0.0849  0.5681  0.7953
  423MPD2    C1 6308   0.575   4.259   0.676 -0.8153  0.1336 -0.1207
  423MPD2    C2 6309   0.632   4.175   0.577 -0.2864 -0.8385  0.2205
  423MPD2    C3 6310   0.638   4.218   0.441 -0.1197  0.3703 -0.7152
  423MPD2    C4 6311   0.587   4.340   0.404  0.0049 -0.3541 -0.2808
  423MPD2    C5 6312   0.545   4.423   0.505 -0.0118 -0.5107  0.3728
  423MPD2     H 6313   0.680   4.082   0.604  1.4899  0.1200  0.3996
  423MPD2    H1 6314   0.597   4.379   0.303 -2.6633  0.4308 -0.2380
  423MPD2    H2 6315   0.496   4.464   0.703 -1.5314  1.4781 -1.1435
  423MPD2    H3 6316   0.524   4.525   0.477 -1.9022 -0.9238  0.2991
  423MPD2     N 6317   0.690   4.140   0.334  0.3403 -0.2747 -0.9389
  423MPD2    H5 6318   0.674   4.176   0.241  2.8853 -0.0238 -1.2680
  423MPD2    N1 6319   0.553   4.211   0.807 -0.1539  0.3535  0.5657
  423MPD2    H7 6320   0.582   4.117   0.831  1.4594  0.4884 -0.7763
  424TMC3    C1 6321   0.487   4.210   1.022 -0.6867 -0.6579  0.6495
  424TMC3    C2 6322   0.582   4.127   1.067  0.7044  0.4499  0.1621
  424TMC3    C3 6323   0.549   4.065   1.179  0.2804 -1.4326  0.2761
  424TMC3    C4 6324   0.366   4.233   1.076  0.4576  0.1193  0.1234
  424TMC3    C5 6325   0.337   4.173   1.198 -0.2785 -0.3713  0.4990
  424TMC3    C6 6326   0.432   4.081   1.245 -0.0044 -0.0359  0.1990
  424TMC3     C 6327   0.507   4.283   0.905  0.2851 -0.1869  0.7146
  424TMC3     O 6328   0.464   4.401   0.916  0.5303 -0.3182  0.4801
  424TMC3     H 6329   0.666   4.102   1.003 -0.7318 -1.2377 -1.0578
  424TMC3    H1 6330   0.293   4.304   1.040 -0.4133 -0.1962  1.2589
  424TMC3    H2 6331   0.422   4.036   1.344 -0.7600 -2.5929 -1.0566
  424TMC3    C7 6332   0.217   4.215   1.268 -1.0945  0.5003 -0.4607
  424TMC3    C8 6333   0.619   3.941   1.218 -0.6581 -0.2062 -0.2281
  424TMC3    O1 6334   0.134   4.293   1.219  0.5739 -0.3528  0.2778
  424TMC3    O2 6335   0.559   3.856   1.271 -0.0285 -0.0818 -0.2941
  425MPD2     C 6336   0.342   3.739  17.360 -0.1393  0.7845 -0.4807
  425MPD2    C1 6337   0.254   3.666  17.291 -0.6889  0.1129  0.7636
  425MPD2    C2 6338   0.119   3.695  17.288  0.0935 -0.0310 -0.5233
  425MPD2    C3 6339   0.071   3.795  17.365 -0.0389  0.2143 -0.2946
  425MPD2    C4 6340   0.161   3.868  17.445 -0.0333 -0.2246 -0.2224
  425MPD2    C5 6341   0.296   3.836  17.447 -0.4430 -0.4272 -0.0873
  425MPD2     H 6342   0.051   3.638  17.227  1.8679 -1.1453 -1.4768
  425MPD2    H1 6343   0.131   3.959  17.494 -0.2382  0.4132 -1.5204
  425MPD2    H2 6344   0.448   3.716  17.363 -0.2207  0.4334 -0.2500
  425MPD2    H3 6345   0.356   3.892  17.519  0.2952  1.0749 -1.8584
  425MPD2     N 6346   4.648   3.802  17.371  0.3437 -0.4579  0.0458
  425MPD2    H5 6347   4.595   3.745  17.306  0.7353 -1.4874  0.6396
  425MPD2    N1 6348   0.305   3.551  17.231 -0.2647 -0.0125 -0.8489
  425MPD2    H7 6349   0.397   3.519  17.260 -1.3703 -2.5678 -0.1476
  426TMC3    C1 6350   0.300   3.347  17.106  0.4753 -0.2951  0.1860
  426TMC3    C2 6351   0.300   3.308  16.980 -0.6665  0.0035  0.4654
  426TMC3    C3 6352   0.335   3.173  16.962  0.1731  0.7447  0.4351
  426TMC3    C4 6353   0.334   3.265  17.211 -0.1058 -0.5253 -0.1698
  426TMC3    C5 6354   0.366   3.133  17.183 -0.0567 -0.2528  0.0767
  426TMC3    C6 6355   0.372   3.085  17.055  0.5189 -0.1175  0.5695
  426TMC3     C 6356   0.242   3.478  17.132 -0.2500  0.0299 -0.0196
  426TMC3     O 6357   0.147   3.515  17.057  0.1019  0.0419  0.3248
  426TMC3     H 6358   0.260   3.360  16.893  1.0894  1.6305  0.6234
  426TMC3    H1 6359   0.334   3.304  17.312  2.7118 -2.3229  0.5116
  426TMC3    H2 6360   0.387   2.978  17.049  0.9542  0.0092 -0.6695
  426TMC3    C7 6361   0.307   3.029  17.275  0.3101 -0.1801  0.4956
  426TMC3    C8 6362   0.288   3.108  16.845 -0.4765 -0.0147  0.4786
  426TMC3    O1 6363   0.342   2.918  17.253 -0.0835  0.1251  0.1259
  426TMC3    O2 6364   0.362   3.032  16.790 -0.1304  0.1972 -0.3262
  427MPD2     C 6365   3.226   1.311  15.189 -0.3912  0.1101  0.1173
  427MPD2    C1 6366   3.188   1.179  15.224 -0.5792  0.0594  0.4064
  427MPD2    C2 6367   3.059   1.155  15.265 -0.0535  0.5421 -0.2094
  427MPD2    C3 6368   2.968   1.260  15.276 -0.5936 -0.7061  0.4655
  427MPD2    C4 6369   3.010   1.387  15.233  0.0291 -0.5180 -0.4574
  427MPD2    C5 6370   3.137   1.410  15.191 -0.1172  0.1225 -0.0407
  427MPD2     H 6371   3.023   1.059  15.299 -0.6358  0.9653  0.3563
  427MPD2    H1 6372   2.949   1.476  15.240  1.9379  0.8949 -1.7327
  427MPD2    H2 6373   3.326   1.341  15.162 -0.3938  0.2845  0.3039
  427MPD2    H3 6374   3.164   1.509  15.156  2.0744 -0.3473  0.3466
  427MPD2     N 6375   2.839   1.249  15.336  0.1452 -0.6725 -0.2155
  427MPD2    H5 6376   2.779   1.331  15.334  1.2197  0.0818 -1.3112
  427MPD2    N1 6377   3.287   1.080  15.223  0.5074  0.0979  0.0028
  427MPD2    H7 6378   3.388   1.090  15.216  0.3696  1.5258  0.0453
  428TMC3    C1 6379   3.369   0.859  15.200  0.5287  0.2160 -0.6985
  428TMC3    C2 6380   3.355   0.757  15.106  0.5448  0.1359  0.4076
  428TMC3    C3 6381   3.472   0.701  15.066  0.1119  0.2793  0.0310
  428TMC3    C4 6382   3.490   0.900  15.247  0.1859  0.3512  0.0169
  428TMC3    C5 6383   3.603   0.843  15.195 -0.3961 -0.6943 -0.6183
  428TMC3    C6 6384   3.592   0.741  15.106  0.2465 -0.1362  0.1037
  428TMC3     C 6385   3.254   0.946  15.214  0.0151  0.4099  0.0082
  428TMC3     O 6386   3.142   0.898  15.188  0.3115  0.1815  1.1168
  428TMC3     H 6387   3.263   0.735  15.055  0.6824  1.3885 -0.3669
  428TMC3    H1 6388   3.491   0.976  15.325 -2.3026 -0.2295  0.6113
  428TMC3    H2 6389   3.686   0.705  15.066  0.5860 -2.0322  2.5850
  428TMC3    C7 6390   3.738   0.890  15.233  1.1440 -0.0911 -0.8286
  428TMC3    C8 6391   3.478   0.568  15.008  0.2324 -0.2410 -0.3902
  428TMC3    O1 6392   3.770   0.896  15.354 -0.1995  0.1633  0.6627
  428TMC3    O2 6393   3.575   0.539  14.939 -0.2986  0.0303 -0.4335
  429MPD2     C 6394   4.439   0.880  17.398 -0.1842 -0.0506 -0.1104
  429MPD2    C1 6395   4.573   0.846  17.398  0.5487  0.3999 -0.2345
  429MPD2    C2 6396   4.670   0.937  17.346  0.1492  0.2349  0.4548
  429MPD2    C3 6397   4.626   1.053  17.287  0.4189 -0.1736  0.5308
  429MPD2    C4 6398   4.492   1.082  17.280 -0.2971 -0.6012 -0.2780
  429MPD2    C5 6399   4.400   0.999  17.346 -0.9771 -0.5898  0.0282
  429MPD2     H 6400   0.057   0.912  17.356  0.2631  1.3659  2.0285
  429MPD2    H1 6401   4.450   1.170  17.233  1.9010  0.8327  0.4428
  429MPD2    H2 6402   4.365   0.812  17.438  0.0671  1.6805  3.2974
  429MPD2    H3 6403   4.293   1.018  17.349 -0.4032  2.6628  0.0376
  429MPD2     N 6404   0.007   1.127  17.228 -0.0349  0.2993  0.5451
  429MPD2    H5 6405   0.098   1.082  17.220 -0.2654 -0.0980  0.1607
  429MPD2    N1 6406   4.602   0.715  17.446 -0.9834  0.0478 -0.7896
  429MPD2    H7 6407   4.526   0.658  17.483 -0.4756  0.5631  1.0325
  430TMC3    C1 6408   0.116   1.292  17.100 -0.8650 -0.5191  0.0216
  430TMC3    C2 6409   0.098   1.395  17.016  0.4025 -0.1608  0.2508
  430TMC3    C3 6410   0.186   1.414  16.914  0.4579  0.0655  0.1200
  430TMC3    C4 6411   0.213   1.202  17.072 -0.7188 -0.1685  0.1469
  430TMC3    C5 6412   0.295   1.215  16.961  0.3018 -0.3272 -0.0472
  430TMC3    C6 6413   0.277   1.321  16.885 -1.0708 -0.3639 -0.4242
  430TMC3     C 6414   4.714   1.248  17.165 -0.1080 -0.0083 -0.2643
  430TMC3     O 6415   4.613   1.314  17.157 -0.4803  0.2320 -0.3949
  430TMC3     H 6416   0.022   1.469  17.037  0.3333 -0.0498 -0.3700
  430TMC3    H1 6417   0.227   1.111  17.129 -0.8632 -1.1460 -1.3562
  430TMC3    H2 6418   0.347   1.348  16.807 -0.8790 -0.1831 -0.1905
  430TMC3    C7 6419   0.265   1.100  16.879 -1.0349 -0.0407 -0.4734
  430TMC3    C8 6420   0.142   1.488  16.797  0.7594  0.2971  0.2670
  430TMC3    O1 6421   0.256   0.992  16.941 -0.0255  0.2939  0.3424
  430TMC3    O2 6422   0.175   1.444  16.687 -0.2087 -0.3542 -0.4287
  431MPD2     C 6423   0.855   1.454  12.509  0.2027  0.1338  0.0632
  431MPD2    C1 6424   0.908   1.545  12.422 -0.1801  0.0861  0.2284
  431MPD2    C2 6425   0.938   1.500  12.293 -0.3031 -0.7767 -0.7191
  431MPD2    C3 6426   0.914   1.366  12.265  0.4203  0.8595 -0.0356
  431MPD2    C4 6427   0.852   1.281  12.356  0.0016 -0.2213 -0.5605
  431MPD2    C5 6428   0.823   1.322  12.483  0.6161 -0.0294  0.0419
  431MPD2     H 6429   0.969   1.577  12.224 -1.4669  0.2501 -0.0932
  431MPD2    H1 6430   0.845   1.175  12.335 -0.5392  0.2294 -2.7223
  431MPD2    H2 6431   0.844   1.481  12.614  0.3273 -0.2638  0.1785
  431MPD2    H3 6432   0.789   1.249  12.556 -0.6837  1.3432  0.8211
  431MPD2     N 6433   0.947   1.304  12.141  0.0851 -0.1703  0.4313
  431MPD2    H5 6434   0.943   1.203  12.131 -0.4995 -0.1098  0.0686
  431MPD2    N1 6435   0.942   1.681  12.447 -0.2911  0.5855  0.4542
  431MPD2    H7 6436   1.002   1.723  12.377  0.8838 -1.8431  0.0046
  432TMC3    C1 6437   1.054   1.276  11.922 -0.8362 -0.3826  0.7381
  432TMC3    C2 6438   1.145   1.323  11.836 -0.1388  0.2680  0.5067
  432TMC3    C3 6439   1.177   1.242  11.729 -0.0856 -0.7180  0.5401
  432TMC3    C4 6440   0.975   1.164  11.906  0.2768 -0.0331 -0.1242
  432TMC3    C5 6441   1.010   1.088  11.801 -0.8571  0.6774 -0.0314
  432TMC3    C6 6442   1.114   1.124  11.721  0.7858  0.1156 -0.0700
  432TMC3     C 6443   1.024   1.365  12.038  0.2334  0.1281  0.3997
  432TMC3     O 6444   1.080   1.473  12.041 -0.0534  0.0817 -0.3422
  432TMC3     H 6445   1.181   1.425  11.830 -2.7618  1.2688  1.8563
  432TMC3    H1 6446   0.887   1.140  11.965  1.7472 -0.9290  1.7034
  432TMC3    H2 6447   1.123   1.064  11.631  2.6647 -1.8858  1.4320
  432TMC3    C7 6448   0.970   0.945  11.788  0.9368 -1.1368  0.0515
  432TMC3    C8 6449   1.323   1.245  11.707 -0.1994 -0.3846 -0.7731
  432TMC3    O1 6450   1.002   0.884  11.685  0.3612 -0.2579 -0.5565
  432TMC3    O2 6451   1.378   1.344  11.762 -0.2981  0.4889  0.3463
  433MPD2     C 6452   4.364   4.608  10.639 -0.6970  0.1540  0.3246
  433MPD2    C1 6453   4.309   4.509  10.728  0.3472  0.1520 -0.5099
  433MPD2    C2 6454   4.314   4.541  10.866  0.0422 -0.2268 -0.1563
  433MPD2    C3 6455   4.368   4.656  10.911 -0.0212 -0.5039  0.4432
  433MPD2    C4 6456   4.426   0.033  10.827  0.8738 -0.1649 -0.4881
  433MPD2    C5 6457   4.415   0.003  10.696  0.7903  0.6558  0.2564
  433MPD2     H 6458   4.265   4.466  10.927 -0.4658  1.4761  1.5240
  433MPD2    H1 6459   4.461   0.129  10.865 -0.2195 -0.0757  0.2900
  433MPD2    H2 6460   4.380   4.586  10.534  2.9136  0.3886  0.8395
  433MPD2    H3 6461   4.462   0.070  10.625  1.7001 -1.2331 -0.9245
  433MPD2     N 6462   4.398   4.668  11.049  0.0897 -1.6007  0.3367
  433MPD2    H5 6463   4.377   4.593  11.114  0.3832 -2.1959 -0.2532
  433MPD2    N1 6464   4.246   4.397  10.669  0.3271  0.2257  0.5398
  433MPD2    H7 6465   4.286   4.367  10.581 -3.3277 -1.4338 -0.5808
  434TMC3    C1 6466   4.141   4.192  10.659  0.3254  0.2486 -0.2445
  434TMC3    C2 6467   4.164   4.081  10.738 -0.0629  0.3800 -0.5558
  434TMC3    C3 6468   4.232   3.976  10.685 -0.1305 -0.2138  0.5253
  434TMC3    C4 6469   4.169   4.197  10.526  0.5688  0.3254 -0.4210
  434TMC3    C5 6470   4.194   4.069  10.476 -0.1041 -0.2208  0.3755
  434TMC3    C6 6471   4.231   3.962  10.550  0.6656 -0.0252  0.4959
  434TMC3     C 6472   4.150   4.318  10.731 -0.1971  0.0016  0.1041
  434TMC3     O 6473   4.097   4.339  10.839  0.7787 -0.0499  0.3510
  434TMC3     H 6474   4.168   4.097  10.845  0.1717 -0.5262 -0.4324
  434TMC3    H1 6475   4.155   4.281  10.459 -2.3303 -0.3167 -0.6382
  434TMC3    H2 6476   4.239   3.864  10.505 -2.3023 -0.2535  0.4871
  434TMC3    C7 6477   4.210   4.063  10.329 -0.3807 -0.9561  0.4241
  434TMC3    C8 6478   4.308   3.886  10.769  0.2045 -0.8702  0.2743
  434TMC3    O1 6479   4.185   4.161  10.262 -0.4022 -0.3147  0.3495
  434TMC3    O2 6480   4.329   3.940  10.876  0.6158 -0.3240  0.4802
  435MPD2     C 6481   2.044   4.698  15.443  0.2243 -0.1735 -0.0530
  435MPD2    C1 6482   1.950   4.674  15.539 -0.6901  0.4299  0.1303
  435MPD2    C2 6483   1.968   4.569  15.632  0.2537  0.0806 -0.2407
  435MPD2    C3 6484   2.086   4.495  15.637 -0.3515 -0.0227 -0.3420
  435MPD2    C4 6485   2.177   4.523  15.539 -0.1451 -0.2029 -0.3050
  435MPD2    C5 6486   2.153   4.612  15.442 -0.7000 -0.1479  0.6467
  435MPD2     H 6487   1.886   4.542  15.698  0.7517  0.8879  0.7143
  435MPD2    H1 6488   2.274   4.475  15.535  0.4957  0.9257  1.8049
  435MPD2    H2 6489   2.037   0.050  15.360  2.3933  1.0791  0.8088
  435MPD2    H3 6490   2.238   4.632  15.378 -1.4030 -0.6584 -0.4390
  435MPD2     N 6491   2.100   4.394  15.728  0.1726  0.1439 -0.2289
  435MPD2    H5 6492   2.031   4.386  15.803  0.9642  1.1039  0.6064
  435MPD2    N1 6493   1.823   0.020  15.542 -0.5466  0.6617  0.1576
  435MPD2    H7 6494   1.755   4.698  15.606  1.3257 -1.1180  1.0324
  436TMC3    C1 6495   1.453   0.062  15.559  0.1655 -0.7875 -0.0067
  436TMC3    C2 6496   1.572   0.039  15.502  0.1893  0.1221 -0.1358
  436TMC3    C3 6497   1.652   0.150  15.476 -0.0797  0.0929  0.4550
  436TMC3    C4 6498   1.405   0.189  15.565  0.4949  0.6570  0.7441
  436TMC3    C5 6499   1.486   0.291  15.526 -0.3987 -0.4983 -0.0636
  436TMC3    C6 6500   1.611   0.278  15.474 -0.6925 -0.3695 -0.2704
  436TMC3     C 6501   1.371   4.669  15.602 -0.0781  0.4613  0.0010
  436TMC3     O 6502   1.368   4.576  15.525  0.0824  0.2319 -0.1550
  436TMC3     H 6503   1.597   4.652  15.498  1.7752  0.5109 -0.2579
  436TMC3    H1 6504   1.306   0.212  15.601  0.1311  0.9591 -0.4504
  436TMC3    H2 6505   1.664   0.364  15.435 -2.2500 -0.2933 -2.2285
  436TMC3    C7 6506   1.437   0.434  15.536  0.1993  0.3088  0.0606
  436TMC3    C8 6507   1.791   0.124  15.460 -0.2836 -0.0716  0.4504
  436TMC3    O1 6508   1.332   0.450  15.597 -0.3919 -0.0205 -0.0139
  436TMC3    O2 6509   1.861   0.210  15.406  0.0167 -0.1643 -0.2532
  437TMC3    C1 6510   0.510   1.233  12.212  0.3980 -0.0193 -0.7803
  437TMC3    C2 6511   0.481   1.225  12.343 -0.0625  0.4225 -0.0340
  437TMC3    C3 6512   0.489   1.336  12.428  0.4147  0.5449 -0.6368
  437TMC3    C4 6513   0.565   1.352  12.163 -0.4110 -0.1942 -0.4954
  437TMC3    C5 6514   0.563   1.464  12.242  0.5347 -0.0480 -0.4410
  437TMC3    C6 6515   0.514   1.466  12.373 -0.4927  0.0728 -0.1554
  437TMC3     C 6516   0.532   1.110  12.136  0.1571 -0.0300 -0.5104
  437TMC3     O 6517   0.639   1.104  12.070  0.0946 -0.6325  0.0325
  437TMC3     H 6518   0.461   1.129  12.389  0.5543  0.6098  0.6260
  437TMC3    H1 6519   0.594   1.356  12.059 -0.1487  1.3852 -0.3701
  437TMC3    H2 6520   0.501   1.552  12.438 -1.9451 -0.2816  0.0175
  437TMC3    C7 6521   0.609   1.587  12.175  0.5448 -0.6524 -0.3489
  437TMC3    C8 6522   0.431   1.336  12.558  0.0565 -0.6972 -0.2762
  437TMC3    O1 6523   0.616   1.595  12.054 -0.0331  0.1650 -0.1099
  437TMC3    O2 6524   0.366   1.436  12.584  0.2527  0.5285 -0.0982
  438MPD2     C 6525   2.816   1.970  17.069  0.1767  0.0626  0.2128
  438MPD2    C1 6526   2.821   2.027  16.944 -0.6217 -0.6078  0.0433
  438MPD2    C2 6527   2.748   2.142  16.916 -0.8545  0.2865 -0.5626
  438MPD2    C3 6528   2.680   2.206  17.017 -0.4288  0.2830  0.1218
  438MPD2    C4 6529   2.686   2.156  17.145 -0.3240 -0.1286  0.0792
  438MPD2    C5 6530   2.743   2.035  17.165  0.6362 -0.1001 -0.4668
  438MPD2     H 6531   2.748   2.174  16.813 -1.1634 -1.6556 -1.1606
  438MPD2    H1 6532   2.639   2.200  17.232  0.0420  1.0058 -0.2978
  438MPD2    H2 6533   2.853   1.873  17.099 -2.0003 -0.8722 -0.1170
  438MPD2    H3 6534   2.735   1.986  17.262 -1.7245  0.5922 -0.3169
  438MPD2     N 6535   2.602   2.317  16.999 -0.0448 -1.0876 -0.7434
  438MPD2    H5 6536   2.573   2.360  17.087  1.1757 -0.3647 -0.6924
  438MPD2    N1 6537   2.905   1.971  16.847 -0.1429 -1.0232 -0.8906
  438MPD2    H7 6538   2.914   2.023  16.761 -0.0295  1.3897  0.5621
  439TMC3    C1 6539   3.117   1.886  16.777  0.0436  0.1026  0.2506
  439TMC3    C2 6540   3.095   1.927  16.649 -0.4657  0.2819  0.9272
  439TMC3    C3 6541   3.213   1.936  16.576 -0.1305  0.3218 -0.2086
  439TMC3    C4 6542   3.236   1.885  16.841 -0.4523  0.6358  0.5177
  439TMC3    C5 6543   3.345   1.918  16.768 -0.4854 -0.4652  0.0695
  439TMC3    C6 6544   3.337   1.939  16.632  0.0843 -0.0128  0.8463
  439TMC3     C 6545   3.003   1.871  16.870 -0.5751 -0.6955 -0.1973
  439TMC3     O 6546   3.025   1.809  16.973 -0.4581  0.2105  0.1804
  439TMC3     H 6547   2.997   1.921  16.605  0.0858  1.1712 -0.4006
  439TMC3    H1 6548   3.250   1.868  16.947 -0.0441 -3.1668 -0.1434
  439TMC3    H2 6549   3.425   1.949  16.569 -0.6025  1.4376  0.1182
  439TMC3    C7 6550   3.473   1.899  16.834  0.5966  0.6663  0.3031
  439TMC3    C8 6551   3.203   1.919  16.430 -0.0328 -0.2761  0.2904
  439TMC3    O1 6552   3.467   1.844  16.944  0.8009 -0.1655  0.2904
  439TMC3    O2 6553   3.307   1.873  16.379 -0.4995  0.0844 -0.3497
  440MPD2     C 6554   1.535   2.666  15.086  0.5034 -0.6560  0.1502
  440MPD2    C1 6555   1.559   2.762  15.182  0.6983  0.5745 -0.3461
  440MPD2    C2 6556   1.690   2.772  15.238 -0.0413 -0.5931  0.2054
  440MPD2    C3 6557   1.784   2.688  15.194 -0.2005  0.0993  0.0277
  440MPD2    C4 6558   1.754   2.587  15.107  0.7874  0.1122  0.2147
  440MPD2    C5 6559   1.628   2.574  15.049  0.0704  0.3783  0.3514
  440MPD2     H 6560   1.705   2.856  15.305 -0.7484  0.2379 -0.6641
  440MPD2    H1 6561   1.828   2.523  15.062  0.7660 -1.5580  2.5280
  440MPD2    H2 6562   1.432   2.656  15.055  0.5170 -0.4944  0.0536
  440MPD2    H3 6563   1.608   2.491  14.982  3.4089  0.2358 -0.4800
  440MPD2     N 6564   1.921   2.698  15.244 -0.1723 -0.1847 -0.0362
  440MPD2    H5 6565   1.984   2.620  15.230 -0.5639 -0.4368 -0.4210
  440MPD2    N1 6566   1.459   2.856  15.236 -0.2447  0.0827 -0.5679
  440MPD2    H7 6567   1.494   2.911  15.315 -0.4604  0.1627 -0.5296
  441TMC3    C1 6568   2.085   2.758  15.406 -0.2441 -0.3188  0.5738
  441TMC3    C2 6569   2.132   2.857  15.486  0.0067  0.4160 -0.0442
  441TMC3    C3 6570   2.172   2.831  15.611  0.0079  1.0602 -0.0918
  441TMC3    C4 6571   2.088   2.623  15.452 -0.2267  0.1344 -0.6934
  441TMC3    C5 6572   2.132   2.598  15.577  0.0431  0.3391  0.3392
  441TMC3    C6 6573   2.166   2.703  15.653  0.2723 -0.1901  0.6313
  441TMC3     C 6574   1.968   2.795  15.327  0.1759  0.2870  0.6768
  441TMC3     O 6575   1.915   2.899  15.363 -0.0061  1.2547 -0.3375
  441TMC3     H 6576   2.128   2.955  15.440  1.4314  1.4772  2.0967
  441TMC3    H1 6577   2.054   2.541  15.390 -3.6080  0.1252  1.1342
  441TMC3    H2 6578   2.201   2.690  15.755  1.9708  0.8547  0.1959
  441TMC3    C7 6579   2.038   2.511  15.644  0.5389 -0.2390 -0.1460
  441TMC3    C8 6580   2.123   2.923  15.714  0.3239 -0.0420  0.7014
  441TMC3    O1 6581   1.932   2.499  15.589 -0.2361  0.1834  0.5003
  441TMC3    O2 6582   2.144   2.899  15.830 -0.0442 -0.5003  0.0967
  442MPD2     C 6583   0.061   3.211  16.250 -0.2616  0.0596  0.0738
  442MPD2    C1 6584   4.693   3.152  16.334  0.7355  0.1724 -0.2272
  442MPD2    C2 6585   4.635   3.038  16.305 -0.0513  0.5067 -0.1941
  442MPD2    C3 6586   4.666   2.964  16.195 -0.4640 -0.4108 -0.3773
  442MPD2    C4 6587   0.030   3.024  16.101  1.0703 -0.1332  0.1966
  442MPD2    C5 6588   0.091   3.145  16.139  0.0081 -0.8335 -0.2760
  442MPD2     H 6589   4.575   2.987  16.380  0.3106 -0.0872 -0.3012
  442MPD2    H1 6590   0.076   2.975  16.016  0.3923  0.0370 -0.2636
  442MPD2    H2 6591   0.117   3.302  16.271  0.3920 -1.0327  2.9861
  442MPD2    H3 6592   0.167   3.196  16.082 -0.8694 -0.5131 -1.1537
  442MPD2     N 6593   4.596   2.846  16.158 -0.2487  0.3755  0.6840
  442MPD2    H5 6594   4.606   2.819  16.060 -0.9617  0.2435  0.6488
  442MPD2    N1 6595   4.648   3.212  16.455  0.5219  0.6677 -0.5271
  442MPD2    H7 6596   4.578   3.168  16.514  1.0711 -0.7587 -0.9505
  443TMC3    C1 6597   4.598   3.391  16.610  0.2400  0.1760 -0.4550
  443TMC3    C2 6598   4.605   3.520  16.647 -0.7487  0.4390  0.4743
  443TMC3    C3 6599   4.512   3.572  16.736  0.8706 -0.3626  0.2193
  443TMC3    C4 6600   4.505   3.307  16.664 -0.2605  0.3144  0.5822
  443TMC3    C5 6601   4.409   3.366  16.740  0.2235 -0.1317  0.6586
  443TMC3    C6 6602   4.412   3.495  16.784  0.1969  0.5826 -0.0873
  443TMC3     C 6603   4.689   3.334  16.513 -0.4028 -0.1370 -0.0361
  443TMC3     O 6604   0.072   3.393  16.483  0.5976  0.5170  0.0262
  443TMC3     H 6605   4.680   3.591  16.614 -0.6933 -0.3523 -1.0502
  443TMC3    H1 6606   4.499   3.200  16.646 -2.1884  0.5525 -0.1516
  443TMC3    H2 6607   4.331   3.549  16.831 -1.3599  0.1360 -2.2512
  443TMC3    C7 6608   4.290   3.279  16.775 -0.9765 -0.1956  0.2561
  443TMC3    C8 6609   4.483   3.716  16.741  0.1604 -0.0225 -0.1801
  443TMC3    O1 6610   4.278   3.167  16.730  0.1166  0.0542  0.0523
  443TMC3    O2 6611   4.550   3.770  16.825 -0.3119  0.4712  0.1446
  444MPD2     C 6612   0.054   2.764  17.018 -0.0104 -0.3402 -0.1349
  444MPD2    C1 6613   4.667   2.665  17.016 -0.0582  0.1231  0.1742
  444MPD2    C2 6614   4.680   2.563  16.925 -0.2166  0.4902  0.1175
  444MPD2    C3 6615   0.070   2.552  16.836  0.2740  0.1744 -0.4854
  444MPD2    C4 6616   0.172   2.649  16.840 -0.1471  0.9404 -0.6026
  444MPD2    C5 6617   0.150   2.753  16.924 -0.2342  0.4180  0.8664
  444MPD2     H 6618   4.608   2.482  16.932  0.3112 -0.0800 -1.0319
  444MPD2    H1 6619   0.262   2.649  16.780 -0.3198  1.3851 -0.8617
  444MPD2    H2 6620   0.053   2.851  17.083 -1.3438  1.0152 -1.9778
  444MPD2    H3 6621   0.222   2.834  16.917  0.3061 -0.0212  1.3939
  444MPD2     N 6622   0.079   2.439  16.753 -0.2941  0.0178 -0.3436
  444MPD2    H5 6623   4.711   2.384  16.750 -0.2006 -0.1266 -0.3547
  444MPD2    N1 6624   4.565   2.659  17.119  0.2297  0.4885  0.3159
  444MPD2    H7 6625   4.523   2.568  17.133 -0.0930  0.3899 -1.2157
  445TMC3    C1 6626   0.181   2.265  16.626  0.3710  0.3883  0.3021
  445TMC3    C2 6627   0.065   2.224  16.590 -0.0025 -0.4420 -0.5551
  445TMC3    C3 6628   0.057   2.108  16.505 -1.0116  0.9291  0.3513
  445TMC3    C4 6629   0.296   2.202  16.590  0.3660  0.2038 -0.3063
  445TMC3    C5 6630   0.292   2.094  16.506 -0.5243  0.5796  1.2630
  445TMC3    C6 6631   0.171   2.039  16.472  0.1325 -0.0323 -0.8825
  445TMC3     C 6632   0.190   2.392  16.689  0.1390  0.4591 -0.0314
  445TMC3     O 6633   0.303   2.450  16.686 -0.0768  0.4828  0.0643
  445TMC3     H 6634   4.695   2.286  16.598  1.7283  1.8630  0.5747
  445TMC3    H1 6635   0.393   2.245  16.614  0.2937  0.3657 -0.3053
  445TMC3    H2 6636   0.161   1.955  16.405 -1.7567  1.0198 -1.9257
  445TMC3    C7 6637   0.418   2.035  16.465 -0.0307 -0.1912 -0.2676
  445TMC3    C8 6638   4.653   2.054  16.454  0.2270 -0.0345  0.2398
  445TMC3    O1 6639   0.528   2.090  16.502 -0.8941 -0.0146  0.2050
  445TMC3    O2 6640   4.655   1.977  16.362  0.0108  0.0207  0.3298
  446MPD2     C 6641   4.380   3.664  11.368 -0.2285 -0.2973  0.0420
  446MPD2    C1 6642   4.322   3.680  11.246  0.6771 -0.2245  0.9510
  446MPD2    C2 6643   4.344   3.800  11.181  0.3437  0.0006  0.6021
  446MPD2    C3 6644   4.418   3.900  11.232 -0.0223  0.1973  0.4122
  446MPD2    C4 6645   4.474   3.886  11.362  0.3488  0.0199 -0.4435
  446MPD2    C5 6646   4.459   3.761  11.420 -0.5088  0.0942 -0.3550
  446MPD2     H 6647   4.288   3.804  11.088  0.8768 -3.8905  0.1362
  446MPD2    H1 6648   4.538   3.958  11.411 -0.6782  0.1887  0.6266
  446MPD2    H2 6649   4.360   3.570  11.418 -0.2855 -0.4061 -0.1855
  446MPD2    H3 6650   4.504   3.756  11.519 -0.3239  0.9461 -0.3964
  446MPD2     N 6651   4.430   4.019  11.160 -0.5862 -0.2224  0.0068
  446MPD2    H5 6652   4.398   4.017  11.064  0.6766  0.8171 -0.4436
  446MPD2    N1 6653   4.243   3.576  11.187 -0.4998 -0.0203 -0.5107
  446MPD2    H7 6654   4.193   3.598  11.101 -1.9011 -0.4203  0.1873
  447TMC3    C1 6655   4.533   4.217  11.079  0.4592 -0.2226  0.1064
  447TMC3    C2 6656   4.465   4.208  10.957  0.0982 -0.0504 -0.3395
  447TMC3    C3 6657   4.522   4.263  10.848  0.4874  0.5087 -0.0766
  447TMC3    C4 6658   4.656   4.276  11.087  0.2807 -0.9615 -0.8701
  447TMC3    C5 6659   4.702   4.339  10.976  0.3558 -0.5845  0.1840
  447TMC3    C6 6660   4.641   4.327  10.853  0.1391  0.7072  0.8783
  447TMC3     C 6661   4.513   4.118  11.189  0.5165  0.2261 -0.0685
  447TMC3     O 6662   4.575   4.144  11.290  0.8196  0.3794 -0.5333
  447TMC3     H 6663   4.369   4.161  10.939  0.3101 -0.0682 -1.4040
  447TMC3    H1 6664   4.709   4.281  11.181 -0.1131  0.7843 -0.7497
  447TMC3    H2 6665   4.686   4.362  10.761 -0.2252  0.1683  0.4981
  447TMC3    C7 6666   0.127   4.335  10.956 -0.4476  0.2714  0.1064
  447TMC3    C8 6667   4.523   4.179  10.732 -0.0585  0.2189 -0.4632
  447TMC3    O1 6668   0.164   4.294  10.845 -0.2153 -0.2637 -0.6109
  447TMC3    O2 6669   4.464   4.217  10.631 -0.0541  0.2962  0.2075
  448TMC3    C1 6670   2.534   4.089  16.415  0.3494  0.2236 -0.9811
  448TMC3    C2 6671   2.524   3.954  16.431  0.9846  0.6159 -0.6247
  448TMC3    C3 6672   2.594   3.892  16.530  0.1517  0.1095 -0.5448
  448TMC3    C4 6673   2.619   4.164  16.496  0.5408  0.6907  0.4463
  448TMC3    C5 6674   2.675   4.102  16.607  0.4725  0.6146 -0.2736
  448TMC3    C6 6675   2.666   3.966  16.626  0.9973  0.1042 -0.3903
  448TMC3     C 6676   2.418   4.155  16.349  0.1915  0.4558  0.4985
  448TMC3     O 6677   2.315   4.087  16.337 -0.0602  0.3045  0.2757
  448TMC3     H 6678   2.451   3.894  16.377  0.9291  0.7007 -0.6448
  448TMC3    H1 6679   2.626   4.272  16.492  0.8078  0.7073  1.5102
  448TMC3    H2 6680   2.712   3.910  16.706  1.3263  2.1510  0.8452
  448TMC3    C7 6681   2.760   4.182  16.695  0.1886  0.2343  0.4210
  448TMC3    C8 6682   2.631   3.752  16.506 -0.5371 -0.6383  0.6881
  448TMC3    O1 6683   2.803   4.289  16.656 -0.0970 -0.4675 -0.1435
  448TMC3    O2 6684   2.657   3.687  16.607 -0.0514 -0.1673 -0.2746
  449MPD2     C 6685   4.242   1.937  13.764 -0.7523 -0.5259 -0.5394
  449MPD2    C1 6686   4.136   1.986  13.690 -0.1385  0.1125  0.3961
  449MPD2    C2 6687   4.003   1.946  13.700 -0.1964 -0.5140  0.0210
  449MPD2    C3 6688   3.966   1.856  13.800 -0.0937 -0.1501  0.4252
  449MPD2    C4 6689   4.068   1.806  13.880  0.4255 -0.4050  0.6860
  449MPD2    C5 6690   4.204   1.833  13.855  0.0856 -0.3193 -0.0435
  449MPD2     H 6691   3.929   1.970  13.625  0.3722  0.3782 -0.2577
  449MPD2    H1 6692   4.042   1.725  13.947  1.4681 -0.3825  1.1209
  449MPD2    H2 6693   4.344   1.971  13.752 -0.0971 -2.4607 -0.5042
  449MPD2    H3 6694   4.289   1.793  13.909 -0.6348 -0.8490  0.6881
  449MPD2     N 6695   3.827   1.823  13.808  0.2910  0.3019 -0.0221
  449MPD2    H5 6696   3.766   1.871  13.744  0.2209  0.4362  0.1447
  449MPD2    N1 6697   4.145   2.097  13.610  0.1999 -0.0469  0.0249
  449MPD2    H7 6698   4.055   2.121  13.571 -0.3666 -0.2252  1.2274
  450TMC3    C1 6699   4.213   2.255  13.466  0.2732  0.2232 -0.0414
  450TMC3    C2 6700   4.263   2.254  13.336  0.5063 -0.0948 -0.7159
  450TMC3    C3 6701   4.170   2.282  13.229 -0.4154  0.7059  0.4713
  450TMC3    C4 6702   4.084   2.293  13.485  0.3156 -0.3684 -0.5121
  450TMC3    C5 6703   3.999   2.316  13.382 -0.5060 -0.2195 -0.4467
  450TMC3    C6 6704   4.042   2.320  13.254 -0.2651 -0.1429 -0.1044
  450TMC3     C 6705   4.254   2.158  13.565 -0.1770  0.5773  0.1241
  450TMC3     O 6706   4.373   2.139  13.596  0.1884 -0.4243 -0.2096
  450TMC3     H 6707   4.350   2.193  13.314  0.2744 -0.8574  0.5060
  450TMC3    H1 6708   4.044   2.298  13.586  0.5135  2.6850 -0.5857
  450TMC3    H2 6709   3.972   2.334  13.172 -0.9067 -2.7342  0.0175
  450TMC3    C7 6710   3.869   2.262  13.411  0.1382 -0.2254  0.4697
  450TMC3    C8 6711   4.220   2.302  13.097 -0.3528 -0.6331  0.1095
  450TMC3    O1 6712   3.869   2.197  13.515 -0.2571 -0.1385  0.1678
  450TMC3    O2 6713   4.151   2.288  13.001 -0.2647 -0.1460 -0.6444
  451MPD2     C 6714   0.113   0.389   1.525  0.2790 -0.0835 -0.4267
  451MPD2    C1 6715   0.206   0.436   1.432 -0.6301 -0.0543  0.6041
  451MPD2    C2 6716   0.328   0.376   1.417 -0.2985  0.4318  0.3530
  451MPD2    C3 6717   0.362   0.269   1.497  0.1670  0.5829  0.0937
  451MPD2    C4 6718   0.268   0.221   1.587 -0.4899  0.3817  0.7329
  451MPD2    C5 6719   0.145   0.278   1.602  0.2566  0.3266  0.0808
  451MPD2     H 6720   0.396   0.419   1.345  2.2836 -2.2912  1.1670
  451MPD2    H1 6721   0.280   0.130   1.645 -0.9694 -0.2911 -0.2270
  451MPD2    H2 6722   0.014   0.433   1.526  0.5265  0.4161  1.2822
  451MPD2    H3 6723   0.071   0.227   1.664 -0.4702 -2.5959 -3.1997
  451MPD2     N 6724   0.484   0.205   1.497 -0.0478  0.0590 -0.2214
  451MPD2    H5 6725   0.499   0.133   1.568 -0.3629  0.0087 -0.2063
  451MPD2    N1 6726   0.166   0.553   1.359 -0.2698  0.1345 -0.4769
  451MPD2    H7 6727   0.072   0.589   1.373 -0.8525 -0.8747 -1.8648
  452TMC3    C1 6728   0.708   0.167   1.453 -0.9425 -1.0269 -0.2381
  452TMC3    C2 6729   0.706   0.039   1.505  0.4201 -0.4045 -0.4967
  452TMC3    C3 6730   0.825   4.693   1.534  0.1438  0.6734  0.3384
  452TMC3    C4 6731   0.826   0.227   1.417  1.1140 -0.8086  0.5901
  452TMC3    C5 6732   0.946   0.161   1.441 -0.1839 -0.1370 -0.3275
  452TMC3    C6 6733   0.945   0.033   1.511 -0.6630  0.2825 -1.0125
  452TMC3     C 6734   0.592   0.241   1.422  0.5647 -0.0827  0.6352
  452TMC3     O 6735   0.609   0.335   1.346 -0.2569 -0.6232 -0.3787
  452TMC3     H 6736   0.611   4.708   1.527 -0.2996  1.0881 -0.2878
  452TMC3    H1 6737   0.830   0.320   1.361  1.8281 -0.6595  0.8971
  452TMC3    H2 6738   1.035   4.713   1.558 -1.7350 -0.4937  0.3875
  452TMC3    C7 6739   1.078   0.215   1.393 -0.5465  1.0690 -0.1678
  452TMC3    C8 6740   0.823   4.571   1.615  0.4279  0.3021 -0.5905
  452TMC3    O1 6741   1.069   0.332   1.348 -0.4977 -0.1104  1.0545
  452TMC3    O2 6742   0.928   4.508   1.624  0.3508  0.4849 -0.3256
  453TMC3    C1 6743   1.915   3.025  11.950  0.2222 -0.2988 -0.0545
  453TMC3    C2 6744   1.810   2.954  12.007  0.2282 -0.6510 -0.3571
  453TMC3    C3 6745   1.705   2.921  11.924  0.4573 -0.2618 -0.7752
  453TMC3    C4 6746   1.919   3.043  11.815  0.2038 -0.6983 -0.9065
  453TMC3    C5 6747   1.805   3.012  11.737 -0.1432 -0.5371 -0.2811
  453TMC3    C6 6748   1.697   2.955  11.791 -0.2517 -0.7318 -0.6532
  453TMC3     C 6749   2.038   3.054  12.020 -0.6262  0.0787  0.6749
  453TMC3     O 6750   2.132   3.087  11.949 -0.1647 -0.8307  0.7728
  453TMC3     H 6751   1.804   2.922  12.110 -0.7481 -0.7416 -0.4493
  453TMC3    H1 6752   2.005   3.091  11.768  0.0409 -0.2504 -0.7383
  453TMC3    H2 6753   1.616   2.920  11.727  1.0045 -0.3021 -2.4800
  453TMC3    C7 6754   1.807   3.025  11.593 -0.3191 -0.6260 -0.2957
  453TMC3    C8 6755   1.590   2.848  11.972  0.6914 -0.0027 -0.1523
  453TMC3    O1 6756   1.707   2.989  11.527 -0.0435  0.0302 -0.2105
  453TMC3    O2 6757   1.481   2.862  11.915  0.1496 -0.3748 -0.3352
  454MPD2     C 6758   0.670   2.188  16.061 -0.1456 -0.1492  0.3074
  454MPD2    C1 6759   0.565   2.229  15.976  0.6334  0.1806  0.0381
  454MPD2    C2 6760   0.495   2.346  15.998  0.1874 -0.0295 -0.3453
  454MPD2    C3 6761   0.526   2.427  16.106  0.2970 -0.1115 -0.0237
  454MPD2    C4 6762   0.613   2.376  16.202 -0.0923  0.2519 -0.2473
  454MPD2    C5 6763   0.687   2.264  16.172 -0.4670 -0.8879 -0.3170
  454MPD2     H 6764   0.403   2.364  15.943 -0.9879 -2.3955  0.8538
  454MPD2    H1 6765   0.627   2.430  16.294  0.8725 -1.5922  0.6776
  454MPD2    H2 6766   0.715   2.090  16.060  0.6349  0.1985  0.9170
  454MPD2    H3 6767   0.745   2.221  16.253 -0.5781 -0.0093  0.2282
  454MPD2     N 6768   0.448   2.541  16.141 -0.1866 -0.1508  0.2934
  454MPD2    H5 6769   0.424   2.548  16.239  0.1969  0.1337  0.3652
  454MPD2    N1 6770   0.520   2.150  15.868  0.2339 -0.8077  0.1434
  454MPD2    H7 6771   0.436   2.185  15.823  0.1560 -0.3330  0.6427
  455TMC3    C1 6772   0.250   2.662  16.108  0.2658  0.4866  0.0668
  455TMC3    C2 6773   0.259   2.722  16.228  0.5270  0.3117  0.7014
  455TMC3    C3 6774   0.167   2.696  16.321 -0.3103  0.3863  0.3183
  455TMC3    C4 6775   0.156   2.566  16.087  0.6427  0.1473 -0.7450
  455TMC3    C5 6776   0.087   2.514  16.193 -1.1304  0.3356  0.0668
  455TMC3    C6 6777   0.075   2.593  16.312 -0.4236 -0.0530  0.0618
  455TMC3     C 6778   0.369   2.610  16.047  0.5079  0.1776 -0.5781
  455TMC3     O 6779   0.370   2.608  15.924  0.2653  0.4510 -0.1308
  455TMC3     H 6780   0.327   2.806  16.230  1.0511 -0.0639 -1.6126
  455TMC3    H1 6781   0.181   2.500  16.005  0.0261 -1.5767  0.4558
  455TMC3    H2 6782   0.028   2.546  16.398 -0.3093  0.2000  0.2609
  455TMC3    C7 6783   0.133   2.384  16.221  0.3813  0.3135 -0.4343
  455TMC3    C8 6784   0.177   2.780  16.437 -0.2450 -0.3526 -0.5699
  455TMC3    O1 6785   0.215   2.369  16.311  0.1316  0.2115  0.0384
  455TMC3    O2 6786   0.282   2.831  16.466 -0.4246  0.2069 -0.0959
  456MPD2     C 6787   2.985   2.383  16.046  0.3611 -0.1596  0.2091
  456MPD2    C1 6788   3.058   2.393  16.163  0.4957  0.0620  0.3217
  456MPD2    C2 6789   3.022   2.488  16.262 -0.5367 -0.9878 -0.2660
  456MPD2    C3 6790   2.910   2.567  16.236 -0.1312  0.1517 -0.0470
  456MPD2    C4 6791   2.838   2.554  16.123  0.3528  0.7109  0.2662
  456MPD2    C5 6792   2.880   2.465  16.028  0.6348  0.1435 -0.2183
  456MPD2     H 6793   3.073   2.481  16.357 -2.1915  2.7916  0.8972
  456MPD2    H1 6794   2.755   2.619  16.100 -0.3902 -0.5910 -0.7612
  456MPD2    H2 6795   3.021   2.332  15.957  0.1676 -0.0768  0.0837
  456MPD2    H3 6796   2.836   2.476  15.930 -1.6249  1.8327  0.9861
  456MPD2     N 6797   2.879   2.656  16.339 -0.5976 -0.1328  0.3366
  456MPD2    H5 6798   2.949   2.655  16.413  1.2397 -0.1150 -1.4115
  456MPD2    N1 6799   3.175   2.313  16.170 -0.3077  0.5158  0.0218
  456MPD2    H7 6800   3.190   2.251  16.091 -0.2105 -0.6212  0.9300
  457TMC3    C1 6801   2.781   2.819  16.463 -0.6466  0.7314  0.2477
  457TMC3    C2 6802   2.744   2.949  16.437 -0.4029  0.0525 -0.1474
  457TMC3    C3 6803   2.801   3.055  16.499  0.7783 -0.5593  1.1692
  457TMC3    C4 6804   2.882   2.798  16.552 -1.1360 -0.1249 -0.5398
  457TMC3    C5 6805   2.929   2.909  16.630  0.2226 -0.1499 -0.1686
  457TMC3    C6 6806   2.899   3.036  16.599  0.3737  0.6135 -0.5786
  457TMC3     C 6807   2.773   2.743  16.339  0.6877 -0.0481  0.1176
  457TMC3     O 6808   2.691   2.777  16.252  0.1611 -0.2900 -0.0560
  457TMC3     H 6809   2.658   2.969  16.374  0.0244 -1.5203 -1.2170
  457TMC3    H1 6810   2.907   2.699  16.588  0.9708  1.3124  1.9571
  457TMC3    H2 6811   2.936   3.120  16.656 -0.4484  2.8297 -3.3395
  457TMC3    C7 6812   3.035   2.879  16.723  0.0348 -0.3363 -0.0339
  457TMC3    C8 6813   2.753   3.199  16.479 -1.0373 -0.8646 -0.0472
  457TMC3    O1 6814   3.060   2.761  16.732 -0.6304  0.1717 -0.3268
  457TMC3    O2 6815   2.759   3.260  16.584  0.4809  0.1831  0.6065
  458MPD2     C 6816   0.791   2.061  12.222 -0.4808  0.1429 -0.2249
  458MPD2    C1 6817   0.755   2.016  12.350 -0.0061  0.3128  0.2895
  458MPD2    C2 6818   0.688   1.896  12.363  0.4443 -0.0534  0.0143
  458MPD2    C3 6819   0.672   1.819  12.252 -0.5368 -0.2795  0.4495
  458MPD2    C4 6820   0.705   1.868  12.124 -0.5819 -0.1609  0.5541
  458MPD2    C5 6821   0.767   1.987  12.109  0.4118 -0.8152  0.4152
  458MPD2     H 6822   0.661   1.850  12.457  2.8395 -1.5638 -0.0518
  458MPD2    H1 6823   0.678   1.812  12.035  0.5434  1.6765 -0.9454
  458MPD2    H2 6824   0.821   2.165  12.219  0.7595 -0.1743  1.3345
  458MPD2    H3 6825   0.797   2.034  12.016 -0.1470 -3.9806 -1.3335
  458MPD2     N 6826   0.626   1.687  12.278 -0.3173  0.6074  0.2449
  458MPD2    H5 6827   0.615   1.654  12.373 -1.9524 -2.3949 -0.9865
  458MPD2    N1 6828   0.772   2.101  12.463 -0.4880 -0.4152 -0.2761
  458MPD2    H7 6829   0.809   2.191  12.435 -1.0358  0.0899  0.6447
  459TMC3    C1 6830   0.778   2.179  12.697 -0.5345  0.0698 -0.1587
  459TMC3    C2 6831   0.871   2.272  12.661  0.1606 -0.2564  0.3096
  459TMC3    C3 6832   0.924   2.342  12.768 -1.6525  0.1987 -0.2388
  459TMC3    C4 6833   0.765   2.144  12.828  0.3805  0.2557  0.1730
  459TMC3    C5 6834   0.838   2.207  12.929  0.3742 -0.4748 -0.0357
  459TMC3    C6 6835   0.915   2.315  12.902 -0.0116 -0.4395 -0.2385
  459TMC3     C 6836   0.732   2.084  12.594  0.5699  0.3817 -0.0077
  459TMC3     O 6837   0.679   1.982  12.639  0.0904 -0.1504 -0.4891
  459TMC3     H 6838   0.898   2.314  12.565  1.3577 -0.5056  0.5244
  459TMC3    H1 6839   0.698   2.067  12.864 -0.2311  0.5776 -0.2669
  459TMC3    H2 6840   0.980   2.369  12.971  0.5700  0.7055 -1.6688
  459TMC3    C7 6841   0.839   2.141  13.060 -1.1156 -0.1109  1.2219
  459TMC3    C8 6842   1.033   2.423  12.730  0.5595  0.4901 -0.3155
  459TMC3    O1 6843   0.810   2.021  13.060  0.1154 -0.4879 -0.3220
  459TMC3    O2 6844   1.112   2.376  12.645  0.2258 -0.2385 -0.3076
  460MPD2     C 6845   4.699   3.854  10.713  0.2426  0.3271  0.3139
  460MPD2    C1 6846   4.636   3.968  10.662  0.0563 -0.1681 -0.2746
  460MPD2    C2 6847   4.610   3.977  10.525 -0.8220 -0.2540 -0.1725
  460MPD2    C3 6848   4.640   3.873  10.440 -0.1291 -0.1136 -0.0518
  460MPD2    C4 6849   4.696   3.755  10.501  0.4815 -0.3431 -0.2200
  460MPD2    C5 6850   0.013   3.752  10.634 -0.4782 -0.0628  0.0849
  460MPD2     H 6851   4.564   4.067  10.486 -1.1805 -0.3182  0.1045
  460MPD2    H1 6852   0.010   3.668  10.446  0.6516  0.5185 -1.4806
  460MPD2    H2 6853   4.711   3.846  10.820  0.7209  2.2778  0.3952
  460MPD2    H3 6854   0.059   3.664  10.677 -1.7076 -0.3542  0.7786
  460MPD2     N 6855   4.619   3.879  10.299 -0.1153  0.8810  0.0548
  460MPD2    H5 6856   4.589   3.969  10.263 -2.2886 -0.2864 -1.0552
  460MPD2    N1 6857   4.604   4.073  10.754  0.4593 -0.0706  0.1312
  460MPD2    H7 6858   4.640   4.057  10.847 -0.7264  0.5937  0.6952
  461TMC3    C1 6859   4.642   3.821  10.066  0.2136 -0.1540 -0.7675
  461TMC3    C2 6860   4.662   3.724   9.971 -0.6482 -0.9187 -0.0504
  461TMC3    C3 6861   4.638   3.744   9.842 -0.6292 -0.6363 -0.5460
  461TMC3    C4 6862   4.575   3.938  10.027  0.1676  0.6373 -0.0906
  461TMC3    C5 6863   4.541   3.955   9.896 -0.2707 -0.3937 -0.6488
  461TMC3    C6 6864   4.571   3.860   9.801 -0.5357 -0.5326 -0.3328
  461TMC3     C 6865   4.648   3.779  10.212 -0.1370  0.7221  0.0675
  461TMC3     O 6866   4.695   3.667  10.224  0.3241 -0.9753 -0.3618
  461TMC3     H 6867   4.700   3.631  10.012  2.0072 -0.4430 -1.4997
  461TMC3    H1 6868   4.524   3.992  10.106  0.4561 -0.2978  0.7284
  461TMC3    H2 6869   4.550   3.878   9.696 -0.8796  0.8729 -0.0206
  461TMC3    C7 6870   4.451   4.066   9.865 -0.0258 -0.7383  0.0583
  461TMC3    C8 6871   4.679   3.641   9.739  0.4308 -0.0495 -0.0591
  461TMC3    O1 6872   4.431   4.151   9.954  0.2592 -0.0445  0.7220
  461TMC3    O2 6873   4.709   3.532   9.789 -0.2486 -0.3900  0.7998
  462TMC3    C1 6874   0.271   0.963  17.536 -0.6274 -0.1676 -0.7847
  462TMC3    C2 6875   0.389   0.893  17.526  0.0863 -0.2937  0.4369
  462TMC3    C3 6876   0.424   0.818  17.632 -0.1585 -0.3315  0.6087
  462TMC3    C4 6877   0.179   0.942  17.632  1.0672  0.7057  0.9665
  462TMC3    C5 6878   0.212   0.852   0.051 -0.4202 -0.0746  0.6104
  462TMC3    C6 6879   0.339   0.807   0.061  0.1710  0.0662 -0.4696
  462TMC3     C 6880   0.274   1.091  17.465 -0.2275  0.5590  0.3356
  462TMC3     O 6881   0.331   1.079  17.359 -0.0197 -0.1858  0.1534
  462TMC3     H 6882   0.463   0.921  17.452 -1.2035  2.7338  0.2824
  462TMC3    H1 6883   0.086   0.996  17.622  1.9230  1.7836 -1.0445
  462TMC3    H2 6884   0.359   0.720   0.122  1.3167 -0.3418 -1.4405
  462TMC3    C7 6885   0.110   0.773   0.110  0.3889  0.7499  0.0202
  462TMC3    C8 6886   0.546   0.745  17.633 -0.1937 -0.4688  1.0626
  462TMC3    O1 6887   0.143   0.667   0.160  0.1238 -0.0601  0.2083
  462TMC3    O2 6888   0.629   0.783   0.043  0.3948  0.2075  0.1314
  463MPD2     C 6889   0.873   3.336   1.798  0.1169  0.1086  0.1909
  463MPD2    C1 6890   0.754   3.397   1.749  0.0406  0.3997  0.4522
  463MPD2    C2 6891   0.764   3.523   1.696 -0.7835  0.1552 -0.4759
  463MPD2    C3 6892   0.885   3.588   1.706  0.0742 -0.9517 -0.0220
  463MPD2    C4 6893   0.992   3.531   1.747 -0.3374  0.3185 -0.1094
  463MPD2    C5 6894   0.991   3.403   1.801  0.8983  0.3874  0.5345
  463MPD2     H 6895   0.680   3.579   1.658 -0.6300  2.3433  2.4211
  463MPD2    H1 6896   1.088   3.581   1.748 -0.3675  0.3638  0.7346
  463MPD2    H2 6897   0.882   3.234   1.833 -1.5231 -0.0254  0.2550
  463MPD2    H3 6898   1.080   3.356   1.843  0.5346  1.5927  2.6295
  463MPD2     N 6899   0.905   3.720   1.656 -0.3494 -0.0405  0.4690
  463MPD2    H5 6900   0.995   3.768   1.662 -1.2818  1.4769  2.4269
  463MPD2    N1 6901   0.634   3.330   1.731  0.4025  0.4538  0.4906
  463MPD2    H7 6902   0.557   3.381   1.689  2.3670  1.0445 -2.4224
  464TMC3    C1 6903   0.460   3.173   1.751  0.1149 -0.3396 -0.6506
  464TMC3    C2 6904   0.370   3.286   1.739  0.7429 -0.0123  0.4922
  464TMC3    C3 6905   0.239   3.267   1.722  0.2155 -0.9692 -0.2168
  464TMC3    C4 6906   0.416   3.045   1.742  0.3256 -0.0881 -0.4574
  464TMC3    C5 6907   0.280   3.035   1.709 -0.4128 -0.6856  0.3033
  464TMC3    C6 6908   0.193   3.141   1.699  0.1664 -0.5380  0.5744
  464TMC3     C 6909   0.604   3.199   1.763 -0.1868 -1.0743  0.6334
  464TMC3     O 6910   0.680   3.109   1.806  0.1431 -0.4694  0.4573
  464TMC3     H 6911   0.399   3.390   1.753  0.0297  0.5653 -2.2294
  464TMC3    H1 6912   0.487   2.966   1.726  1.0995  0.6725 -0.7969
  464TMC3    H2 6913   0.090   3.110   1.713  0.3853 -1.6580 -0.3266
  464TMC3    C7 6914   0.247   2.927   1.627  0.3953 -0.2704  0.5579
  464TMC3    C8 6915   0.155   3.380   1.697 -0.5209 -0.4610  0.0449
  464TMC3    O1 6916   0.334   2.844   1.622  0.1482 -0.7629 -0.1465
  464TMC3    O2 6917   0.220   3.483   1.675  0.2103  0.8384 -0.1707
  465MPD2     C 6918   2.709   3.027  16.851  0.5019  0.0860  0.3707
  465MPD2    C1 6919   2.704   2.890  16.860 -0.2660 -0.3957  0.1121
  465MPD2    C2 6920   2.608   2.820  16.788 -0.9637  0.2468 -0.4578
  465MPD2    C3 6921   2.512   2.887  16.709 -0.4114  0.9103 -0.6585
  465MPD2    C4 6922   2.515   3.024  16.712  0.2437  0.1128 -0.4059
  465MPD2    C5 6923   2.606   3.095  16.787  0.2465  0.1743 -0.1510
  465MPD2     H 6924   2.603   2.712  16.793  2.8940  0.0923  0.0212
  465MPD2    H1 6925   2.441   3.085  16.662  0.7942  1.2523  0.1823
  465MPD2    H2 6926   2.795   3.077  16.895  0.5006 -0.3513  0.8715
  465MPD2    H3 6927   2.609   3.203  16.791 -1.0769  0.1699  0.9126
  465MPD2     N 6928   2.409   2.816  16.646 -0.4762 -0.1030 -0.9407
  465MPD2    H5 6929   2.415   2.716  16.663 -0.7608 -0.2424 -1.6810
  465MPD2    N1 6930   2.797   2.805  16.930  0.3021  0.0700 -0.4469
  465MPD2    H7 6931   2.782   2.705  16.934  2.1158 -0.1619  0.7169
  466TMC3    C1 6932   2.001   2.736  16.682  0.5352  0.5314 -0.3092
  466TMC3    C2 6933   1.918   2.788  16.582  0.8803 -0.1119  0.2212
  466TMC3    C3 6934   1.979   2.853  16.473 -0.0068  0.2161 -0.6413
  466TMC3    C4 6935   2.136   2.738  16.670  0.5491 -0.4121 -0.6826
  466TMC3    C5 6936   2.189   2.809  16.558  0.5520 -0.2616 -0.4561
  466TMC3    C6 6937   2.117   2.866  16.455 -0.6765 -0.1430  0.4930
  466TMC3     C 6938   1.937   2.644  16.767 -0.5291  0.7972 -0.1686
  466TMC3     O 6939   1.981   2.635  16.879 -0.6324  0.1286  0.9707
  466TMC3     H 6940   1.810   2.780  16.582  0.7281  1.6305 -2.1229
  466TMC3    H1 6941   2.199   2.690  16.743 -1.2366 -0.8972  0.5292
  466TMC3    H2 6942   2.164   2.923  16.376  0.7105 -0.4267  1.1117
  466TMC3    C7 6943   2.315   2.875  16.572 -0.3966 -0.3291 -0.7112
  466TMC3    C8 6944   1.909   2.950  16.393 -0.4997 -0.6397  0.1706
  466TMC3    O1 6945   2.324   2.981  16.506 -0.2567  0.7458 -0.4084
  466TMC3    O2 6946   1.946   2.974  16.276  0.0698  0.8031  0.3632
  467TMC3    C1 6947   2.383   1.812  13.286  0.4471 -0.0460 -0.3143
  467TMC3    C2 6948   2.309   1.925  13.314  0.2068 -0.3549  0.1633
  467TMC3    C3 6949   2.205   1.906  13.406  0.3129  0.9982  0.9437
  467TMC3    C4 6950   2.358   1.692  13.353 -0.0600 -0.0415  0.4690
  467TMC3    C5 6951   2.260   1.687  13.445 -0.7449 -0.1929 -0.2240
  467TMC3    C6 6952   2.175   1.793  13.474 -0.1415 -0.8541  0.4123
  467TMC3     C 6953   2.505   1.810  13.204  0.5750  0.0776 -0.7955
  467TMC3     O 6954   2.573   1.710  13.207 -0.0250 -0.6114  0.1047
  467TMC3     H 6955   2.330   2.022  13.272  0.7160 -1.0144 -1.0973
  467TMC3    H1 6956   2.426   1.612  13.325  1.9830  1.7253  0.3402
  467TMC3    H2 6957   2.086   1.779  13.533 -1.2783  3.0502 -0.4240
  467TMC3    C7 6958   2.255   1.561  13.517  0.1344 -0.1740  0.0712
  467TMC3    C8 6959   2.120   2.025  13.427 -0.4210  0.7304  0.2241
  467TMC3    O1 6960   2.300   1.461  13.464 -0.4637 -0.6376  0.2865
  467TMC3    O2 6961   2.166   2.130  13.384  0.1678 -0.0842  0.1891
  468MPD2     C 6962   2.109   3.957  10.387 -0.0929  0.5520  0.0914
  468MPD2    C1 6963   2.132   3.912  10.519  0.5295  0.2101  0.1713
  468MPD2    C2 6964   2.103   3.780  10.553  0.2496  0.3738  0.2188
  468MPD2    C3 6965   2.061   3.690  10.454 -0.1401 -0.4940  0.7013
  468MPD2    C4 6966   2.048   3.730  10.318  0.0787  0.2228  0.0818
  468MPD2    C5 6967   2.063   3.861  10.289 -0.0854  0.2272 -0.0930
  468MPD2     H 6968   2.122   3.752  10.655  1.4038  0.1956 -0.0477
  468MPD2    H1 6969   2.015   3.660  10.243 -0.8022  0.0472  0.6276
  468MPD2    H2 6970   2.120   4.060  10.358  1.0210  0.8610  1.6169
  468MPD2    H3 6971   2.034   3.896  10.191 -0.9708  2.0992  0.8463
  468MPD2     N 6972   2.025   3.558  10.481  0.4031 -0.0704 -1.0103
  468MPD2    H5 6973   2.003   3.506  10.397 -0.3565 -0.0691 -0.8064
  468MPD2    N1 6974   2.192   3.995  10.621  0.2829  0.0511  0.1541
  468MPD2    H7 6975   2.237   3.944  10.696  1.6859 -2.0180 -2.0895
  469TMC3    C1 6976   2.297   4.184  10.728  0.5452 -0.8760 -0.4294
  469TMC3    C2 6977   2.403   4.117  10.788  0.3188  0.0647 -0.0909
  469TMC3    C3 6978   2.457   4.159  10.909 -0.1088 -0.3739  0.4266
  469TMC3    C4 6979   2.254   4.298  10.781  0.5329 -0.6599 -0.3537
  469TMC3    C5 6980   2.308   4.338  10.905 -0.2868 -0.0540 -0.2563
  469TMC3    C6 6981   2.412   4.274  10.968 -0.0683  0.2435  0.3518
  469TMC3     C 6982   2.210   4.132  10.620 -1.0018 -0.3779 -0.1082
  469TMC3     O 6983   2.157   4.211  10.546 -0.7290 -0.7667 -0.2550
  469TMC3     H 6984   2.442   4.024  10.750 -1.3110  0.3609 -2.4552
  469TMC3    H1 6985   2.155   4.329  10.748  1.2595 -0.8229 -2.6335
  469TMC3    H2 6986   2.429   4.289  11.074 -0.1475  0.8197  0.2836
  469TMC3    C7 6987   2.241   4.445  10.973  0.0066  0.1309  0.3393
  469TMC3    C8 6988   2.567   4.080  10.963 -0.1739 -0.3689  0.1100
  469TMC3    O1 6989   2.132   4.482  10.935 -0.4393 -0.0056  0.1760
  469TMC3    O2 6990   2.580   3.962  10.923 -0.4098  0.2707  0.2289
  470TMC3    C1 6991   4.246   0.786   0.390  0.3286  0.4371 -0.3676
  470TMC3    C2 6992   4.205   0.910   0.365  0.6767  0.1469  0.3275
  470TMC3    C3 6993   4.290   1.009   0.369 -0.5667 -0.0909 -0.8367
  470TMC3    C4 6994   4.379   0.753   0.413 -0.1631 -0.0998 -0.1019
  470TMC3    C5 6995   4.461   0.861   0.407  0.1688  0.1204 -0.1518
  470TMC3    C6 6996   4.423   0.990   0.381 -0.3019 -0.0804 -0.1567
  470TMC3     C 6997   4.146   0.677   0.382 -0.1620 -0.2267 -0.6629
  470TMC3     O 6998   4.054   0.701   0.303  0.2959 -0.2112 -0.0732
  470TMC3     H 6999   4.102   0.924   0.334  1.0744  1.0868 -0.5782
  470TMC3    H1 7000   4.420   0.653   0.422 -3.2290 -1.3353  0.2643
  470TMC3    H2 7001   4.496   1.070   0.380  0.5724 -0.8772 -0.1289
  470TMC3    C7 7002   4.589   0.850   0.473 -0.0425 -0.9169 -0.3017
  470TMC3    C8 7003   4.248   1.140   0.419  0.2829  0.0078 -0.0050
  470TMC3    O1 7004   4.676   0.931   0.443  0.2495 -0.2535 -0.4534
  470TMC3    O2 7005   4.320   1.182   0.509  0.2286 -0.3314  0.2944
  471MPD2     C 7006   4.481   1.734  16.543 -0.1179  0.8926 -0.4323
  471MPD2    C1 7007   4.561   1.623  16.512  0.0356 -0.2385  0.1153
  471MPD2    C2 7008   4.645   1.572  16.603 -0.1182  0.7065  0.0368
  471MPD2    C3 7009   4.662   1.627  16.731  1.4051 -0.0353 -0.2964
  471MPD2    C4 7010   4.584   1.739  16.759  0.3638  0.4790  0.2275
  471MPD2    C5 7011   4.500   1.795  16.669  0.1210  0.2730 -0.6229
  471MPD2     H 7012   4.697   1.482  16.570 -1.4266 -0.1351  0.2630
  471MPD2    H1 7013   4.603   1.797  16.849 -0.7531  0.3602  0.5409
  471MPD2    H2 7014   4.411   1.783  16.476 -0.1206  0.5234 -0.6995
  471MPD2    H3 7015   4.445   1.887  16.687  3.2641  2.4223 -1.9029
  471MPD2     N 7016   0.038   1.575  16.821  0.0302 -0.3881 -0.1978
  471MPD2    H5 7017   0.038   1.619  16.912 -0.9837 -0.5421 -0.1142
  471MPD2    N1 7018   4.563   1.561  16.383  0.6409 -0.5698  0.3295
  471MPD2    H7 7019   4.632   1.487  16.371 -0.8163 -2.0263  0.9740
  472TMC3    C1 7020   4.503   1.481  16.173 -0.2139  0.3675  0.4609
  472TMC3    C2 7021   4.428   1.511  16.060  0.3062  0.3654  0.7491
  472TMC3    C3 7022   4.365   1.410  15.988 -0.4256  0.1248 -0.7138
  472TMC3    C4 7023   4.502   1.353  16.217 -0.4406 -0.5755  0.8120
  472TMC3    C5 7024   4.450   1.253  16.141  0.0074  0.4943 -0.3994
  472TMC3    C6 7025   4.381   1.280  16.029 -0.4227  0.5008  0.2372
  472TMC3     C 7026   4.475   1.580  16.279 -0.3375  0.2062  0.1126
  472TMC3     O 7027   4.395   1.670  16.257  0.4554  0.5795 -0.4139
  472TMC3     H 7028   4.396   1.613  16.043  1.5661  0.4659 -0.9756
  472TMC3    H1 7029   4.551   1.324  16.310 -0.6468 -1.0777  0.7638
  472TMC3    H2 7030   4.355   1.202  15.958  2.2471 -1.0717  0.9648
  472TMC3    C7 7031   4.405   1.136  16.211 -0.0884  0.8242 -0.1614
  472TMC3    C8 7032   4.245   1.450  15.918 -0.0257 -0.5007 -0.5831
  472TMC3    O1 7033   4.407   1.133  16.334 -0.0159  0.3657  0.1124
  472TMC3    O2 7034   4.241   1.552  15.847  0.1534  0.0915  0.7155
  473MPD2     C 7035   4.216   3.611  13.984  0.1052  0.2473 -0.3178
  473MPD2    C1 7036   4.260   3.693  13.885  0.0560  0.0072  0.1544
  473MPD2    C2 7037   4.332   3.802  13.921 -1.1412  0.2413  0.0898
  473MPD2    C3 7038   4.383   3.828  14.046  0.0382  0.2656  0.5589
  473MPD2    C4 7039   4.349   3.735  14.143  0.2690 -0.5954  0.1455
  473MPD2    C5 7040   4.263   3.626  14.110 -1.0241 -0.7425 -0.7197
  473MPD2     H 7041   4.368   3.863  13.839 -1.6869 -2.2983 -2.0582
  473MPD2    H1 7042   4.370   3.757  14.247  1.7973 -0.4683 -0.1994
  473MPD2    H2 7043   4.130   3.547  13.972  0.0201  0.3357 -0.1877
  473MPD2    H3 7044   4.240   3.555  14.189  0.1146 -0.9773 -0.6035
  473MPD2     N 7045   4.442   3.951  14.079  0.3668  0.3826  0.4940
  473MPD2    H5 7046   4.496   3.961  14.165 -2.2636  2.4525  1.8891
  473MPD2    N1 7047   4.198   3.694  13.756  0.0253  0.3351 -0.6917
  473MPD2    H7 7048   4.226   3.771  13.696 -1.2689  0.1964 -1.4785
  474TMC3    C1 7049   4.475   4.186  14.074 -0.7675  0.9203 -0.2329
  474TMC3    C2 7050   4.400   4.296  14.057 -0.3814  0.3251  0.4871
  474TMC3    C3 7051   4.393   4.400  14.143  0.2896 -0.8729 -0.3093
  474TMC3    C4 7052   4.557   4.185  14.189  0.2338  0.2109 -0.3560
  474TMC3    C5 7053   4.549   4.290  14.276 -0.3367 -0.1808  0.3759
  474TMC3    C6 7054   4.458   4.390  14.260  0.2692  0.9927  0.2676
  474TMC3     C 7055   4.419   4.067  14.010 -0.1885  0.4128 -0.1221
  474TMC3     O 7056   4.336   4.085  13.922 -0.1360  0.2090  0.1436
  474TMC3     H 7057   4.328   4.309  13.977  1.1088  1.4535 -0.6796
  474TMC3    H1 7058   4.613   4.096  14.214 -0.0221  0.3077  0.5649
  474TMC3    H2 7059   4.453   4.467  14.337  2.6142  0.0853  1.3077
  474TMC3    C7 7060   4.587   4.258  14.415 -0.5371 -0.4397  0.1641
  474TMC3    C8 7061   4.279   4.489  14.126 -0.4093 -0.0222 -0.1185
  474TMC3    O1 7062   4.571   4.143  14.453 -0.0146 -0.8311  0.3813
  474TMC3    O2 7063   4.172   4.445  14.088  0.0242 -0.5236 -0.2995
  475MPD2     C 7064   3.376   2.236  10.851  0.2291  0.8452 -0.1428
  475MPD2    C1 7065   3.337   2.124  10.791 -0.2310  0.6001 -0.7543
  475MPD2    C2 7066   3.198   2.095  10.795 -0.0917  0.4319  0.3821
  475MPD2    C3 7067   3.109   2.178  10.856 -0.0491 -0.0181 -0.3488
  475MPD2    C4 7068   3.150   2.297  10.915  0.1692 -0.1374 -0.6757
  475MPD2    C5 7069   3.289   2.320  10.914 -0.4390 -0.9670  0.1995
  475MPD2     H 7070   3.166   2.002  10.748 -0.5652  0.5585  0.4512
  475MPD2    H1 7071   3.086   2.368  10.967  0.0375 -0.1772 -0.7843
  475MPD2    H2 7072   3.482   2.261  10.856  0.5458 -0.2135 -1.5546
  475MPD2    H3 7073   3.332   2.405  10.965 -2.0725  1.5777 -2.6662
  475MPD2     N 7074   2.967   2.147  10.844  0.1702 -0.3160  0.5955
  475MPD2    H5 7075   2.936   2.062  10.798 -2.4846 -0.1540  2.0884
  475MPD2    N1 7076   3.435   2.043  10.725  0.3017  0.7736  0.9281
  475MPD2    H7 7077   3.510   2.101  10.690  0.4627 -1.3874 -2.2769
  476TMC3    C1 7078   3.512   1.895  10.564 -0.2223  0.7676  0.2324
  476TMC3    C2 7079   3.494   1.791  10.470  0.6740  0.1996  0.1822
  476TMC3    C3 7080   3.565   1.795  10.356  0.6065 -0.2056 -0.4228
  476TMC3    C4 7081   3.616   1.978  10.555 -0.2763  0.0961  0.4456
  476TMC3    C5 7082   3.699   1.964  10.453 -0.6543 -0.1650 -0.6169
  476TMC3    C6 7083   3.670   1.877  10.351  0.4842  0.1875 -0.5420
  476TMC3     C 7084   3.414   1.923  10.660  0.0100 -0.4080  0.1295
  476TMC3     O 7085   3.320   1.846  10.682 -0.1957  0.0187  0.2771
  476TMC3     H 7086   3.406   1.729  10.478  1.1014 -0.5683 -1.1435
  476TMC3    H1 7087   3.643   2.051  10.631  0.3762 -1.0010  1.2593
  476TMC3    H2 7088   3.717   1.874  10.253 -1.9863  0.8552 -1.7504
  476TMC3    C7 7089   3.756   2.090  10.409  0.3368 -0.3237 -0.3748
  476TMC3    C8 7090   3.489   1.801  10.235  0.2374 -0.6252  0.2854
  476TMC3    O1 7091   3.831   2.155  10.482  0.1121  0.4132  0.1446
  476TMC3    O2 7092   3.497   1.902  10.166 -0.0259  1.1559 -0.4143
  477MPD2     C 7093   0.644   3.765  11.628 -0.8137 -0.2528 -0.2089
  477MPD2    C1 7094   0.553   3.666  11.601  0.1203  0.9204 -0.5894
  477MPD2    C2 7095   0.525   3.570  11.699  0.2169 -0.9055 -0.6439
  477MPD2    C3 7096   0.612   3.566  11.813  0.0290  0.5081 -0.1026
  477MPD2    C4 7097   0.707   3.666  11.827  0.0330  0.1658  0.6969
  477MPD2    C5 7098   0.716   3.770  11.744  0.2007 -0.3475 -0.8825
  477MPD2     H 7099   0.447   3.496  11.689  1.7408 -2.6601  0.5942
  477MPD2    H1 7100   0.778   3.660  11.909  0.2816 -0.8538  0.3997
  477MPD2    H2 7101   0.660   3.852  11.565 -0.5726  0.8132  1.3081
  477MPD2    H3 7102   0.805   3.831  11.751 -0.1243 -0.1494  1.3034
  477MPD2     N 7103   0.597   3.472  11.922 -0.8943 -0.1395  0.5329
  477MPD2    H5 7104   0.662   3.488  11.998 -0.3898  0.6143 -0.0567
  477MPD2    N1 7105   0.475   3.674  11.482 -0.8454 -0.3558 -0.1615
  477MPD2    H7 7106   0.484   3.761  11.429  0.0958 -0.5055 -0.2435
  478TMC3    C1 7107   0.281   3.647  11.355 -0.6259 -0.6728  0.2175
  478TMC3    C2 7108   0.284   3.787  11.351 -0.1209  0.5397 -0.2271
  478TMC3    C3 7109   0.181   3.845  11.290  0.6527  0.2534  0.4356
  478TMC3    C4 7110   0.183   3.573  11.299 -0.2334  0.8426  0.4322
  478TMC3    C5 7111   0.083   3.637  11.233  0.1467  0.5758 -0.7614
  478TMC3    C6 7112   0.078   3.775  11.226  0.0235 -0.2328  0.8668
  478TMC3     C 7113   0.369   3.588  11.447 -0.3823  0.0802  0.7672
  478TMC3     O 7114   0.340   3.478  11.492  0.4504  0.1566 -0.1642
  478TMC3     H 7115   0.329   3.850  11.427  0.9073 -2.7444  1.8910
  478TMC3    H1 7116   0.188   3.465  11.308 -2.7941  0.7127  0.3145
  478TMC3    H2 7117   4.708   3.826  11.187  0.4333  0.6321  1.0728
  478TMC3    C7 7118   4.717   3.549  11.145  0.6450  0.5224 -0.4423
  478TMC3    C8 7119   0.153   3.979  11.339 -0.2564 -0.1424 -0.2035
  478TMC3    O1 7120   4.718   3.426  11.156  0.2364 -0.0998 -0.3599
  478TMC3    O2 7121   0.146   4.070  11.252  0.0729  0.5465 -0.0057
  479MPD2     C 7122   3.998   1.009  14.993 -0.4700  0.0616  0.6340
  479MPD2    C1 7123   3.940   0.984  15.114 -0.0809 -0.3425  0.0977
  479MPD2    C2 7124   4.006   1.020  15.230 -0.4164 -1.2251 -0.2375
  479MPD2    C3 7125   4.127   1.085  15.220  0.0940  0.3726  0.1915
  479MPD2    C4 7126   4.187   1.114  15.101  0.2997 -0.3636  0.0477
  479MPD2    C5 7127   4.112   1.077  14.992  0.1539 -0.3148 -0.6625
  479MPD2     H 7128   3.962   1.007  15.329 -0.0064  2.3304  0.4022
  479MPD2    H1 7129   4.284   1.158  15.082 -0.4403  1.9345  1.6826
  479MPD2    H2 7130   3.947   0.975  14.903  0.5806  1.0955 -0.3578
  479MPD2    H3 7131   4.159   1.104  14.898 -0.7678 -0.0312 -1.0483
  479MPD2     N 7132   4.213   1.127  15.327 -0.6590  0.3401  0.0242
  479MPD2    H5 7133   4.311   1.141  15.305  0.3422  1.5929  5.1914
  479MPD2    N1 7134   3.811   0.917  15.117 -0.2126  0.3333  0.3722
  479MPD2    H7 7135   3.769   0.911  15.025 -0.9342  0.2698  0.7070
  480TMC3    C1 7136   3.880   1.058  15.638  0.6719  0.6035  0.5855
  480TMC3    C2 7137   3.791   1.130  15.568 -0.3912 -0.1441 -0.7331
  480TMC3    C3 7138   3.833   1.214  15.466  0.0617 -0.4946  0.3075
  480TMC3    C4 7139   4.015   1.062  15.611 -0.2425  0.2287 -0.2051
  480TMC3    C5 7140   4.048   1.137  15.506 -0.3321 -0.4721 -0.0127
  480TMC3    C6 7141   3.969   1.226  15.440 -0.4185 -0.2041 -0.0891
  480TMC3     C 7142   3.835   0.941  15.714 -0.0400 -0.3503 -1.0867
  480TMC3     O 7143   3.922   0.865  15.760 -0.2091  0.0845 -0.4516
  480TMC3     H 7144   3.684   1.120  15.583 -0.3003  0.4419  0.2648
  480TMC3    H1 7145   4.089   0.997  15.656 -2.3241 -1.2299  1.1101
  480TMC3    H2 7146   4.019   1.291  15.370 -1.5632  1.1099  0.3083
  480TMC3    C7 7147   4.188   1.134  15.464  0.3882 -0.0605  0.0775
  480TMC3    C8 7148   3.739   1.242  15.360 -0.0807  0.0444  0.8684
  480TMC3    O1 7149   4.270   1.134  15.556  0.1611 -0.0680 -0.1587
  480TMC3    O2 7150   3.621   1.230  15.385 -0.8023  0.3660 -0.3044
  481MPD2     C 7151   1.430   0.888  13.934  0.4263  0.4946  0.2482
  481MPD2    C1 7152   1.298   0.845  13.926  0.7484  0.4390 -0.5618
  481MPD2    C2 7153   1.241   0.770  14.035  0.5294  0.1875 -0.0576
  481MPD2    C3 7154   1.319   0.757  14.144 -0.6237  0.7148  0.2681
  481MPD2    C4 7155   1.448   0.804  14.145 -1.8348 -1.2847  0.5862
  481MPD2    C5 7156   1.504   0.872  14.041 -0.2176 -0.9186 -0.2906
  481MPD2     H 7157   1.145   0.721  14.034  0.5141  0.2372 -1.0730
  481MPD2    H1 7158   1.505   0.794  14.237 -0.0805 -2.0077 -0.5767
  481MPD2    H2 7159   1.483   0.951  13.863  1.4105 -0.2229  0.3433
  481MPD2    H3 7160   1.604   0.913  14.046 -1.2588  1.4321  1.0500
  481MPD2     N 7161   1.277   0.689  14.259 -0.4896  0.0225  0.1143
  481MPD2    H5 7162   1.349   0.663  14.326  0.3173 -0.1106 -0.8035
  481MPD2    N1 7163   1.231   0.857  13.804  0.7642 -0.3024 -0.2067
  481MPD2    H7 7164   1.282   0.914  13.738  2.4177 -0.7242  0.7222
  482TMC3    C1 7165   1.042   0.862  13.655  0.1477 -0.7146  0.4574
  482TMC3    C2 7166   0.905   0.833  13.635 -0.6562  0.0888 -0.0416
  482TMC3    C3 7167   0.855   0.851  13.511  0.7448 -0.3984 -0.2213
  482TMC3    C4 7168   1.120   0.896  13.551  0.7156  0.4775 -0.2438
  482TMC3    C5 7169   1.064   0.922  13.428  0.2339 -0.1115 -0.4577
  482TMC3    C6 7170   0.929   0.892  13.408  0.1345  0.1594 -0.3154
  482TMC3     C 7171   1.102   0.817  13.778 -0.0047  0.1972 -0.0225
  482TMC3     O 7172   1.026   0.765  13.856  0.7429 -0.1241 -0.4415
  482TMC3     H 7173   0.837   0.814  13.717  0.6212  0.1879  1.0446
  482TMC3    H1 7174   1.228   0.893  13.565  0.4076  1.1589  2.1491
  482TMC3    H2 7175   0.875   0.923  13.319  0.0918 -0.1595 -0.4003
  482TMC3    C7 7176   1.156   0.891  13.321 -0.1398  0.6909 -0.2322
  482TMC3    C8 7177   0.730   0.804  13.468  0.3567 -0.4216 -0.0475
  482TMC3    O1 7178   1.267   0.927  13.349 -0.4981  0.0843 -0.1990
  482TMC3    O2 7179   0.649   0.876  13.413  0.2413 -0.6207 -0.1152
  483TMC3    C1 7180   4.218   0.040   1.161  0.7390  0.2331 -0.2489
  483TMC3    C2 7181   4.344   0.091   1.142  0.3343 -0.4257 -0.2615
  483TMC3    C3 7182   4.445   0.011   1.095 -0.0826  0.4350 -0.3621
  483TMC3    C4 7183   4.192   4.633   1.136  0.2922 -0.4705  0.8014
  483TMC3    C5 7184   4.291   4.555   1.082 -0.4879 -1.2809  0.2007
  483TMC3    C6 7185   4.415   4.601   1.066  0.4770 -0.2480  0.6121
  483TMC3     C 7186   4.108   0.131   1.186  0.0119 -0.2120 -0.2560
  483TMC3     O 7187   4.145   0.242   1.216  0.5221  0.1398 -0.0593
  483TMC3     H 7188   4.360   0.198   1.149 -0.0492 -0.3332 -0.8558
  483TMC3    H1 7189   4.093   4.589   1.140  0.2276 -0.5934 -2.6135
  483TMC3    H2 7190   4.495   4.547   1.016  1.2298  0.5668  0.9274
  483TMC3    C7 7191   4.256   4.420   1.050 -1.0486 -0.5564 -0.0000
  483TMC3    C8 7192   4.533   0.076   1.007  0.7370 -0.6470  0.4564
  483TMC3    O1 7193   4.160   4.369   1.107 -0.6433  0.3833  0.6177
  483TMC3    O2 7194   4.487   0.164   0.935 -0.4034 -0.4767  0.1147
  484MPD2     C 7195   1.056   2.789  12.711 -0.1959  0.3368  0.2533
  484MPD2    C1 7196   1.103   2.665  12.718 -0.0404 -0.5167  0.2531
  484MPD2    C2 7197   1.235   2.640  12.685  0.1340  0.7845 -0.2609
  484MPD2    C3 7198   1.320   2.741  12.634 -0.2427  0.0558 -0.3821
  484MPD2    C4 7199   1.268   2.865  12.633 -0.1722  0.7414  0.5748
  484MPD2    C5 7200   1.138   2.883  12.667  0.2079  0.6096  0.0927
  484MPD2     H 7201   1.266   2.537  12.694 -1.2856  0.4341  0.5670
  484MPD2    H1 7202   1.316   2.949  12.583  0.8245 -0.5708 -0.6447
  484MPD2    H2 7203   0.954   2.820  12.728 -0.2244 -0.4117  1.4319
  484MPD2    H3 7204   1.082   2.976  12.654  0.0907  0.4162 -0.8163
  484MPD2     N 7205   1.458   2.725  12.605 -0.1978 -0.3309  0.3785
  484MPD2    H5 7206   1.510   2.804  12.569 -0.0641 -0.1954  0.8718
  484MPD2    N1 7207   1.014   2.558  12.758 -0.4322  0.3683 -0.1865
  484MPD2    H7 7208   0.937   2.589  12.817  0.6759  1.5955  0.6301
  485TMC3    C1 7209   1.667   2.621  12.616  0.5824 -0.0042  0.2449
  485TMC3    C2 7210   1.739   2.520  12.674 -0.3036 -0.1158 -0.0454
  485TMC3    C3 7211   1.878   2.525  12.651  1.1786  0.1688 -0.2580
  485TMC3    C4 7212   1.707   2.698  12.515 -0.1004  0.3048 -0.3940
  485TMC3    C5 7213   1.845   2.688  12.496 -0.0666 -0.0552 -0.2231
  485TMC3    C6 7214   1.932   2.621  12.578 -0.0235 -0.4755 -0.6965
  485TMC3     C 7215   1.531   2.617  12.648  0.0798  0.1781  0.3314
  485TMC3     O 7216   1.495   2.507  12.700 -0.9617  0.1040  0.1326
  485TMC3     H 7217   1.707   2.461  12.759  2.0806  0.1403  1.0476
  485TMC3    H1 7218   1.648   2.759  12.449 -0.6249 -1.3117 -1.4190
  485TMC3    H2 7219   2.038   2.609  12.555  0.4462  1.5707  0.3081
  485TMC3    C7 7220   1.887   2.712  12.358 -0.8898 -0.1449  0.0957
  485TMC3    C8 7221   1.940   2.401  12.605  0.2423  0.2264  0.4607
  485TMC3    O1 7222   1.848   2.805  12.288  0.2428 -0.0719 -0.2068
  485TMC3    O2 7223   2.013   2.402  12.505 -0.2394 -0.2709  0.7180
  486MPD2     C 7224   3.704   1.189  12.746 -0.1004 -1.2099 -0.7709
  486MPD2    C1 7225   3.654   1.192  12.621  0.3893 -0.4212  0.4699
  486MPD2    C2 7226   3.616   1.313  12.571  0.5095 -0.0313  0.1888
  486MPD2    C3 7227   3.609   1.428  12.645 -0.1573  0.5929 -0.1804
  486MPD2    C4 7228   3.647   1.421  12.772  0.0581 -0.0200  0.1193
  486MPD2    C5 7229   3.696   1.302  12.820 -0.0698  0.3324 -0.3407
  486MPD2     H 7230   3.584   1.318  12.467  1.2705  1.3760  0.0312
  486MPD2    H1 7231   3.645   1.503  12.843  2.1120 -0.8599  1.1565
  486MPD2    H2 7232   3.733   1.100  12.801 -1.4463 -1.1782 -0.0082
  486MPD2    H3 7233   3.730   1.303  12.923 -1.3020 -1.7925  0.0831
  486MPD2     N 7234   3.549   1.545  12.581  0.0370  0.1305  0.0233
  486MPD2    H5 7235   3.529   1.538  12.482  2.1885 -1.7563 -0.2694
  486MPD2    N1 7236   3.655   1.069  12.549 -0.4692 -0.6836  0.0251
  486MPD2    H7 7237   3.701   0.993  12.597  0.3165  0.8123  1.6630
  487TMC3    C1 7238   3.646   0.909  12.393  0.2286 -0.2285 -1.3648
  487TMC3    C2 7239   3.537   0.831  12.393  0.4328  0.7842 -0.2295
  487TMC3    C3 7240   3.554   0.701  12.428  0.3037  0.6828 -0.2949
  487TMC3    C4 7241   3.775   0.867  12.416 -0.0830 -0.0747  0.1054
  487TMC3    C5 7242   3.786   0.736  12.437  0.8375 -0.5087 -0.2630
  487TMC3    C6 7243   3.678   0.655  12.433 -0.0987 -0.6522  0.1476
  487TMC3     C 7244   3.609   1.040  12.425  0.2251 -0.4533  0.9870
  487TMC3     O 7245   3.524   1.101  12.363  0.7177  0.5113 -0.6516
  487TMC3     H 7246   3.436   0.870  12.402  0.0973  0.1316 -1.2020
  487TMC3    H1 7247   3.846   0.944  12.442 -0.6851  0.7994 -0.8251
  487TMC3    H2 7248   3.690   0.555  12.474 -0.1743 -0.3236  0.9716
  487TMC3    C7 7249   3.900   0.709  12.521  0.0961  0.0290 -0.1305
  487TMC3    C8 7250   3.469   0.649  12.530  0.5825 -0.4489  0.3673
  487TMC3    O1 7251   3.984   0.795  12.539 -0.5312  0.5450  0.0749
  487TMC3    O2 7252   3.402   0.728  12.592  0.3401 -0.3153  0.0302
  488MPD2     C 7253   4.103   2.833  16.045 -0.1673  0.5670 -0.2591
  488MPD2    C1 7254   4.111   2.927  16.143  0.0021 -0.4451  0.1660
  488MPD2    C2 7255   4.029   2.911  16.258 -0.8770 -0.2624 -0.1544
  488MPD2    C3 7256   3.935   2.810  16.269 -0.1384 -0.0917 -0.1656
  488MPD2    C4 7257   3.939   2.709  16.170 -0.2337  0.3548  0.0874
  488MPD2    C5 7258   4.026   2.717  16.064  0.4626  0.0333  0.2145
  488MPD2     H 7259   4.034   2.975  16.345 -0.3329  0.6134 -0.8208
  488MPD2    H1 7260   3.869   2.626  16.174  1.4512 -1.1037 -0.7112
  488MPD2    H2 7261   4.158   2.821  15.952  1.2490 -0.6473  0.7251
  488MPD2    H3 7262   4.035   2.638  15.990  0.4323  2.8428 -2.7971
  488MPD2     N 7263   3.859   2.801  16.388 -0.1267  0.3095  0.3410
  488MPD2    H5 7264   3.867   2.879  16.453  1.1086  0.8057 -0.4101
  488MPD2    N1 7265   4.215   3.028  16.140  0.5746 -0.8749  0.6607
  488MPD2    H7 7266   4.214   3.095  16.217  0.9532  0.6282 -0.6399
  489TMC3    C1 7267   3.696   2.750  16.546  0.1511 -0.0166  0.0899
  489TMC3    C2 7268   3.713   2.885  16.579  0.7528 -0.6796 -0.3417
  489TMC3    C3 7269   3.739   2.901  16.713 -0.4112  0.0400  0.8918
  489TMC3    C4 7270   3.710   2.643  16.632 -0.3343 -0.3881  0.4357
  489TMC3    C5 7271   3.738   2.672  16.758 -0.5467  0.1175  0.6340
  489TMC3    C6 7272   3.759   2.800  16.806 -0.1945  0.6579 -0.3013
  489TMC3     C 7273   3.751   2.722  16.416  0.6410  0.9969 -0.1516
  489TMC3     O 7274   3.712   2.619  16.362  0.4040  0.5740  0.2489
  489TMC3     H 7275   3.709   2.965  16.506  0.9196  0.2258  0.6625
  489TMC3    H1 7276   3.703   2.543  16.590  4.0617 -0.4167 -0.2801
  489TMC3    H2 7277   3.788   2.826  16.908 -2.2620  1.7895 -0.0110
  489TMC3    C7 7278   3.797   2.567  16.842 -0.0179  0.4039 -0.5638
  489TMC3    C8 7279   3.831   3.007  16.736  0.3984 -0.5333  0.2309
  489TMC3    O1 7280   3.899   2.598  16.911  0.1893 -0.8042 -0.4903
  489TMC3    O2 7281   3.871   3.070  16.640  0.3161 -0.5501 -0.0557
  490MPD2     C 7282   4.538   1.436   0.160  0.8234 -0.0239 -0.2021
  490MPD2    C1 7283   4.458   1.474   0.058  0.3119  0.3479 -0.6098
  490MPD2    C2 7284   4.462   1.600   0.007  0.1996 -0.6597  0.3478
  490MPD2    C3 7285   4.550   1.695   0.048 -0.4208 -0.9372 -0.4455
  490MPD2    C4 7286   4.630   1.662   0.159  0.6054 -0.4548  0.7236
  490MPD2    C5 7287   4.626   1.532   0.202 -0.0066  0.1702 -0.2061
  490MPD2     H 7288   4.413   1.633  17.591 -1.9605  0.4627  1.9096
  490MPD2    H1 7289   4.704   1.723   0.209 -0.3969  3.1862 -2.2805
  490MPD2    H2 7290   4.530   1.337   0.204  0.1760 -0.4224 -1.2299
  490MPD2    H3 7291   4.694   1.506   0.282  1.1506  1.1413 -0.8884
  490MPD2     N 7292   4.579   1.822  17.657  0.0746 -0.0063  0.1823
  490MPD2    H5 7293   4.646   1.871   0.040 -0.5847  2.4388 -1.1353
  490MPD2    N1 7294   4.367   1.385  17.672  0.1091 -0.0718  0.3539
  490MPD2    H7 7295   4.315   1.423  17.594  1.4512 -1.1280 -1.0675
  491TMC3    C1 7296   4.262   1.185  17.614 -0.0253  0.0349  0.1016
  491TMC3    C2 7297   4.186   1.091  17.674  1.0389 -0.0712 -0.0460
  491TMC3    C3 7298   4.070   1.058  17.611  0.6455 -0.1749  0.1297
  491TMC3    C4 7299   4.234   1.248  17.497  0.1842 -0.4133 -0.0248
  491TMC3    C5 7300   4.113   1.216  17.440 -0.6230 -0.1771 -0.7354
  491TMC3    C6 7301   4.031   1.120  17.493  0.2391 -0.3797 -0.0951
  491TMC3     C 7302   4.367   1.250   0.019  0.3173 -0.7725  0.0881
  491TMC3     O 7303   4.408   1.185   0.117  0.4599 -0.3788 -0.2723
  491TMC3     H 7304   4.216   1.046   0.092 -0.5671 -0.1902  0.4101
  491TMC3    H1 7305   4.309   1.310  17.451  0.0604 -0.4127 -0.2284
  491TMC3    H2 7306   3.932   1.105  17.451  0.7942 -0.9660 -1.1910
  491TMC3    C7 7307   4.079   1.283  17.312  0.1648 -0.2894  0.0271
  491TMC3    C8 7308   3.967   1.052   0.041  0.0426 -0.5626 -0.0381
  491TMC3    O1 7309   3.975   1.239  17.269 -0.1746  0.2825  0.4655
  491TMC3    O2 7310   4.002   1.090   0.152 -0.4599  0.5167 -0.4451
  492MPD2     C 7311   0.206   2.297  11.609  0.0323  0.0554  0.2714
  492MPD2    C1 7312   0.100   2.229  11.547  0.4294 -0.5958 -0.4701
  492MPD2    C2 7313   4.709   2.198  11.625  0.0383 -0.1346 -0.5913
  492MPD2    C3 7314   4.702   2.223  11.760 -0.0108 -0.3794  0.3996
  492MPD2    C4 7315   0.083   2.293  11.818  0.2265  0.9821  0.4516
  492MPD2    C5 7316   0.185   2.344  11.738  0.0707  0.1182  0.0129
  492MPD2     H 7317   4.624   2.155  11.573 -1.5503  3.2283 -0.7779
  492MPD2    H1 7318   0.064   2.322  11.921  2.0550  0.2433  0.9877
  492MPD2    H2 7319   0.287   2.332  11.546 -0.1856  0.1686  0.0542
  492MPD2    H3 7320   0.269   2.398  11.779  0.0126 -1.4687  2.2476
  492MPD2     N 7321   4.596   2.184  11.849  0.6753 -0.4353 -0.4483
  492MPD2    H5 7322   4.601   2.226  11.941 -2.0301 -0.8857 -0.0943
  492MPD2    N1 7323   0.117   2.197  11.407 -0.2013  0.0445 -0.2733
  492MPD2    H7 7324   0.200   2.234  11.363 -0.4936  0.7445 -0.2345
  493TMC3    C1 7325   0.053   2.093  11.199  0.1172  0.5291  0.6287
  493TMC3    C2 7326   0.185   2.084  11.173  0.0605 -0.0197 -0.1707
  493TMC3    C3 7327   0.229   2.035  11.053  0.2671 -0.3527 -0.1253
  493TMC3    C4 7328   4.677   2.048  11.111 -0.5064  0.1504  0.4007
  493TMC3    C5 7329   0.002   2.017  10.987  0.5785 -0.0187  0.0170
  493TMC3    C6 7330   0.136   2.002  10.960  0.6535 -0.2078  1.0071
  493TMC3     C 7331   0.019   2.128  11.332  0.0660  0.7931 -0.3080
  493TMC3     O 7332   4.628   2.084  11.368  0.0954 -0.5686 -0.3813
  493TMC3     H 7333   0.267   2.109  11.239 -0.3664  2.2600 -0.5018
  493TMC3    H1 7334   4.576   2.035  11.148 -0.3317  0.3058  0.9329
  493TMC3    H2 7335   0.172   1.969  10.864  3.9130  0.3132  2.0594
  493TMC3    C7 7336   4.656   1.898  10.949  0.0411 -0.2886 -0.3596
  493TMC3    C8 7337   0.372   2.008  11.039  0.3538  0.5919 -0.4631
  493TMC3    O1 7338   4.544   1.908  10.902  0.2399  0.0099  0.0324
  493TMC3    O2 7339   0.418   1.944  11.133  0.0188 -0.1818 -0.8906
  494TMC3    C1 7340   0.384   3.660   0.536 -0.7622 -0.1792 -0.2186
  494TMC3    C2 7341   0.368   3.523   0.544 -0.1643 -0.4645 -0.3715
  494TMC3    C3 7342   0.418   3.451   0.438  0.3954  0.1009 -0.4422
  494TMC3    C4 7343   0.455   3.719   0.441  0.2312 -0.4009 -0.5981
  494TMC3    C5 7344   0.506   3.643   0.341  1.0555  0.2541  0.4397
  494TMC3    C6 7345   0.478   3.511   0.328  0.7517  0.0423  0.3723
  494TMC3     C 7346   0.314   3.747   0.640  0.4890  0.0974 -0.0697
  494TMC3     O 7347   0.263   3.688   0.736 -0.0445 -0.2824 -0.5962
  494TMC3     H 7348   0.318   3.476   0.627  2.6191 -0.2622  1.4395
  494TMC3    H1 7349   0.486   3.823   0.447 -2.2146  0.2079  1.3976
  494TMC3    H2 7350   0.513   3.450   0.246 -0.0153  2.1314 -1.5053
  494TMC3    C7 7351   0.550   3.704   0.213  0.4942  0.0413  0.7352
  494TMC3    C8 7352   0.405   3.308   0.438  0.3307  0.5252 -0.0438
  494TMC3    O1 7353   0.616   3.635   0.136  0.7544  0.2011 -0.3845
  494TMC3    O2 7354   0.483   3.240   0.373 -0.2776  0.1373 -0.3264
  495TMC3    C1 7355   4.091   1.175  14.464 -0.3000 -0.5556  0.0826
  495TMC3    C2 7356   4.007   1.217  14.362  0.2411 -0.5139 -0.2573
  495TMC3    C3 7357   3.919   1.322  14.392  0.0019  0.2642 -0.2259
  495TMC3    C4 7358   4.097   1.240  14.584  0.4916 -0.0794 -0.2757
  495TMC3    C5 7359   4.008   1.340  14.607 -0.0400  0.3960  0.4135
  495TMC3    C6 7360   3.918   1.376  14.514  0.1593  0.0350  0.8146
  495TMC3     C 7361   4.127   1.036  14.480  0.6974  0.3442  0.6024
  495TMC3     O 7362   4.197   1.004  14.573 -0.2229 -0.0849  0.1499
  495TMC3     H 7363   4.003   1.171  14.265 -2.2996  1.8704 -1.2805
  495TMC3    H1 7364   4.163   1.202  14.661 -0.8769  1.8471  1.8322
  495TMC3    H2 7365   3.857   1.461  14.544 -2.6236 -1.6371 -0.0967
  495TMC3    C7 7366   3.968   1.351  14.749  0.1660 -0.3746 -0.7381
  495TMC3    C8 7367   3.823   1.374  14.300 -0.2950 -0.4480 -0.5273
  495TMC3    O1 7368   4.053   1.328  14.830  0.2401 -0.2740  0.3604
  495TMC3    O2 7369   3.717   1.402  14.356  0.3637 -0.2331  0.0655
  496MPD2     C 7370   1.363   1.418  15.403  0.0979  0.5109 -0.4503
  496MPD2    C1 7371   1.442   1.360  15.499  0.4280 -0.1754 -0.5157
  496MPD2    C2 7372   1.441   1.390  15.639 -0.5987 -0.3199 -0.1499
  496MPD2    C3 7373   1.339   1.475  15.675  0.0292 -0.2464 -0.1081
  496MPD2    C4 7374   1.261   1.532  15.580 -0.0778  0.2594 -0.4676
  496MPD2    C5 7375   1.269   1.505  15.447  0.3649  0.1277  0.0168
  496MPD2     H 7376   1.511   1.344  15.708 -1.0453  0.2730  0.7031
  496MPD2    H1 7377   1.185   1.603  15.611  0.9434  1.5661 -0.9142
  496MPD2    H2 7378   1.371   1.383  15.301  1.2564 -0.8413  0.1078
  496MPD2    H3 7379   1.198   1.550  15.379  0.0793  0.0375  0.2572
  496MPD2     N 7380   1.315   1.511  15.812 -0.0740  0.3080 -0.0134
  496MPD2    H5 7381   1.228   1.561  15.829 -1.0343 -1.2864 -0.2326
  496MPD2    N1 7382   1.521   1.251  15.456  0.5511 -0.3131  0.1250
  496MPD2    H7 7383   1.510   1.229  15.357 -0.9201 -1.8733  0.6311
  497TMC3    C1 7384   1.319   1.477  16.043 -0.7552 -0.2805 -0.0346
  497TMC3    C2 7385   1.230   1.368  16.036  0.6516  1.0981 -0.3185
  497TMC3    C3 7386   1.203   1.309  16.156 -0.2059 -0.0816  0.1419
  497TMC3    C4 7387   1.379   1.510  16.165 -0.5666  0.8741  0.1109
  497TMC3    C5 7388   1.343   1.448  16.277  0.0482  0.6537  0.1663
  497TMC3    C6 7389   1.258   1.337  16.274 -0.5744 -0.2149  0.1711
  497TMC3     C 7390   1.399   1.488  15.920 -0.5732  0.4973  0.1684
  497TMC3     O 7391   1.509   1.434  15.925 -0.1749 -0.6114 -0.6209
  497TMC3     H 7392   1.201   1.323  15.942 -1.9132 -0.1853  1.0749
  497TMC3    H1 7393   1.446   1.594  16.181 -0.0524  0.0156  2.3964
  497TMC3    H2 7394   1.236   1.297  16.372  1.7460 -2.6921 -0.3164
  497TMC3    C7 7395   1.358   1.508  16.405  0.2964  0.0971  0.0532
  497TMC3    C8 7396   1.127   1.191  16.155  0.7255  0.1878 -0.3276
  497TMC3    O1 7397   1.324   1.622  16.424  0.6720  0.4081 -0.4881
  497TMC3    O2 7398   1.130   1.118  16.248  0.3232  0.7971  0.1356
  498MPD2     C 7399   2.878   1.169   9.574  0.1292  0.6131  0.2950
  498MPD2    C1 7400   2.813   1.287   9.600 -1.1906 -0.1997  0.4011
  498MPD2    C2 7401   2.675   1.286   9.618  0.6704 -0.0354  0.1942
  498MPD2    C3 7402   2.603   1.167   9.602 -0.0015  0.7069  0.0527
  498MPD2    C4 7403   2.666   1.053   9.576 -1.0649 -0.1979 -0.5303
  498MPD2    C5 7404   2.797   1.057   9.554 -0.1697 -0.6516  0.4534
  498MPD2     H 7405   2.631   1.374   9.664  0.1830 -0.3599  0.3481
  498MPD2    H1 7406   2.621   0.955   9.577 -2.7124  0.5505 -0.5631
  498MPD2    H2 7407   2.986   1.158   9.576  0.0168 -0.8843 -1.9964
  498MPD2    H3 7408   2.845   0.962   9.535  1.5917 -0.1074  2.2116
  498MPD2     N 7409   2.466   1.180   9.632 -0.3258  0.1524  0.1811
  498MPD2    H5 7410   2.425   1.272   9.642 -1.7917 -0.5452  0.5818
  498MPD2    N1 7411   2.890   1.403   9.634  0.2494 -0.0606  0.0204
  498MPD2    H7 7412   2.844   1.494   9.636 -0.3547 -0.4351  3.7371
  499TMC3    C1 7413   3.069   1.556   9.672  0.0096  0.0188  0.5835
  499TMC3    C2 7414   3.205   1.570   9.686 -0.1356 -0.0845 -0.2662
  499TMC3    C3 7415   3.258   1.696   9.698 -0.6409  0.5951 -0.2572
  499TMC3    C4 7416   2.980   1.657   9.634 -0.1592 -0.3003 -0.8332
  499TMC3    C5 7417   3.049   1.780   9.636  0.0421 -0.3100 -0.0302
  499TMC3    C6 7418   3.173   1.804   9.678 -0.7561  0.4403 -0.2659
  499TMC3     C 7419   3.025   1.414   9.662  0.0399  0.4995  0.1062
  499TMC3     O 7420   3.109   1.320   9.673 -0.2764  0.3292  0.0285
  499TMC3     H 7421   3.263   1.487   9.724 -1.3199 -0.6605  0.2899
  499TMC3    H1 7422   2.885   1.637   9.588  0.2297 -3.9511 -0.0318
  499TMC3    H2 7423   3.213   1.905   9.688  1.7540 -0.5268 -0.6281
  499TMC3    C7 7424   2.978   1.900   9.599 -0.3930 -0.9590  0.3552
  499TMC3    C8 7425   3.396   1.719   9.727  0.5170  0.1617  0.3940
  499TMC3    O1 7426   3.051   1.997   9.569 -0.2785  0.0036 -0.3008
  499TMC3    O2 7427   3.443   1.823   9.683 -0.3535  0.4665  0.0083
  500MPD2     C 7428   4.259   2.962   9.534  0.4512 -0.5683 -0.2311
  500MPD2    C1 7429   4.248   3.094   9.567  0.5977 -0.3517  0.4403
  500MPD2    C2 7430   4.177   3.174   9.476 -0.5214 -0.2710 -0.0446
  500MPD2    C3 7431   4.112   3.119   9.365  1.1101  0.8257 -0.0492
  500MPD2    C4 7432   4.113   2.986   9.345  0.0102 -0.3327 -0.0162
  500MPD2    C5 7433   4.184   2.910   9.437  0.3807  0.7298 -0.2007
  500MPD2     H 7434   4.165   3.280   9.498  0.9066 -0.3152  0.9203
  500MPD2    H1 7435   4.071   2.943   9.255  0.4526  1.4240 -1.0467
  500MPD2    H2 7436   4.315   2.896   9.600  1.2410 -0.9456 -1.2655
  500MPD2    H3 7437   4.198   2.804   9.424  1.8047  0.9506 -0.4527
  500MPD2     N 7438   4.028   3.200   9.276 -0.0170  0.1657  0.0523
  500MPD2    H5 7439   3.962   3.147   9.220  0.5741 -2.2525  1.6420
  500MPD2    N1 7440   4.300   3.152   9.686 -0.0813  0.1384  0.3626
  500MPD2    H7 7441   4.280   3.250   9.704  0.2206  0.0188  1.3563
  501TMC3    C1 7442   4.413   3.182   9.888 -0.0253  0.1515 -0.7247
  501TMC3    C2 7443   4.374   3.311   9.887 -0.3047 -0.1130 -0.0457
  501TMC3    C3 7444   4.453   3.406   9.958  0.1649 -0.2029 -0.1831
  501TMC3    C4 7445   4.518   3.137   9.962  0.1557  0.4321 -0.3227
  501TMC3    C5 7446   4.593   3.233  10.031  0.5056 -0.5954  0.4051
  501TMC3    C6 7447   4.558   3.368  10.028 -0.4319 -0.2553 -0.6328
  501TMC3     C 7448   4.382   3.091   9.775  0.3241  0.1976 -0.2047
  501TMC3     O 7449   4.441   2.986   9.779 -0.1345 -0.2926  0.3268
  501TMC3     H 7450   4.282   3.340   9.837  0.3086  0.5674 -0.7814
  501TMC3    H1 7451   4.543   3.034   9.985 -2.1257 -0.3314 -1.2206
  501TMC3    H2 7452   4.628   3.444  10.063  0.2856 -1.2301  0.0507
  501TMC3    C7 7453   4.628   3.192  10.168  0.2538 -0.1909 -0.0609
  501TMC3    C8 7454   4.385   3.518  10.021  0.1484  0.3870  0.2367
  501TMC3    O1 7455   4.656   3.073  10.182  0.4282 -0.6083  0.3376
  501TMC3    O2 7456   4.401   3.512  10.143  0.2246 -0.5869 -0.1677
  502TMC3    C1 7457   3.522   2.072  14.863  0.0586  0.3761  0.2200
  502TMC3    C2 7458   3.527   2.201  14.916 -0.2040  0.4832 -0.2654
  502TMC3    C3 7459   3.410   2.260  14.952  0.5526 -0.3789 -0.4859
  502TMC3    C4 7460   3.402   2.013  14.859 -0.0263 -0.3159  0.4621
  502TMC3    C5 7461   3.285   2.076  14.898  0.0076 -0.2410 -0.2085
  502TMC3    C6 7462   3.289   2.206  14.947 -0.2636 -0.4992 -0.0602
  502TMC3     C 7463   3.599   1.989  14.949  0.3600  0.2908  0.7105
  502TMC3     O 7464   3.545   1.904  15.016 -0.0528  0.3434 -0.2373
  502TMC3     H 7465   3.620   2.257  14.917 -0.7563  1.4237 -1.1980
  502TMC3    H1 7466   3.407   1.915  14.812  0.2608  1.5409 -3.3524
  502TMC3    H2 7467   3.195   2.260  14.949  1.7300  2.7759  3.3761
  502TMC3    C7 7468   3.176   1.982  14.932  0.2836 -0.5983 -0.5615
  502TMC3    C8 7469   3.426   2.399  14.992  0.1656 -0.4245  0.5320
  502TMC3    O1 7470   3.182   1.873  14.873  0.0426 -0.3008 -0.3604
  502TMC3    O2 7471   3.522   2.457  14.947  0.1061 -0.1532 -0.1189
  503MPD2     C 7472   0.966   2.594  16.803 -0.2385 -0.8716  0.5562
  503MPD2    C1 7473   1.014   2.666  16.915 -0.3299  0.7462 -0.1125
  503MPD2    C2 7474   1.075   2.596  17.021 -0.2910  0.1545 -0.0095
  503MPD2    C3 7475   1.085   2.459  17.009  0.0243  0.2736 -0.4369
  503MPD2    C4 7476   1.038   2.395  16.896 -1.0981  0.3794 -0.1288
  503MPD2    C5 7477   0.987   2.462  16.794 -0.2741 -0.2666 -0.1632
  503MPD2     H 7478   1.119   2.644  17.108  2.6084  0.6336 -1.7535
  503MPD2    H1 7479   1.059   2.289  16.884  1.5499  0.6881  1.8141
  503MPD2    H2 7480   0.924   2.639  16.714  2.4227  1.6890  0.6171
  503MPD2    H3 7481   0.968   2.398  16.709  0.6239  0.3188 -0.8020
  503MPD2     N 7482   1.151   2.387  17.115 -0.3963  0.4387 -0.4025
  503MPD2    H5 7483   1.198   2.444  17.185 -0.4647 -0.3741  0.3077
  503MPD2    N1 7484   0.984   2.804  16.930  0.3498 -0.1797 -0.1220
  503MPD2    H7 7485   0.999   2.841  17.024  0.3172 -0.6926  0.0855
  504TMC3    C1 7486   1.192   2.203  17.264  0.0970  0.1594 -0.4058
  504TMC3    C2 7487   1.303   2.264  17.320  0.1655 -0.0150 -0.0333
  504TMC3    C3 7488   1.376   2.194  17.401  0.4845  0.3433  0.3909
  504TMC3    C4 7489   1.167   2.067  17.285  0.3685 -0.6240  0.1709
  504TMC3    C5 7490   1.244   1.997  17.373 -0.4961  0.3519 -0.2187
  504TMC3    C6 7491   1.348   2.065  17.427  0.0022 -0.1761 -0.0275
  504TMC3     C 7492   1.140   2.248  17.137  0.2164  0.3820 -0.2557
  504TMC3     O 7493   1.076   2.165  17.071  0.4710 -0.4173  0.6210
  504TMC3     H 7494   1.330   2.368  17.305 -1.0948  0.2839 -0.2670
  504TMC3    H1 7495   1.084   2.015  17.240 -0.6387  1.3701 -0.2886
  504TMC3    H2 7496   1.411   2.013  17.499  0.2551 -1.8065 -1.4197
  504TMC3    C7 7497   1.301   1.895  17.295 -0.6292  0.4693  1.4100
  504TMC3    C8 7498   1.468   2.267  17.479 -0.4902 -0.2994 -0.0956
  504TMC3    O1 7499   1.274   1.897  17.173 -0.7623 -0.1344  0.4844
  504TMC3    O2 7500   1.529   2.352  17.419  0.6713 -0.2723 -0.1361
  505MPD2     C 7501   1.227   1.283   9.951  0.1175  0.4343 -0.3410
  505MPD2    C1 7502   1.208   1.179  10.036 -0.3218  0.9396  0.3670
  505MPD2    C2 7503   1.237   1.182  10.169 -0.0564  0.7619 -0.2996
  505MPD2    C3 7504   1.295   1.303  10.215  0.0763 -0.6500 -0.4113
  505MPD2    C4 7505   1.306   1.416  10.132 -0.0203  1.0615  0.5779
  505MPD2    C5 7506   1.290   1.398   9.993  0.1978 -0.6820  0.3091
  505MPD2     H 7507   1.239   1.087  10.222  1.3885  1.7797  1.4825
  505MPD2    H1 7508   1.352   1.510  10.158  0.3787  0.6390  1.4078
  505MPD2    H2 7509   1.210   1.273   9.844 -0.6434  1.8401 -0.3474
  505MPD2    H3 7510   1.314   1.486   9.933 -1.9569 -1.8926 -2.3158
  505MPD2     N 7511   1.343   1.319  10.342  0.6283 -0.0970 -0.0089
  505MPD2    H5 7512   1.392   1.403  10.373  2.3546 -0.4979 -1.6723
  505MPD2    N1 7513   1.151   1.065   9.979  0.3745  0.2234  0.0699
  505MPD2    H7 7514   1.162   1.060   9.878  2.2999  1.2479  0.2151
  506TMC3    C1 7515   1.103   0.829   9.961 -0.7727 -0.4861 -0.4825
  506TMC3    C2 7516   1.205   0.800   9.879 -0.1988  0.3744  0.2610
  506TMC3    C3 7517   1.245   0.671   9.871  0.1472 -0.1581 -0.0334
  506TMC3    C4 7518   1.043   0.723  10.036 -0.0054  0.1214  0.2019
  506TMC3    C5 7519   1.080   0.593  10.015  0.3502 -0.3159 -0.0657
  506TMC3    C6 7520   1.189   0.569   9.933  0.4516  0.4329  0.0074
  506TMC3     C 7521   1.105   0.954  10.041 -0.7781  0.6551  0.3297
  506TMC3     O 7522   1.083   0.934  10.160 -0.2885 -0.3386  0.3600
  506TMC3     H 7523   1.249   0.883   9.824  0.1750 -0.7200 -1.0861
  506TMC3    H1 7524   0.954   0.760  10.086 -0.1437 -1.6837  1.2923
  506TMC3    H2 7525   1.230   0.470   9.921 -2.1402 -0.3828 -2.2912
  506TMC3    C7 7526   1.118   0.544  10.147 -0.1788  0.0281  0.0381
  506TMC3    C8 7527   1.346   0.639   9.771 -1.2361  0.2576 -0.5146
  506TMC3    O1 7528   1.152   0.428  10.140 -0.1049  0.1838  0.4441
  506TMC3    O2 7529   1.332   0.530   9.723  0.1578 -0.4158 -0.0340
  507TMC3    C1 7530   2.162   2.280  15.031  0.2350  0.2960 -0.1857
  507TMC3    C2 7531   2.139   2.202  14.926 -0.2933 -0.2007  0.0562
  507TMC3    C3 7532   2.127   2.264  14.806 -0.1080  0.2526  0.7281
  507TMC3    C4 7533   2.209   2.405  15.019  0.0985  0.6956 -0.6324
  507TMC3    C5 7534   2.212   2.465  14.894 -0.4380 -0.6556  0.2101
  507TMC3    C6 7535   2.182   2.385  14.793  0.8229 -0.4880 -0.1670
  507TMC3     C 7536   2.055   2.284  15.129  0.1850 -0.3265 -0.2160
  507TMC3     O 7537   2.082   2.349  15.232 -0.3139 -0.2711  0.0614
  507TMC3     H 7538   2.094   2.104  14.939  0.0674 -0.4146 -0.2823
  507TMC3    H1 7539   2.210   2.473  15.103  2.8493  2.2645 -1.9147
  507TMC3    H2 7540   2.186   2.430  14.695  1.1514 -0.3444 -0.0889
  507TMC3    C7 7541   2.152   2.588  14.888  0.6764 -0.1208 -0.2717
  507TMC3    C8 7542   1.996   2.247  14.743 -0.0630  0.5864  0.1661
  507TMC3    O1 7543   2.070   2.603  14.798  0.3228  0.1771 -0.5455
  507TMC3    O2 7544   1.937   2.141  14.766  0.2132  0.6304  0.2429
  508MPD2     C 7545   3.073   4.271  16.036  0.2699 -0.1732  0.5339
  508MPD2    C1 7546   3.030   4.377  16.110  0.7642 -0.9008  0.6354
  508MPD2    C2 7547   2.978   4.481  16.041  0.0751 -0.0734  0.3409
  508MPD2    C3 7548   2.965   4.475  15.898  1.0256  0.2668 -0.5140
  508MPD2    C4 7549   3.015   4.368  15.821  0.1583 -0.9471  0.5255
  508MPD2    C5 7550   3.059   4.259  15.897  0.5068 -0.1517  0.0856
  508MPD2     H 7551   2.938   4.568  16.091  4.2521  1.2298  1.3671
  508MPD2    H1 7552   3.016   4.362  15.713 -0.5745 -0.8749  0.5183
  508MPD2    H2 7553   3.119   4.187  16.086 -0.3432 -2.8393 -3.3344
  508MPD2    H3 7554   3.108   4.171  15.857 -0.3750 -0.1191 -1.0737
  508MPD2     N 7555   2.908   4.588  15.843 -0.1074  0.2034 -0.0168
  508MPD2    H5 7556   2.874   4.653  15.913  1.3882  0.7218  0.2462
  508MPD2    N1 7557   3.048   4.371  16.249  0.4212 -0.6190 -0.4233
  508MPD2    H7 7558   3.087   4.284  16.285  0.4006 -0.7448 -0.7018
  509TMC3    C1 7559   2.741   0.212  15.695 -0.6037 -0.2188  0.8116
  509TMC3    C2 7560   2.818   0.274  15.592  0.2846 -0.1941 -0.0460
  509TMC3    C3 7561   2.929   0.204  15.544  0.7085 -0.8106  0.3906
  509TMC3    C4 7562   2.752   0.080  15.728 -0.6410  0.1205  0.2534
  509TMC3    C5 7563   2.849   0.017  15.658  0.0805  0.3200 -0.1219
  509TMC3    C6 7564   2.935   0.073  15.567 -0.7767  0.2404  0.5121
  509TMC3     C 7565   2.642   0.291  15.772  0.2187  0.0895  0.2497
  509TMC3     O 7566   2.614   0.239  15.878  0.0098 -0.2598  0.2141
  509TMC3     H 7567   2.804   0.374  15.553 -0.8104 -1.0325 -1.8550
  509TMC3    H1 7568   2.690   0.035  15.805 -1.5824  1.4654  0.2997
  509TMC3    H2 7569   3.023   0.020  15.532 -1.0624 -0.9072  1.5470
  509TMC3    C7 7570   2.904   4.607  15.704 -0.1242  0.1255 -0.4376
  509TMC3    C8 7571   3.058   0.275  15.521  0.4750 -0.2466 -1.0277
  509TMC3    O1 7572   2.971   4.547  15.617  0.3078 -0.0911  0.2154
  509TMC3    O2 7573   3.155   0.203  15.499 -0.0293  0.6941 -0.5640
  510MPD2     C 7574   0.661   1.573  14.758  0.4044 -0.2465  0.0216
  510MPD2    C1 7575   0.747   1.476  14.803  0.6456 -0.1222  0.1592
  510MPD2    C2 7576   0.882   1.476  14.783 -0.7877 -0.1502 -0.0595
  510MPD2    C3 7577   0.936   1.588  14.719  0.4834 -0.6896 -0.1355
  510MPD2    C4 7578   0.855   1.694  14.683  0.0347  0.0418  0.1184
  510MPD2    C5 7579   0.722   1.684  14.697 -0.2804 -0.1627 -0.1521
  510MPD2     H 7580   0.945   1.394  14.814 -0.1326  0.4462  0.1999
  510MPD2    H1 7581   0.877   1.794  14.647  0.0580 -0.7928 -2.1872
  510MPD2    H2 7582   0.555   1.557  14.747  0.7145 -1.7360 -0.7748
  510MPD2    H3 7583   0.658   1.764  14.660  0.7534  1.0985  0.7874
  510MPD2     N 7584   1.076   1.600  14.712 -0.3100  0.1841 -0.0274
  510MPD2    H5 7585   1.126   1.521  14.753  0.4863  1.3088  1.1667
  510MPD2    N1 7586   0.675   1.374  14.874 -0.0746  0.5959 -0.2580
  510MPD2    H7 7587   0.575   1.386  14.888 -0.2941 -0.2253 -1.1215
  511TMC3    C1 7588   0.625   1.161  14.945 -0.5069 -0.5467  0.4505
  511TMC3    C2 7589   0.537   1.214  15.039 -0.3605  0.1672  0.6496
  511TMC3    C3 7590   0.435   1.129  15.077  0.7774  0.1279 -0.1141
  511TMC3    C4 7591   0.601   1.054  14.870  0.4379  0.0363 -0.1240
  511TMC3    C5 7592   0.486   0.984  14.893 -0.0370  0.1506  0.6215
  511TMC3    C6 7593   0.413   1.010  15.007  0.0575 -0.3692  0.3374
  511TMC3     C 7594   0.731   1.251  14.901  0.1139  0.5465 -0.5096
  511TMC3     O 7595   0.833   1.196  14.863 -0.2886 -0.0684  0.1757
  511TMC3     H 7596   0.555   1.310  15.087 -0.4241  0.9809 -0.9636
  511TMC3    H1 7597   0.661   1.038  14.781  2.6801  1.0248  1.2021
  511TMC3    H2 7598   0.337   0.938  15.036 -0.4353  0.4623  1.1245
  511TMC3    C7 7599   0.399   0.957  14.778  0.6085  0.5008  0.0557
  511TMC3    C8 7600   0.376   1.154  15.201  0.4374 -0.4804  1.0049
  511TMC3    O1 7601   0.411   1.043  14.690  0.4186  0.5370 -0.0780
  511TMC3    O2 7602   0.394   1.267  15.251 -0.3955 -0.6329 -0.3530
  512TMC3    C1 7603   4.643   0.636  13.565  0.2856 -1.0204 -0.1725
  512TMC3    C2 7604   4.563   0.741  13.616  0.3620 -0.1269 -0.4727
  512TMC3    C3 7605   4.488   0.711  13.727  0.3581 -0.6512  0.1163
  512TMC3    C4 7606   4.647   0.513  13.630 -0.2205  0.4589  0.1692
  512TMC3    C5 7607   4.555   0.491  13.728 -0.0375  0.1543  0.9108
  512TMC3    C6 7608   4.479   0.586  13.788  0.3386 -0.7533 -0.2342
  512TMC3     C 7609   4.696   0.661  13.433 -0.5370  0.1851  0.2822
  512TMC3     O 7610   4.706   0.777  13.404 -0.1194 -0.1606 -0.5515
  512TMC3     H 7611   4.549   0.833  13.559 -1.0446 -0.3882 -0.5484
  512TMC3    H1 7612   0.002   0.441  13.595 -0.1579  0.0717  1.1056
  512TMC3    H2 7613   4.406   0.578  13.868 -1.7205 -0.7188 -2.0894
  512TMC3    C7 7614   4.578   0.381  13.816  0.0632 -0.4633 -0.5080
  512TMC3    C8 7615   4.373   0.793  13.747 -0.3415 -0.0839 -0.0295
  512TMC3    O1 7616   4.527   0.394  13.926 -0.0177 -0.2498  0.2414
  512TMC3    O2 7617   4.270   0.735  13.784 -0.1450  0.2765  0.3048
  513MPD2     C 7618   1.220   1.315  13.309  0.0541  0.4677 -0.0573
  513MPD2    C1 7619   1.349   1.270  13.291 -0.1478  0.4949 -0.4715
  513MPD2    C2 7620   1.441   1.292  13.392  0.7014  0.5035 -0.1463
  513MPD2    C3 7621   1.404   1.343  13.510 -0.5126  0.1890 -0.5311
  513MPD2    C4 7622   1.277   1.403  13.517 -0.0643 -0.1232 -0.2549
  513MPD2    C5 7623   1.188   1.390  13.416  0.4710 -0.2744 -0.1720
  513MPD2     H 7624   1.542   1.256  13.378 -1.2797 -3.9864 -2.8954
  513MPD2    H1 7625   1.245   1.461  13.603  1.0148 -0.9501  0.6969
  513MPD2    H2 7626   1.153   1.303  13.225  0.3686 -0.0572 -0.2325
  513MPD2    H3 7627   1.097   1.448  13.433  0.0639 -0.3382 -2.1589
  513MPD2     N 7628   1.504   1.344  13.612  0.1449 -0.0192 -0.7345
  513MPD2    H5 7629   1.586   1.289  13.586 -0.1214 -0.6876 -0.1667
  513MPD2    N1 7630   1.398   1.203  13.173  0.3665 -0.3506 -0.1411
  513MPD2    H7 7631   1.500   1.202  13.177  0.4287  0.8033 -1.5829
  514TMC3    C1 7632   1.436   1.135  12.961  0.6373  0.1775 -0.6089
  514TMC3    C2 7633   1.438   1.192  12.836 -0.0105 -0.5008  0.2800
  514TMC3    C3 7634   1.568   1.224  12.791 -0.0273  0.0029 -0.3774
  514TMC3    C4 7635   1.543   1.087  13.024 -0.7469 -0.0568  0.2815
  514TMC3    C5 7636   1.667   1.130  12.975 -0.5277 -0.5638 -0.7749
  514TMC3    C6 7637   1.688   1.193  12.853 -0.9973  0.5474 -0.1180
  514TMC3     C 7638   1.333   1.171  13.057 -1.1568 -0.0068  0.1487
  514TMC3     O 7639   1.223   1.198  13.017 -0.3918 -0.0131 -0.7084
  514TMC3     H 7640   1.347   1.229  12.790  0.1618 -0.8462 -0.3313
  514TMC3    H1 7641   1.538   1.027  13.114 -1.8424  0.7011  0.7286
  514TMC3    H2 7642   1.780   1.243  12.825 -0.7977 -0.5116 -1.3273
  514TMC3    C7 7643   1.738   1.181  13.085  0.7601 -0.2601 -0.1814
  514TMC3    C8 7644   1.573   1.333  12.697  0.1608  0.5045  1.2094
  514TMC3    O1 7645   1.668   1.218  13.178  0.2181  0.4552 -0.2093
  514TMC3    O2 7646   1.481   1.409  12.699 -0.0535 -0.2831 -0.0138
  515MPD2     C 7647   0.031   2.420  14.518 -0.3691  0.1163  0.5526
  515MPD2    C1 7648   4.619   2.371  14.563 -0.0474 -0.3525  0.2762
  515MPD2    C2 7649   4.606   2.368  14.698 -0.3604 -0.2735  0.2004
  515MPD2    C3 7650   4.706   2.414  14.784  0.0987  0.1420 -0.1507
  515MPD2    C4 7651   0.113   2.462  14.734 -0.5835 -0.4775 -0.1393
  515MPD2    C5 7652   0.128   2.473  14.598  0.0828  0.4231  0.7152
  515MPD2     H 7653   4.514   2.324  14.735 -0.1606 -0.7988  0.0653
  515MPD2    H1 7654   0.196   2.483  14.800 -0.8294  2.9025 -0.9148
  515MPD2    H2 7655   0.055   2.410  14.413  0.8822  2.4387  0.6209
  515MPD2    H3 7656   0.223   2.502  14.555 -0.9584  0.2037 -1.6960
  515MPD2     N 7657   4.697   2.406  14.931 -0.0681 -0.0153  0.3933
  515MPD2    H5 7658   0.065   2.413  14.984  0.5299  0.8869 -0.6768
  515MPD2    N1 7659   4.526   2.304  14.483 -0.3794  0.1848  0.5467
  515MPD2    H7 7660   4.445   2.265  14.531 -1.8953  1.9993 -0.5625
  516TMC3    C1 7661   4.432   2.204  14.285 -0.4858 -0.2968 -0.5696
  516TMC3    C2 7662   4.394   2.221  14.152  0.0558  0.8957 -0.3836
  516TMC3    C3 7663   4.289   2.141  14.099 -0.3712  0.1261 -0.0970
  516TMC3    C4 7664   4.362   2.119  14.368  0.1461 -0.4073 -0.2537
  516TMC3    C5 7665   4.265   2.038  14.312  0.2747 -0.2300 -0.2723
  516TMC3    C6 7666   4.231   2.045  14.177  0.1530 -0.1980  0.5928
  516TMC3     C 7667   4.531   2.294  14.345 -0.0449 -0.1083 -0.8150
  516TMC3     O 7668   4.602   2.360  14.273 -0.2672  0.5531 -0.5529
  516TMC3     H 7669   4.432   2.303  14.091  0.7639 -0.2350 -1.4557
  516TMC3    H1 7670   4.398   2.094  14.467  0.1447  0.2117 -0.0995
  516TMC3    H2 7671   4.153   1.984  14.133  0.7610 -0.7041  0.2012
  516TMC3    C7 7672   4.204   1.940  14.400  0.1418  0.0068  0.2572
  516TMC3    C8 7673   4.189   2.210  14.019  0.0414 -0.2178  0.4772
  516TMC3    O1 7674   4.257   1.910  14.507  0.0620  0.5683  0.1103
  516TMC3    O2 7675   4.076   2.173  14.042 -0.0391  0.3469 -0.0315
  517MPD2     C 7676   4.018   4.261  17.639 -0.1952 -0.5090 -0.2247
  517MPD2    C1 7677   4.148   4.230   0.009  0.2813  0.0437  0.5653
  517MPD2    C2 7678   4.234   4.324   0.067  0.1843  0.4602  0.1204
  517MPD2    C3 7679   4.197   4.455   0.077  0.1740 -0.1910  0.1831
  517MPD2    C4 7680   4.065   4.480   0.047 -0.7156 -0.6069  0.6448
  517MPD2    C5 7681   3.981   4.386  17.661 -0.5419  0.4385  0.4571
  517MPD2     H 7682   4.332   4.286   0.092  0.4014  0.4112 -0.8141
  517MPD2    H1 7683   4.016   4.576   0.054 -1.0921 -0.7114 -0.5385
  517MPD2    H2 7684   3.952   4.189  17.593  0.2663 -0.3072 -1.2042
  517MPD2    H3 7685   3.882   4.412  17.628 -0.8223  0.3611  1.2383
  517MPD2     N 7686   4.284   4.560   0.116  0.9333  0.0257 -0.2142
  517MPD2    H5 7687   4.238   4.650   0.106  1.0816 -0.3515 -4.5135
  517MPD2    N1 7688   4.201   4.104  17.661 -0.0548  0.5384 -0.6047
  517MPD2    H7 7689   4.294   4.081   0.019 -1.0218 -1.5902  0.6728
  518TMC3    C1 7690   4.230   3.901  17.551  0.1083 -0.2675 -0.0133
  518TMC3    C2 7691   4.172   3.787  17.498  0.2403 -0.1769 -0.3476
  518TMC3    C3 7692   4.262   3.706  17.423  0.0186  0.1477 -0.8212
  518TMC3    C4 7693   4.361   3.947  17.524 -0.0573 -0.5418 -0.4573
  518TMC3    C5 7694   4.433   3.857  17.452  0.5391  0.2791 -0.5287
  518TMC3    C6 7695   4.391   3.734  17.411  0.5761  0.3239 -1.2191
  518TMC3     C 7696   4.137   3.997  17.605 -0.1727 -0.3926 -0.3883
  518TMC3     O 7697   4.018   3.966  17.596 -0.1901  0.1599  0.4045
  518TMC3     H 7698   4.066   3.772  17.511  0.5294 -0.0948  2.1664
  518TMC3    H1 7699   4.403   4.043  17.548 -0.0748  0.0671 -2.8605
  518TMC3    H2 7700   4.463   3.666  17.368 -0.7537 -0.3502 -2.4114
  518TMC3    C7 7701   4.575   3.874  17.464 -0.4768 -0.2833  0.0043
  518TMC3    C8 7702   4.240   3.553  17.415 -0.4750  0.5017 -1.8182
  518TMC3    O1 7703   4.621   3.941  17.557 -0.3383  0.7427  0.3010
  518TMC3    O2 7704   4.327   3.481  17.372  0.5536  0.1902  0.3350
  519MPD2     C 7705   1.000   3.055  14.459  0.3124 -0.2044 -0.1310
  519MPD2    C1 7706   0.969   2.997  14.339  0.0051  0.1748 -0.2978
  519MPD2    C2 7707   0.998   2.860  14.319  0.5171 -0.1750  0.3582
  519MPD2    C3 7708   1.049   2.786  14.420 -0.1144  0.1452  0.0692
  519MPD2    C4 7709   1.092   2.846  14.537  0.1885 -0.4415 -0.3534
  519MPD2    C5 7710   1.059   2.980  14.550  0.1817 -0.9707  0.5100
  519MPD2     H 7711   0.972   2.805  14.230  1.4679 -1.9986  1.2186
  519MPD2    H1 7712   1.138   2.787  14.616  2.0376 -0.5193 -1.4966
  519MPD2    H2 7713   0.978   3.159  14.482 -0.7667 -0.2127 -1.0957
  519MPD2    H3 7714   1.078   3.033  14.643  0.6114  0.8421 -0.6037
  519MPD2     N 7715   1.045   2.648  14.421 -0.3802  0.0320 -0.0534
  519MPD2    H5 7716   1.097   2.601  14.495  0.9087 -0.4440 -1.2667
  519MPD2    N1 7717   0.910   3.070  14.239  0.0772  0.5752  0.2197
  519MPD2    H7 7718   0.888   3.167  14.255  0.7949  0.9037 -0.7797
  520TMC3    C1 7719   1.013   2.422  14.348 -0.2020 -0.8790  0.0817
  520TMC3    C2 7720   0.929   2.347  14.263 -0.9460  0.2337  0.7152
  520TMC3    C3 7721   0.982   2.233  14.198 -0.4452  0.3521  0.7280
  520TMC3    C4 7722   1.141   2.381  14.369 -0.3510 -0.3214 -0.1204
  520TMC3    C5 7723   1.188   2.272  14.297 -0.2221  0.6009 -0.2446
  520TMC3    C6 7724   1.109   2.197  14.210 -0.5099 -0.5703  0.0707
  520TMC3     C 7725   0.986   2.566  14.329 -0.4859  0.7812  0.4703
  520TMC3     O 7726   0.907   2.588  14.239  0.0047  0.3044 -0.3989
  520TMC3     H 7727   0.825   2.368  14.243 -1.2117  0.5554  2.4494
  520TMC3    H1 7728   1.210   2.430  14.436 -1.0109  2.0241 -1.1616
  520TMC3    H2 7729   1.142   2.100  14.176 -0.8372  0.6374 -3.6022
  520TMC3    C7 7730   1.321   2.228  14.325 -0.0568 -0.8189 -0.3522
  520TMC3    C8 7731   0.899   2.155  14.110 -0.8313 -0.3313  0.6414
  520TMC3    O1 7732   1.362   2.222  14.443  0.6652 -0.4565 -0.1082
  520TMC3    O2 7733   0.932   2.037  14.103  0.1080 -0.1630  0.0732
  521MPD2     C 7734   1.913   0.427   0.047  0.6933  0.3560 -0.2707
  521MPD2    C1 7735   1.903   0.332  17.626 -0.7094  0.1296  0.6901
  521MPD2    C2 7736   1.997   0.331  17.522  0.0412 -0.1336  0.8759
  521MPD2    C3 7737   2.103   0.418  17.515  0.3587 -0.1491 -0.2143
  521MPD2    C4 7738   2.130   0.490  17.630 -0.5070  0.2035  0.0862
  521MPD2    C5 7739   2.028   0.500   0.047 -0.5546 -0.3413 -0.7581
  521MPD2     H 7740   1.997   0.250  17.450 -0.7509 -1.5017  2.4135
  521MPD2    H1 7741   2.213   0.560  17.632 -1.5838  1.4597  0.5877
  521MPD2    H2 7742   1.835   0.442   0.120  0.3106  0.0658 -0.6195
  521MPD2    H3 7743   2.032   0.572   0.128 -0.5606  0.6053 -1.5890
  521MPD2     N 7744   2.198   0.405  17.412 -0.1307  0.1702 -0.0837
  521MPD2    H5 7745   2.174   0.347  17.332 -2.4414 -2.1729  2.3188
  521MPD2    N1 7746   1.789   0.255  17.622  0.8293 -0.6863  0.6403
  521MPD2    H7 7747   1.735   0.257   0.033 -1.7457 -1.3003 -0.9660
  522TMC3    C1 7748   2.393   0.411  17.291 -0.1549  0.1714 -0.8274
  522TMC3    C2 7749   2.516   0.344  17.317 -0.5732  0.6228 -0.2555
  522TMC3    C3 7750   2.585   0.305  17.203 -1.0280  0.0611 -0.2590
  522TMC3    C4 7751   2.332   0.415  17.164 -0.1388  0.7880  0.4037
  522TMC3    C5 7752   2.406   0.366  17.056 -0.3220  0.4870 -0.5999
  522TMC3    C6 7753   2.532   0.315  17.081  0.1713 -0.1401 -0.2417
  522TMC3     C 7754   2.328   0.453  17.406 -0.3667  0.4832  0.0689
  522TMC3     O 7755   2.397   0.495  17.500 -0.1500  0.0341 -0.0609
  522TMC3     H 7756   2.576   0.347  17.407 -0.8805  1.4771 -0.0710
  522TMC3    H1 7757   2.249   0.481  17.147 -1.6679 -0.8487  1.5461
  522TMC3    H2 7758   2.595   0.277  17.001  1.1092  0.7986  0.0449
  522TMC3    C7 7759   2.359   0.358  16.916  0.4504  0.0559  0.3352
  522TMC3    C8 7760   2.725   0.278  17.227  0.2548  0.1955 -0.1020
  522TMC3    O1 7761   2.452   0.350  16.840  0.0375  0.4461 -0.4911
  522TMC3    O2 7762   2.774   0.333  17.324 -0.1147 -0.1885  0.3692
  523MPD2     C 7763   4.250   4.129   9.554  0.5502  0.6521  0.5908
  523MPD2    C1 7764   4.295   4.152   9.680 -0.4460  0.4744  0.2444
  523MPD2    C2 7765   4.257   4.268   9.738 -0.5880 -0.0015  0.5070
  523MPD2    C3 7766   4.187   4.364   9.664 -0.3774  0.6639  0.0210
  523MPD2    C4 7767   4.137   4.339   9.537  0.3621  0.0122 -0.0996
  523MPD2    C5 7768   4.182   4.221   9.477 -0.0655 -0.4820 -0.1039
  523MPD2     H 7769   4.283   4.297   9.839 -0.2831 -2.0784  1.0296
  523MPD2    H1 7770   4.075   4.414   9.490 -0.2759 -1.4609 -1.5911
  523MPD2    H2 7771   4.280   4.034   9.513  0.8680  0.0423  2.2578
  523MPD2    H3 7772   4.166   4.198   9.372 -0.6657  0.7113 -0.2779
  523MPD2     N 7773   4.154   4.496   9.707 -0.0464 -0.4351 -0.3243
  523MPD2    H5 7774   4.098   4.547   9.639 -0.4026 -1.0437 -0.4791
  523MPD2    N1 7775   4.379   4.058   9.745  0.5800 -0.4603 -0.4224
  523MPD2    H7 7776   4.392   3.972   9.691  0.5175 -2.5954  2.9949
  524TMC3    C1 7777   4.170   4.699   9.815  0.3897  0.3942  0.9842
  524TMC3    C2 7778   4.138   0.042   9.696  0.4933  0.3478  0.3593
  524TMC3    C3 7779   4.129   0.180   9.698  0.0349  0.2116 -0.4377
  524TMC3    C4 7780   4.182   0.052   9.936  0.9744 -0.4120 -0.6363
  524TMC3    C5 7781   4.154   0.183   9.924 -0.0745 -0.1779  0.8565
  524TMC3    C6 7782   4.117   0.248   9.813  0.1652 -0.0807 -0.4592
  524TMC3     C 7783   4.194   4.559   9.821 -0.4822 -0.7615  0.0495
  524TMC3     O 7784   4.243   4.511   9.921 -0.4993  0.6701  0.0201
  524TMC3     H 7785   4.164   4.718   9.600  0.2223 -1.5511  1.1284
  524TMC3    H1 7786   4.203   0.007  10.032  1.6544  1.8569  0.2741
  524TMC3    H2 7787   4.084   0.351   9.822  1.7205  0.3446  0.3118
  524TMC3    C7 7788   4.163   0.252  10.057  0.4141  0.0941  0.3096
  524TMC3    C8 7789   4.090   0.250   9.573 -0.4958 -0.1508  0.1997
  524TMC3    O1 7790   4.158   0.183  10.156 -0.4912 -0.2840  0.0872
  524TMC3    O2 7791   4.061   0.173   9.482 -0.3185 -0.6904 -0.5675
  525MPD2     C 7792   2.225   1.979  14.640  0.2421  0.1618  0.4198
  525MPD2    C1 7793   2.350   1.974  14.692 -0.1725  0.1854  0.1885
  525MPD2    C2 7794   2.448   2.058  14.643  1.0338 -0.5915  1.0705
  525MPD2    C3 7795   2.410   2.157  14.553 -0.4372 -1.1395  0.5549
  525MPD2    C4 7796   2.281   2.161  14.501 -0.4140  0.0132  0.4417
  525MPD2    C5 7797   2.192   2.070  14.544  0.0564  0.0153 -0.3705
  525MPD2     H 7798   2.548   2.055  14.684  0.0778  0.2550  3.4458
  525MPD2    H1 7799   2.247   2.242  14.437 -0.5507  0.2542  0.8211
  525MPD2    H2 7800   2.150   1.919  14.690 -0.4179  0.3067 -0.3980
  525MPD2    H3 7801   2.092   2.076  14.502  0.3506  0.2746 -1.0273
  525MPD2     N 7802   2.505   2.256  14.512 -0.9359  0.3028  0.0758
  525MPD2    H5 7803   2.463   2.333  14.461  0.2484  1.2063  0.4568
  525MPD2    N1 7804   2.384   1.884  14.796 -0.1194 -0.2868 -0.2670
  525MPD2    H7 7805   2.480   1.869  14.826  0.0244  1.6950  0.2370
  526TMC3    C1 7806   2.369   1.716  14.965 -0.3217  0.4134  0.0178
  526TMC3    C2 7807   2.307   1.692  15.087 -1.2968 -0.1194  0.2748
  526TMC3    C3 7808   2.373   1.604  15.169  0.0002 -0.7290  0.4382
  526TMC3    C4 7809   2.487   1.656  14.925  0.2937  0.2677 -0.2418
  526TMC3    C5 7810   2.541   1.561  15.005 -0.0926 -0.6625 -0.7962
  526TMC3    C6 7811   2.488   1.537  15.131  0.1436  0.6659 -0.2423
  526TMC3     C 7812   2.298   1.807  14.874  0.5188 -0.5123 -1.0422
  526TMC3     O 7813   2.179   1.821  14.890 -0.5486 -0.5180 -0.6272
  526TMC3     H 7814   2.223   1.752  15.119 -1.1026 -0.7612  1.9835
  526TMC3    H1 7815   2.535   1.692  14.835 -2.0723 -0.3426 -1.7630
  526TMC3    H2 7816   2.544   1.481  15.205 -0.0428 -1.8756 -2.0522
  526TMC3    C7 7817   2.656   1.481  14.966 -0.9186 -0.4666 -0.0779
  526TMC3    C8 7818   2.333   1.612  15.304  0.3442 -0.5691  0.2272
  526TMC3    O1 7819   2.699   1.388  15.037  0.0031  0.4142 -0.0779
  526TMC3    O2 7820   2.429   1.624  15.383  0.4178 -0.2649 -0.4534
  527MPD2     C 7821   4.617   4.142   1.662  0.1370  0.6190  0.6719
  527MPD2    C1 7822   4.709   4.037   1.659 -0.1105 -0.2051 -0.1882
  527MPD2    C2 7823   0.101   4.045   1.576  0.6193 -0.3348 -0.1934
  527MPD2    C3 7824   0.109   4.148   1.477  0.2814  0.3240  0.5327
  527MPD2    C4 7825   0.018   4.249   1.486 -0.3430 -0.1941 -0.3199
  527MPD2    C5 7826   4.640   4.247   1.581  0.4035  0.3157 -0.7825
  527MPD2     H 7827   0.169   3.961   1.572  0.5291 -0.4996  1.8643
  527MPD2    H1 7828   0.026   4.348   1.443 -0.0438  0.2999  0.8653
  527MPD2    H2 7829   4.532   4.146   1.728 -0.4792  1.3084 -0.1693
  527MPD2    H3 7830   4.580   4.337   1.584 -1.9094 -1.3582  3.1740
  527MPD2     N 7831   0.211   4.143   1.385 -0.0439 -0.0977  0.2431
  527MPD2    H5 7832   0.275   4.069   1.411 -0.6409  0.1874  2.4804
  527MPD2    N1 7833   4.701   3.928   1.744 -0.3225  0.3286 -0.2020
  527MPD2    H7 7834   0.058   3.861   1.734  0.0887  0.8668 -0.7310
  528TMC3    C1 7835   4.652   3.785   1.913  0.0129 -0.2160 -0.1503
  528TMC3    C2 7836   0.064   3.772   1.941  0.2335  0.1271 -0.4218
  528TMC3    C3 7837   0.105   3.666   2.025 -0.0196 -0.4012  0.0769
  528TMC3    C4 7838   4.557   3.704   1.962  0.7905 -0.1921 -0.1591
  528TMC3    C5 7839   4.594   3.594   2.035 -1.0402 -0.9463 -0.0832
  528TMC3    C6 7840   0.013   3.572   2.066  0.3690 -0.5597  0.7115
  528TMC3     C 7841   4.605   3.903   1.844  0.6322 -0.3734  0.9904
  528TMC3     O 7842   4.501   3.955   1.877  0.3851  0.6891 -0.5752
  528TMC3     H 7843   0.135   3.851   1.916 -0.4205  1.2284  1.1547
  528TMC3    H1 7844   4.454   3.734   1.946  0.2323 -1.7846  0.4227
  528TMC3    H2 7845   0.038   3.499   2.143 -0.7134 -2.1442 -0.4352
  528TMC3    C7 7846   4.489   3.529   2.103 -0.1396  0.6598 -0.2644
  528TMC3    C8 7847   0.242   3.661   2.051 -0.0265 -0.4396  0.1784
  528TMC3    O1 7848   4.377   3.578   2.098  0.3895  0.2853 -0.1468
  528TMC3    O2 7849   0.305   3.764   2.046  0.1496 -0.4064  0.1313
  529MPD2     C 7850   3.087   3.925   0.562 -0.0889  0.1621 -0.3370
  529MPD2    C1 7851   2.964   3.865   0.546  0.1101 -0.3083  0.1280
  529MPD2    C2 7852   2.888   3.898   0.436  0.5590  0.9788 -0.5058
  529MPD2    C3 7853   2.938   3.987   0.346 -0.0691  0.2948  0.0184
  529MPD2    C4 7854   3.060   4.044   0.357 -0.5949 -0.3253  0.2258
  529MPD2    C5 7855   3.139   4.009   0.465 -0.0207 -0.7463 -0.2690
  529MPD2     H 7856   2.802   3.833   0.424  1.2480  0.2369 -1.4779
  529MPD2    H1 7857   3.087   4.124   0.288  0.1162  0.6108  1.5972
  529MPD2    H2 7858   3.162   3.900   0.636  0.1616  1.6736 -0.0776
  529MPD2    H3 7859   3.242   4.040   0.474  0.2227 -1.2663 -1.3433
  529MPD2     N 7860   2.876   4.021   0.221 -0.2391  0.0320  0.0824
  529MPD2    H5 7861   2.923   4.089   0.162  1.6046 -2.2810 -1.0883
  529MPD2    N1 7862   2.920   3.757   0.628 -0.0697  0.2901  0.1529
  529MPD2    H7 7863   2.837   3.704   0.604 -1.3562  1.5612  1.8087
  530TMC3    C1 7864   2.889   3.652   0.839 -0.1709 -0.4070  0.4781
  530TMC3    C2 7865   2.901   3.672   0.973  0.2299  0.3471 -0.8389
  530TMC3    C3 7866   2.868   3.563   1.053 -0.3499 -0.4078  0.0377
  530TMC3    C4 7867   2.850   3.531   0.785  0.6140  0.0332 -0.4649
  530TMC3    C5 7868   2.810   3.430   0.867  0.4749 -0.3666  0.1243
  530TMC3    C6 7869   2.818   3.443   1.002  0.1936 -0.1634 -0.1180
  530TMC3     C 7870   2.964   3.742   0.758  0.1740  0.0600 -0.0427
  530TMC3     O 7871   3.040   3.816   0.817 -0.0211 -0.2910  0.0392
  530TMC3     H 7872   2.915   3.762   1.032  2.2210 -0.0840 -0.6542
  530TMC3    H1 7873   2.850   3.516   0.678  0.1740 -0.4217 -0.4053
  530TMC3    H2 7874   2.763   3.374   1.064  0.4263  0.1267  0.4067
  530TMC3    C7 7875   2.793   3.301   0.810 -0.4832  0.0486  0.2773
  530TMC3    C8 7876   2.878   3.575   1.198  0.2367  0.5766 -0.0201
  530TMC3    O1 7877   2.757   3.303   0.693 -0.3312 -0.3631  0.2568
  530TMC3    O2 7878   2.866   3.686   1.251 -0.5134 -0.2053  0.8184
  531MPD2     C 7879   2.153   1.226  13.388 -0.1656 -0.0044 -0.0465
  531MPD2    C1 7880   2.031   1.286  13.397 -0.1466  0.2207 -0.5075
  531MPD2    C2 7881   1.939   1.266  13.294 -0.1015  0.5863 -0.5322
  531MPD2    C3 7882   1.969   1.195  13.178 -0.3306 -0.0543  0.6721
  531MPD2    C4 7883   2.097   1.149  13.164  0.1931  0.1981  0.8989
  531MPD2    C5 7884   2.182   1.166  13.268 -0.7725 -0.2505 -0.0319
  531MPD2     H 7885   1.837   1.298  13.306 -0.1602 -0.5161  1.9449
  531MPD2    H1 7886   2.132   1.084  13.084 -0.5068  2.6142 -1.3771
  531MPD2    H2 7887   2.232   1.219  13.463  0.1286 -0.4291 -0.3927
  531MPD2    H3 7888   2.277   1.114  13.260 -0.7566 -0.3326  0.6645
  531MPD2     N 7889   1.871   1.156  13.077  0.3763 -0.4101  0.3396
  531MPD2    H5 7890   1.911   1.124  12.990 -0.3090  1.7141 -0.7695
  531MPD2    N1 7891   1.988   1.340  13.523 -0.4476 -0.5933  0.2478
  531MPD2    H7 7892   2.055   1.319  13.595  0.1182  0.6833  0.0874
  532TMC3    C1 7893   1.835   1.405  13.689 -0.2489 -0.4320 -0.0482
  532TMC3    C2 7894   1.717   1.460  13.706  0.1591  0.0472  0.5419
  532TMC3    C3 7895   1.626   1.403  13.794  0.0569 -0.3322  0.7207
  532TMC3    C4 7896   1.880   1.305  13.771 -0.4423 -0.2040  0.5841
  532TMC3    C5 7897   1.790   1.257  13.868  0.3172  0.0544  0.0120
  532TMC3    C6 7898   1.660   1.303  13.881  0.2460  0.0344 -0.3154
  532TMC3     C 7899   1.860   1.386  13.545  0.1479  0.1977  0.0605
  532TMC3     O 7900   1.795   1.458  13.473 -0.1891 -0.3250 -0.1215
  532TMC3     H 7901   1.672   1.536  13.644 -0.9755 -0.4970  0.7005
  532TMC3    H1 7902   1.979   1.261  13.766 -0.5074 -0.3859  0.8773
  532TMC3    H2 7903   1.592   1.265  13.956  2.8118 -1.1816  1.4014
  532TMC3    C7 7904   1.829   1.151  13.959 -0.1298 -0.5287 -0.3242
  532TMC3    C8 7905   1.496   1.394  13.741  0.0624 -0.2995 -0.1011
  532TMC3    O1 7906   1.792   1.150  14.076  0.7509  0.2849 -0.1004
  532TMC3    O2 7907   1.392   1.426  13.802 -0.1072 -0.7053 -0.4124
  533TMC3    C1 7908   2.663   2.408  14.589 -0.5681 -0.1237  0.2505
  533TMC3    C2 7909   2.796   2.432  14.603 -0.9672 -0.0430 -0.3039
  533TMC3    C3 7910   2.836   2.531  14.685 -0.1455  0.8865 -0.4875
  533TMC3    C4 7911   2.570   2.481  14.661  0.5054 -0.1265 -0.7034
  533TMC3    C5 7912   2.617   2.578  14.749  1.0255  1.0481 -0.4922
  533TMC3    C6 7913   2.753   2.600  14.771 -0.7460 -0.4313  0.6901
  533TMC3     C 7914   2.627   2.275  14.568 -0.1129  0.3327 -0.7907
  533TMC3     O 7915   2.707   2.194  14.616 -0.6611  0.1116  0.0674
  533TMC3     H 7916   2.870   2.383  14.540 -2.1481 -0.5123 -1.3210
  533TMC3    H1 7917   2.465   2.455  14.651  0.4018 -0.3826  1.0550
  533TMC3    H2 7918   2.786   2.664  14.852 -0.6461  3.2255 -2.2379
  533TMC3    C7 7919   2.546   2.569  14.867  0.0340  0.6937  0.4256
  533TMC3    C8 7920   2.978   2.556  14.708 -0.2268  0.1752 -1.1007
  533TMC3    O1 7921   2.510   2.451  14.885  0.0707 -0.1942  0.5916
  533TMC3    O2 7922   2.995   2.654  14.781 -0.4608  0.1141 -0.2934
  534MPD2     C 7923   0.180   2.754   1.395  0.3614 -0.2308  0.1078
  534MPD2    C1 7924   0.097   2.859   1.446 -0.6176  0.6605  0.0211
  534MPD2    C2 7925   4.695   2.880   1.386  0.6602  0.2158  0.9725
  534MPD2    C3 7926   4.650   2.796   1.287  0.6053  0.2762  0.2567
  534MPD2    C4 7927   4.716   2.680   1.263 -0.7811 -0.7804  0.3195
  534MPD2    C5 7928   0.126   2.658   1.315 -0.5703 -0.2665 -0.3620
  534MPD2     H 7929   4.631   2.965   1.407 -0.8985 -1.2775  2.2377
  534MPD2    H1 7930   4.680   2.613   1.186 -0.6371  0.2828 -0.6677
  534MPD2    H2 7931   0.279   2.727   1.432  0.2035  0.5042  1.0591
  534MPD2    H3 7932   0.183   2.571   1.283 -1.2999 -0.5964 -0.7661
  534MPD2     N 7933   4.538   2.824   1.207 -0.4030  0.3772  0.2500
  534MPD2    H5 7934   4.516   2.762   1.129  3.1995 -1.5977  0.7866
  534MPD2    N1 7935   0.148   2.950   1.545 -0.0122 -0.0093  0.2087
  534MPD2    H7 7936   0.083   3.026   1.563  0.1452 -0.1785  1.4488
  535TMC3    C1 7937   4.352   2.953   1.123  0.1272 -0.1148 -0.0972
  535TMC3    C2 7938   4.244   3.014   1.178  0.0663 -0.1067  0.3892
  535TMC3    C3 7939   4.152   3.071   1.094  0.0527 -0.4870 -0.2570
  535TMC3    C4 7940   4.377   2.960   0.989 -0.4692  0.2296 -1.3897
  535TMC3    C5 7941   4.290   3.025   0.911  0.0480 -0.7359 -0.7160
  535TMC3    C6 7942   4.181   3.079   0.962  0.0447  0.0391  0.4448
  535TMC3     C 7943   4.460   2.937   1.220  0.0887 -0.3267  0.7083
  535TMC3     O 7944   4.477   3.041   1.287  0.8761 -0.6676  0.2895
  535TMC3     H 7945   4.233   3.005   1.285  1.3846  1.5996  0.6811
  535TMC3    H1 7946   4.478   2.927   0.964  0.1873  1.3173 -0.1031
  535TMC3    H2 7947   4.106   3.123   0.897 -0.5762  0.4214  1.4171
  535TMC3    C7 7948   4.337   3.056   0.772 -0.3712  0.0213 -0.6658
  535TMC3    C8 7949   4.019   3.108   1.150  0.5240  0.2781  0.6871
  535TMC3    O1 7950   4.403   2.961   0.723 -0.2082 -0.5490  0.7815
  535TMC3    O2 7951   3.942   3.178   1.088  0.0410 -0.0493 -0.0178
  536MPD2     C 7952   3.993   1.648  16.272 -0.6041 -0.1718  0.4332
  536MPD2    C1 7953   3.866   1.696  16.294 -0.2260 -0.7583  0.2505
  536MPD2    C2 7954   3.803   1.761  16.189 -0.0706 -0.6506 -0.0588
  536MPD2    C3 7955   3.855   1.768  16.059 -0.1075  0.1061  0.1366
  536MPD2    C4 7956   3.987   1.725  16.040 -0.0049 -0.2721  0.1917
  536MPD2    C5 7957   4.052   1.672  16.148 -0.1561  0.1607  0.2249
  536MPD2     H 7958   3.700   1.790  16.205  0.6302  2.2374 -0.7441
  536MPD2    H1 7959   4.035   1.714  15.944 -2.3302 -0.2369 -0.9826
  536MPD2    H2 7960   4.050   1.584  16.338  0.3819 -0.9151 -1.1381
  536MPD2    H3 7961   4.155   1.639  16.142  0.0623  0.6318  1.4953
  536MPD2     N 7962   3.781   1.794  15.945 -0.7217  0.1474 -0.6269
  536MPD2    H5 7963   3.826   1.793  15.854 -1.9134  2.7677 -1.2292
  536MPD2    N1 7964   3.814   1.675  16.423 -0.0297  0.2453  0.6810
  536MPD2    H7 7965   3.856   1.610  16.489 -0.3818  0.1234  0.7832
  537TMC3    C1 7966   3.663   1.660  16.589  0.7144 -0.4274  0.5390
  537TMC3    C2 7967   3.765   1.612  16.662  0.2804 -0.8634 -0.3154
  537TMC3    C3 7968   3.727   1.535  16.769 -0.2765 -0.2053 -0.3094
  537TMC3    C4 7969   3.533   1.651  16.628 -0.0023  0.0266 -0.4380
  537TMC3    C5 7970   3.499   1.563  16.721 -0.0505 -0.8431 -0.9813
  537TMC3    C6 7971   3.595   1.505  16.796 -0.2327  0.0939 -0.0364
  537TMC3     C 7972   3.693   1.726  16.465  0.2299  0.2600  0.4017
  537TMC3     O 7973   3.624   1.816  16.423 -0.6518 -0.1269 -0.3270
  537TMC3     H 7974   3.866   1.651  16.666  0.9253 -2.2356 -2.8609
  537TMC3    H1 7975   3.459   1.712  16.578  0.8095 -0.6907 -2.5261
  537TMC3    H2 7976   3.568   1.455  16.888  1.6197 -1.5507 -0.3787
  537TMC3    C7 7977   3.361   1.540  16.753  0.5933  0.4565 -0.0161
  537TMC3    C8 7978   3.821   1.484  16.869  0.0542  0.1572 -0.4543
  537TMC3    O1 7979   3.287   1.614  16.692  0.9671 -0.6675  0.6565
  537TMC3    O2 7980   3.780   1.403  16.950  0.0928  0.3218 -0.0184
  538TMC3    C1 7981   0.181   0.372  10.838  0.5154 -0.5177  0.1980
  538TMC3    C2 7982   0.255   0.258  10.799 -0.7136 -0.0000  0.1037
  538TMC3    C3 7983   0.225   0.195  10.686 -0.2005  0.6243 -0.0211
  538TMC3    C4 7984   0.096   0.429  10.743  0.1172 -0.4078 -0.1720
  538TMC3    C5 7985   0.082   0.370  10.614 -0.1933 -0.3815 -0.5300
  538TMC3    C6 7986   0.147   0.248  10.587 -0.1319  1.3977 -0.2976
  538TMC3     C 7987   0.133   0.381  10.975  0.2609 -0.3686 -0.3400
  538TMC3     O 7988   0.059   0.476  10.997 -0.4182  0.0370 -0.3144
  538TMC3     H 7989   0.318   0.209  10.872 -1.7920 -0.7193  0.5443
  538TMC3    H1 7990   0.056   0.527  10.767  0.8406 -0.0483 -0.4370
  538TMC3    H2 7991   0.140   0.199  10.491 -0.6217  1.1211 -0.1154
  538TMC3    C7 7992   4.664   0.361  10.572 -0.1356 -0.0595  0.0935
  538TMC3    C8 7993   0.273   0.067  10.673 -0.7431  0.2847  0.8042
  538TMC3    O1 7994   4.617   0.257  10.524 -0.5355 -0.0754 -0.0029
  538TMC3    O2 7995   0.202   4.710  10.611  0.6656 -0.0228  0.1491
  539MPD2     C 7996   0.096   4.085  11.683  0.0684  0.1438 -0.2560
  539MPD2    C1 7997   0.118   4.103  11.549  0.0828  0.3065  0.5256
  539MPD2    C2 7998   0.099   4.227  11.493  0.4515  0.5571  0.0886
  539MPD2    C3 7999   0.067   4.331  11.583  0.4692 -0.1782 -0.1292
  539MPD2    C4 8000   0.034   4.310  11.714 -0.7434  0.1492  0.1767
  539MPD2    C5 8001   0.051   4.184  11.770 -0.4255  0.1269 -0.3919
  539MPD2     H 8002   0.111   4.248  11.387  3.0922 -1.4504 -0.0076
  539MPD2    H1 8003   4.716   4.387  11.782  2.7684  1.4192  0.5991
  539MPD2    H2 8004   0.110   3.987  11.728 -1.4446 -0.7213 -1.6702
  539MPD2    H3 8005   0.018   4.165  11.872 -0.1700  1.1116 -0.1314
  539MPD2     N 8006   0.046   4.460  11.537 -0.6347 -0.1391  0.3271
  539MPD2    H5 8007   0.014   4.521  11.611  0.2380  1.5406 -0.6877
  539MPD2    N1 8008   0.148   3.986  11.476 -0.2537  0.0681  1.3235
  539MPD2    H7 8009   0.143   3.905  11.538  1.4866 -1.5899 -0.6962
  540TMC3    C1 8010   4.662   4.612  11.395  0.0904  0.3091 -0.3009
  540TMC3    C2 8011   4.657   4.668  11.272 -0.0661 -0.3280 -0.7141
  540TMC3    C3 8012   4.535   4.713  11.234  0.5187  0.9307 -0.2475
  540TMC3    C4 8013   4.549   4.605  11.473  0.1760 -0.1919  0.4752
  540TMC3    C5 8014   4.428   4.644  11.418  0.1957  0.0020 -0.4979
  540TMC3    C6 8015   4.423   4.704  11.302 -0.1892 -0.6684 -0.6082
  540TMC3     C 8016   0.030   4.502  11.406  0.1750 -0.1826  0.8003
  540TMC3     O 8017   0.080   4.451  11.309 -0.3407  0.3558  0.0871
  540TMC3     H 8018   0.021   4.668  11.201  0.9479  0.8269  0.4731
  540TMC3    H1 8019   4.552   4.570  11.575  1.7355 -1.0303  0.1383
  540TMC3    H2 8020   4.340   0.040  11.258 -0.8882 -0.9726  0.3433
  540TMC3    C7 8021   4.328   4.673  11.525  0.0333 -0.5784  0.2533
  540TMC3    C8 8022   4.510   0.024  11.093  0.1004  0.0536  0.9907
  540TMC3    O1 8023   4.308   0.074  11.548 -0.3618 -0.1278 -0.4967
  540TMC3    O2 8024   4.601   0.069  11.029 -0.0588  0.1737 -0.8203
  541MPD2     C 8025   3.335   1.215  13.388  0.1803  0.3316 -0.8298
  541MPD2    C1 8026   3.317   1.117  13.289 -0.6779  0.7314 -0.2772
  541MPD2    C2 8027   3.297   1.162  13.154 -0.3745 -0.7366  0.5336
  541MPD2    C3 8028   3.335   1.291  13.110  0.6526 -0.0409  0.5071
  541MPD2    C4 8029   3.366   1.382  13.209 -0.6662 -0.7118 -0.3602
  541MPD2    C5 8030   3.365   1.341  13.346  0.0504  0.3791  0.4458
  541MPD2     H 8031   3.279   1.091  13.075 -1.6323 -1.9118  1.8813
  541MPD2    H1 8032   3.388   1.484  13.181  2.3052 -1.0760  0.6327
  541MPD2    H2 8033   3.344   1.180  13.490 -3.3117  2.6128  0.2676
  541MPD2    H3 8034   3.386   1.416  13.422  4.3034 -0.0258 -0.3088
  541MPD2     N 8035   3.332   1.341  12.978  0.0532 -0.4419 -0.0744
  541MPD2    H5 8036   3.367   1.435  12.963 -2.7884  0.8646  1.4771
  541MPD2    N1 8037   3.281   0.986  13.334  0.4351  0.5233 -0.3117
  541MPD2    H7 8038   3.282   0.958  13.432  2.4890 -0.6207 -0.6378
  542TMC3    C1 8039   3.302   1.343  12.749  0.0546 -0.8954  0.5241
  542TMC3    C2 8040   3.300   1.267  12.636 -0.6064 -0.2497 -0.3103
  542TMC3    C3 8041   3.253   1.334  12.525 -0.4731  0.8137  0.7375
  542TMC3    C4 8042   3.252   1.471  12.759 -0.7015  0.2717  1.0438
  542TMC3    C5 8043   3.196   1.523  12.646 -0.2850 -0.6666 -1.1051
  542TMC3    C6 8044   3.206   1.460  12.525  0.4951  0.1251  0.2133
  542TMC3     C 8045   3.294   1.266  12.872  0.2830 -0.2470  0.1272
  542TMC3     O 8046   3.273   1.146  12.858  0.0706 -0.1442  0.3810
  542TMC3     H 8047   3.341   1.167  12.639 -1.4700 -0.5565  1.6086
  542TMC3    H1 8048   3.254   1.540  12.842 -1.1692  2.5640 -0.8440
  542TMC3    H2 8049   3.154   1.497  12.437  0.8964  0.0926 -0.0400
  542TMC3    C7 8050   3.126   1.654  12.657  0.0996  0.4446 -0.0225
  542TMC3    C8 8051   3.235   1.266  12.398 -0.5787 -0.4345 -0.4059
  542TMC3    O1 8052   3.128   1.700  12.770  0.0547 -0.5314 -0.1226
  542TMC3    O2 8053   3.223   1.329  12.294  0.2826 -0.3524 -0.9159
  543TMC3    C1 8054   2.445   2.468  16.898  0.1825 -0.3257  0.5128
  543TMC3    C2 8055   2.319   2.436  16.850 -0.2380  0.8588  0.3020
  543TMC3    C3 8056   2.213   2.449  16.936  0.5546  0.2145  0.2196
  543TMC3    C4 8057   2.461   2.536  17.015 -0.1542  0.1827 -0.2568
  543TMC3    C5 8058   2.352   2.551  17.094  0.4919  0.2697 -0.5003
  543TMC3    C6 8059   2.226   2.510  17.059  0.4619  0.0481 -0.0974
  543TMC3     C 8060   2.548   2.359  16.879 -1.3220 -0.3977 -0.9421
  543TMC3     O 8061   2.556   2.313  16.768 -0.0905  0.2851 -0.4853
  543TMC3     H 8062   2.309   2.370  16.765  0.5339 -1.6842  2.2072
  543TMC3    H1 8063   2.564   2.550  17.046  0.0375 -2.4846  0.2827
  543TMC3    H2 8064   2.140   2.541  17.118 -0.7442 -1.8850 -0.8372
  543TMC3    C7 8065   2.373   2.617  17.223 -0.0103 -0.4763 -0.0125
  543TMC3    C8 8066   2.117   2.345  16.929  0.3182 -0.4242 -0.5564
  543TMC3    O1 8067   2.468   2.694  17.228  0.5387 -0.0816  0.2408
  543TMC3    O2 8068   2.148   2.245  16.867 -0.7281  0.0346  0.0272
  544MPD2     C 8069   1.778   2.057  17.199 -0.0454 -0.2006 -0.3254
  544MPD2    C1 8070   1.879   2.020  17.112 -0.1945 -0.1951  0.1189
  544MPD2    C2 8071   1.950   2.116  17.040  0.4928 -0.0972 -0.5317
  544MPD2    C3 8072   1.928   2.249  17.068  0.3202  0.5380  0.6484
  544MPD2    C4 8073   1.826   2.281  17.150 -0.6753 -0.0809 -0.3533
  544MPD2    C5 8074   1.739   2.186  17.201  0.5682 -0.3657 -0.7213
  544MPD2     H 8075   2.038   2.087  16.984  1.0609  0.9729 -0.2035
  544MPD2    H1 8076   1.806   2.387  17.159 -0.1376  0.0661 -0.9440
  544MPD2    H2 8077   1.717   1.983  17.249 -0.0379  0.3862  0.5437
  544MPD2    H3 8078   1.643   2.204  17.248  1.4480 -0.6494  1.1442
  544MPD2     N 8079   2.010   2.354  17.018  0.1725  0.1711 -0.3401
  544MPD2    H5 8080   1.985   2.440  17.066  0.9824 -1.1488  2.5006
  544MPD2    N1 8081   1.931   1.892  17.119  0.1871 -0.1261 -0.0761
  544MPD2    H7 8082   1.887   1.831  17.187  2.1080 -0.3254  0.9692
  545TMC3    C1 8083   2.045   1.705  17.083  0.1482 -0.4468 -0.5275
  545TMC3    C2 8084   2.047   1.601  16.993 -0.1927  0.1841  0.7008
  545TMC3    C3 8085   2.048   1.473  17.045 -0.1102  0.0866 -0.1800
  545TMC3    C4 8086   2.069   1.688  17.220  0.3544  0.1486 -0.3855
  545TMC3    C5 8087   2.078   1.558  17.269 -0.5694 -0.2682 -0.1815
  545TMC3    C6 8088   2.067   1.452  17.176 -0.4857 -0.4883 -0.5769
  545TMC3     C 8089   2.016   1.833  17.034  0.4092 -0.5087 -0.0498
  545TMC3     O 8090   2.054   1.875  16.927  0.3642  0.0310 -0.2422
  545TMC3     H 8091   2.018   1.618  16.890  1.0847  0.8300  0.4504
  545TMC3    H1 8092   2.070   1.763  17.298 -1.2919  1.6976 -1.8432
  545TMC3    H2 8093   2.073   1.352  17.217 -0.5150  0.1685  1.0215
  545TMC3    C7 8094   2.120   1.531  17.405 -0.2546  0.4553 -0.1804
  545TMC3    C8 8095   2.047   1.358  16.954 -0.5442 -0.4587  0.3248
  545TMC3    O1 8096   2.091   1.610  17.489  0.2029  0.0001 -0.0328
  545TMC3    O2 8097   2.138   1.274  16.972  0.0741  0.1037 -0.0725
  546MPD2     C 8098   4.262   2.051   0.142 -0.3469 -0.2860 -0.1111
  546MPD2    C1 8099   4.215   2.078   0.015  0.2911 -0.6482  0.4832
  546MPD2    C2 8100   4.250   2.195  17.623 -0.0229 -0.3004 -0.6750
  546MPD2    C3 8101   4.321   2.290   0.021 -0.0083 -0.0522 -0.5072
  546MPD2    C4 8102   4.363   2.268   0.152 -0.4882 -0.4655 -0.0968
  546MPD2    C5 8103   4.330   2.149   0.213 -0.1301 -0.6393  0.5234
  546MPD2     H 8104   4.221   2.215  17.520 -2.5268 -0.3620  0.0048
  546MPD2    H1 8105   4.417   2.346   0.205  1.7896 -0.6665 -2.1349
  546MPD2    H2 8106   4.216   1.968   0.195 -1.1586  1.8416  2.5389
  546MPD2    H3 8107   4.357   2.120   0.314 -3.8578  0.8974  1.9329
  546MPD2     N 8108   4.354   2.416  17.643 -0.6577 -0.5644 -0.2737
  546MPD2    H5 8109   4.368   2.484   0.041 -0.4365 -0.2210 -0.6350
  546MPD2    N1 8110   4.135   1.979  17.628  0.1112  0.2867  0.0810
  546MPD2    H7 8111   4.111   1.901   0.012  0.2198  1.0697  1.1683
  547TMC3    C1 8112   3.993   1.874  17.456 -0.2934  0.2998 -0.6166
  547TMC3    C2 8113   3.993   1.833  17.325 -0.3693 -0.1382  0.2618
  547TMC3    C3 8114   3.911   1.729  17.287  0.3370 -0.1117 -0.8475
  547TMC3    C4 8115   3.906   1.817  17.548 -0.0103  0.0574  0.1125
  547TMC3    C5 8116   3.822   1.718  17.501 -0.5550  0.0459 -0.5081
  547TMC3    C6 8117   3.823   1.669  17.371 -0.2444 -0.0223  0.0654
  547TMC3     C 8118   4.085   1.982  17.499  0.7114 -0.6643  1.0076
  547TMC3     O 8119   4.116   2.047  17.404 -0.5539 -0.0157  0.0473
  547TMC3     H 8120   4.059   1.879  17.252  1.9294  1.3619  3.2799
  547TMC3    H1 8121   3.893   1.858  17.648 -1.1454  0.6449 -0.2778
  547TMC3    H2 8122   3.760   1.587  17.341 -1.7788  0.5245  1.7677
  547TMC3    C7 8123   3.692   1.718  17.565 -0.6027 -0.2603 -0.1803
  547TMC3    C8 8124   3.848   1.736  17.156 -0.8593 -0.0735  0.6385
  547TMC3    O1 8125   3.668   1.814  17.635 -1.2505 -0.0475 -0.1051
  547TMC3    O2 8126   3.728   1.720  17.151 -0.5492 -0.0468  0.5863
  548MPD2     C 8127   3.820   3.145  12.086  0.1413 -0.0446  0.1711
  548MPD2    C1 8128   3.765   3.045  12.163 -0.3435  0.7371  0.0460
  548MPD2    C2 8129   3.801   2.912  12.130 -0.0739 -0.3799 -0.5015
  548MPD2    C3 8130   3.899   2.882  12.037 -0.1432 -0.3566 -0.1190
  548MPD2    C4 8131   3.964   2.988  11.973 -0.1092  0.3661  0.0424
  548MPD2    C5 8132   3.913   3.111  11.991  0.3982  0.6019  0.7958
  548MPD2     H 8133   3.761   2.823  12.177 -1.9915  1.8220  2.0360
  548MPD2    H1 8134   4.050   2.983  11.907  0.0120  0.1415  0.2158
  548MPD2    H2 8135   3.793   3.250  12.097  0.5852 -0.0346  1.1370
  548MPD2    H3 8136   3.947   3.191  11.925 -0.8744  0.9130  0.5119
  548MPD2     N 8137   3.935   2.749  12.017 -0.0588  0.1313  0.3893
  548MPD2    H5 8138   3.884   2.681  12.073  0.6602 -0.3879  0.4116
  548MPD2    N1 8139   3.676   3.069  12.274  0.1043 -0.0929  0.1339
  548MPD2    H7 8140   3.642   3.164  12.278  2.4478  0.7708 -0.6086
  549TMC3    C1 8141   3.530   2.982  12.450  0.2625 -0.0036  0.0058
  549TMC3    C2 8142   3.454   3.094  12.452 -0.1294 -0.0150  0.6534
  549TMC3    C3 8143   3.333   3.092  12.516  0.1217  0.7909  0.3754
  549TMC3    C4 8144   3.493   2.871  12.529  0.1463  0.5053 -0.2399
  549TMC3    C5 8145   3.376   2.886  12.599  0.2651  0.1441 -0.5055
  549TMC3    C6 8146   3.286   2.981  12.584 -0.4370 -0.2387  0.1713
  549TMC3     C 8147   3.647   2.967  12.367 -0.0862 -0.0619 -0.0822
  549TMC3     O 8148   3.704   2.864  12.385  0.3292  0.3063 -0.2202
  549TMC3     H 8149   3.482   3.175  12.385 -2.5878 -2.3392 -3.1343
  549TMC3    H1 8150   3.553   2.780  12.531  1.6016  1.4631 -0.9769
  549TMC3    H2 8151   3.192   2.986  12.636 -1.1470 -0.3236 -1.0928
  549TMC3    C7 8152   3.345   2.777  12.695  0.5293 -0.8683  0.0390
  549TMC3    C8 8153   3.243   3.203  12.497  0.5897  0.6507  0.2661
  549TMC3    O1 8154   3.266   2.803  12.784  0.0559  0.5102 -0.3180
  549TMC3    O2 8155   3.125   3.181  12.514 -0.4016 -0.2121  0.2582
  550TMC3    C1 8156   2.696   1.716  12.670  0.0899 -0.1716  0.4675
  550TMC3    C2 8157   2.607   1.753  12.771 -0.6831  0.3264 -0.1232
  550TMC3    C3 8158   2.503   1.839  12.731  0.4179  0.0505 -0.3267
  550TMC3    C4 8159   2.685   1.764  12.542  0.1440  0.2073 -0.1099
  550TMC3    C5 8160   2.597   1.858  12.508 -0.1186 -0.3209 -0.1021
  550TMC3    C6 8161   2.506   1.900  12.607 -0.2780  0.0236  0.6528
  550TMC3     C 8162   2.778   1.600  12.694  0.6380  0.3477 -0.8993
  550TMC3     O 8163   2.809   1.570  12.810  0.0148  0.5449 -0.5858
  550TMC3     H 8164   2.615   1.732  12.878 -1.8984  0.3840 -0.0211
  550TMC3    H1 8165   2.751   1.728  12.464  1.6968  0.7160  0.9433
  550TMC3    H2 8166   2.442   1.982  12.580 -1.1723 -0.6690  0.6693
  550TMC3    C7 8167   2.539   1.822  12.383  0.5644  0.6104 -0.6638
  550TMC3    C8 8168   2.386   1.857  12.818 -0.3999 -0.4366 -0.4766
  550TMC3    O1 8169   2.429   1.767  12.397 -0.0675  0.3044  0.2960
  550TMC3    O2 8170   2.311   1.953  12.807  0.8314 -1.0096 -0.0786
  551TMC3    C1 8171   0.133   3.413  13.246  0.5907  0.1810 -0.5313
  551TMC3    C2 8172   0.254   3.442  13.191  0.4569 -0.2220 -0.7388
  551TMC3    C3 8173   0.343   3.505  13.272 -0.0922 -0.0802  0.3289
  551TMC3    C4 8174   0.104   3.446  13.375 -0.3836  0.3518 -0.1967
  551TMC3    C5 8175   0.192   3.523  13.451  0.0964  0.2504  0.4853
  551TMC3    C6 8176   0.309   3.555  13.393 -0.4168 -0.0431 -0.5169
  551TMC3     C 8177   0.048   3.329  13.166 -0.2767  0.3807  0.4464
  551TMC3     O 8178   0.087   3.307  13.052 -0.5759 -0.4050 -0.0125
  551TMC3     H 8179   0.280   3.411  13.091 -0.2462 -0.1346 -0.9470
  551TMC3    H1 8180   0.001   3.433  13.407  0.6939 -0.8399  2.8449
  551TMC3    H2 8181   0.383   3.604  13.456 -2.9026  1.5632  1.1743
  551TMC3    C7 8182   0.160   3.568  13.580 -0.1167 -0.4805  0.0737
  551TMC3    C8 8183   0.481   3.500  13.227  0.1557 -1.0880 -0.0353
  551TMC3    O1 8184   0.240   3.645  13.624 -0.0508  0.0923  0.1192
  551TMC3    O2 8185   0.508   3.407  13.151  0.2280 -0.2196  0.2564
  552MPD2     C 8186   1.931   0.717  14.400 -0.3041 -0.1120 -0.2343
  552MPD2    C1 8187   2.001   0.639  14.318  0.6748 -0.5874 -0.2212
  552MPD2    C2 8188   2.120   0.580  14.349  0.3327 -0.1717  1.0471
  552MPD2    C3 8189   2.170   0.601  14.471  0.2932 -0.2387  0.1683
  552MPD2    C4 8190   2.095   0.679  14.557  0.1650 -0.2642  0.5522
  552MPD2    C5 8191   1.980   0.736  14.526 -0.0628  0.9040  0.0102
  552MPD2     H 8192   2.184   0.554  14.265 -2.4254 -0.5565 -0.9560
  552MPD2    H1 8193   2.131   0.689  14.659  2.6509  0.2994 -0.3709
  552MPD2    H2 8194   1.832   0.756  14.379 -0.3734  0.0749  0.4547
  552MPD2    H3 8195   1.940   0.816  14.587 -2.1352 -0.6917  0.7679
  552MPD2     N 8196   2.309   0.582  14.487 -0.1386  0.9073 -0.0001
  552MPD2    H5 8197   2.360   0.632  14.559  1.6689 -0.6587 -0.1983
  552MPD2    N1 8198   1.960   0.613  14.187 -0.9802  0.1035  0.6409
  552MPD2    H7 8199   2.014   0.548  14.131 -2.3486  0.1552 -0.7497
  553TMC3    C1 8200   1.807   0.598  14.014 -0.5088 -0.1312  0.5969
  553TMC3    C2 8201   1.758   0.669  13.904 -0.2692  0.5620  0.0581
  553TMC3    C3 8202   1.746   0.607  13.782 -0.0283 -0.0310  0.3350
  553TMC3    C4 8203   1.838   0.466  14.001 -0.1507 -0.1369  0.0471
  553TMC3    C5 8204   1.829   0.409  13.877 -0.5563 -1.2072  0.2142
  553TMC3    C6 8205   1.775   0.474  13.772 -0.1796  0.0837 -0.2610
  553TMC3     C 8206   1.850   0.672  14.132 -0.1012 -0.3581  0.7415
  553TMC3     O 8207   1.776   0.760  14.168  0.7323 -0.1008 -0.2689
  553TMC3     H 8208   1.753   0.777  13.908 -2.2104  0.4478  0.7522
  553TMC3    H1 8209   1.877   0.405  14.082 -0.7925 -1.8639 -0.9362
  553TMC3    H2 8210   1.769   0.431  13.673 -2.9802 -0.5050  0.1686
  553TMC3    C7 8211   1.889   0.276  13.852 -0.3145 -0.2406 -0.3420
  553TMC3    C8 8212   1.822   0.688  13.679 -0.1323 -0.3310  0.2868
  553TMC3    O1 8213   1.803   0.196  13.812 -0.3861  0.1754  0.1447
  553TMC3    O2 8214   1.903   0.766  13.730 -0.0215  0.1496 -0.4445
  554TMC3    C1 8215   3.679   3.885  11.525 -0.6158 -0.7798  0.1224
  554TMC3    C2 8216   3.624   3.844  11.404 -0.5903 -0.1460  0.1429
  554TMC3    C3 8217   3.634   3.934  11.297 -1.4817  0.2695 -0.0924
  554TMC3    C4 8218   3.751   4.002  11.534 -0.3924  0.4417  0.2526
  554TMC3    C5 8219   3.761   4.086  11.428  0.3632 -0.2893  0.0797
  554TMC3    C6 8220   3.706   4.048  11.308 -0.5059  0.6729  0.2451
  554TMC3     C 8221   3.681   3.780  11.631  0.3232  0.2076  0.1220
  554TMC3     O 8222   3.607   3.684  11.620 -0.0468 -0.1962 -0.4001
  554TMC3     H 8223   3.566   3.753  11.395 -3.2806  1.5158  0.4954
  554TMC3    H1 8224   3.805   4.015  11.627 -0.3182 -0.8583  0.4031
  554TMC3    H2 8225   3.721   4.118  11.226  1.3571 -1.3445 -1.1452
  554TMC3    C7 8226   3.830   4.216  11.444 -0.9074  0.8984  0.5596
  554TMC3    C8 8227   3.598   3.889  11.167 -1.8017  0.1784 -0.4447
  554TMC3    O1 8228   3.863   4.248  11.556 -0.1831  0.2589  0.5066
  554TMC3    O2 8229   3.611   3.971  11.080  0.4583 -0.2968 -0.3315
  555TMC3    C1 8230   3.024   3.668  14.798  0.1995  0.6854  0.0913
  555TMC3    C2 8231   3.041   3.767  14.895  0.2629 -0.0410 -0.2474
  555TMC3    C3 8232   3.007   3.735  15.023 -0.1619  0.2043  0.2159
  555TMC3    C4 8233   2.977   3.545  14.828  0.0702  0.0458 -0.1391
  555TMC3    C5 8234   2.941   3.521  14.957  0.4838  0.6290  0.3581
  555TMC3    C6 8235   2.946   3.616  15.061  0.4634  0.5782 -0.1645
  555TMC3     C 8236   3.022   3.712  14.658  0.1732  0.7804 -0.1824
  555TMC3     O 8237   3.036   3.632  14.567 -0.0073  0.1747 -0.1946
  555TMC3     H 8238   3.090   3.861  14.875  0.2708 -0.1526 -0.7712
  555TMC3    H1 8239   2.965   3.478  14.744  0.1091 -0.3409  0.1659
  555TMC3    H2 8240   2.902   3.591  15.157 -2.6289 -0.8342 -1.9785
  555TMC3    C7 8241   2.903   3.390  14.993 -0.4142 -0.6698  0.2851
  555TMC3    C8 8242   3.056   3.823  15.130 -0.8323  0.0110  0.0203
  555TMC3    O1 8243   2.811   3.381  15.075  0.8889 -0.4208 -0.2640
  555TMC3    O2 8244   3.074   3.938  15.103  0.4030  0.2813  0.6828
  556MPD2     C 8245   1.442   0.620  10.953  0.8933 -0.1645 -0.1239
  556MPD2    C1 8246   1.314   0.592  10.980  0.3068 -0.1728  0.1038
  556MPD2    C2 8247   1.271   0.459  10.945  0.2403 -0.6334 -0.0020
  556MPD2    C3 8248   1.352   0.367  10.890 -0.4401  0.1019  0.3734
  556MPD2    C4 8249   1.486   0.401  10.862  0.1891 -0.0887 -0.0967
  556MPD2    C5 8250   1.528   0.522  10.910 -0.1838  0.3452 -0.4430
  556MPD2     H 8251   1.164   0.444  10.952  0.6877 -1.9754  3.9685
  556MPD2    H1 8252   1.565   0.335  10.829 -2.0520 -1.2965 -3.0962
  556MPD2    H2 8253   1.488   0.714  10.983  0.2767 -0.0863  0.5894
  556MPD2    H3 8254   1.636   0.530  10.920  0.0195 -0.7264 -1.7412
  556MPD2     N 8255   1.296   0.241  10.863  0.8612  0.6671 -0.3900
  556MPD2    H5 8256   1.196   0.231  10.874  0.8369  0.5074 -0.7780
  556MPD2    N1 8257   1.224   0.680  11.050 -0.2459 -0.4980 -0.2710
  556MPD2    H7 8258   1.137   0.640  11.085 -1.3898  2.2044 -0.0325
  557TMC3    C1 8259   1.275   0.017  10.775 -0.0238 -0.3188  0.7325
  557TMC3    C2 8260   1.336   4.644  10.693  0.7881  0.8998  0.3842
  557TMC3    C3 8261   1.250   4.563  10.622  0.5598  0.3073 -1.0616
  557TMC3    C4 8262   1.138   0.019  10.790  0.2908  0.6124 -0.1922
  557TMC3    C5 8263   1.056   4.661  10.713 -0.0808  0.2083 -0.3747
  557TMC3    C6 8264   1.110   4.577  10.616 -0.0841  0.3509  0.0431
  557TMC3     C 8265   1.362   0.129  10.820 -0.2915  0.6471  0.0866
  557TMC3     O 8266   1.484   0.119  10.788  0.4105 -0.5011  0.5683
  557TMC3     H 8267   1.441   4.640  10.669  0.4473  1.0344 -1.1331
  557TMC3    H1 8268   1.094   0.081  10.868  0.5509 -0.3773  0.7443
  557TMC3    H2 8269   1.049   4.531  10.540  1.1760 -2.4058  0.6931
  557TMC3    C7 8270   0.912   4.680  10.734  0.5135 -0.2208 -0.2515
  557TMC3    C8 8271   1.310   4.490  10.505  0.7663 -0.4338  0.0916
  557TMC3    O1 8272   0.873   0.055  10.802 -0.2304  0.0257  0.1563
  557TMC3    O2 8273   1.422   4.529  10.469  0.0412 -0.5888  0.4188
  558TMC3    C1 8274   3.878   3.361   9.262 -1.0661 -0.4602  0.0554
  558TMC3    C2 8275   3.854   3.458   9.361 -0.3661 -0.5326 -0.5176
  558TMC3    C3 8276   3.774   3.430   9.467  0.3898  0.1454  0.3736
  558TMC3    C4 8277   3.796   3.252   9.263  0.2781 -0.0623  0.1745
  558TMC3    C5 8278   3.719   3.229   9.372  0.2756  0.2003 -0.0660
  558TMC3    C6 8279   3.714   3.312   9.479 -0.9476 -0.1589 -0.4651
  558TMC3     C 8280   4.018   3.331   9.274 -0.4450 -0.0372 -0.3876
  558TMC3     O 8281   4.088   3.408   9.336  0.0911  0.0264  0.2628
  558TMC3     H 8282   3.920   3.543   9.376  0.5506 -0.9153 -2.4186
  558TMC3    H1 8283   3.806   3.168   9.195 -1.1259  0.7703 -1.0744
  558TMC3    H2 8284   3.649   3.287   9.561 -2.8757 -0.3441 -2.0448
  558TMC3    C7 8285   3.701   3.091   9.407  0.4146 -0.3365 -0.7760
  558TMC3    C8 8286   3.826   3.470   9.592 -0.6041  0.4982 -0.8384
  558TMC3    O1 8287   3.747   3.068   9.518  0.2481  0.1468  0.1418
  558TMC3    O2 8288   3.839   3.588   9.619 -1.0324  0.0706 -0.4170
  559MPD2     C 8289   3.495   3.332  10.575 -0.3047 -0.6313 -0.0405
  559MPD2    C1 8290   3.433   3.302  10.690  0.4254  0.4334  1.6282
  559MPD2    C2 8291   3.507   3.295  10.810  0.5742 -0.6436  0.2523
  559MPD2    C3 8292   3.645   3.320  10.811  0.1555  0.2093  0.1018
  559MPD2    C4 8293   3.702   3.360  10.696 -0.3334 -0.2217  0.0110
  559MPD2    C5 8294   3.622   3.377  10.586 -1.0616  0.4608  0.1040
  559MPD2     H 8295   3.453   3.271  10.901  0.4209 -3.5019 -0.5921
  559MPD2    H1 8296   3.809   3.375  10.695  0.0658 -2.8824  1.3217
  559MPD2    H2 8297   3.447   3.332  10.478  1.2559 -0.9548 -0.8126
  559MPD2    H3 8298   3.670   3.412  10.495 -2.0689  1.7188  0.0583
  559MPD2     N 8299   3.720   3.331  10.931  0.1703 -0.6405 -0.5351
  559MPD2    H5 8300   3.675   3.295  11.014 -2.5066 -1.5699 -2.4109
  559MPD2    N1 8301   3.289   3.296  10.683 -0.0059 -0.8035  0.0317
  559MPD2    H7 8302   3.254   3.319  10.590 -1.6846  0.5973  1.0198
  560TMC3    C1 8303   3.914   3.352  11.060 -0.4895 -0.1063  0.9024
  560TMC3    C2 8304   3.940   3.220  11.046  0.4393 -0.1082 -0.5355
  560TMC3    C3 8305   4.048   3.159  11.091 -0.7031  0.2366  0.1966
  560TMC3    C4 8306   4.007   3.437  11.111 -0.1547 -0.2343  0.6666
  560TMC3    C5 8307   4.115   3.370  11.162  0.6564  0.3698 -0.7438
  560TMC3    C6 8308   4.141   3.230  11.163  0.1902 -0.6181  0.0123
  560TMC3     C 8309   3.839   3.405  10.946  0.1337 -0.4208 -1.3317
  560TMC3     O 8310   3.895   3.486  10.878  0.3795  0.0924  0.0213
  560TMC3     H 8311   3.875   3.155  10.988  0.2427 -0.1654 -0.2454
  560TMC3    H1 8312   3.986   3.544  11.119  3.8548  0.5507  0.9359
  560TMC3    H2 8313   4.235   3.184  11.191 -0.6283 -1.7576  0.8392
  560TMC3    C7 8314   4.224   3.450  11.236 -0.0881  0.3282 -0.1674
  560TMC3    C8 8315   4.097   3.067  10.979  0.1112 -0.2086 -0.3143
  560TMC3    O1 8316   4.306   3.378  11.289 -0.0777 -0.3000  0.6446
  560TMC3    O2 8317   4.016   3.018  10.903 -0.2099 -0.2194  0.4774
  561TMC3    C1 8318   1.214   2.694  11.238 -0.6420  0.1658 -0.3272
  561TMC3    C2 8319   1.100   2.673  11.317 -0.1247 -0.1458  0.3349
  561TMC3    C3 8320   1.049   2.778  11.388  0.5001  0.4552 -0.2010
  561TMC3    C4 8321   1.263   2.821  11.218 -0.4797 -0.2733  0.8284
  561TMC3    C5 8322   1.198   2.929  11.274 -0.5188  0.3431  0.5918
  561TMC3    C6 8323   1.092   2.906  11.368  0.6549  0.2480  0.3960
  561TMC3     C 8324   1.262   2.572  11.173  0.1003 -0.5835 -0.1926
  561TMC3     O 8325   1.185   2.483  11.131 -0.7233 -0.4217 -0.0974
  561TMC3     H 8326   1.059   2.573  11.332  1.7037 -1.4330 -3.2925
  561TMC3    H1 8327   1.332   2.848  11.139 -1.2552  2.5956  1.1136
  561TMC3    H2 8328   1.040   2.996  11.401 -0.3853 -0.0850 -0.3290
  561TMC3    C7 8329   1.186   3.055  11.202 -0.1204  0.4444  0.5665
  561TMC3    C8 8330   1.024   2.737  11.524  0.6030  0.2193 -0.4999
  561TMC3    O1 8331   1.082   3.118  11.227  0.2855 -0.2980  0.1532
  561TMC3    O2 8332   1.073   2.627  11.546  0.6685  0.0737 -0.1692
  562TMC3    C1 8333   2.927   3.871  16.218 -0.2973  0.0559  0.0799
  562TMC3    C2 8334   2.876   3.989  16.189 -0.1816  0.1524 -0.3403
  562TMC3    C3 8335   2.829   4.012  16.064 -0.6110  0.9941  1.0058
  562TMC3    C4 8336   2.929   3.766  16.128  0.3759  0.3567 -0.6499
  562TMC3    C5 8337   2.880   3.792  16.000 -0.0890  1.0379 -0.1317
  562TMC3    C6 8338   2.820   3.910  15.968  0.0544  0.6015 -0.7763
  562TMC3     C 8339   2.963   3.839  16.353  0.2771  0.7785  0.0438
  562TMC3     O 8340   2.951   3.724  16.387 -0.1905 -0.0463 -0.1339
  562TMC3     H 8341   2.869   4.071  16.259  1.3771 -1.0699  1.2185
  562TMC3    H1 8342   2.973   3.671  16.156  1.5962  1.2630  0.5120
  562TMC3    H2 8343   2.778   3.930  15.870 -2.1673  1.7585  0.4199
  562TMC3    C7 8344   2.891   3.703  15.885  0.4868 -0.1230  0.0913
  562TMC3    C8 8345   2.731   4.118  16.046  0.2993  0.0058 -0.1586
  562TMC3    O1 8346   2.861   3.740  15.771 -0.1891 -0.5657  0.0742
  562TMC3    O2 8347   2.696   4.165  16.149 -0.3551 -0.0169  0.2174
  563MPD2     C 8348   0.277   0.841  15.747 -0.2072  0.1952 -0.0131
  563MPD2    C1 8349   0.283   0.749  15.854 -0.4286  0.5641 -0.0777
  563MPD2    C2 8350   0.403   0.682  15.862  0.3217 -0.1475  0.3137
  563MPD2    C3 8351   0.500   0.692  15.768 -0.0840  0.1136  0.4368
  563MPD2    C4 8352   0.488   0.786  15.664  0.3336 -0.8371  0.5102
  563MPD2    C5 8353   0.376   0.847  15.655 -0.2095 -1.2228 -0.4547
  563MPD2     H 8354   0.416   0.604  15.937  2.6492  1.7634  1.9017
  563MPD2    H1 8355   0.559   0.782  15.582 -1.4898  2.5630 -1.2024
  563MPD2    H2 8356   0.194   0.908  15.732  0.0137 -0.0256 -2.1400
  563MPD2    H3 8357   0.368   0.912  15.568 -1.1756  0.0773  0.6161
  563MPD2     N 8358   0.604   0.600  15.780  0.8502 -0.0701  0.0422
  563MPD2    H5 8359   0.605   0.549  15.868  0.7334 -0.2856 -0.0810
  563MPD2    N1 8360   0.187   0.724  15.953  0.0660 -0.8133  0.4871
  563MPD2    H7 8361   0.227   0.694  16.041  1.7787  1.1019  0.3568
  564TMC3    C1 8362   4.695   0.689  16.049  0.3407  0.2061  0.0223
  564TMC3    C2 8363   4.576   0.651  15.995  0.1413 -0.4920  0.1286
  564TMC3    C3 8364   4.516   0.544  16.059 -0.5906 -1.0442 -0.2778
  564TMC3    C4 8365   0.038   0.627  16.150 -0.1442  0.4987 -0.2465
  564TMC3    C5 8366   4.697   0.522  16.207  0.0549 -0.4460  0.3409
  564TMC3    C6 8367   4.574   0.487  16.173 -0.4735 -0.9550 -0.4064
  564TMC3     C 8368   0.057   0.758  15.946 -0.0408  0.0915 -0.2664
  564TMC3     O 8369   4.712   0.810  15.855 -0.8895  0.3014 -0.3061
  564TMC3     H 8370   4.529   0.705  15.913  0.0296 -1.2768 -0.3236
  564TMC3    H1 8371   0.130   0.664  16.193  0.3361 -0.7295 -0.1935
  564TMC3    H2 8372   4.524   0.399  16.213  1.0202 -0.6644  2.1010
  564TMC3    C7 8373   0.063   0.443  16.295  0.1094 -0.6725 -0.2185
  564TMC3    C8 8374   4.427   0.454  15.981  0.1891 -0.2958 -0.2681
  564TMC3    O1 8375   0.173   0.479  16.337  0.2251  0.3519  0.1340
  564TMC3    O2 8376   4.351   0.384  16.051  1.0957  0.2422  0.2113
  565TMC3    C1 8377   1.013   1.570  10.037 -0.4567 -0.4038  0.1778
  565TMC3    C2 8378   0.985   1.582  10.170  0.0542  0.1592  0.2909
  565TMC3    C3 8379   0.923   1.478  10.228 -1.1131  0.5986 -0.1133
  565TMC3    C4 8380   0.964   1.466   9.972 -0.2628  0.0121 -0.0729
  565TMC3    C5 8381   0.898   1.360  10.029 -0.1522 -0.1891  0.0382
  565TMC3    C6 8382   0.870   1.366  10.164 -0.1389 -0.6325 -0.2929
  565TMC3     C 8383   1.084   1.677   9.971  0.1361 -0.0987  0.1744
  565TMC3     O 8384   1.054   1.722   9.860  0.4704 -0.0630  0.1700
  565TMC3     H 8385   1.008   1.674  10.224  2.3900 -1.2094  1.6098
  565TMC3    H1 8386   1.009   1.447   9.875 -0.6012  1.4333 -0.5024
  565TMC3    H2 8387   0.838   1.279  10.221 -0.6426 -0.8117 -0.8411
  565TMC3    C7 8388   0.850   1.243   9.955  0.6063  0.4606  0.3246
  565TMC3    C8 8389   0.939   1.466  10.371 -0.8767  0.2017 -0.4369
  565TMC3    O1 8390   0.862   1.248   9.835  0.3106  0.5357 -0.7647
  565TMC3    O2 8391   0.982   1.356  10.411  0.1656  0.6016 -0.0991
  566MPD2     C 8392   2.147   4.130  14.567 -0.2202 -0.6095 -0.8393
  566MPD2    C1 8393   2.173   4.171  14.437  0.1375  0.1253 -0.6739
  566MPD2    C2 8394   2.072   4.209  14.343  0.0789  0.3026 -1.0108
  566MPD2    C3 8395   1.944   4.209  14.387 -0.2083  0.0175 -0.2266
  566MPD2    C4 8396   1.911   4.162  14.519 -0.4499  0.3767  0.1287
  566MPD2    C5 8397   2.011   4.126  14.598 -0.5096  0.0017 -0.7391
  566MPD2     H 8398   2.091   4.232  14.239 -0.8440 -1.2537 -1.5182
  566MPD2    H1 8399   1.806   4.163  14.545 -1.0304 -0.4567 -2.1661
  566MPD2    H2 8400   2.213   4.125  14.652 -1.3461  0.1913  0.0841
  566MPD2    H3 8401   1.988   4.097  14.700  1.9631  1.6475  0.2857
  566MPD2     N 8402   1.845   4.238  14.290 -0.2304  0.3382 -0.2139
  566MPD2    H5 8403   1.751   4.202  14.299  0.5837 -1.5534  0.6314
  566MPD2    N1 8404   2.314   4.185  14.402  0.1747 -0.0221  0.0644
  566MPD2    H7 8405   2.374   4.142  14.472 -0.4834  0.3513  0.8561
  567TMC3    C1 8406   2.491   4.195  14.234  0.0505  0.6212  0.3017
  567TMC3    C2 8407   2.529   4.250  14.113  0.2886 -0.7820  0.5509
  567TMC3    C3 8408   2.625   4.179  14.050  0.0228  0.0800  0.0762
  567TMC3    C4 8409   2.541   4.076  14.276  0.7887 -0.0392 -0.2990
  567TMC3    C5 8410   2.647   4.016  14.211  0.4511 -0.1167  0.2610
  567TMC3    C6 8411   2.684   4.067  14.087  0.3787 -0.0100  0.1139
  567TMC3     C 8412   2.358   4.242  14.279 -0.0036 -0.2868 -0.0209
  567TMC3     O 8413   2.299   4.325  14.206 -0.4630 -0.3485  0.3978
  567TMC3     H 8414   2.477   4.334  14.069  0.9377 -0.7695 -0.1739
  567TMC3    H1 8415   2.514   4.036  14.373 -1.0214 -1.0609 -1.2161
  567TMC3    H2 8416   2.764   4.022  14.030 -0.2478  1.1835 -1.6728
  567TMC3    C7 8417   2.676   3.879  14.232 -1.0981 -0.1259  0.8540
  567TMC3    C8 8418   2.652   4.243  13.917  0.1458  0.3770  0.0240
  567TMC3    O1 8419   2.731   3.816  14.141 -0.2516 -0.6334 -0.6528
  567TMC3    O2 8420   2.570   4.327  13.878 -0.0303 -0.0647 -0.2645
  568MPD2     C 8421   0.030   3.800  16.049  0.2115  0.1914  0.0857
  568MPD2    C1 8422   4.708   3.887  16.150  0.8287 -1.6047  0.0948
  568MPD2    C2 8423   4.623   3.989  16.125 -0.0604  0.3976 -0.0062
  568MPD2    C3 8424   4.572   4.010  15.997  0.4714 -0.1965 -0.6348
  568MPD2    C4 8425   4.619   3.929  15.892 -0.0003  0.3912 -0.1360
  568MPD2    C5 8426   4.694   3.821  15.924  0.0512 -0.3921  0.0702
  568MPD2     H 8427   4.581   4.047  16.207 -0.0235  1.2545 -0.6027
  568MPD2    H1 8428   4.594   3.948  15.788  1.5082  0.9392 -0.4090
  568MPD2    H2 8429   0.089   3.712  16.074 -0.4073 -0.8434 -2.1143
  568MPD2    H3 8430   0.008   3.757  15.843 -0.5233 -1.6782  0.8661
  568MPD2     N 8431   4.481   4.113  15.972 -0.1684 -0.2200 -0.3242
  568MPD2    H5 8432   4.471   4.177  16.049  1.3015 -0.5037  0.1032
  568MPD2    N1 8433   0.045   3.864  16.281 -0.6428  0.0757  0.2234
  568MPD2    H7 8434   0.073   3.768  16.297  0.4690  0.1677 -1.2112
  569TMC3    C1 8435   4.309   4.246  15.887 -0.6138 -0.7692 -0.6489
  569TMC3    C2 8436   4.276   4.271  16.016 -1.0151  1.1694  0.1681
  569TMC3    C3 8437   4.240   4.398  16.056  0.0308 -0.3533  0.1937
  569TMC3    C4 8438   4.320   4.346  15.797  0.5252  0.1082 -0.6132
  569TMC3    C5 8439   4.280   4.470  15.836  0.3669  0.0199 -0.3553
  569TMC3    C6 8440   4.243   4.497  15.967 -0.8129  0.4970 -0.5858
  569TMC3     C 8441   4.404   4.136  15.859  0.3284 -0.4902  0.1622
  569TMC3     O 8442   4.396   4.089  15.750  0.1548 -0.2624 -0.3526
  569TMC3     H 8443   4.264   4.189  16.086  1.7587 -0.7438 -1.5890
  569TMC3    H1 8444   4.367   4.332  15.700 -1.3083 -0.3949 -1.4204
  569TMC3    H2 8445   4.202   4.593  15.999 -0.1118  0.6647 -0.2091
  569TMC3    C7 8446   4.320   4.573  15.748 -1.1379 -0.1130  0.3321
  569TMC3    C8 8447   4.210   4.423  16.198 -0.2776 -0.2272 -0.8885
  569TMC3    O1 8448   4.349   4.544  15.635  0.6271 -0.0857 -0.9528
  569TMC3    O2 8449   4.206   4.322  16.266  0.9763  0.1352 -0.1138
  570TMC3    C1 8450   4.386   3.166  16.057 -0.4829  0.4374 -0.4774
  570TMC3    C2 8451   4.464   3.204  15.952  0.5035  0.1378 -0.6693
  570TMC3    C3 8452   4.509   3.333  15.945  0.4174  1.5509 -0.0822
  570TMC3    C4 8453   4.350   3.255  16.162 -0.4629  0.3077  0.0098
  570TMC3    C5 8454   4.411   3.380  16.153  0.1167  0.0728  0.6269
  570TMC3    C6 8455   4.484   3.420  16.047 -0.3210  0.2652  0.5550
  570TMC3     C 8456   4.307   3.046  16.040  0.6317  0.2361 -0.3262
  570TMC3     O 8457   4.332   2.981  15.941  0.4691 -0.4724  0.0873
  570TMC3     H 8458   4.478   3.143  15.864  2.6607 -0.9863  0.4470
  570TMC3    H1 8459   4.296   3.239  16.255 -0.1114  1.2081  0.3740
  570TMC3    H2 8460   4.516   3.524  16.048  0.4540  0.0610 -2.6388
  570TMC3    C7 8461   4.401   3.477  16.258 -0.5527  0.5406 -0.0815
  570TMC3    C8 8462   4.622   3.367  15.861 -0.2782 -0.7518 -0.3254
  570TMC3    O1 8463   4.496   3.552  16.273 -0.3863 -0.6251 -0.3317
  570TMC3    O2 8464   4.679   3.473  15.884 -0.5630 -0.2377 -0.3038
  571MPD2     C 8465   1.868   4.063  17.434 -0.3182 -0.2130  0.1960
  571MPD2    C1 8466   1.936   4.180  17.418 -0.7141  0.5504  0.1370
  571MPD2    C2 8467   1.903   4.284  17.505 -0.2272 -0.1162 -0.2266
  571MPD2    C3 8468   1.796   4.271  17.592 -0.3761 -0.4005 -0.5505
  571MPD2    C4 8469   1.722   4.154  17.599  0.0165  0.6583 -0.6971
  571MPD2    C5 8470   1.757   4.045  17.519 -0.1001  0.2912 -0.5798
  571MPD2     H 8471   1.978   4.360  17.521  0.1227 -0.3194 -0.9205
  571MPD2    H1 8472   1.633   4.147  17.659  0.1101  2.9412 -0.2874
  571MPD2    H2 8473   1.890   3.982  17.366  1.7134  0.3502  0.1903
  571MPD2    H3 8474   1.699   3.953  17.529  0.2041  0.0386 -1.1465
  571MPD2     N 8475   1.753   4.373   0.010 -0.4687 -0.2746 -0.0929
  571MPD2    H5 8476   1.680   4.356   0.078  0.4433 -1.3861  0.6045
  571MPD2    N1 8477   2.037   4.189  17.322 -0.3750 -0.1575 -0.1434
  571MPD2    H7 8478   2.045   4.109  17.260  0.9891 -0.7586  0.8065
  572TMC3    C1 8479   1.795   4.548   0.155 -0.2098 -0.1184  0.0214
  572TMC3    C2 8480   1.760   4.467   0.260  0.3926 -0.8367 -0.5155
  572TMC3    C3 8481   1.783   4.520   0.386 -0.1440  0.7315 -0.4349
  572TMC3    C4 8482   1.823   4.682   0.173  0.0690 -0.1081 -0.1542
  572TMC3    C5 8483   1.841   0.009   0.298 -0.5060 -0.3046  0.8719
  572TMC3    C6 8484   1.823   4.653   0.408 -0.5783 -0.0657 -0.1273
  572TMC3     C 8485   1.818   4.495   0.022  1.1000  0.2158 -0.0655
  572TMC3     O 8486   1.869   4.565  17.609 -0.0550  0.5639  0.7861
  572TMC3     H 8487   1.749   4.359   0.258  0.6673 -0.8711 -0.1423
  572TMC3    H1 8488   1.841   0.030   0.088  1.3568  0.7226  0.7693
  572TMC3    H2 8489   1.833   4.705   0.502 -0.4564 -0.7965  0.2629
  572TMC3    C7 8490   1.834   0.155   0.310  0.5003  0.1906 -0.1840
  572TMC3    C8 8491   1.717   4.460   0.498 -0.0574 -0.1373  0.6821
  572TMC3    O1 8492   1.757   0.217   0.235  0.2548 -0.3558 -0.4262
  572TMC3    O2 8493   1.689   4.338   0.498  0.4996 -0.1680 -0.1573
  573MPD2     C 8494   3.177   0.562   0.430 -0.2038  0.1874  0.4223
  573MPD2    C1 8495   3.150   0.696   0.419 -0.6840 -0.2702  0.1194
  573MPD2    C2 8496   3.068   0.743   0.316  0.3945 -0.1864 -0.5084
  573MPD2    C3 8497   3.021   0.655   0.216 -0.1634  0.3143  0.2187
  573MPD2    C4 8498   3.044   0.513   0.231  0.1364  0.1664 -0.4729
  573MPD2    C5 8499   3.124   0.475   0.341 -0.2453  0.5580  0.3516
  573MPD2     H 8500   3.041   0.848   0.318  0.0202 -0.3109  0.6590
  573MPD2    H1 8501   2.995   0.444   0.164  1.0448 -0.7536 -0.1997
  573MPD2    H2 8502   3.247   0.522   0.502  0.7992  3.4418  1.2679
  573MPD2    H3 8503   3.141   0.369   0.353 -1.3133  0.1614 -1.5856
  573MPD2     N 8504   2.932   0.710   0.121  0.0182  0.5187 -0.0584
  573MPD2    H5 8505   2.917   0.809   0.139 -0.2137  0.8124 -1.8809
  573MPD2    N1 8506   3.204   0.782   0.524 -0.2390  0.7046 -0.1613
  573MPD2    H7 8507   3.280   0.741   0.578  0.9627  1.6177 -1.1644
  574TMC3    C1 8508   2.801   0.735  17.610  0.9245 -0.3844 -0.2373
  574TMC3    C2 8509   2.707   0.809   0.002 -0.1219 -0.1067  0.3015
  574TMC3    C3 8510   2.617   0.873  17.600  1.2319  0.6786 -0.2403
  574TMC3    C4 8511   2.787   0.697  17.478  0.4086  0.7778  0.1507
  574TMC3    C5 8512   2.692   0.761  17.400  0.2742  0.1800  0.4928
  574TMC3    C6 8513   2.607   0.859  17.457  0.0015 -0.0558 -0.4407
  574TMC3     C 8514   2.884   0.650   0.018  0.1850  0.7471 -0.1506
  574TMC3     O 8515   2.926   0.548  17.638  0.2687 -0.2498 -0.4822
  574TMC3     H 8516   2.709   0.832   0.108 -0.5735  1.4105 -0.0219
  574TMC3    H1 8517   2.870   0.644  17.433 -0.6012  1.0608 -2.0320
  574TMC3    H2 8518   2.527   0.900  17.397  0.3442  2.6037  0.9255
  574TMC3    C7 8519   2.684   0.743  17.255 -0.0989 -0.1868  0.1516
  574TMC3    C8 8520   2.533   0.974  17.675 -0.2820  0.1120 -0.0932
  574TMC3    O1 8521   2.625   0.828  17.192  0.7873 -0.6951 -0.3362
  574TMC3    O2 8522   2.540   0.986   0.121  0.1367  0.0514  0.2706
  575TMC3    C1 8523   0.741   0.933  10.995 -0.5558 -0.4720 -0.0368
  575TMC3    C2 8524   0.687   0.974  11.109 -0.5610 -0.4867  0.2979
  575TMC3    C3 8525   0.692   1.104  11.152 -0.1765  0.5471  0.2019
  575TMC3    C4 8526   0.816   1.021  10.912 -0.3634  0.6949 -0.0445
  575TMC3    C5 8527   0.812   1.156  10.954 -0.0045 -0.2691  0.8243
  575TMC3    C6 8528   0.764   1.201  11.076 -0.3210 -0.3696  0.7404
  575TMC3     C 8529   0.773   0.794  10.999 -0.9624  0.8896  0.3995
  575TMC3     O 8530   0.752   0.731  11.103  0.1813  0.1184  0.0627
  575TMC3     H 8531   0.628   0.904  11.167 -0.0279 -0.3102  1.0642
  575TMC3    H1 8532   0.870   0.993  10.822  0.2857  2.9065 -0.3291
  575TMC3    H2 8533   0.773   1.301  11.116 -0.5156  0.1390 -0.4901
  575TMC3    C7 8534   0.857   1.255  10.859  0.9881 -0.1626  0.4607
  575TMC3    C8 8535   0.671   1.126  11.296 -0.2856  0.7521 -0.4041
  575TMC3    O1 8536   0.903   1.205  10.758  0.2756 -0.6023 -0.2986
  575TMC3    O2 8537   0.683   1.023  11.366 -0.2917 -0.0734 -0.4468
  576MPD2     C 8538   0.463   3.402  12.677 -0.6024  0.0453 -0.6921
  576MPD2    C1 8539   0.473   3.480  12.565 -0.7389 -0.1715 -0.0787
  576MPD2    C2 8540   0.464   3.616  12.588  0.0406  0.1267  0.1188
  576MPD2    C3 8541   0.444   3.666  12.717 -1.5407  0.3977 -0.0476
  576MPD2    C4 8542   0.447   3.581  12.826  0.3845 -0.3048  0.3617
  576MPD2    C5 8543   0.441   3.448  12.802  0.3202  0.2024  0.7345
  576MPD2     H 8544   0.459   3.671  12.495 -1.0612  0.0800  0.1504
  576MPD2    H1 8545   0.427   3.607  12.929  2.5211 -0.6086  0.8582
  576MPD2    H2 8546   0.471   3.294  12.674 -0.9337  0.0525 -2.0904
  576MPD2    H3 8547   0.438   3.383  12.889 -0.1157  0.3381  0.8210
  576MPD2     N 8548   0.412   3.802  12.741 -0.7831 -0.0980 -0.5012
  576MPD2    H5 8549   0.416   3.866  12.663 -1.6924 -1.3090 -1.5384
  576MPD2    N1 8550   0.497   3.441  12.432 -0.8351 -0.7506 -0.3754
  576MPD2    H7 8551   0.511   3.514  12.363 -0.4936  1.9201  2.5131
  577TMC3    C1 8552   0.541   3.265  12.274  0.5086 -0.2608  0.2722
  577TMC3    C2 8553   0.567   3.129  12.267  0.1854  0.1377  0.5444
  577TMC3    C3 8554   0.582   3.080  12.140 -0.3761 -0.6442  0.6881
  577TMC3    C4 8555   0.509   3.340  12.166 -0.2451 -0.2201 -0.0576
  577TMC3    C5 8556   0.523   3.283  12.045  0.5623  0.4167  0.4184
  577TMC3    C6 8557   0.555   3.156  12.031 -0.2726  0.0043 -0.3221
  577TMC3     C 8558   0.490   3.306  12.401 -0.2338 -0.1144  0.0009
  577TMC3     O 8559   0.442   3.221  12.473 -0.3851  0.3274  0.2646
  577TMC3     H 8560   0.609   3.076  12.352 -0.1562  0.6146  1.0038
  577TMC3    H1 8561   0.476   3.443  12.175 -0.2558 -0.1547 -0.8230
  577TMC3    H2 8562   0.544   3.114  11.932  0.6821 -0.3255 -0.2886
  577TMC3    C7 8563   0.514   3.360  11.920  0.4789  0.4311 -0.5764
  577TMC3    C8 8564   0.665   2.963  12.127  0.6880 -0.3928 -0.1402
  577TMC3    O1 8565   0.442   3.314  11.833 -0.0954 -0.3386  0.6998
  577TMC3    O2 8566   0.656   2.878  12.212 -0.0244  0.4360 -0.4155
  578MPD2     C 8567   3.328   4.246   1.609 -0.6217  0.3494 -0.1194
  578MPD2    C1 8568   3.289   4.208   1.483 -0.3875 -1.4674 -0.0084
  578MPD2    C2 8569   3.270   4.073   1.461 -0.4806 -0.3307  0.0804
  578MPD2    C3 8570   3.271   3.983   1.563  0.1212  0.0673  0.3620
  578MPD2    C4 8571   3.297   4.027   1.689  0.1499 -0.1102 -0.8010
  578MPD2    C5 8572   3.331   4.156   1.713 -0.3295 -0.0333 -0.3911
  578MPD2     H 8573   3.240   4.030   1.366 -1.7466  0.2547  0.2161
  578MPD2    H1 8574   3.301   3.960   1.773 -1.1351  3.2026  1.9134
  578MPD2    H2 8575   3.356   4.348   1.635 -0.7139  0.4938 -0.5790
  578MPD2    H3 8576   3.359   4.190   1.812  0.2904  1.8415 -1.2214
  578MPD2     N 8577   3.257   3.852   1.527  0.0093 -0.4163 -0.3396
  578MPD2    H5 8578   3.229   3.843   1.430 -1.6469  2.6660 -0.1251
  578MPD2    N1 8579   3.275   4.306   1.386 -0.0947  0.1712  0.2193
  578MPD2    H7 8580   3.294   4.401   1.416 -1.3743  0.1158  1.1964
  579TMC3    C1 8581   3.283   3.620   1.523 -0.0696  0.0306  0.0404
  579TMC3    C2 8582   3.367   3.521   1.564  0.1345 -0.1307 -0.2957
  579TMC3    C3 8583   3.430   3.456   1.468 -0.1659  0.3053  0.0164
  579TMC3    C4 8584   3.256   3.641   1.393  0.1792 -0.3509 -0.5766
  579TMC3    C5 8585   3.304   3.555   1.300  0.1886  0.6929  0.0079
  579TMC3    C6 8586   3.390   3.457   1.338 -0.2229 -0.4786 -0.0507
  579TMC3     C 8587   3.296   3.741   1.602  0.1137  1.1203 -0.5674
  579TMC3     O 8588   3.354   3.725   1.709 -0.9487  0.4882 -0.0415
  579TMC3     H 8589   3.408   3.511   1.664 -1.4820 -1.8214  0.2206
  579TMC3    H1 8590   3.176   3.705   1.358  0.2496 -0.7420 -1.4317
  579TMC3    H2 8591   3.429   3.387   1.265 -0.3665  0.0614 -0.6522
  579TMC3    C7 8592   3.272   3.584   1.163 -0.4798 -0.4945  0.7844
  579TMC3    C8 8593   3.509   3.341   1.507  0.6459  0.0644 -0.1200
  579TMC3    O1 8594   3.234   3.692   1.123 -0.4018  0.4347  0.8320
  579TMC3    O2 8595   3.476   3.286   1.612  0.2690 -0.0716 -0.5746
  580TMC3    C1 8596   2.868   2.623  11.847 -0.4978 -0.0386 -0.0194
  580TMC3    C2 8597   2.916   2.729  11.920 -0.3571 -0.8052 -0.1228
  580TMC3    C3 8598   3.038   2.708  11.978  0.6062  0.5556  0.0273
  580TMC3    C4 8599   2.916   2.494  11.861  0.5622  0.2081  0.8018
  580TMC3    C5 8600   3.028   2.479  11.931 -1.0597  0.6136  0.4928
  580TMC3    C6 8601   3.090   2.582  11.994 -0.0322 -0.9312 -0.7872
  580TMC3     C 8602   2.739   2.644  11.783  0.1845 -0.2885 -0.1015
  580TMC3     O 8603   2.662   2.548  11.795  0.1874 -0.6636  0.3730
  580TMC3     H 8604   2.876   2.829  11.912 -0.3758 -0.7550  0.6368
  580TMC3    H1 8605   2.883   2.419  11.791 -0.3356 -1.0121  2.5430
  580TMC3    H2 8606   3.182   2.569  12.051 -1.7776 -0.1270  2.2174
  580TMC3    C7 8607   3.096   2.348  11.951  0.3980  0.4783 -0.3590
  580TMC3    C8 8608   3.137   2.807  11.946 -0.2260 -0.0170 -0.0415
  580TMC3    O1 8609   3.214   2.348  11.975 -0.5680 -0.1068 -0.1289
  580TMC3    O2 8610   3.109   2.922  11.951  0.3897  0.3011 -0.3035
  581MPD2     C 8611   1.277   2.048  14.852 -0.3501  0.1173  0.5272
  581MPD2    C1 8612   1.142   2.012  14.874  0.3174  0.8454 -0.5503
  581MPD2    C2 8613   1.034   2.092  14.828  0.2222 -0.1038  0.2672
  581MPD2    C3 8614   1.063   2.209  14.763 -0.1734 -0.1983 -0.2113
  581MPD2    C4 8615   1.193   2.250  14.754 -0.0754 -0.3658 -0.7685
  581MPD2    C5 8616   1.298   2.168  14.789  0.0627 -0.6213 -0.1442
  581MPD2     H 8617   0.929   2.069  14.844  0.4472 -1.1238  0.2975
  581MPD2    H1 8618   1.219   2.341  14.702 -2.2286  0.3283 -0.6286
  581MPD2    H2 8619   1.365   1.987  14.870  1.1877  2.0721 -0.4035
  581MPD2    H3 8620   1.398   2.200  14.760 -0.3858  1.8965  1.0630
  581MPD2     N 8621   0.954   2.283  14.711 -0.0557  0.7023 -0.1853
  581MPD2    H5 8622   0.865   2.236  14.696 -0.1458  0.3156  1.5505
  581MPD2    N1 8623   1.101   1.889  14.931  0.1597  0.1433  0.5258
  581MPD2    H7 8624   1.001   1.881  14.947  0.1020  0.5252  0.3707
  582TMC3    C1 8625   1.111   1.736  15.106  0.1754 -0.1296  0.0925
  582TMC3    C2 8626   1.158   1.766  15.232 -0.6845 -0.1050  0.2629
  582TMC3    C3 8627   1.073   1.818  15.324  0.3308 -0.2905 -0.3424
  582TMC3    C4 8628   0.975   1.754  15.082  0.7807  0.0922 -0.0728
  582TMC3    C5 8629   0.900   1.819  15.171 -0.4999  0.0155 -0.9166
  582TMC3    C6 8630   0.943   1.851  15.295 -0.6172 -0.5314 -0.2312
  582TMC3     C 8631   1.189   1.804  15.002 -0.2397  0.2339  0.0551
  582TMC3     O 8632   1.309   1.813  15.033 -0.2087 -0.0493  0.2536
  582TMC3     H 8633   1.263   1.749  15.255 -0.3656  1.9630  0.3139
  582TMC3    H1 8634   0.937   1.728  14.984 -0.3685  1.2613  0.0661
  582TMC3    H2 8635   0.890   1.911  15.367 -0.9944 -2.4922  1.1380
  582TMC3    C7 8636   0.824   1.920  15.105 -0.6238 -0.2809  0.6013
  582TMC3    C8 8637   1.118   1.855  15.458 -0.1762  0.0046 -0.0373
  582TMC3    O1 8638   0.783   1.888  14.995  0.9033  1.0962 -0.3555
  582TMC3    O2 8639   1.038   1.863  15.550  0.5089  0.4990  0.0438
  583MPD2     C 8640   1.130   3.439  16.594 -0.2494  0.1115 -0.0038
  583MPD2    C1 8641   1.079   3.562  16.566  0.2395 -0.2113  0.2608
  583MPD2    C2 8642   1.008   3.622  16.656 -0.3182 -0.6989  0.2186
  583MPD2    C3 8643   0.989   3.576  16.785  0.2327 -0.8159 -0.2367
  583MPD2    C4 8644   1.041   3.452  16.808  0.5624  1.0061  0.2333
  583MPD2    C5 8645   1.110   3.380  16.716 -0.5060 -0.8710  0.7924
  583MPD2     H 8646   0.976   3.722  16.632  2.3450 -0.6815 -3.2144
  583MPD2    H1 8647   1.027   3.416  16.909 -1.6976 -1.6648 -1.0611
  583MPD2    H2 8648   1.195   3.392  16.522  0.2654 -0.0448  0.5650
  583MPD2    H3 8649   1.152   3.283  16.736  1.4816 -0.2858 -0.5377
  583MPD2     N 8650   0.927   3.663  16.880  0.7716  0.5897  0.1832
  583MPD2    H5 8651   0.902   3.753  16.840 -0.7712  0.4604  0.8882
  583MPD2    N1 8652   1.118   3.630  16.448  0.5050  0.0334 -0.0965
  583MPD2    H7 8653   1.065   3.713  16.424  1.3189  0.4258 -0.5305
  584TMC3    C1 8654   0.864   3.767  17.077  0.1443 -0.2504  0.6682
  584TMC3    C2 8655   0.940   3.875  17.045  0.0705  0.1273 -0.0815
  584TMC3    C3 8656   0.944   3.981  17.133 -0.3656  0.7354 -0.5200
  584TMC3    C4 8657   0.793   3.761  17.192  0.5499  0.3815 -0.9016
  584TMC3    C5 8658   0.802   3.864  17.279 -0.2225  0.5154  0.8162
  584TMC3    C6 8659   0.875   3.976  17.252  0.1579  0.2565 -0.4717
  584TMC3     C 8660   0.894   3.641  17.011 -0.5863  0.0899 -0.1982
  584TMC3     O 8661   0.913   3.546  17.088  0.1442  0.5793  0.5827
  584TMC3     H 8662   1.007   3.891  16.961  0.7589  0.4941  0.5345
  584TMC3    H1 8663   0.748   3.669  17.227  2.1291  0.4520  1.3456
  584TMC3    H2 8664   0.879   4.061  17.320  2.5765  0.1814 -0.5156
  584TMC3    C7 8665   0.745   3.843  17.409  0.0528  0.5041  0.7906
  584TMC3    C8 8666   1.010   4.097  17.076 -0.3215  0.0287  0.5146
  584TMC3    O1 8667   0.706   3.728  17.438 -0.4002  0.0232  0.1165
  584TMC3    O2 8668   1.004   4.099  16.954 -0.0126  0.2522 -1.0535
  585MPD2     C 8669   4.658   2.561   0.390 -0.1784  0.1922 -0.4215
  585MPD2    C1 8670   0.012   2.598   0.283 -0.7910 -0.4517  0.6065
  585MPD2    C2 8671   0.037   2.506   0.182  0.7492 -0.0911 -0.1756
  585MPD2    C3 8672   4.708   2.377   0.191  0.1389  0.1051  0.2805
  585MPD2    C4 8673   4.646   2.335   0.307 -0.0230  0.1244  0.0184
  585MPD2    C5 8674   4.614   2.429   0.407  0.0899  0.1893  0.6704
  585MPD2     H 8675   0.089   2.532   0.090 -1.7162  2.2100 -0.9254
  585MPD2    H1 8676   4.612   2.233   0.322  1.2905 -0.5796 -1.8203
  585MPD2    H2 8677   4.625   2.632   0.465 -1.4981 -1.2779  0.4028
  585MPD2    H3 8678   4.563   2.407   0.500 -0.8531 -1.7980 -0.3129
  585MPD2     N 8679   4.715   2.281   0.091 -0.1689 -0.1972  0.0065
  585MPD2    H5 8680   4.689   2.185   0.108  1.4500 -0.4972  0.8149
  585MPD2    N1 8681   0.046   2.731   0.274 -0.6728  0.2700 -0.2802
  585MPD2    H7 8682   0.017   2.792   0.350 -1.2328 -0.7273  0.3085
  586TMC3    C1 8683   4.705   2.198  17.552  0.4757  0.1659  0.3713
  586TMC3    C2 8684   0.059   2.193  17.435 -0.3148 -0.3480 -0.6963
  586TMC3    C3 8685   0.019   2.101  17.341  0.0588  0.3610 -0.1422
  586TMC3    C4 8686   4.617   2.096  17.586  0.0618  0.5778 -0.4864
  586TMC3    C5 8687   4.597   1.993  17.497  0.4254 -0.3223  0.0862
  586TMC3    C6 8688   4.648   2.004  17.371  0.1225  0.1668  0.0153
  586TMC3     C 8689   0.028   2.309  17.635 -0.1275  0.2728  0.2450
  586TMC3     O 8690   0.062   2.410  17.578  0.2336  0.0501  0.5111
  586TMC3     H 8691   0.113   2.279  17.398  0.3705  0.2690  1.7301
  586TMC3    H1 8692   4.564   2.091   0.006  0.6754  1.9763 -0.0807
  586TMC3    H2 8693   4.625   1.935  17.290 -1.4114  0.3936  0.2524
  586TMC3    C7 8694   4.544   1.863  17.533  0.2386  1.0929  0.7981
  586TMC3    C8 8695   0.114   2.067  17.241  0.5588  0.3272  0.6574
  586TMC3    O1 8696   4.473   1.799  17.456 -0.2277  0.3727  0.1176
  586TMC3    O2 8697   0.126   1.943  17.240  0.2318 -0.1759 -0.0725
  587TMC3    C1 8698   2.716   1.135  16.662  0.0032  0.3064  0.5303
  587TMC3    C2 8699   2.669   1.265  16.664  0.0450 -0.8406 -0.3431
  587TMC3    C3 8700   2.751   1.361  16.613 -0.1458 -0.9665 -0.2566
  587TMC3    C4 8701   2.840   1.101  16.619  0.0854  0.3907 -0.4201
  587TMC3    C5 8702   2.927   1.201  16.576  0.2234 -0.3482 -0.1233
  587TMC3    C6 8703   2.880   1.332  16.570 -0.2738  0.0404 -0.0718
  587TMC3     C 8704   2.619   1.028  16.684 -0.0463  0.1720  0.9838
  587TMC3     O 8705   2.659   0.922  16.642  0.2315  0.2924 -0.1313
  587TMC3     H 8706   2.581   1.286  16.724  0.2030 -0.1578 -0.3585
  587TMC3    H1 8707   2.880   1.001  16.633 -3.3353 -1.3019 -2.7245
  587TMC3    H2 8708   2.942   1.408  16.526 -2.0300  0.7538 -1.3146
  587TMC3    C7 8709   3.057   1.157  16.549 -0.4418  0.6043  0.2740
  587TMC3    C8 8710   2.709   1.494  16.641 -0.0750 -0.0213 -0.7750
  587TMC3    O1 8711   3.087   1.039  16.554  0.1472 -0.2021  0.3132
  587TMC3    O2 8712   2.800   1.572  16.667 -0.8085 -0.0015  0.1821
  588TMC3    C1 8713   0.373   3.411   9.994 -0.1431 -1.0660  0.2235
  588TMC3    C2 8714   0.354   3.283   9.949  0.3898  0.0968  1.1145
  588TMC3    C3 8715   0.416   3.182  10.012 -0.4217 -0.3155 -0.0303
  588TMC3    C4 8716   0.473   3.440  10.088  0.0464 -0.4060  0.3149
  588TMC3    C5 8717   0.541   3.338  10.146 -0.1757 -0.0756 -0.2905
  588TMC3    C6 8718   0.515   3.209  10.107 -0.1726  0.3426  0.6475
  588TMC3     C 8719   0.308   3.517   9.918  0.5848  0.2049  0.2513
  588TMC3     O 8720   0.341   3.523   9.802  0.3295  0.9730  0.5301
  588TMC3     H 8721   0.279   3.269   9.873  1.0718 -1.6694  0.7841
  588TMC3    H1 8722   0.509   3.542  10.094  0.0276 -0.3779 -0.0240
  588TMC3    H2 8723   0.574   3.128  10.148  0.0804  0.0850 -0.2300
  588TMC3    C7 8724   0.655   3.372  10.224 -0.4920  0.6003  0.4912
  588TMC3    C8 8725   0.378   3.045   9.973  0.2720 -0.0828  1.0052
  588TMC3    O1 8726   0.738   3.289  10.245 -0.4093 -0.3359 -0.2118
  588TMC3    O2 8727   0.275   3.046   9.907  0.0738 -0.0891 -0.0650
  589TMC3    C1 8728   3.986   1.744   1.058 -0.1628  0.1522 -0.7889
  589TMC3    C2 8729   4.058   1.696   1.164  0.4964 -0.3497 -0.1712
  589TMC3    C3 8730   4.159   1.611   1.139  0.6020  0.0651 -0.6102
  589TMC3    C4 8731   4.014   1.698   0.934  0.5529  0.1657  0.5588
  589TMC3    C5 8732   4.117   1.609   0.915 -0.3615  0.4172  0.6886
  589TMC3    C6 8733   4.199   1.564   1.015  0.3242 -0.6598 -0.1592
  589TMC3     C 8734   3.865   1.823   1.080 -0.3773 -0.0198  0.0415
  589TMC3     O 8735   3.778   1.808   0.999 -0.5307 -0.0870  0.3699
  589TMC3     H 8736   4.018   1.703   1.265 -1.3737  3.5542 -1.1538
  589TMC3    H1 8737   3.958   1.743   0.853  1.0567 -0.9455 -0.3936
  589TMC3    H2 8738   4.286   1.504   0.990 -0.4084 -2.0167  0.5621
  589TMC3    C7 8739   4.127   1.549   0.780  0.1919  0.2013  0.2276
  589TMC3    C8 8740   4.242   1.575   1.253  0.1934 -0.2175 -0.1194
  589TMC3    O1 8741   4.231   1.491   0.757  0.3839 -0.3770 -0.0862
  589TMC3    O2 8742   4.218   1.631   1.360 -0.7815 -0.0640  0.0776
  590MPD2     C 8743   3.689   4.338  16.425 -0.2963 -0.0877 -0.6530
  590MPD2    C1 8744   3.608   4.452  16.418  1.0581 -0.1596  0.1085
  590MPD2    C2 8745   3.648   4.559  16.335  0.0967  0.1983  0.4974
  590MPD2    C3 8746   3.757   4.548  16.257 -0.1856 -0.5003  0.0470
  590MPD2    C4 8747   3.831   4.428  16.259 -0.6139  0.3288 -0.1325
  590MPD2    C5 8748   3.801   4.328  16.345  0.0592  0.6698 -0.1487
  590MPD2     H 8749   3.593   4.650  16.311 -0.0481  0.3397  1.3401
  590MPD2    H1 8750   3.924   4.420  16.202 -1.8847  1.0128 -2.3041
  590MPD2    H2 8751   3.656   4.257  16.489 -0.3667 -2.2080 -3.3899
  590MPD2    H3 8752   3.863   4.239  16.352 -0.4692  0.4569  1.8524
  590MPD2     N 8753   3.782   4.653  16.168  0.6547 -0.5834 -1.1937
  590MPD2    H5 8754   3.718   0.011  16.187  0.0561 -1.0041 -1.5287
  590MPD2    N1 8755   3.496   4.452  16.500 -0.4313 -0.2658  0.2249
  590MPD2    H7 8756   3.461   4.362  16.531 -0.5389 -0.9047 -1.7846
  591TMC3    C1 8757   3.876   0.052  15.979  0.4126 -0.0016 -0.0983
  591TMC3    C2 8758   3.947   0.051  15.864  0.0135  0.0344  0.8151
  591TMC3    C3 8759   3.928   0.125  15.759 -0.1777 -0.2933  0.1470
  591TMC3    C4 8760   3.773   0.145  15.988  0.2671  0.2295 -0.1404
  591TMC3    C5 8761   3.763   0.236  15.883 -0.0655  0.0619 -0.0477
  591TMC3    C6 8762   3.832   0.225  15.763 -0.2120 -0.3750 -0.1287
  591TMC3     C 8763   3.875   4.647  16.063 -1.0947 -0.4019 -0.2366
  591TMC3     O 8764   3.957   4.559  16.038 -0.2450 -0.5619  0.0699
  591TMC3     H 8765   4.037   4.708  15.858 -0.8802 -1.3333  1.3033
  591TMC3    H1 8766   3.717   0.158  16.080 -0.9355 -1.5897 -0.6114
  591TMC3    H2 8767   3.813   0.298  15.685 -3.7226 -0.5106  0.5806
  591TMC3    C7 8768   3.659   0.339  15.898  0.0901 -0.0843  0.0839
  591TMC3    C8 8769   4.001   0.088  15.649  0.5954 -0.0189  0.9776
  591TMC3    O1 8770   3.565   0.310  15.971  0.5139  0.0307 -0.3351
  591TMC3    O2 8771   4.026   4.685  15.636 -0.0860 -0.3702  0.3122
  592MPD2     C 8772   4.173   1.849  11.329  0.4999  0.3939  0.0843
  592MPD2    C1 8773   4.128   1.947  11.412  0.1503 -0.4297 -0.8351
  592MPD2    C2 8774   4.022   1.920  11.491  0.7196 -0.1525 -0.2942
  592MPD2    C3 8775   3.947   1.803  11.473 -0.0584  0.9896 -0.4438
  592MPD2    C4 8776   3.971   1.723  11.363 -0.0531 -0.1680  0.1081
  592MPD2    C5 8777   4.084   1.751  11.295  0.2335  0.6145  0.0006
  592MPD2     H 8778   4.012   1.990  11.574 -1.9020 -2.2246  1.1302
  592MPD2    H1 8779   3.926   1.628  11.336  2.8798 -1.3987 -0.4032
  592MPD2    H2 8780   4.263   1.872  11.274  1.5348 -2.3827  0.6676
  592MPD2    H3 8781   4.108   1.681  11.216  0.4291 -1.9633  2.3702
  592MPD2     N 8782   3.832   1.786  11.559  0.0426 -0.5735  0.2924
  592MPD2    H5 8783   3.811   1.850  11.635 -1.4763  1.0805 -1.5003
  592MPD2    N1 8784   4.208   2.062  11.424  0.1182 -0.1068 -0.3598
  592MPD2    H7 8785   4.279   2.068  11.352  1.6212  0.4218  1.1449
  593TMC3    C1 8786   4.302   2.270  11.500 -0.4566  0.1037 -0.9184
  593TMC3    C2 8787   4.323   2.365  11.596  0.1041  0.0971 -0.0564
  593TMC3    C3 8788   4.411   2.466  11.570 -0.4134 -0.7068 -0.0680
  593TMC3    C4 8789   4.365   2.284  11.378  0.0730 -0.4080 -1.1241
  593TMC3    C5 8790   4.464   2.379  11.366 -0.1037  0.5580 -0.6305
  593TMC3    C6 8791   4.495   2.468  11.465 -0.1636  0.2311 -0.7825
  593TMC3     C 8792   4.204   2.165  11.515 -0.4052  0.0368  0.4003
  593TMC3     O 8793   4.127   2.174  11.608 -0.3905 -0.4406  0.4216
  593TMC3     H 8794   4.259   2.365  11.684 -1.9274  0.1027 -1.5460
  593TMC3    H1 8795   4.348   2.216  11.296  0.9710 -2.8104  0.6750
  593TMC3    H2 8796   4.562   2.550  11.443  3.0365 -2.7341 -2.2310
  593TMC3    C7 8797   4.546   2.391  11.247  0.0940  0.3486  0.4699
  593TMC3    C8 8798   4.449   2.551  11.677 -0.2842  0.4708  0.3660
  593TMC3    O1 8799   4.661   2.426  11.275  0.0101  0.0781  0.3283
  593TMC3    O2 8800   4.377   2.569  11.770  0.3247 -0.3764  0.7408
  594MPD2     C 8801   2.814   0.724  13.912 -0.5026  0.5180  0.5768
  594MPD2    C1 8802   2.836   0.751  14.043  0.5119 -0.4600  0.2546
  594MPD2    C2 8803   2.895   0.874  14.073 -0.2849 -0.4489  0.0101
  594MPD2    C3 8804   2.903   0.969  13.974 -0.8891  0.2342  0.3411
  594MPD2    C4 8805   2.903   0.927  13.843  0.4528 -0.1642 -0.0985
  594MPD2    C5 8806   2.856   0.805  13.818  0.8214 -0.0909  0.2330
  594MPD2     H 8807   2.909   0.906  14.176  2.3257 -1.1569 -0.1419
  594MPD2    H1 8808   2.915   0.996  13.761 -1.5522 -1.5659 -1.5805
  594MPD2    H2 8809   2.768   0.629  13.889 -0.5182  0.9758 -1.3279
  594MPD2    H3 8810   2.830   0.769  13.719  0.9215  0.5216 -0.0130
  594MPD2     N 8811   2.924   1.103  14.020  0.5109  0.1792  0.1379
  594MPD2    H5 8812   2.925   1.118  14.121  1.5025  3.2242 -0.3195
  594MPD2    N1 8813   2.790   0.667  14.149 -0.7222 -0.5958  0.4154
  594MPD2    H7 8814   2.727   0.594  14.118 -0.9261 -0.2219 -0.0430
  595TMC3    C1 8815   3.189   1.408  14.098 -0.6919  0.0393 -0.2931
  595TMC3    C2 8816   3.122   1.362  13.991  0.3255 -0.3179 -0.2574
  595TMC3    C3 8817   2.991   1.322  14.014 -0.3016 -0.5574 -0.1469
  595TMC3    C4 8818   3.128   1.442  14.216  0.0019 -0.7311  0.1763
  595TMC3    C5 8819   2.998   1.414  14.239  0.4993  0.5715  0.1633
  595TMC3    C6 8820   2.927   1.347  14.137 -0.5819  0.2638 -0.5089
  595TMC3     C 8821   3.333   1.393  14.106 -0.1922  0.0391 -0.5372
  595TMC3     O 8822   3.380   1.390  14.218  0.2908  0.0709  0.7057
  595TMC3     H 8823   3.174   1.322  13.905  0.2825 -0.4289 -0.2324
  595TMC3    H1 8824   3.187   1.497  14.288 -1.1843 -1.8020  1.9472
  595TMC3    H2 8825   2.824   1.317  14.149 -1.2998  1.9692 -2.4286
  595TMC3    C7 8826   2.932   1.446  14.364 -0.2200 -0.3739  0.6980
  595TMC3    C8 8827   2.949   1.207  13.940  0.2210  0.2687  0.4483
  595TMC3    O1 8828   2.813   1.453  14.362  0.3817  0.0447  0.0792
  595TMC3    O2 8829   2.963   1.214  13.816 -0.6416  0.5916  0.2764
  596MPD2     C 8830   1.852   3.472  16.722 -0.0286  0.3162  0.0724
  596MPD2    C1 8831   1.821   3.591  16.657  0.3978  0.2055 -0.6003
  596MPD2    C2 8832   1.858   3.607  16.525  0.2972 -0.4493  0.3506
  596MPD2    C3 8833   1.922   3.507  16.458  0.2660 -0.2270 -0.5417
  596MPD2    C4 8834   1.949   3.390  16.519  0.8528  0.3839  0.0279
  596MPD2    C5 8835   1.925   3.379  16.649  0.7220  0.2265 -0.9700
  596MPD2     H 8836   1.838   3.702  16.476  1.3655  1.2410  3.2249
  596MPD2    H1 8837   2.013   3.311  16.480  1.8348  0.8453  0.6988
  596MPD2    H2 8838   1.828   3.454  16.826 -1.7325 -1.6018 -0.6455
  596MPD2    H3 8839   1.953   3.288  16.700  1.5727  1.3367  0.5072
  596MPD2     N 8840   1.964   3.516  16.323 -0.4890  0.5692  0.1214
  596MPD2    H5 8841   2.028   3.447  16.285 -0.4335  0.2357  0.8257
  596MPD2    N1 8842   1.778   3.705  16.730  0.1876  0.2778 -0.5305
  596MPD2    H7 8843   1.777   3.792  16.678  2.2245  1.5772  1.6028
  597TMC3    C1 8844   1.713   3.833  16.914  0.5509 -0.2459 -0.4121
  597TMC3    C2 8845   1.800   3.931  16.875  0.7804 -0.2288 -0.0756
  597TMC3    C3 8846   1.811   4.041  16.962 -0.0461 -0.4880  0.1598
  597TMC3    C4 8847   1.636   3.834  17.028 -0.5221  0.7006  0.1673
  597TMC3    C5 8848   1.647   3.946  17.105 -0.3378 -0.7364 -0.2781
  597TMC3    C6 8849   1.737   4.042  17.073 -0.0261 -0.1854  0.4629
  597TMC3     C 8850   1.736   3.705  16.859  0.8314  0.3153 -0.6314
  597TMC3     O 8851   1.689   3.610  16.922 -0.0346  0.6703 -0.2428
  597TMC3     H 8852   1.860   3.929  16.784 -0.7084  0.6710 -1.0663
  597TMC3    H1 8853   1.594   3.744  17.072  0.1559  0.5136  0.4342
  597TMC3    H2 8854   1.752   4.129  17.135  0.9477  0.3975 -0.6035
  597TMC3    C7 8855   1.556   3.969  17.224 -0.0916  0.3039  0.4261
  597TMC3    C8 8856   1.915   4.140  16.949 -0.4433  0.4011  0.1617
  597TMC3    O1 8857   1.486   3.877  17.262  0.3351 -0.1674  0.0868
  597TMC3    O2 8858   1.928   4.227  17.034  0.4724 -0.2013 -0.2345
  598TMC3    C1 8859   4.453   0.344  14.931  0.5964 -0.3481 -0.2038
  598TMC3    C2 8860   4.439   0.235  14.848 -0.0904  0.3788  0.2700
  598TMC3    C3 8861   4.407   0.257  14.721  0.5106  0.6450  0.1905
  598TMC3    C4 8862   4.464   0.469  14.878  0.7562  0.7082 -0.1528
  598TMC3    C5 8863   4.428   0.492  14.745 -1.2143  0.5107  0.0110
  598TMC3    C6 8864   4.390   0.380  14.666 -0.1071  0.0534 -0.1356
  598TMC3     C 8865   4.534   0.333  15.051 -0.0422  0.1025  0.2767
  598TMC3     O 8866   4.610   0.425  15.071 -0.4480 -0.0799 -0.4082
  598TMC3     H 8867   4.456   0.138  14.892 -1.7620  0.3350  0.8390
  598TMC3    H1 8868   4.483   0.553  14.943  1.6965  1.4921 -1.4394
  598TMC3    H2 8869   4.356   0.394  14.564 -3.0928 -1.7907  0.6300
  598TMC3    C7 8870   4.483   0.598  14.665 -0.4816 -0.8166  0.5696
  598TMC3    C8 8871   4.382   0.149  14.631  0.5595 -0.7476 -0.7118
  598TMC3    O1 8872   4.443   0.619  14.555 -0.5726 -0.0845  0.3133
  598TMC3    O2 8873   4.397   0.169  14.512 -0.0488 -0.0449  0.0093
  599MPD2     C 8874   4.551   2.087  15.516 -0.3634 -0.4621  0.5333
  599MPD2    C1 8875   4.644   2.124  15.614  0.0450  0.4068 -0.2898
  599MPD2    C2 8876   4.605   2.207  15.717  0.2969  0.8648  0.0539
  599MPD2    C3 8877   4.483   2.269  15.719  0.9192 -0.2778 -0.4980
  599MPD2    C4 8878   4.393   2.233  15.622 -0.3475  0.6730  0.1954
  599MPD2    C5 8879   4.418   2.141  15.520  0.2022 -0.0629 -0.2227
  599MPD2     H 8880   4.660   2.233  15.807  1.1531  1.6332 -0.7011
  599MPD2    H1 8881   4.293   2.275  15.618  0.9895  3.9098  1.0844
  599MPD2    H2 8882   4.586   2.008  15.451 -0.6765  1.1189 -1.5291
  599MPD2    H3 8883   4.345   2.123  15.442 -0.1647 -0.3068  0.1754
  599MPD2     N 8884   4.442   2.350  15.828 -0.7434  0.1875 -0.3305
  599MPD2    H5 8885   4.349   2.391  15.821 -0.5803  0.5263 -0.5132
  599MPD2    N1 8886   0.044   2.053  15.619  0.1684  0.2789  0.5460
  599MPD2    H7 8887   0.056   1.971  15.561  1.9462  0.7884  0.1895
  600TMC3    C1 8888   4.452   2.506  16.004 -0.2371  0.7811 -0.4596
  600TMC3    C2 8889   4.335   2.453  16.052  0.3469  0.3388  0.2452
  600TMC3    C3 8890   4.277   2.522  16.152  0.7244  0.5675 -0.2711
  600TMC3    C4 8891   4.512   2.616  16.056  0.1835  0.3875 -0.2119
  600TMC3    C5 8892   4.450   2.673  16.163 -0.5101 -0.4694  0.2013
  600TMC3    C6 8893   4.328   2.635  16.207 -0.0081 -0.0701 -0.4424
  600TMC3     C 8894   4.524   2.423  15.915  0.6188 -0.0932 -0.4038
  600TMC3     O 8895   4.644   2.420  15.925  0.1080 -0.1461  0.2180
  600TMC3     H 8896   4.301   2.356  16.018 -1.1010  0.6338  0.8931
  600TMC3    H1 8897   4.611   2.646  16.024  0.0156  0.7385 -0.4007
  600TMC3    H2 8898   4.277   2.696  16.280  0.1661  1.0485 -1.2445
  600TMC3    C7 8899   4.501   2.788  16.232 -0.3463  0.4185 -0.1689
  600TMC3    C8 8900   4.174   2.449  16.218 -0.0106  0.4583  0.1765
  600TMC3    O1 8901   4.449   2.811  16.340 -0.5669  0.5598 -0.1213
  600TMC3    O2 8902   4.153   2.338  16.174  0.0725  0.5535 -0.6141
  601MPD2     C 8903   1.972   0.603   0.528 -0.1614 -0.4280 -0.9558
  601MPD2    C1 8904   1.875   0.578   0.429  0.1460  0.0042  0.8776
  601MPD2    C2 8905   1.862   0.447   0.390 -0.6421 -0.2080 -0.2246
  601MPD2    C3 8906   1.927   0.339   0.450 -0.5097  0.2675  0.6034
  601MPD2    C4 8907   2.018   0.364   0.553 -0.1242  0.1646 -0.0697
  601MPD2    C5 8908   2.036   0.494   0.590 -0.5700  0.8174  0.1090
  601MPD2     H 8909   1.776   0.424   0.328 -0.2832  0.3197 -0.9137
  601MPD2    H1 8910   2.074   0.288   0.606 -0.7308  0.4795  1.0254
  601MPD2    H2 8911   1.999   0.704   0.559  0.2860  0.0795 -2.9866
  601MPD2    H3 8912   2.102   0.519   0.672 -0.6377 -1.3886  0.8318
  601MPD2     N 8913   1.925   0.204   0.404 -0.0234  0.1780  0.0951
  601MPD2    H5 8914   1.979   0.135   0.455  0.8218  1.5033  1.0064
  601MPD2    N1 8915   1.815   0.680   0.345 -0.2442 -0.6389  0.0060
  601MPD2    H7 8916   1.758   0.654   0.266 -1.2683  0.5678  0.3553
  602TMC3    C1 8917   1.752   0.891   0.270 -0.8677  0.0268  0.6907
  602TMC3    C2 8918   1.714   1.016   0.302  0.0030 -1.1314 -0.2247
  602TMC3    C3 8919   1.645   1.085   0.210  0.5454 -0.1878  0.4606
  602TMC3    C4 8920   1.747   0.848   0.139 -0.0554 -0.3850 -0.5123
  602TMC3    C5 8921   1.676   0.920   0.047 -0.5374 -0.7194  0.2775
  602TMC3    C6 8922   1.625   1.041   0.078  0.9759  0.6613 -0.0371
  602TMC3     C 8923   1.824   0.820   0.373  0.6125 -0.3431 -0.7483
  602TMC3     O 8924   1.848   0.877   0.477 -0.3009  0.3682  0.3005
  602TMC3     H 8925   1.709   1.043   0.407  3.4848  0.9722 -0.6213
  602TMC3    H1 8926   1.793   0.758   0.100 -0.3380 -1.6893  2.2305
  602TMC3    H2 8927   1.596   1.112   0.002 -0.4778  1.2145  1.0182
  602TMC3    C7 8928   1.642   0.865  17.598  0.0349  0.8507 -0.1954
  602TMC3    C8 8929   1.550   1.179   0.266  0.3247 -0.4735 -0.2321
  602TMC3    O1 8930   1.712   0.782  17.546 -0.0221  0.1180  0.0909
  602TMC3    O2 8931   1.537   1.169   0.387 -0.2865 -0.5802 -0.0179
  603TMC3    C1 8932   0.432   1.214  10.849 -0.5133  0.6094  0.2542
  603TMC3    C2 8933   0.415   1.197  10.990  0.3535  0.1450  0.3837
  603TMC3    C3 8934   0.374   1.313  11.052 -0.4200 -0.5248 -0.0427
  603TMC3    C4 8935   0.408   1.335  10.781  0.3117 -0.1547  0.7944
  603TMC3    C5 8936   0.369   1.441  10.862  0.3201 -0.7506 -0.6216
  603TMC3    C6 8937   0.349   1.431  10.996  0.8989  0.8646 -0.0181
  603TMC3     C 8938   0.491   1.102  10.781  0.2401 -0.0402  0.2164
  603TMC3     O 8939   0.483   0.989  10.831 -0.0765 -0.3325 -0.1738
  603TMC3     H 8940   0.439   1.108  11.048 -1.6431 -0.6765 -0.0240
  603TMC3    H1 8941   0.412   1.351  10.674  0.3688  0.0593  0.8300
  603TMC3    H2 8942   0.299   1.514  11.045 -0.4268 -1.1501  2.0121
  603TMC3    C7 8943   0.327   1.572  10.805 -0.1742 -0.3461  0.1183
  603TMC3    C8 8944   0.368   1.304  11.198  0.2525 -0.4481  0.2593
  603TMC3    O1 8945   0.355   1.671  10.866 -0.9610 -0.7776  0.3505
  603TMC3    O2 8946   0.371   1.189  11.244 -0.0237  0.4341  0.5693
  604MPD2     C 8947   1.085   4.402  15.934 -0.1388  0.0828 -0.5135
  604MPD2    C1 8948   1.049   4.529  15.948 -0.3031 -0.0376 -0.4373
  604MPD2    C2 8949   1.120   4.619  15.874  1.0675  0.0333 -0.1216
  604MPD2    C3 8950   1.213   4.582  15.778  0.0407 -0.5078 -0.6954
  604MPD2    C4 8951   1.248   4.451  15.764  0.0531 -0.3111  0.6321
  604MPD2    C5 8952   1.182   4.365  15.843 -0.1556 -0.2641  0.3557
  604MPD2     H 8953   1.098   0.007  15.877 -0.9510 -0.3776 -0.7603
  604MPD2    H1 8954   1.325   4.405  15.704 -0.9548  0.1366 -0.9928
  604MPD2    H2 8955   1.036   4.322  15.989 -2.1508  1.6286 -0.0982
  604MPD2    H3 8956   1.206   4.259  15.841 -1.8921 -0.6253 -0.4823
  604MPD2     N 8957   1.284   4.694  15.708  0.1275  0.0078  0.2591
  604MPD2    H5 8958   1.281   0.066  15.753 -0.2844  0.1074  0.0248
  604MPD2    N1 8959   0.956   4.561  16.041 -0.1533 -0.5744 -0.2103
  604MPD2    H7 8960   0.923   4.487  16.102 -1.3201 -0.1815 -0.3586
  605TMC3    C1 8961   0.814   4.684  16.176 -0.1058  0.4953  0.4204
  605TMC3    C2 8962   0.876   4.654  16.297  0.8819  0.1531  0.6782
  605TMC3    C3 8963   0.808   4.684  16.411  0.1112  0.4526 -0.6923
  605TMC3    C4 8964   0.698   0.026  16.164 -0.4560  0.5008  0.3664
  605TMC3    C5 8965   0.632   0.052  16.284  0.1173 -0.1124 -0.0230
  605TMC3    C6 8966   0.684   0.025  16.408  0.3682  0.4755  0.0193
  605TMC3     C 8967   0.903   4.684  16.067 -0.3122 -0.2615 -0.2177
  605TMC3     O 8968   0.916   0.059  15.992  0.4352 -0.4276  0.0564
  605TMC3     H 8969   0.972   4.606  16.288  1.4603  1.3868  0.2270
  605TMC3    H1 8970   0.642   0.028  16.071 -1.5669  1.1799  1.0537
  605TMC3    H2 8971   0.639   0.062  16.499  1.5117  0.6374  0.5171
  605TMC3    C7 8972   0.503   0.110  16.270  0.0627 -0.3468  0.2598
  605TMC3    C8 8973   0.899   0.042  16.494  0.8957 -0.3036 -0.5103
  605TMC3    O1 8974   0.467   0.174  16.175  0.2263  0.0221 -0.5802
  605TMC3    O2 8975   1.005   0.088  16.445 -0.4429  0.3632 -0.3801
  606TMC3    C1 8976   2.130   3.667  16.906 -0.5467  0.0025  0.5380
  606TMC3    C2 8977   2.070   3.750  16.998  0.8398  0.4332 -0.2037
  606TMC3    C3 8978   2.037   3.698  17.122 -0.1302  0.0492 -0.1642
  606TMC3    C4 8979   2.133   3.532  16.923  0.7338  1.2517  0.1236
  606TMC3    C5 8980   2.093   3.487  17.045 -0.3186 -0.4209  0.9925
  606TMC3    C6 8981   2.049   3.565  17.147  0.3861  0.0330 -0.2470
  606TMC3     C 8982   2.135   3.730  16.767 -0.1687 -0.3223  0.3485
  606TMC3     O 8983   2.094   3.842  16.754 -0.3857  0.1154  0.7137
  606TMC3     H 8984   2.042   3.851  16.971 -0.1992  0.4896  1.0729
  606TMC3    H1 8985   2.144   3.460  16.843  1.3960  2.4885 -0.8905
  606TMC3    H2 8986   2.046   3.525  17.248  3.6044 -0.7719 -0.4957
  606TMC3    C7 8987   2.110   3.340  17.069  0.9095 -0.3621 -0.8660
  606TMC3    C8 8988   2.013   3.795  17.222 -0.2648 -0.0167  0.0735
  606TMC3    O1 8989   2.204   3.284  17.013  0.4459  0.2746  0.1699
  606TMC3    O2 8990   2.047   3.906  17.198  0.1798  0.1851  0.1769
  607MPD2     C 8991   3.934   1.656  12.016  0.2804 -0.6916  0.2653
  607MPD2    C1 8992   4.004   1.712  12.122 -0.5045 -0.1612 -0.2022
  607MPD2    C2 8993   4.005   1.642  12.241 -0.3213  0.2400  0.2614
  607MPD2    C3 8994   3.942   1.517  12.247  0.2278 -0.0155 -0.0334
  607MPD2    C4 8995   3.868   1.471  12.138  0.1330 -0.4202  0.3091
  607MPD2    C5 8996   3.859   1.541  12.023  0.7454 -0.0275 -0.6400
  607MPD2     H 8997   4.078   1.668  12.316  0.2469 -0.0928 -0.1820
  607MPD2    H1 8998   3.817   1.375  12.129 -0.9745  0.0842  1.3558
  607MPD2    H2 8999   3.932   1.700  11.917 -0.9730  0.4084  0.7740
  607MPD2    H3 9000   3.797   1.502  11.943 -1.1573 -0.2464  0.9339
  607MPD2     N 9001   3.965   1.440  12.367 -0.4762  0.0567 -0.1604
  607MPD2    H5 9002   4.028   1.471  12.441  0.2576 -1.0187 -0.3370
  607MPD2    N1 9003   4.082   1.831  12.113  0.5100 -0.0004 -0.6272
  607MPD2    H7 9004   4.115   1.870  12.201  0.3176 -1.3178  0.0253
  608TMC3    C1 9005   4.210   2.005  12.024 -0.0263  0.4809 -0.0511
  608TMC3    C2 9006   4.269   1.997  12.151 -0.7369  0.1575 -0.3254
  608TMC3    C3 9007   4.408   2.014  12.158 -0.2782  0.0545  0.0768
  608TMC3    C4 9008   4.278   2.053  11.918 -0.1440  0.3204 -0.1073
  608TMC3    C5 9009   4.408   2.079  11.935 -0.0266  0.0629 -0.4879
  608TMC3    C6 9010   4.477   2.055  12.054  0.1734 -0.3698 -0.3931
  608TMC3     C 9011   4.108   1.902  11.995  0.0254 -0.5365 -0.6560
  608TMC3     O 9012   4.069   1.898  11.877  0.2627 -0.6629  0.4214
  608TMC3     H 9013   4.211   1.982  12.241 -0.0263 -1.2301 -0.0955
  608TMC3    H1 9014   4.237   2.052  11.817 -0.8384 -0.8169  0.1924
  608TMC3    H2 9015   4.583   2.077  12.068  0.1133 -0.7316  0.6387
  608TMC3    C7 9016   4.486   2.103  11.817 -0.3597  0.2238  0.2285
  608TMC3    C8 9017   4.480   1.984  12.281  0.1734  0.2971  0.6170
  608TMC3    O1 9018   4.461   2.054  11.706  0.5272  0.0476 -0.9721
  608TMC3    O2 9019   4.596   2.017  12.289 -0.3190 -0.3462  0.2083
  609TMC3    C1 9020   2.778   0.019   8.844 -0.3971 -0.2828  0.1062
  609TMC3    C2 9021   2.758   0.123   8.759 -0.2073 -0.3557  0.0054
  609TMC3    C3 9022   2.875   0.182   8.720 -0.1797  0.1921  0.8296
  609TMC3    C4 9023   2.900   4.697   8.890 -0.1244  0.3563 -0.1563
  609TMC3    C5 9024   3.008   0.052   8.846 -0.6425 -0.4047  0.2855
  609TMC3    C6 9025   2.999   0.149   8.760 -0.4972 -0.2272 -0.5029
  609TMC3     C 9026   2.675   4.648   8.897 -0.2142  0.1253 -0.9382
  609TMC3     O 9027   2.708   4.574   8.990 -0.1472 -0.9051 -0.3402
  609TMC3     H 9028   2.662   0.167   8.733 -0.2769 -1.0199 -0.8718
  609TMC3    H1 9029   2.918   4.616   8.960  0.5351  1.9676  1.5242
  609TMC3    H2 9030   3.085   0.209   8.732  0.8710 -1.4513  1.1077
  609TMC3    C7 9031   3.137   0.014   8.896  0.0553 -0.0675  0.6231
  609TMC3    C8 9032   2.877   0.310   8.647  0.1504 -0.8810 -0.1955
  609TMC3    O1 9033   3.145   4.672   9.001  0.2473 -0.4736 -0.3214
  609TMC3    O2 9034   2.968   0.386   8.682 -0.9283 -0.3180  0.0333
  610TMC3    C1 9035   4.650   1.216  12.686  0.0848 -0.0185 -0.4826
  610TMC3    C2 9036   4.631   1.309  12.589  0.2220  0.2141 -0.7596
  610TMC3    C3 9037   4.707   1.295  12.475  0.0829  0.5532  0.4531
  610TMC3    C4 9038   0.032   1.125  12.687 -0.7880 -0.1344  0.1951
  610TMC3    C5 9039   0.110   1.122  12.573 -0.2759  0.3968 -0.0203
  610TMC3    C6 9040   0.093   1.206  12.466 -0.1069  0.9097  0.5305
  610TMC3     C 9041   4.581   1.257  12.809 -0.2241  1.1825 -0.5037
  610TMC3     O 9042   4.499   1.349  12.806 -0.5603 -0.2700  0.3335
  610TMC3     H 9043   4.558   1.390  12.597 -1.1302 -1.1988  1.3115
  610TMC3    H1 9044   0.058   1.059  12.769  0.1615 -0.4765 -0.3822
  610TMC3    H2 9045   0.149   1.203  12.373  2.2575  1.3421  1.9394
  610TMC3    C7 9046   0.182   1.000  12.548 -0.4915  0.0810 -0.4386
  610TMC3    C8 9047   4.683   1.390  12.369  0.0793 -0.7757  0.7347
  610TMC3    O1 9048   0.265   1.004  12.460 -0.3893  0.2183  0.5266
  610TMC3    O2 9049   0.059   1.443  12.305 -0.0047 -0.0304  0.0482
  611MPD2     C 9050   4.084   1.045  10.472  0.2526  0.2438  0.6065
  611MPD2    C1 9051   4.004   1.137  10.404  0.2444 -0.0188  0.5908
  611MPD2    C2 9052   4.058   1.250  10.338 -0.1661  0.2950  0.0875
  611MPD2    C3 9053   4.194   1.258  10.333  0.2531  0.2710 -0.2417
  611MPD2    C4 9054   4.271   1.170  10.394  0.3955 -0.3364 -0.0054
  611MPD2    C5 9055   4.221   1.058  10.457 -0.9005 -0.2946 -0.3592
  611MPD2     H 9056   3.986   1.316  10.291  0.5050  0.5355 -0.6016
  611MPD2    H1 9057   4.379   1.163  10.404  0.2801 -2.2307 -0.1316
  611MPD2    H2 9058   4.051   0.952  10.517  0.8402 -0.1636  0.1980
  611MPD2    H3 9059   4.289   0.983  10.496  1.0102  1.9953  0.6972
  611MPD2     N 9060   4.265   1.363  10.267 -0.0829  0.3840  0.5272
  611MPD2    H5 9061   4.366   1.352  10.268 -0.1495 -0.2767 -0.7516
  611MPD2    N1 9062   3.861   1.115  10.405 -0.1699 -0.7801 -0.2531
  611MPD2    H7 9063   3.825   1.029  10.445 -2.2779 -0.5309 -1.6320
  612TMC3    C1 9064   4.318   1.561  10.154  0.1056 -0.0423 -0.1399
  612TMC3    C2 9065   4.413   1.609  10.242  0.5021  0.2742  0.0060
  612TMC3    C3 9066   4.491   1.722  10.204  0.5960 -0.0423 -0.6942
  612TMC3    C4 9067   4.292   1.634  10.038 -0.1749 -0.4031 -0.2354
  612TMC3    C5 9068   4.350   1.755  10.022 -0.6017 -0.2003  0.5422
  612TMC3    C6 9069   4.456   1.803  10.099  0.1881  0.4485  0.6951
  612TMC3     C 9070   4.216   1.475  10.200 -0.3010 -0.5062  0.6699
  612TMC3     O 9071   4.101   1.490  10.155 -0.2846  0.0600  0.8059
  612TMC3     H 9072   4.428   1.563  10.339 -2.4915 -1.6911 -0.4741
  612TMC3    H1 9073   4.210   1.606   9.973  0.0483 -2.3631  0.3223
  612TMC3    H2 9074   4.514   1.888  10.066  0.4745 -0.1821 -0.4358
  612TMC3    C7 9075   4.329   1.811   9.890 -0.6118  0.0290  0.7062
  612TMC3    C8 9076   4.575   1.796  10.298 -0.1756 -0.1173  0.7786
  612TMC3    O1 9077   4.280   1.737   9.800 -0.2436 -0.2386  0.2980
  612TMC3    O2 9078   4.588   1.916  10.287  0.3875 -0.1554  0.0354
  613MPD2     C 9079   3.398   3.294  16.490  0.7538  0.0117  0.2617
  613MPD2    C1 9080   3.306   3.323  16.388  0.5028 -0.3520 -0.1385
  613MPD2    C2 9081   3.212   3.226  16.344  0.2225  0.1721 -0.6796
  613MPD2    C3 9082   3.218   3.100  16.401 -0.4704  0.4905 -0.4132
  613MPD2    C4 9083   3.304   3.076  16.504 -0.1101 -0.4433  0.4723
  613MPD2    C5 9084   3.401   3.170  16.538  0.6465  0.6941 -0.2979
  613MPD2     H 9085   3.143   3.261  16.268 -0.5596 -0.6595 -0.3477
  613MPD2    H1 9086   3.309   2.977  16.549 -0.4486 -0.8869 -0.4748
  613MPD2    H2 9087   3.478   3.362  16.517  1.0345 -0.9975  1.9505
  613MPD2    H3 9088   3.479   3.132  16.603  0.6138  1.0327 -0.0615
  613MPD2     N 9089   3.135   2.998  16.353 -0.5295  0.3062 -0.0474
  613MPD2    H5 9090   3.145   2.904  16.389 -1.8004  0.0071 -0.4457
  613MPD2    N1 9091   3.331   3.446  16.320 -0.1973 -0.8345  0.0818
  613MPD2    H7 9092   3.424   3.487  16.315  0.0443 -1.2569  1.0122
  614TMC3    C1 9093   3.338   3.569  16.130  0.1287 -0.3755 -0.4065
  614TMC3    C2 9094   3.442   3.490  16.086  0.2387  0.4566  0.0624
  614TMC3    C3 9095   3.460   3.477  15.952 -0.2410  0.2468 -0.5169
  614TMC3    C4 9096   3.276   3.652  16.053  0.4947  0.4005  0.2974
  614TMC3    C5 9097   3.296   3.631  15.921  0.3024 -0.5545 -0.3081
  614TMC3    C6 9098   3.378   3.539  15.864 -0.0376  0.1589  0.0008
  614TMC3     C 9099   3.248   3.504  16.226  0.2517  0.0111 -1.2191
  614TMC3     O 9100   3.126   3.490  16.221 -0.7379  0.0190 -0.0570
  614TMC3     H 9101   3.500   3.427  16.153 -1.9730 -1.3258  0.2802
  614TMC3    H1 9102   3.198   3.716  16.094  1.3050 -0.2043  2.7740
  614TMC3    H2 9103   3.402   3.529  15.759 -1.5252  1.1245 -0.4363
  614TMC3    C7 9104   3.236   3.732  15.840  0.2734 -0.3063  0.1318
  614TMC3    C8 9105   3.517   3.347  15.914  0.9547 -0.4176 -0.4904
  614TMC3    O1 9106   3.204   3.833  15.898 -0.0153 -0.1411  0.2168
  614TMC3    O2 9107   3.567   3.284  16.007  0.3671  0.0778  0.1727
  615MPD2     C 9108   2.512   0.500  16.402 -0.2682  0.2134 -0.1758
  615MPD2    C1 9109   2.426   0.559  16.311 -1.1693  0.6288 -0.6315
  615MPD2    C2 9110   2.339   0.482  16.241  0.4596 -0.7836 -0.1457
  615MPD2    C3 9111   2.353   0.347  16.235  0.1337 -0.6196  0.1031
  615MPD2    C4 9112   2.448   0.287  16.322 -0.0733 -0.0485  0.1386
  615MPD2    C5 9113   2.528   0.366  16.403  0.3303 -0.3323 -0.6557
  615MPD2     H 9114   2.290   0.535  16.160 -1.0191  0.8970  1.8488
  615MPD2    H1 9115   2.451   0.179  16.328  1.1335 -0.0057  0.2919
  615MPD2    H2 9116   2.574   0.548  16.477 -0.2389 -0.7542  0.4149
  615MPD2    H3 9117   2.600   0.315  16.466  0.0117 -2.0886 -1.7068
  615MPD2     N 9118   2.285   0.275  16.129  0.1040  0.0515 -0.2051
  615MPD2    H5 9119   2.223   0.327  16.068  0.2057 -0.0585 -0.4040
  615MPD2    N1 9120   2.403   0.698  16.302 -0.3925 -0.0411 -0.3725
  615MPD2    H7 9121   2.321   0.740  16.259 -1.4813  0.3669  2.1111
  616TMC3    C1 9122   2.456   0.923  16.330 -0.0920 -0.1687 -0.1661
  616TMC3    C2 9123   2.546   1.024  16.337 -0.2062 -0.4247  1.0494
  616TMC3    C3 9124   2.494   1.149  16.324  0.2232 -0.1213  0.2469
  616TMC3    C4 9125   2.321   0.949  16.298 -0.7312  0.3841  0.0659
  616TMC3    C5 9126   2.269   1.073  16.290 -0.1107  0.1895 -0.4758
  616TMC3    C6 9127   2.361   1.175  16.307  0.1173  0.1187 -0.0750
  616TMC3     C 9128   2.498   0.784  16.338 -0.1651 -0.1401  0.2176
  616TMC3     O 9129   2.616   0.766  16.361  0.0805  0.4499  0.0403
  616TMC3     H 9130   2.651   1.011  16.359 -0.1796  3.2160  3.0811
  616TMC3    H1 9131   2.252   0.865  16.296  3.8576 -3.3923  1.0514
  616TMC3    H2 9132   2.325   1.277  16.308 -1.6452 -0.5072  1.1217
  616TMC3    C7 9133   2.134   1.097  16.262  1.1343 -0.0624  0.0043
  616TMC3    C8 9134   2.586   1.265  16.315 -0.1295 -0.0962 -0.6526
  616TMC3    O1 9135   2.077   1.000  16.207  0.2380  0.1461  0.4109
  616TMC3    O2 9136   2.528   1.370  16.332  0.2011  0.4428 -0.4849
  617MPD2     C 9137   0.959   3.533  13.809  0.7010  0.5728  0.8126
  617MPD2    C1 9138   0.922   3.483  13.933 -0.0083  0.7405  0.4433
  617MPD2    C2 9139   0.785   3.472  13.957 -0.1902 -0.1689 -0.1044
  617MPD2    C3 9140   0.690   3.503  13.856 -0.2836 -0.3905  0.7242
  617MPD2    C4 9141   0.734   3.547  13.733  0.0864  0.0946 -0.3255
  617MPD2    C5 9142   0.863   3.582  13.721 -0.6155 -0.0999  0.0373
  617MPD2     H 9143   0.751   3.436  14.054  0.2098  0.8450  0.4161
  617MPD2    H1 9144   0.668   3.573  13.651 -2.3820 -2.0920  0.9505
  617MPD2    H2 9145   1.060   3.544  13.771  0.9769  2.6794  2.1685
  617MPD2    H3 9146   0.881   3.626  13.623 -0.0812  0.8390  0.5560
  617MPD2     N 9147   0.549   3.494  13.875 -0.5433  0.0662 -0.1848
  617MPD2    H5 9148   0.493   3.511  13.792  0.9469  1.9390 -0.8203
  617MPD2    N1 9149   1.032   3.455  14.017 -0.2523 -0.1674  0.3444
  617MPD2    H7 9150   1.122   3.486  13.981 -0.0008 -2.1211 -0.6615
  618TMC3    C1 9151   1.151   3.411  14.209 -0.5765  0.2363  0.1860
  618TMC3    C2 9152   1.203   3.289  14.236  0.2875 -0.0820  1.3214
  618TMC3    C3 9153   1.334   3.274  14.271 -0.0532 -0.1209 -0.6523
  618TMC3    C4 9154   1.233   3.518  14.197 -0.1523 -0.1528 -0.3945
  618TMC3    C5 9155   1.364   3.502  14.215  0.7746 -0.0329  0.1717
  618TMC3    C6 9156   1.420   3.379  14.251  0.2405  0.8728  0.1490
  618TMC3     C 9157   1.022   3.408  14.143 -0.4825 -0.2541  0.0507
  618TMC3     O 9158   0.927   3.365  14.202 -0.0199  0.1889  0.2285
  618TMC3     H 9159   1.143   3.199  14.227 -0.3067  0.7462 -2.7699
  618TMC3    H1 9160   1.190   3.614  14.169  1.4598  0.3844 -1.0517
  618TMC3    H2 9161   1.528   3.370  14.258  0.1097 -1.1596 -0.5966
  618TMC3    C7 9162   1.432   3.562  14.104  0.2871  0.1888  0.2635
  618TMC3    C8 9163   1.382   3.147  14.234 -0.6203  0.5428 -0.4019
  618TMC3    O1 9164   1.369   3.578  13.996 -0.5736 -0.0798  0.2224
  618TMC3    O2 9165   1.312   3.087  14.148 -0.3304  0.3849 -0.3718
  619MPD2     C 9166   2.349   0.182  13.662  0.0576 -0.0857  0.6778
  619MPD2    C1 9167   2.291   0.296  13.605 -0.1994 -0.2043  0.0176
  619MPD2    C2 9168   2.154   0.291  13.582  0.1232 -0.7973 -0.3789
  619MPD2    C3 9169   2.082   0.176  13.605 -0.2530  0.3523  0.5085
  619MPD2    C4 9170   2.138   0.064  13.659  0.3410  0.0087 -0.2340
  619MPD2    C5 9171   2.272   0.069  13.690 -0.7713  0.4080  0.9125
  619MPD2     H 9172   2.108   0.377  13.536 -0.3173 -1.1117 -0.5304
  619MPD2    H1 9173   2.088   4.688  13.678  0.1337 -0.3189 -2.3882
  619MPD2    H2 9174   2.456   0.181  13.680  0.2933 -3.3220 -0.8975
  619MPD2    H3 9175   2.310   4.698  13.739  0.3608  1.1720  1.4252
  619MPD2     N 9176   1.953   0.157  13.560 -0.3559  0.0460 -0.1180
  619MPD2    H5 9177   1.902   0.075  13.592 -1.5393 -0.4814 -3.3640
  619MPD2    N1 9178   2.362   0.412  13.562 -0.3413 -0.1733 -0.3250
  619MPD2    H7 9179   2.307   0.477  13.507 -2.3891 -1.1493  0.5678
  620TMC3    C1 9180   2.516   0.578  13.579 -0.1019 -0.2736  0.2744
  620TMC3    C2 9181   2.454   0.640  13.474  0.0230  0.0796  0.4229
  620TMC3    C3 9182   2.427   0.777  13.480 -0.3436 -0.4153  0.0957
  620TMC3    C4 9183   2.546   0.635  13.697  0.3587  0.1212 -0.4151
  620TMC3    C5 9184   2.525   0.774  13.695  0.1000  0.1604 -0.3607
  620TMC3    C6 9185   2.479   0.844  13.587  0.6099  0.6354  0.9350
  620TMC3     C 9186   2.493   0.439  13.593 -0.2193  0.0665  0.0075
  620TMC3     O 9187   2.579   0.379  13.657 -0.3253  0.8631  0.0456
  620TMC3     H 9188   2.416   0.584  13.389  0.4491  1.3352 -0.6088
  620TMC3    H1 9189   2.583   0.587  13.787  1.1926  1.7633  0.1228
  620TMC3    H2 9190   2.457   0.950  13.597 -0.6606  0.6838 -2.6171
  620TMC3    C7 9191   2.469   0.819  13.825 -0.0275 -0.4584 -0.1891
  620TMC3    C8 9192   2.289   0.826  13.458  1.1810  0.6235  0.1836
  620TMC3    O1 9193   2.523   0.791  13.932  0.1030 -0.0070 -0.6127
  620TMC3    O2 9194   2.244   0.881  13.554  0.1068 -0.6823  0.2490
  621MPD2     C 9195   2.786   4.642   9.633 -0.0114  0.5094  0.2102
  621MPD2    C1 9196   2.870   4.604   9.743 -0.8286 -0.3303 -0.2285
  621MPD2    C2 9197   2.959   4.696   9.798 -0.1361 -0.2022 -0.0467
  621MPD2    C3 9198   2.986   0.091   9.725 -0.4973 -0.1203 -0.2089
  621MPD2    C4 9199   2.930   0.112   9.604 -0.0552  0.4502 -0.2463
  621MPD2    C5 9200   2.823   0.033   9.566  1.1129 -0.0534  0.4811
  621MPD2     H 9201   3.013   4.668   9.888  1.5383 -1.7839 -1.5562
  621MPD2    H1 9202   2.973   0.185   9.537 -3.0621 -0.1083 -2.7903
  621MPD2    H2 9203   2.714   4.569   9.597 -0.4446  0.9090  0.2575
  621MPD2    H3 9204   2.779   0.047   9.468 -2.3617 -3.3117  1.5681
  621MPD2     N 9205   3.088   0.176   9.782  0.0901  0.4135  0.5607
  621MPD2    H5 9206   3.133   0.138   9.865 -0.4381  0.8241  1.0376
  621MPD2    N1 9207   2.855   4.478   9.808  0.1938 -0.0980  0.1313
  621MPD2    H7 9208   2.919   4.465   9.885  1.0797  0.3973 -0.5211
  622TMC3    C1 9209   2.814   4.247   9.829  0.7254 -0.5500  0.7721
  622TMC3    C2 9210   2.819   4.264   9.965  0.0685  0.6970 -0.1616
  622TMC3    C3 9211   2.849   4.153  10.046 -0.7758  0.1709 -0.0519
  622TMC3    C4 9212   2.829   4.125   9.775  0.0426 -0.7330 -0.7011
  622TMC3    C5 9213   2.868   4.024   9.852  0.4263 -0.2204  0.2400
  622TMC3    C6 9214   2.882   4.033   9.991  0.5142  0.0443  0.4895
  622TMC3     C 9215   2.800   4.367   9.745  0.1452 -0.3184 -1.3047
  622TMC3     O 9216   2.766   4.343   9.633  0.1470 -0.2487 -0.3064
  622TMC3     H 9217   2.796   4.355  10.018  0.5588  1.3104 -1.0078
  622TMC3    H1 9218   2.845   4.121   9.668 -1.3958  1.1003 -0.9827
  622TMC3    H2 9219   2.904   3.944  10.048  0.9428  0.7215  1.3742
  622TMC3    C7 9220   2.868   3.885   9.810  0.5664  0.9030  0.0922
  622TMC3    C8 9221   2.862   4.176  10.190 -0.5858  0.6909 -0.2789
  622TMC3    O1 9222   2.864   3.797   9.893 -0.4282  0.5987 -0.1558
  622TMC3    O2 9223   2.899   4.291  10.217  0.3934 -0.2619 -0.2205
  623MPD2     C 9224   1.290   0.862  15.957 -0.3132 -0.0657 -0.8984
  623MPD2    C1 9225   1.260   0.729  15.983  0.4705 -0.2762 -0.0929
  623MPD2    C2 9226   1.304   0.670  16.101  0.3923 -0.3733  0.3901
  623MPD2    C3 9227   1.364   0.752  16.197  0.0901  0.3526  0.3039
  623MPD2    C4 9228   1.403   0.879  16.168  0.7494 -0.6648  0.2122
  623MPD2    C5 9229   1.363   0.932  16.047 -0.2525 -0.0619 -0.3879
  623MPD2     H 9230   1.300   0.563  16.121 -0.5567 -0.5521 -0.7354
  623MPD2    H1 9231   1.456   0.950  16.231 -0.4614 -0.0702  0.5597
  623MPD2    H2 9232   1.260   0.902  15.860  0.2681  2.0377 -0.2141
  623MPD2    H3 9233   1.394   1.031  16.015 -0.1221  0.1703  0.4815
  623MPD2     N 9234   1.397   0.696  16.321 -0.4102  0.3838 -0.3315
  623MPD2    H5 9235   1.365   0.602  16.339 -0.4252  0.6554  1.0906
  623MPD2    N1 9236   1.180   0.665  15.889 -0.7678  0.1932  0.2311
  623MPD2    H7 9237   1.126   0.726  15.828  0.7505  2.8657  1.5508
  624TMC3    C1 9238   1.591   0.552  16.711 -0.3631 -0.2982  0.6064
  624TMC3    C2 9239   1.486   0.475  16.741  0.2127  0.4043  0.8175
  624TMC3    C3 9240   1.371   0.491  16.665 -0.4490  0.4970 -0.0328
  624TMC3    C4 9241   1.584   0.647  16.613  0.4108  0.0241  0.5461
  624TMC3    C5 9242   1.470   0.652  16.537  0.2368  0.2051 -0.3628
  624TMC3    C6 9243   1.360   0.571  16.554 -0.0239 -0.4822  0.5120
  624TMC3     C 9244   1.720   0.508  16.757 -0.0157  1.4567  0.5034
  624TMC3     O 9245   1.722   0.443  16.858 -0.6202 -0.0634 -0.6084
  624TMC3     H 9246   1.514   0.392  16.806  0.6350 -2.0861 -2.5583
  624TMC3    H1 9247   1.667   0.716  16.596 -0.7629  0.7781 -2.1046
  624TMC3    H2 9248   1.271   0.586  16.493  0.1948  0.1236  0.3343
  624TMC3    C7 9249   1.469   0.748  16.425 -0.2074 -0.3273 -0.1219
  624TMC3    C8 9250   1.266   0.383  16.659 -1.1440 -0.6322  1.0320
  624TMC3    O1 9251   1.535   0.850  16.438 -0.4759 -0.0490  0.3237
  624TMC3    O2 9252   1.215   0.366  16.551  0.0570 -0.0017 -0.1034
  625MPD2     C 9253   1.896   1.845   1.062 -0.0747  0.1086  1.4879
  625MPD2    C1 9254   1.897   1.952   0.975  0.1714 -0.3862 -0.6924
  625MPD2    C2 9255   2.022   1.984   0.924 -0.6073 -0.1530  0.0332
  625MPD2    C3 9256   2.136   1.920   0.947  0.2124 -0.5643  0.3869
  625MPD2    C4 9257   2.136   1.815   1.033  0.5546 -0.2484 -0.3335
  625MPD2    C5 9258   2.017   1.774   1.087 -0.0595 -0.0952 -0.0243
  625MPD2     H 9259   2.035   2.078   0.871  2.0646  0.6140  2.0483
  625MPD2    H1 9260   2.227   1.760   1.054 -0.6734 -1.7105  1.1438
  625MPD2    H2 9261   1.811   1.805   1.115 -0.7103  0.3425  0.6548
  625MPD2    H3 9262   2.019   1.700   1.165 -1.5398 -1.7077 -1.5198
  625MPD2     N 9263   2.257   1.970   0.886  0.6513  0.6193  0.4074
  625MPD2    H5 9264   2.237   2.036   0.811 -0.8952  0.7697  0.9561
  625MPD2    N1 9265   1.769   2.011   0.941  0.2834  0.3038 -0.2801
  625MPD2    H7 9266   1.683   1.983   0.987  0.1175  0.0586 -0.7315
  626TMC3    C1 9267   1.620   2.128   0.784 -0.1486  0.0183 -0.3197
  626TMC3    C2 9268   1.612   2.132   0.652  0.2406  0.4369  0.3470
  626TMC3    C3 9269   1.493   2.141   0.589 -0.4134 -0.1246  0.2977
  626TMC3    C4 9270   1.515   2.131   0.868 -0.4687 -0.6013  0.5239
  626TMC3    C5 9271   1.396   2.154   0.803  0.0207 -0.2531  0.1289
  626TMC3    C6 9272   1.380   2.158   0.664 -1.0394 -0.0712 -0.0041
  626TMC3     C 9273   1.754   2.095   0.832  0.1540  0.2472 -0.7109
  626TMC3     O 9274   1.844   2.121   0.751 -0.4765  0.0643  0.1217
  626TMC3     H 9275   1.700   2.115   0.591  1.9989  3.0876  2.1573
  626TMC3    H1 9276   1.521   2.114   0.975  0.6603  0.1355  0.5694
  626TMC3    H2 9277   1.290   2.181   0.608 -1.3589  0.9769  0.9471
  626TMC3    C7 9278   1.274   2.183   0.881  0.2641 -0.2349 -0.2714
  626TMC3    C8 9279   1.496   2.146   0.442  0.2609  0.6045 -0.0824
  626TMC3    O1 9280   1.299   2.210   0.999  0.0907 -0.4018 -0.4680
  626TMC3    O2 9281   1.398   2.108   0.376 -0.1094  0.2292 -0.2621
  627MPD2     C 9282   0.447   2.278  14.195  0.2497 -0.2067 -0.3863
  627MPD2    C1 9283   0.418   2.277  14.323 -0.4732  0.1912  0.5873
  627MPD2    C2 9284   0.317   2.198  14.364  0.1549 -0.5637  0.0667
  627MPD2    C3 9285   0.239   2.116  14.280 -0.2777  0.1237 -0.0977
  627MPD2    C4 9286   0.272   2.122  14.145 -0.8143 -0.6615 -0.4625
  627MPD2    C5 9287   0.368   2.208  14.105  0.2017 -0.4240  0.2068
  627MPD2     H 9288   0.302   2.184  14.471 -1.8750 -1.8803 -0.3780
  627MPD2    H1 9289   0.233   2.054  14.071 -2.8598 -1.2882  1.2024
  627MPD2    H2 9290   0.530   2.326  14.144  0.7626  0.7660  1.3592
  627MPD2    H3 9291   0.408   2.199  14.005  0.6781 -0.2555  0.3813
  627MPD2     N 9292   0.132   2.043  14.333  0.0888 -0.3022  0.4394
  627MPD2    H5 9293   0.125   2.038  14.435 -0.0269 -0.3947  0.4274
  627MPD2    N1 9294   0.489   2.344  14.429  0.2222 -0.5123 -0.6116
  627MPD2    H7 9295   0.443   2.330  14.518  0.0036 -0.8098 -0.7711
  628TMC3    C1 9296   0.643   2.490  14.525  0.6683  0.5747  0.2444
  628TMC3    C2 9297   0.744   2.422  14.583 -0.2501  0.2193  0.0681
  628TMC3    C3 9298   0.838   2.490  14.652  0.6905  0.1813 -0.6550
  628TMC3    C4 9299   0.630   2.624  14.534 -0.3512  0.1520 -0.2058
  628TMC3    C5 9300   0.730   2.690  14.600 -0.3488 -0.0950  0.6037
  628TMC3    C6 9301   0.821   2.625  14.683  0.4816 -0.1020 -0.6199
  628TMC3     C 9302   0.586   2.435  14.403 -0.2797  0.3485 -0.4095
  628TMC3     O 9303   0.631   2.471  14.295 -0.7359  0.2210  0.0038
  628TMC3     H 9304   0.760   2.325  14.537 -0.6526  0.0053  0.3699
  628TMC3    H1 9305   0.551   2.674  14.479 -1.1106 -0.1453  0.6130
  628TMC3    H2 9306   0.909   2.684  14.705  0.4909 -1.1768  2.1092
  628TMC3    C7 9307   0.725   2.836  14.612 -0.3036  0.0809  0.0057
  628TMC3    C8 9308   0.961   2.422  14.698  0.2902  0.4622 -0.3795
  628TMC3    O1 9309   0.779   2.883  14.711  0.2236 -0.1361  0.2883
  628TMC3    O2 9310   1.049   2.507  14.721  0.2472 -0.0669  0.1554
  629MPD2     C 9311   3.041   1.470  16.173  1.2874  0.5419 -0.2012
  629MPD2    C1 9312   3.045   1.331  16.165 -0.3943 -0.2022 -0.5194
  629MPD2    C2 9313   2.937   1.252  16.199 -0.0834 -0.1551 -0.0040
  629MPD2    C3 9314   2.824   1.320  16.241  0.7572  0.4872 -0.4064
  629MPD2    C4 9315   2.810   1.457  16.233 -0.5522  0.2006 -0.0478
  629MPD2    C5 9316   2.921   1.527  16.198  0.1013 -0.4352 -0.5827
  629MPD2     H 9317   2.949   1.144  16.197 -0.4340 -0.1182 -3.4764
  629MPD2    H1 9318   2.723   1.515  16.259 -0.3045  1.1051 -1.1778
  629MPD2    H2 9319   3.129   1.531  16.157  2.5322 -1.1931  0.0069
  629MPD2    H3 9320   2.908   1.635  16.196  2.0461 -0.1846 -0.0663
  629MPD2     N 9321   2.713   1.231  16.277  0.0149 -0.0671  0.4728
  629MPD2    H5 9322   2.725   1.131  16.267  1.5303  0.3092 -1.3375
  629MPD2    N1 9323   3.172   1.276  16.124  0.5470 -0.0655 -0.2019
  629MPD2    H7 9324   3.258   1.323  16.152 -0.0282  0.0068  1.4178
  630TMC3    C1 9325   3.307   1.097  16.081 -0.4074  0.2106 -0.0143
  630TMC3    C2 9326   3.422   1.159  16.040 -1.0669 -0.6877 -0.4175
  630TMC3    C3 9327   3.537   1.093  16.086 -0.5658  0.6909 -0.4519
  630TMC3    C4 9328   3.302   0.977  16.136  0.1490 -0.0227  0.8360
  630TMC3    C5 9329   3.415   0.930  16.194 -0.7127  0.3639  0.0371
  630TMC3    C6 9330   3.536   0.989  16.171  0.5866 -0.4989 -0.0435
  630TMC3     C 9331   3.181   1.157  16.061 -1.0178  0.2005  0.2090
  630TMC3     O 9332   3.087   1.083  16.023  0.0578  0.8518 -0.0128
  630TMC3     H 9333   3.416   1.252  15.984 -1.1253  0.0081  0.7390
  630TMC3    H1 9334   3.202   0.945  16.163  0.0492 -0.6492 -0.3058
  630TMC3    H2 9335   3.629   0.952  16.213  0.9895  0.1508 -0.3665
  630TMC3    C7 9336   3.397   0.859  16.318 -0.1202 -0.2100  0.0872
  630TMC3    C8 9337   3.661   1.161  16.069 -0.0157  0.0386  0.3212
  630TMC3    O1 9338   3.286   0.867  16.363  0.0749  0.1288  0.4234
  630TMC3    O2 9339   3.750   1.141  16.147 -0.3172  0.4474 -0.2313
  631MPD2     C 9340   1.608   0.588  15.787  0.1385  0.7658  0.1739
  631MPD2    C1 9341   1.702   0.595  15.690  0.1500  0.1481  1.1920
  631MPD2    C2 9342   1.795   0.494  15.684  0.1691  0.5067 -0.7867
  631MPD2    C3 9343   1.790   0.389  15.775 -0.5502  0.2788  0.7651
  631MPD2    C4 9344   1.677   0.366  15.850 -0.0617 -0.0067  0.2554
  631MPD2    C5 9345   1.586   0.468  15.855 -0.5905  0.5518  1.3981
  631MPD2     H 9346   1.875   0.501  15.612  0.2974  1.3944 -0.5573
  631MPD2    H1 9347   1.649   0.275  15.903 -0.5447 -0.7586 -1.2793
  631MPD2    H2 9348   1.523   0.655  15.783 -0.2935  0.2193  0.1356
  631MPD2    H3 9349   1.496   0.455  15.913 -0.3410 -2.8028  1.0545
  631MPD2     N 9350   1.901   0.295  15.772 -0.4597 -0.3412  0.3621
  631MPD2    H5 9351   1.973   0.307  15.701 -1.9778  1.9936 -0.7917
  631MPD2    N1 9352   1.700   0.715  15.613  0.0775 -0.2528  0.6693
  631MPD2    H7 9353   1.630   0.785  15.634  1.6301  1.4028  0.4068
  632TMC3    C1 9354   1.765   0.863  15.439  0.2091  0.3764 -0.6605
  632TMC3    C2 9355   1.725   0.967  15.517  0.1461  0.1034  0.4568
  632TMC3    C3 9356   1.676   1.075  15.451 -0.0595  0.1667 -0.2204
  632TMC3    C4 9357   1.774   0.867  15.298 -0.8951  0.1892 -0.5032
  632TMC3    C5 9358   1.739   0.984  15.245  0.3438 -0.0413  0.0432
  632TMC3    C6 9359   1.676   1.082  15.314 -0.2640  0.6122  0.7867
  632TMC3     C 9360   1.772   0.730  15.497  0.7044  0.2557 -0.1125
  632TMC3     O 9361   1.839   0.647  15.438 -0.7246 -0.4562 -0.1591
  632TMC3     H 9362   1.730   0.961  15.625  0.3156  0.6972  0.4838
  632TMC3    H1 9363   1.821   0.789  15.239 -3.8530 -2.2369  0.3464
  632TMC3    H2 9364   1.665   1.176  15.260 -0.7545  0.4475  0.6048
  632TMC3    C7 9365   1.786   1.013  15.109 -0.3247  0.5054  0.0237
  632TMC3    C8 9366   1.601   1.168  15.527  0.2179 -0.0438 -0.6934
  632TMC3    O1 9367   1.712   1.091  15.051  0.1057  0.1837 -0.2930
  632TMC3    O2 9368   1.649   1.176  15.637 -0.7620 -0.2150 -0.0934
  633MPD2     C 9369   1.368   3.515  17.360 -0.3249  0.3589  0.0771
  633MPD2    C1 9370   1.347   3.416  17.267  0.1364  0.3443  0.3289
  633MPD2    C2 9371   1.353   3.280  17.302  0.8875 -0.2912 -0.4316
  633MPD2    C3 9372   1.382   3.244  17.436 -0.3963 -0.1581 -0.4089
  633MPD2    C4 9373   1.415   3.346  17.520 -0.0666  0.2946 -0.4961
  633MPD2    C5 9374   1.400   3.476  17.489  0.3700 -0.4920 -0.1433
  633MPD2     H 9375   1.343   3.206  17.223 -0.6683  2.0237 -2.4322
  633MPD2    H1 9376   1.453   3.338  17.621 -1.2746  1.1264  0.0193
  633MPD2    H2 9377   1.373   3.621  17.341  0.7749  0.0218 -1.5198
  633MPD2    H3 9378   1.438   3.551  17.557  1.4196 -0.4838 -0.7344
  633MPD2     N 9379   1.395   3.114  17.488  0.5118 -0.0733  0.4638
  633MPD2    H5 9380   1.428   3.106  17.584 -1.2012  1.2979  1.1701
  633MPD2    N1 9381   1.327   3.449  17.131  0.0259 -0.2483  0.4471
  633MPD2    H7 9382   1.305   3.367  17.074 -0.7170 -1.0501  1.8691
  634TMC3    C1 9383   1.339   3.571  16.936  0.3667  0.2945  0.3400
  634TMC3    C2 9384   1.406   3.466  16.875 -0.4163 -0.0290 -0.0273
  634TMC3    C3 9385   1.455   3.483  16.751 -0.4169 -0.6893  1.1305
  634TMC3    C4 9386   1.320   3.691  16.873  0.7533  0.2411 -0.9159
  634TMC3    C5 9387   1.382   3.701  16.754 -0.3807  0.0860  1.0557
  634TMC3    C6 9388   1.447   3.605  16.684 -0.0342  0.6015 -0.3095
  634TMC3     C 9389   1.316   3.575  17.076  0.2976 -0.0084 -0.5096
  634TMC3     O 9390   1.270   3.678  17.125 -0.4547 -0.6545 -0.5352
  634TMC3     H 9391   1.429   3.378  16.935 -0.3436 -1.9812 -2.9462
  634TMC3    H1 9392   1.255   3.765  16.919 -1.6868 -1.3439 -1.8476
  634TMC3    H2 9393   1.491   3.630  16.589  3.2288 -0.6536  0.8664
  634TMC3    C7 9394   1.373   3.828  16.688  0.5198 -0.0417 -0.0361
  634TMC3    C8 9395   1.513   3.372  16.680  0.4141  0.0972  0.4587
  634TMC3    O1 9396   1.396   3.832  16.564 -0.1582 -0.0255 -0.1591
  634TMC3    O2 9397   1.569   3.295  16.754  0.3366  0.4047  0.6366
  635TMC3    C1 9398   2.227   4.265  17.206  0.2368 -0.5604 -0.1114
  635TMC3    C2 9399   2.243   4.145  17.133 -0.6798 -0.5430  0.8298
  635TMC3    C3 9400   2.358   4.128  17.061  0.7363  0.5527 -0.2929
  635TMC3    C4 9401   2.320   4.363  17.194 -0.1157  0.9543  0.1268
  635TMC3    C5 9402   2.430   4.343  17.115  0.3964  0.8301  0.6237
  635TMC3    C6 9403   2.448   4.231  17.044 -0.3957  0.0256  0.6292
  635TMC3     C 9404   2.107   4.303  17.287  0.3023 -0.1316  0.9244
  635TMC3     O 9405   2.075   4.420  17.314  0.4279 -0.4769  0.0804
  635TMC3     H 9406   2.166   4.071  17.120 -0.9331 -0.2737  0.7956
  635TMC3    H1 9407   2.299   4.464  17.229  0.8169  0.9894  0.5711
  635TMC3    H2 9408   2.533   4.216  16.978 -0.9265  1.0603 -0.2933
  635TMC3    C7 9409   2.552   4.419  17.143  0.1278  0.3415 -0.1038
  635TMC3    C8 9410   2.411   3.997  17.026 -0.0850  0.6605  1.1327
  635TMC3    O1 9411   2.625   4.445  17.045 -0.1812  0.1551 -0.1759
  635TMC3    O2 9412   2.508   3.997  16.948 -0.3750 -0.0036 -0.8891
  636MPD2     C 9413   2.908   3.456  15.711  0.5655 -0.8398 -1.0675
  636MPD2    C1 9414   2.935   3.456  15.844 -0.4423  0.2029 -0.6172
  636MPD2    C2 9415   2.960   3.332  15.902 -0.2729 -0.0559 -0.6293
  636MPD2    C3 9416   2.932   3.211  15.832  0.3387  0.5665 -0.1155
  636MPD2    C4 9417   2.888   3.223  15.705  0.0736 -0.2144 -0.0959
  636MPD2    C5 9418   2.886   3.344  15.646 -0.4829  0.2749 -0.1914
  636MPD2     H 9419   2.996   3.323  16.004  0.5499  0.5782 -0.8617
  636MPD2    H1 9420   2.851   3.138  15.648  1.0949 -0.7835  0.0970
  636MPD2    H2 9421   2.898   3.545  15.650  0.6715 -0.4090 -0.4509
  636MPD2    H3 9422   2.834   3.360  15.552  2.9032 -1.0412 -2.2866
  636MPD2     N 9423   2.953   3.088  15.897 -0.0775 -0.3867 -0.3421
  636MPD2    H5 9424   2.987   3.097  15.992  0.0564  0.2398 -0.4483
  636MPD2    N1 9425   2.939   3.575  15.925 -0.1132  0.6200 -0.3447
  636MPD2    H7 9426   2.965   3.559  16.022 -1.6203  0.8259  0.1011
  637TMC3    C1 9427   2.943   2.869  15.954  0.1604  0.4758  0.3121
  637TMC3    C2 9428   2.926   2.912  16.084  0.3210 -0.8142 -0.5911
  637TMC3    C3 9429   3.020   2.890  16.175  0.4127 -0.1081  0.0581
  637TMC3    C4 9430   3.067   2.816  15.915  0.0322 -0.4190  1.2848
  637TMC3    C5 9431   3.166   2.804  16.009 -0.3576  0.3348  1.2634
  637TMC3    C6 9432   3.139   2.827  16.137 -0.8052 -0.5949 -0.0893
  637TMC3     C 9433   2.913   2.965  15.848  0.4197 -0.3469 -0.3104
  637TMC3     O 9434   2.911   2.925  15.733  0.0129 -0.5439  0.5530
  637TMC3     H 9435   2.841   2.975  16.106  1.2460 -0.4771  2.0425
  637TMC3    H1 9436   3.085   2.815  15.808 -0.8451 -2.3045  1.1615
  637TMC3    H2 9437   3.211   2.788  16.208 -1.0267  0.1976  0.5698
  637TMC3    C7 9438   3.290   2.873  15.967 -0.0710 -0.7544 -0.2681
  637TMC3    C8 9439   3.054   3.012  16.244  1.2324  0.2413  0.4954
  637TMC3    O1 9440   3.349   2.933  16.056 -0.0065 -0.6640  0.2230
  637TMC3    O2 9441   3.005   3.108  16.184 -0.3841 -0.1063  0.4037
  638MPD2     C 9442   2.511   2.779  15.161 -0.1575  0.0767  0.5053
  638MPD2    C1 9443   2.521   2.662  15.092  0.0321  0.1892  0.3172
  638MPD2    C2 9444   2.522   2.543  15.155  0.1462 -0.0631  0.0844
  638MPD2    C3 9445   2.480   2.536  15.287 -0.5421  0.5105  0.6832
  638MPD2    C4 9446   2.454   2.651  15.356 -0.8078 -0.0892  0.2198
  638MPD2    C5 9447   2.476   2.774  15.292  0.0436 -0.4576  0.2343
  638MPD2     H 9448   2.554   2.454  15.101  0.8139 -0.4530  1.1148
  638MPD2    H1 9449   2.407   2.656  15.453  3.1347  0.4037  2.1161
  638MPD2    H2 9450   2.535   2.874  15.114 -0.5056 -0.6385 -1.1106
  638MPD2    H3 9451   2.447   2.865  15.343  1.0912 -0.2865  0.5323
  638MPD2     N 9452   2.456   2.407  15.331 -0.4575  0.0049  0.0471
  638MPD2    H5 9453   2.457   2.331  15.264  2.1271 -1.7644  2.0820
  638MPD2    N1 9454   2.556   2.671  14.952  0.0711 -0.2018  0.0234
  638MPD2    H7 9455   2.595   2.759  14.922 -0.9391  0.6654  1.2751
  639TMC3    C1 9456   2.406   2.232  15.465 -0.1714  0.9474 -0.4751
  639TMC3    C2 9457   2.283   2.173  15.478 -0.0883 -0.5088 -0.1356
  639TMC3    C3 9458   2.278   2.036  15.470  0.6684  0.5428  0.4400
  639TMC3    C4 9459   2.525   2.162  15.451  0.2385  0.1259 -0.9380
  639TMC3    C5 9460   2.517   2.029  15.456  0.2498 -0.4384  0.3242
  639TMC3    C6 9461   2.396   1.967  15.466  0.2598 -0.5611 -0.6771
  639TMC3     C 9462   2.413   2.374  15.456  0.1825  0.1613 -0.3099
  639TMC3     O 9463   2.354   2.435  15.545 -0.3742 -0.1582 -0.3787
  639TMC3     H 9464   2.193   2.231  15.463  0.1922  0.5416  2.1664
  639TMC3    H1 9465   2.605   2.223  15.410  0.7121  0.8344  1.0467
  639TMC3    H2 9466   2.386   1.861  15.444 -1.9955 -0.5836  0.4209
  639TMC3    C7 9467   2.624   1.943  15.405  0.0823 -0.5974  0.5975
  639TMC3    C8 9468   2.186   1.994  15.364 -0.2574  0.2019 -0.0383
  639TMC3    O1 9469   2.620   1.825  15.448 -0.1937 -0.3485  0.2584
  639TMC3    O2 9470   2.235   1.946  15.266  0.4060 -0.1189  0.3446
  640MPD2     C 9471   3.255   0.635   9.556  0.6966  0.1169  0.1887
  640MPD2    C1 9472   3.320   0.724   9.633  0.0799 -0.2497 -0.2330
  640MPD2    C2 9473   3.253   0.823   9.700 -0.1130 -0.1545  0.0313
  640MPD2    C3 9474   3.111   0.822   9.708 -0.0064 -0.3285  0.0886
  640MPD2    C4 9475   3.044   0.719   9.639  0.2619 -0.0642 -0.6850
  640MPD2    C5 9476   3.116   0.637   9.558  0.5603 -0.9741  0.1603
  640MPD2     H 9477   3.300   0.901   9.759  0.4392 -0.0233 -0.5734
  640MPD2    H1 9478   2.937   0.707   9.649  0.1132  0.0011 -2.2124
  640MPD2    H2 9479   3.300   0.560   9.493 -0.0393 -0.3584  0.2240
  640MPD2    H3 9480   3.054   0.572   9.497  1.4735  0.1016 -1.9135
  640MPD2     N 9481   3.031   0.919   9.772  0.4541  0.5821 -0.6604
  640MPD2    H5 9482   2.932   0.899   9.768  0.3889  0.8437 -0.3331
  640MPD2    N1 9483   3.459   0.708   9.635  0.0350  0.1316  0.3468
  640MPD2    H7 9484   3.500   0.647   9.564  4.0261  1.4302  1.5265
  641TMC3    C1 9485   3.681   0.744   9.684  0.2695 -0.1860  0.4434
  641TMC3    C2 9486   3.704   0.611   9.719  0.0522 -0.3226 -0.6288
  641TMC3    C3 9487   3.823   0.577   9.770  0.4535 -0.1325  0.0919
  641TMC3    C4 9488   3.780   0.839   9.701 -0.4953 -0.3861 -0.9637
  641TMC3    C5 9489   3.899   0.803   9.760 -0.7879  0.1144  1.1767
  641TMC3    C6 9490   3.921   0.674   9.796 -0.2827 -0.1180 -0.0684
  641TMC3     C 9491   3.546   0.792   9.704 -0.0574 -0.6690  0.1958
  641TMC3     O 9492   3.525   0.880   9.787 -0.2098  0.2941  0.1118
  641TMC3     H 9493   3.625   0.538   9.702  0.9181 -1.6050  0.8162
  641TMC3    H1 9494   3.751   0.944   9.693 -2.0135 -0.7456 -0.3122
  641TMC3    H2 9495   4.020   0.646   9.828  0.1682  1.2624 -0.2661
  641TMC3    C7 9496   4.005   0.877   9.710 -0.4237 -0.7530 -0.3069
  641TMC3    C8 9497   3.840   0.452   9.847 -0.4560  0.4218 -0.3713
  641TMC3    O1 9498   4.113   0.862   9.765  0.3614  0.3622  0.3886
  641TMC3    O2 9499   3.882   0.464   9.963 -0.0926 -1.0072  0.3652
  642TMC3    C1 9500   4.099   2.576  11.979  0.4916  0.0881  0.3852
  642TMC3    C2 9501   4.224   2.552  12.023  0.4576 -0.2125 -0.1129
  642TMC3    C3 9502   4.243   2.431  12.085 -0.4425  0.2174 -0.4567
  642TMC3    C4 9503   3.996   2.483  11.996  0.2686 -0.1702  0.4196
  642TMC3    C5 9504   4.008   2.378  12.072 -0.2598  0.5479  0.5206
  642TMC3    C6 9505   4.138   2.352  12.115 -0.1375  0.6276  0.8303
  642TMC3     C 9506   4.058   2.717  11.953 -0.1824  0.0048  0.0144
  642TMC3     O 9507   4.144   2.780  11.894  0.3381 -0.1975  0.0742
  642TMC3     H 9508   4.306   2.622  12.013 -1.6226  2.4018  1.2379
  642TMC3    H1 9509   3.902   2.509  11.949  0.6696 -1.0652 -0.8915
  642TMC3    H2 9510   4.150   2.251  12.152 -2.8277  0.5292  1.4286
  642TMC3    C7 9511   3.921   2.267  12.064  0.0030  0.1361  0.8574
  642TMC3    C8 9512   4.376   2.391  12.146  0.0961 -0.2488  0.1281
  642TMC3    O1 9513   3.860   2.259  11.957 -0.0360 -0.4479  0.3796
  642TMC3    O2 9514   4.368   2.293  12.216  0.7423  0.1490 -0.2810
  643TMC3    C1 9515   3.066   2.007   0.440 -0.2533  0.3274  0.6013
  643TMC3    C2 9516   2.951   2.042   0.367  0.1971  0.2838 -0.5521
  643TMC3    C3 9517   2.934   1.978   0.241  0.4375 -0.3852  0.0893
  643TMC3    C4 9518   3.161   1.927   0.385  0.7663 -0.3378  0.3630
  643TMC3    C5 9519   3.137   1.863   0.266  0.0362  0.0771  0.6630
  643TMC3    C6 9520   3.022   1.884   0.199  0.2352 -0.7668  0.0383
  643TMC3     C 9521   3.066   2.057   0.571 -0.7575 -0.4120 -0.6516
  643TMC3     O 9522   2.960   2.109   0.609  0.3705  0.0448 -0.0650
  643TMC3     H 9523   2.874   2.097   0.419  0.2743  0.0822 -0.2235
  643TMC3    H1 9524   3.256   1.906   0.433  0.8523 -3.3354 -1.1497
  643TMC3    H2 9525   2.998   1.835   0.105 -2.5398  1.2259 -0.2953
  643TMC3    C7 9526   3.247   1.799   0.196 -0.0733  0.0010 -0.4339
  643TMC3    C8 9527   2.885   2.061   0.136 -0.3395  0.4004  0.3884
  643TMC3    O1 9528   3.363   1.832   0.216 -0.2685 -0.1462  0.3570
  643TMC3    O2 9529   2.764   2.076   0.124 -0.3213  0.6438 -0.1540
  644MPD2     C 9530   3.888   1.475   9.518  0.1398  0.4030  0.9219
  644MPD2    C1 9531   3.821   1.388   9.602  0.2272  0.4842  0.2516
  644MPD2    C2 9532   3.684   1.369   9.590  0.7388 -0.8541 -0.1352
  644MPD2    C3 9533   3.615   1.440   9.486 -0.2885  0.9538 -0.0732
  644MPD2    C4 9534   3.683   1.530   9.408 -0.7273 -0.0548  0.0361
  644MPD2    C5 9535   3.817   1.550   9.424 -0.4514 -0.4569  0.2326
  644MPD2     H 9536   3.636   1.295   9.653 -0.4840 -0.1662 -0.2685
  644MPD2    H1 9537   3.636   1.577   9.323 -0.5139  1.4022  0.7202
  644MPD2    H2 9538   3.994   1.494   9.532  0.8462 -2.0274 -1.0953
  644MPD2    H3 9539   3.866   1.627   9.365  1.1632 -0.5226  1.4835
  644MPD2     N 9540   3.474   1.431   9.477 -0.8459  0.4753  0.0312
  644MPD2    H5 9541   3.436   1.350   9.524  2.2625 -1.3305 -0.5665
  644MPD2    N1 9542   3.907   1.320   9.687 -0.3894 -0.2873  0.2383
  644MPD2    H7 9543   4.005   1.343   9.692 -0.4011  0.0693 -1.0658
  645TMC3    C1 9544   3.258   1.446   9.380 -0.8315  0.0924  0.4991
  645TMC3    C2 9545   3.247   1.314   9.353  0.8054  0.4813 -0.1422
  645TMC3    C3 9546   3.135   1.272   9.293 -0.1666  0.4000 -0.0611
  645TMC3    C4 9547   3.156   1.535   9.353  0.4707  0.0091 -0.3616
  645TMC3    C5 9548   3.031   1.486   9.327  0.8013  0.2643  0.2780
  645TMC3    C6 9549   3.027   1.355   9.292 -0.0430  0.2355  0.1904
  645TMC3     C 9550   3.388   1.504   9.398 -0.6758  0.1526 -0.3111
  645TMC3     O 9551   3.414   1.606   9.332  0.2381  0.1179 -0.0037
  645TMC3     H 9552   3.331   1.246   9.362  1.9882  1.5554 -2.8960
  645TMC3    H1 9553   3.168   1.642   9.366  3.1949 -0.8286  3.9934
  645TMC3    H2 9554   2.935   1.307   9.259  0.5639 -0.2770 -0.7617
  645TMC3    C7 9555   2.921   1.580   9.312  0.4376 -0.8172 -0.3528
  645TMC3    C8 9556   3.130   1.125   9.273 -0.1084  0.5009 -0.0092
  645TMC3    O1 9557   2.954   1.694   9.337 -0.1235 -0.6583 -0.1151
  645TMC3    O2 9558   3.237   1.071   9.265 -0.4405 -0.4889 -0.2726
  646MPD2     C 9559   2.466   1.226  14.864  0.3032  0.1051  0.1027
  646MPD2    C1 9560   2.370   1.251  14.960  0.7207  0.3898 -0.0040
  646MPD2    C2 9561   2.266   1.328  14.924  0.0277 -0.1873  0.2026
  646MPD2    C3 9562   2.236   1.372  14.789  0.5947  0.5575  0.1923
  646MPD2    C4 9563   2.320   1.329  14.692  0.4344  0.1544  0.2384
  646MPD2    C5 9564   2.434   1.258  14.728  0.2736  0.6921  0.1807
  646MPD2     H 9565   2.191   1.359  14.996  0.5486 -1.0739  1.1287
  646MPD2    H1 9566   2.312   1.346  14.585 -1.6280  0.9918  0.5366
  646MPD2    H2 9567   2.560   1.175  14.881  0.8917  0.7397 -1.2358
  646MPD2    H3 9568   2.507   1.237  14.651  1.0709 -0.7777  1.3546
  646MPD2     N 9569   2.139   1.482  14.770  0.3386  0.8235  0.2813
  646MPD2    H5 9570   2.101   1.517  14.857 -2.1494  2.1959 -1.3273
  646MPD2    N1 9571   2.405   1.197  15.086  0.0204 -0.4419 -0.4946
  646MPD2    H7 9572   2.490   1.143  15.085  0.7657  0.6151  3.4122
  647TMC3    C1 9573   2.431   1.176  15.313  0.0256 -0.0286  0.1060
  647TMC3    C2 9574   2.372   1.125  15.428  0.7209  0.0488  0.5015
  647TMC3    C3 9575   2.457   1.076  15.528  0.1376  0.2252 -0.1961
  647TMC3    C4 9576   2.565   1.183  15.295 -0.7501 -0.2255 -0.2867
  647TMC3    C5 9577   2.644   1.139  15.405 -0.2970  0.0206  0.2393
  647TMC3    C6 9578   2.590   1.074  15.510  0.1553 -0.2129 -0.4285
  647TMC3     C 9579   2.342   1.219  15.208 -0.1178 -0.2651  0.8827
  647TMC3     O 9580   2.222   1.238  15.233 -0.5227  0.8459 -0.4587
  647TMC3     H 9581   2.265   1.114  15.438  0.7579  0.4476  1.3821
  647TMC3    H1 9582   2.622   1.217  15.209  1.8722 -1.0909  1.1073
  647TMC3    H2 9583   2.659   1.042  15.588 -0.4714  3.0346  1.4586
  647TMC3    C7 9584   2.791   1.134  15.394  0.6780  0.1557 -0.4167
  647TMC3    C8 9585   2.401   0.979  15.629  0.3188 -0.5261  0.2339
  647TMC3    O1 9586   2.843   1.028  15.422  0.0589  0.4297 -0.0941
  647TMC3    O2 9587   2.287   1.004  15.667  0.1754 -0.3270 -0.2314
  648TMC3    C1 9588   1.962   3.592  16.096 -0.3757  0.2546 -0.4068
  648TMC3    C2 9589   2.036   3.487  16.055 -0.2489 -0.3634 -0.0053
  648TMC3    C3 9590   2.097   3.497  15.929  0.6362  0.3879  0.2786
  648TMC3    C4 9591   1.941   3.695  16.010  0.0126 -0.4700  0.4377
  648TMC3    C5 9592   2.019   3.703  15.891 -0.4080  0.0338  0.4022
  648TMC3    C6 9593   2.096   3.601  15.846  0.0741  0.3079 -0.0739
  648TMC3     C 9594   1.917   3.609  16.234 -0.0807  0.0737 -0.4435
  648TMC3     O 9595   1.863   3.713  16.256  0.3099  0.1956  0.3443
  648TMC3     H 9596   2.068   3.410  16.125 -0.3111 -1.6331 -1.3664
  648TMC3    H1 9597   1.883   3.781  16.043 -3.6067 -2.7355 -0.0954
  648TMC3    H2 9598   2.149   3.598  15.751 -0.0005  0.8373 -0.1309
  648TMC3    C7 9599   1.988   3.812  15.800 -0.3762 -0.3075  0.3514
  648TMC3    C8 9600   2.195   3.392  15.893 -0.2206 -0.0780  0.3113
  648TMC3    O1 9601   2.078   3.867  15.738  0.0714  0.0402 -0.2751
  648TMC3    O2 9602   2.231   3.386  15.779  0.4180 -0.7629 -0.2234
  649TMC3    C1 9603   1.208   0.095  12.745 -0.4922  1.0059 -0.3282
  649TMC3    C2 9604   1.338   0.116  12.788 -0.0561 -0.0899  0.1498
  649TMC3    C3 9605   1.384   0.047  12.896  0.3961  0.4367 -0.5259
  649TMC3    C4 9606   1.127   0.012  12.816  0.0852 -0.1185 -0.2387
  649TMC3    C5 9607   1.168   4.673  12.927 -0.3819 -0.3952  0.1636
  649TMC3    C6 9608   1.304   4.684  12.969  0.6078  0.4999 -0.4350
  649TMC3     C 9609   1.162   0.140  12.620 -0.6700 -0.0795 -0.3563
  649TMC3     O 9610   1.056   0.097  12.580 -0.7593 -0.2821 -0.0237
  649TMC3     H 9611   1.394   0.192  12.736 -0.0829 -0.7973 -0.9210
  649TMC3    H1 9612   1.024   0.002  12.785  0.5095  1.5344 -2.1547
  649TMC3    H2 9613   1.342   4.639  13.060 -1.5040 -1.5341 -0.5758
  649TMC3    C7 9614   1.065   4.632  13.032 -0.5872 -0.5171 -0.2804
  649TMC3    C8 9615   1.512   0.079  12.958 -0.5046 -0.3564  0.0080
  649TMC3    O1 9616   0.950   4.668  13.011 -0.1266 -0.3188 -0.4957
  649TMC3    O2 9617   1.535   0.026  13.067 -0.0255  0.6276 -0.0054
  650TMC3    C1 9618   3.474   1.774  12.550 -0.1592 -0.6186 -0.5397
  650TMC3    C2 9619   3.487   1.904  12.596 -0.6469 -0.7599  0.8158
  650TMC3    C3 9620   3.461   2.007  12.508  0.4500  0.0835 -0.4676
  650TMC3    C4 9621   3.419   1.743  12.429 -0.3811  0.2800  0.0836
  650TMC3    C5 9622   3.391   1.848  12.352 -0.0793 -0.1054 -0.1905
  650TMC3    C6 9623   3.412   1.976  12.385 -0.1750  0.0757  0.6083
  650TMC3     C 9624   3.539   1.676  12.631 -0.6214 -0.0498  0.0975
  650TMC3     O 9625   3.581   1.706  12.741 -0.0039  0.4601  0.1800
  650TMC3     H 9626   3.515   1.917  12.700 -0.4327 -0.4644  0.7195
  650TMC3    H1 9627   3.387   1.644  12.399 -0.7735  0.3489  0.2709
  650TMC3    H2 9628   3.424   2.057  12.313  0.5218 -2.1137 -1.7323
  650TMC3    C7 9629   3.293   1.817  12.250 -0.0697 -0.4902  0.2136
  650TMC3    C8 9630   3.465   2.149  12.543  0.5596 -0.0710 -0.1610
  650TMC3    O1 9631   3.250   1.702  12.236 -0.3943 -0.0101 -0.2484
  650TMC3    O2 9632   3.448   2.233  12.457 -0.6869  0.3242 -0.4125
  651MPD2     C 9633   2.306   2.897  10.667  0.5974 -0.1000 -1.0031
  651MPD2    C1 9634   2.295   3.034  10.686  0.1316 -0.0340  0.7212
  651MPD2    C2 9635   2.405   3.109  10.715 -0.0206 -0.4371  0.2460
  651MPD2    C3 9636   2.526   3.048  10.735  0.5366 -0.3328 -0.2109
  651MPD2    C4 9637   2.536   2.912  10.725  0.2790 -0.1027  0.1486
  651MPD2    C5 9638   2.427   2.835  10.698  0.5728  0.2781 -0.6829
  651MPD2     H 9639   2.404   3.217  10.729 -1.1185 -0.4315  0.1376
  651MPD2    H1 9640   2.627   2.853  10.718 -0.5645 -1.2239 -1.3595
  651MPD2    H2 9641   2.226   2.837  10.626  0.3339 -0.1044 -0.4845
  651MPD2    H3 9642   2.440   2.731  10.667 -0.8330 -0.0055 -0.3096
  651MPD2     N 9643   2.633   3.136  10.757 -0.1379 -0.0525  0.3127
  651MPD2    H5 9644   2.614   3.234  10.773 -1.2149 -0.7099  3.0813
  651MPD2    N1 9645   2.180   3.112  10.650  0.0591  0.1664  0.2793
  651MPD2    H7 9646   2.182   3.213  10.663 -0.4615  0.2385 -0.1733
  652TMC3    C1 9647   3.060   3.291  10.752  1.3168  0.1774  0.5962
  652TMC3    C2 9648   2.969   3.201  10.792  0.2324  0.5073  0.0533
  652TMC3    C3 9649   2.841   3.227  10.758 -0.5052 -0.4651 -0.4693
  652TMC3    C4 9650   3.029   3.412  10.688  0.6574  0.4915  0.1920
  652TMC3    C5 9651   2.902   3.444  10.664  0.2563  0.3078  0.1699
  652TMC3    C6 9652   2.807   3.348  10.695 -0.4792 -0.3486  0.0412
  652TMC3     C 9653   3.200   3.247  10.771  0.7060 -0.7011  0.3213
  652TMC3     O 9654   3.232   3.181  10.869  0.1919  0.0748  0.2735
  652TMC3     H 9655   2.996   3.120  10.859  2.5868  1.5174  0.3168
  652TMC3    H1 9656   3.106   3.482  10.659 -0.2228  1.3411 -0.1091
  652TMC3    H2 9657   2.707   3.370  10.659 -0.4953  0.8587  0.8037
  652TMC3    C7 9658   2.881   3.517  10.542 -0.5842 -0.0993 -0.1026
  652TMC3    C8 9659   2.763   3.104  10.753 -0.0857  0.3196 -0.3654
  652TMC3    O1 9660   2.815   3.459  10.460 -0.2701  0.4205  0.4627
  652TMC3    O2 9661   2.821   3.000  10.723 -0.3697  0.4438  0.1965
  653MPD2     C 9662   0.994   3.384  17.666  0.5455  0.6334 -0.3120
  653MPD2    C1 9663   0.978   3.492  17.579 -0.0910  0.1210 -0.0675
  653MPD2    C2 9664   0.981   3.466  17.440 -0.7138  0.1453 -0.1382
  653MPD2    C3 9665   1.006   3.339  17.388  0.2189 -0.3234 -0.7009
  653MPD2    C4 9666   1.041   3.242  17.481  0.1527 -0.7340 -0.1211
  653MPD2    C5 9667   1.031   3.266  17.617 -0.0459 -0.3703 -0.4239
  653MPD2     H 9668   0.967   3.547  17.370  0.2038 -0.5491 -1.1232
  653MPD2    H1 9669   1.051   3.138  17.451 -1.9132 -0.9373 -0.1169
  653MPD2    H2 9670   0.998   3.390   0.098  0.7446 -1.0380 -0.2276
  653MPD2    H3 9671   1.040   3.180   0.007 -2.6515 -0.5293 -0.3080
  653MPD2     N 9672   0.984   3.309  17.253 -0.3756  0.5175 -0.1103
  653MPD2    H5 9673   0.951   3.385  17.194  0.0748  1.4810  0.8882
  653MPD2    N1 9674   0.946   3.627  17.618  0.2918  0.0406  0.3277
  653MPD2    H7 9675   0.945   3.697  17.544 -0.2798  1.5152  1.7326
  654TMC3    C1 9676   0.946   3.174  17.059  0.1698 -0.0144 -0.0065
  654TMC3    C2 9677   0.836   3.248  17.022  0.2226  0.4343 -0.0947
  654TMC3    C3 9678   0.756   3.209  16.918  0.2009  0.0185 -0.2072
  654TMC3    C4 9679   0.974   3.061  16.994 -0.1478  0.5646  0.0684
  654TMC3    C5 9680   0.898   3.026  16.888  0.2169 -0.5941  0.1844
  654TMC3    C6 9681   0.792   3.101  16.848  0.0363 -0.3059  0.3081
  654TMC3     C 9682   1.009   3.187  17.190  0.2440 -0.3485  0.0975
  654TMC3     O 9683   1.052   3.078  17.236 -0.5060  0.3667  0.4983
  654TMC3     H 9684   0.808   3.343  17.066 -1.6071  1.1964 -2.8743
  654TMC3    H1 9685   1.069   3.012  17.012 -0.2609  0.0746 -0.6723
  654TMC3    H2 9686   0.729   3.067  16.766 -0.1359 -0.6540  0.5870
  654TMC3    C7 9687   0.915   2.886  16.843 -0.5821  0.6832  0.4913
  654TMC3    C8 9688   0.683   3.313  16.847 -0.0333 -0.0560 -0.1134
  654TMC3    O1 9689   0.858   2.855  16.739  0.0637  0.6202 -0.1821
  654TMC3    O2 9690   0.606   3.382  16.917 -0.4720 -0.1314 -0.2972
  655MPD2     C 9691   2.520   3.643  15.816  0.0070 -0.5186  1.3430
  655MPD2    C1 9692   2.467   3.745  15.729 -0.3020  0.1992 -0.5612
  655MPD2    C2 9693   2.464   3.725  15.595 -0.3025  0.1007 -0.8408
  655MPD2    C3 9694   2.527   3.608  15.548  0.1072  0.0575  0.3870
  655MPD2    C4 9695   2.572   3.508  15.633  0.0908  0.1722 -0.3678
  655MPD2    C5 9696   2.554   3.519  15.765  0.1449 -0.6573 -0.7220
  655MPD2     H 9697   2.430   3.805  15.531 -1.9601 -0.4940 -0.7143
  655MPD2    H1 9698   2.613   3.416  15.592 -0.9593 -2.4393  4.4950
  655MPD2    H2 9699   2.517   3.643  15.925 -2.9081  0.9439  1.2483
  655MPD2    H3 9700   2.585   3.436  15.827  2.0097  0.0265 -0.7642
  655MPD2     N 9701   2.553   3.580  15.412  0.8728 -0.7194  0.1622
  655MPD2    H5 9702   2.584   3.486  15.391  0.4603 -1.3870  2.5393
  655MPD2    N1 9703   2.403   3.858  15.781  0.5817  0.6090  0.7899
  655MPD2    H7 9704   2.358   3.913  15.709 -0.6910 -2.3339 -0.6846
  656TMC3    C1 9705   2.298   4.007  15.932  0.3435  0.0915 -0.2197
  656TMC3    C2 9706   2.216   4.011  16.043  0.2949  0.5165  0.1415
  656TMC3    C3 9707   2.116   4.105  16.038  0.5869 -0.1044 -0.0903
  656TMC3    C4 9708   2.286   4.096  15.824 -0.0493  0.0393  0.0789
  656TMC3    C5 9709   2.189   4.196  15.828 -0.5031  0.4744 -0.5801
  656TMC3    C6 9710   2.103   4.198  15.939  0.9471 -0.5131  0.3760
  656TMC3     C 9711   2.389   3.892  15.912  0.2284  0.0405  0.0553
  656TMC3     O 9712   2.444   3.843  16.009 -0.4876  0.3642  0.2927
  656TMC3     H 9713   2.233   3.935  16.118 -2.1040  1.4474  1.6108
  656TMC3    H1 9714   2.357   4.100  15.742 -1.2516  4.1219 -0.7305
  656TMC3    H2 9715   2.023   4.272  15.942  0.8643 -0.5874 -0.0075
  656TMC3    C7 9716   2.198   4.299  15.726  0.4674 -0.6000  0.0977
  656TMC3    C8 9717   1.999   4.090  16.119 -0.4052  0.9922 -0.9205
  656TMC3    O1 9718   2.278   4.275  15.638 -0.1160 -0.1557 -0.3127
  656TMC3    O2 9719   1.889   4.133  16.083  0.5112 -0.1979 -0.5903
  657TMC3    C1 9720   1.260   2.954  15.304  0.3525 -0.8268  0.2464
  657TMC3    C2 9721   1.320   2.984  15.426 -0.5794  1.0631 -0.5595
  657TMC3    C3 9722   1.253   3.062  15.510  0.1918 -0.8104 -0.4360
  657TMC3    C4 9723   1.129   2.992  15.282 -0.0506  0.2767  0.4891
  657TMC3    C5 9724   1.079   3.087  15.368 -0.3901 -0.8333 -0.0688
  657TMC3    C6 9725   1.130   3.125  15.487 -0.3983  1.0129  0.2792
  657TMC3     C 9726   1.324   2.863  15.219  0.3129 -0.0619 -0.3262
  657TMC3     O 9727   1.255   2.803  15.135  0.4776 -0.2924  0.4343
  657TMC3     H 9728   1.417   2.943  15.452 -0.2404  1.4689 -1.1879
  657TMC3    H1 9729   1.085   2.960  15.188  0.8578  1.7509 -0.4292
  657TMC3    H2 9730   1.084   3.184  15.565 -0.1488  2.5689 -0.7381
  657TMC3    C7 9731   0.951   3.145  15.348  0.1372 -0.4658 -0.2998
  657TMC3    C8 9732   1.314   3.079  15.646 -0.4610 -0.2594 -0.3028
  657TMC3    O1 9733   0.903   3.218  15.435  0.1531  1.0013  0.2177
  657TMC3    O2 9734   1.396   3.001  15.697 -0.0800  0.0716  0.7878
  658MPD2     C 9735   2.662   3.454  14.514 -0.2939  0.6064 -0.1139
  658MPD2    C1 9736   2.646   3.567  14.599  0.8653  0.0458 -0.0835
  658MPD2    C2 9737   2.656   3.697  14.552  0.7420  0.3796 -0.4867
  658MPD2    C3 9738   2.673   3.712  14.415  0.3795 -0.6095  0.2131
  658MPD2    C4 9739   2.694   3.604  14.336 -0.6056  0.3000 -0.5272
  658MPD2    C5 9740   2.692   3.478  14.384 -0.4967  0.3618 -0.4348
  658MPD2     H 9741   2.632   3.786  14.610  0.2084  0.0269 -0.1586
  658MPD2    H1 9742   2.695   3.611  14.228  2.3179 -0.9105 -0.5836
  658MPD2    H2 9743   2.656   3.349  14.538 -0.6099  0.6143 -0.1563
  658MPD2    H3 9744   2.715   3.391  14.324  2.1797 -1.5401  3.3462
  658MPD2     N 9745   2.644   3.840  14.358  0.2869  0.0175 -0.0474
  658MPD2    H5 9746   2.603   3.909  14.420  1.7260 -0.1019  1.0609
  658MPD2    N1 9747   2.611   3.531  14.730 -0.9634 -0.3666 -0.2137
  658MPD2    H7 9748   2.581   3.436  14.749 -1.4689 -0.3853 -1.1057
  659TMC3    C1 9749   2.537   3.561  14.954 -0.4127 -0.1213  0.2291
  659TMC3    C2 9750   2.569   3.627  15.072  0.0749  0.7623  0.1656
  659TMC3    C3 9751   2.500   3.580  15.182 -0.0363 -0.3911 -0.1368
  659TMC3    C4 9752   2.441   3.463  14.939  1.2179  0.1088  0.1930
  659TMC3    C5 9753   2.369   3.432  15.052  0.6344  0.4122  0.1832
  659TMC3    C6 9754   2.402   3.481  15.179 -0.2998  0.8664  0.3052
  659TMC3     C 9755   2.594   3.622  14.839  0.2873  0.0379  0.3673
  659TMC3     O 9756   2.646   3.732  14.850 -0.4008 -0.1083 -0.3088
  659TMC3     H 9757   2.642   3.706  15.078  1.0592 -0.0606 -1.0738
  659TMC3    H1 9758   2.410   3.424  14.842  1.6153 -0.0241  0.1230
  659TMC3    H2 9759   2.347   3.448  15.266  1.1061 -2.2161  0.0172
  659TMC3    C7 9760   2.231   3.386  15.054  0.1944  0.2144  0.1349
  659TMC3    C8 9761   2.514   3.654  15.306  0.0796  0.0540 -0.1900
  659TMC3    O1 9762   2.179   3.353  15.159  0.4642 -0.1531 -0.0115
  659TMC3    O2 9763   2.524   3.776  15.298  0.2943 -1.1631 -0.5616
  660MPD2     C 9764   0.398   2.053  12.192 -0.3334 -0.1114 -0.5663
  660MPD2    C1 9765   0.438   2.176  12.241 -0.4891  0.3180  0.3371
  660MPD2    C2 9766   0.431   2.205  12.371 -0.3340 -0.0232  0.9921
  660MPD2    C3 9767   0.378   2.110  12.460  0.6247 -0.1122  0.9228
  660MPD2    C4 9768   0.332   1.986  12.410  0.1452 -0.4557  0.0344
  660MPD2    C5 9769   0.340   1.956  12.277 -0.7997 -0.2423 -0.3220
  660MPD2     H 9770   0.478   2.295  12.408  0.8842 -0.5399  0.7167
  660MPD2    H1 9771   0.303   1.908  12.480  0.0749 -0.3168  0.1605
  660MPD2    H2 9772   0.396   2.040  12.085 -2.0009  0.0582 -0.5527
  660MPD2    H3 9773   0.322   1.860  12.229  1.2845  0.1198 -1.8597
  660MPD2     N 9774   0.373   2.132  12.600  0.5491 -0.4302 -0.0500
  660MPD2    H5 9775   0.344   2.056  12.660 -1.5614 -1.1669 -1.9939
  660MPD2    N1 9776   0.496   2.272  12.151  0.0291 -0.2566  0.2993
  660MPD2    H7 9777   0.496   2.249  12.053  0.6309 -0.5807  0.3728
  661TMC3    C1 9778   0.583   2.471  12.064 -0.0269 -0.0079 -0.1687
  661TMC3    C2 9779   0.627   2.402  11.949  0.4079 -0.6122 -0.0237
  661TMC3    C3 9780   0.600   2.475  11.835  0.8215  0.0250  0.4155
  661TMC3    C4 9781   0.511   2.580  12.060  0.6298  0.6864 -0.1027
  661TMC3    C5 9782   0.474   2.638  11.943 -0.4638  0.3288  0.1886
  661TMC3    C6 9783   0.520   2.584  11.824  0.0188 -0.0222 -0.0147
  661TMC3     C 9784   0.554   2.395  12.182  0.1815 -0.1004  0.0500
  661TMC3     O 9785   0.572   2.453  12.290  1.0996  0.3529 -0.2499
  661TMC3     H 9786   0.699   2.321  11.951  1.9039  0.6848 -1.4410
  661TMC3    H1 9787   0.449   2.607  12.145 -0.0953 -0.0886 -0.3779
  661TMC3    H2 9788   0.491   2.627  11.729 -2.4156 -1.4667  0.0554
  661TMC3    C7 9789   0.362   2.723  11.941 -0.5810  0.2492  0.5915
  661TMC3    C8 9790   0.674   2.439  11.712  0.2756  0.0426  0.2099
  661TMC3    O1 9791   0.332   2.780  12.043 -0.6304  0.9728 -0.0068
  661TMC3    O2 9792   0.754   2.346  11.721  0.1311  0.2215  0.4055
  662MPD2     C 9793   0.542   2.155  16.968  0.1444  0.4108 -0.6057
  662MPD2    C1 9794   0.496   2.035  17.022  0.0530 -0.4014 -0.6041
  662MPD2    C2 9795   0.380   2.040  17.095 -0.3055  0.2216  0.1706
  662MPD2    C3 9796   0.302   2.153  17.101 -0.0395  0.7187  0.0716
  662MPD2    C4 9797   0.344   2.267  17.035  0.3528  0.1732 -0.1045
  662MPD2    C5 9798   0.466   2.269  16.974  0.7135 -0.0474 -0.0499
  662MPD2     H 9799   0.351   1.950  17.147  0.0923 -0.5997 -1.0253
  662MPD2    H1 9800   0.290   2.361  17.036  0.9378  0.5238 -0.9463
  662MPD2    H2 9801   0.631   2.147  16.906  0.5007  0.1034 -0.0461
  662MPD2    H3 9802   0.503   2.359  16.926 -0.8824  1.1534  1.0138
  662MPD2     N 9803   0.186   2.168  17.183  0.9005 -0.3556  0.2149
  662MPD2    H5 9804   0.156   2.265  17.184 -1.3017 -1.0363 -0.6036
  662MPD2    N1 9805   0.566   1.914  16.999 -0.3312  0.6356 -0.0788
  662MPD2    H7 9806   0.632   1.915  16.922 -0.0151 -0.0741  0.1750
  663TMC3    C1 9807   0.653   1.693  17.054 -0.0756 -0.7110 -0.2457
  663TMC3    C2 9808   0.671   1.596  17.148  0.2088 -0.3065 -0.5593
  663TMC3    C3 9809   0.738   1.479  17.109 -0.6273 -0.0892 -0.5243
  663TMC3    C4 9810   0.656   1.659  16.921  0.1847  1.2325  0.1675
  663TMC3    C5 9811   0.693   1.531  16.889  0.0726  0.0216  0.9462
  663TMC3    C6 9812   0.713   1.436  16.982 -0.0555  0.3901  0.2260
  663TMC3     C 9813   0.561   1.803  17.086  0.7187 -0.1259  0.5935
  663TMC3     O 9814   0.511   1.792  17.197  0.0187  0.2842  0.0001
  663TMC3     H 9815   0.699   1.641  17.242  2.4737 -1.9613 -0.4513
  663TMC3    H1 9816   0.635   1.740  16.852  0.3151 -0.4527 -1.8473
  663TMC3    H2 9817   0.772   1.352  16.949  1.0608  0.9050  0.8866
  663TMC3    C7 9818   0.635   1.484  16.763  0.4879 -0.0671  0.5976
  663TMC3    C8 9819   0.722   1.373  17.205  0.2507 -0.3062  0.3700
  663TMC3    O1 9820   0.576   1.574  16.702 -0.0421 -0.0803 -0.2103
  663TMC3    O2 9821   0.716   1.261  17.155  0.5212  0.1981  0.5165
  664MPD2     C 9822   3.598   0.576  17.325  0.9481 -0.1664  0.1670
  664MPD2    C1 9823   3.494   0.652  17.382 -0.1039 -0.3476 -0.6902
  664MPD2    C2 9824   3.502   0.678  17.516 -0.2971 -0.6486 -0.1970
  664MPD2    C3 9825   3.609   0.641  17.598  0.0465  0.1065  0.2620
  664MPD2    C4 9826   3.706   0.569  17.541  0.2776 -0.4779 -0.3221
  664MPD2    C5 9827   3.703   0.541  17.403  0.2076  0.1106 -0.6239
  664MPD2     H 9828   3.422   0.739  17.558  1.8501  1.8319  0.3386
  664MPD2    H1 9829   3.790   0.530  17.598 -0.7814 -1.8954  0.2890
  664MPD2    H2 9830   3.605   0.560  17.218  0.4922 -0.8854  0.2469
  664MPD2    H3 9831   3.784   0.477  17.368  1.4566  1.8357 -0.8896
  664MPD2     N 9832   3.623   0.689   0.059 -0.6521 -0.8708  0.5267
  664MPD2    H5 9833   3.551   0.750   0.097 -1.0967 -0.8410 -0.3417
  664MPD2    N1 9834   3.377   0.687  17.299 -0.5644  0.2056  0.2048
  664MPD2    H7 9835   3.310   0.751  17.342 -0.0323  1.2705 -0.5435
  665TMC3    C1 9836   3.709   0.693   0.275  0.2834 -0.4389 -0.6820
  665TMC3    C2 9837   3.755   0.623   0.383 -0.6076  0.6000 -0.0863
  665TMC3    C3 9838   3.806   0.683   0.494  1.1645  0.2145  1.0515
  665TMC3    C4 9839   3.701   0.827   0.286 -1.1546  0.0561  0.1566
  665TMC3    C5 9840   3.734   0.882   0.409 -0.5302 -0.3238 -0.0121
  665TMC3    C6 9841   3.794   0.815   0.511 -0.5447 -0.2755  0.4636
  665TMC3     C 9842   3.687   0.619   0.155 -0.7029  0.0296  0.4202
  665TMC3     O 9843   3.760   0.522   0.141 -0.3504  0.0164  0.0099
  665TMC3     H 9844   3.767   0.517   0.367  1.2739  0.5850  1.4563
  665TMC3    H1 9845   3.665   0.880   0.198 -1.7005 -0.9691 -0.2311
  665TMC3    H2 9846   3.826   0.866   0.602 -0.2893 -0.6123  0.5604
  665TMC3    C7 9847   3.658   1.009   0.431 -0.4922 -0.2419  0.1684
  665TMC3    C8 9848   3.834   0.603   0.609 -0.1544 -0.8750 -0.3639
  665TMC3    O1 9849   3.574   1.040   0.353 -0.7099 -0.4223  0.2923
  665TMC3    O2 9850   3.920   0.646   0.686  0.5595  0.2436  0.6307
  666TMC3    C1 9851   3.249   0.356   9.797 -0.1420 -0.1891  0.1150
  666TMC3    C2 9852   3.359   0.283   9.831 -0.4868  0.9349 -0.1272
  666TMC3    C3 9853   3.441   0.325   9.934 -0.4770  0.4495 -1.4727
  666TMC3    C4 9854   3.219   0.466   9.872 -0.2373 -0.6805 -0.2542
  666TMC3    C5 9855   3.311   0.514   9.957  0.0210 -0.2542 -0.0110
  666TMC3    C6 9856   3.423   0.447   9.989  0.5755 -0.6659  0.3788
  666TMC3     C 9857   3.127   0.296   9.730 -0.2221  0.0509 -0.0213
  666TMC3     O 9858   3.089   0.360   9.629  0.0696  0.2981  0.5184
  666TMC3     H 9859   3.370   0.194   9.772 -2.1716  1.2383 -0.9054
  666TMC3    H1 9860   3.125   0.512   9.844  0.1743  1.3213  1.6364
  666TMC3    H2 9861   3.472   0.485  10.077  1.6886 -1.1589 -0.0300
  666TMC3    C7 9862   3.274   0.613  10.054  0.4143  0.2329  0.8441
  666TMC3    C8 9863   3.502   0.221  10.016 -0.4956 -0.2873 -0.3423
  666TMC3    O1 9864   3.155   0.627  10.082  0.5130  0.2294  0.0397
  666TMC3    O2 9865   3.460   0.107   9.993 -0.6714  0.3855  0.1214
  667MPD2     C 9866   3.977   0.212  14.518  0.4013  0.3891  0.7848
  667MPD2    C1 9867   3.895   0.308  14.563 -0.0498  0.1013 -0.8320
  667MPD2    C2 9868   3.791   0.342  14.484  0.2220  0.3218 -0.1103
  667MPD2    C3 9869   3.772   0.283  14.363  0.4430  0.8770 -0.4181
  667MPD2    C4 9870   3.855   0.186  14.322  0.7129 -0.3160  0.0880
  667MPD2    C5 9871   3.963   0.151  14.396 -0.4655  0.2753  0.0232
  667MPD2     H 9872   3.718   0.416  14.515  0.3154 -0.0663  1.0170
  667MPD2    H1 9873   3.836   0.134  14.229  1.0881  0.1910 -0.2723
  667MPD2    H2 9874   4.056   0.178  14.584  0.3267 -2.1115 -0.3824
  667MPD2    H3 9875   4.039   0.080  14.364 -1.2340  0.4405 -2.1947
  667MPD2     N 9876   3.654   0.309  14.287 -0.1377  0.2654 -0.3362
  667MPD2    H5 9877   3.644   0.241  14.211 -0.6607  2.1059 -1.9204
  667MPD2    N1 9878   3.897   0.370  14.688 -0.1583  0.4873  0.1223
  667MPD2    H7 9879   3.821   0.431  14.717 -1.2483 -0.6744 -0.2364
  668TMC3    C1 9880   3.981   0.439  14.889 -0.2667  0.0112  1.2712
  668TMC3    C2 9881   4.073   0.543  14.905 -0.2067 -0.0906  0.5877
  668TMC3    C3 9882   4.059   0.619  15.018 -0.8860  0.3755  0.7070
  668TMC3    C4 9883   3.882   0.403  14.979  0.4850 -0.3751  0.3307
  668TMC3    C5 9884   3.876   0.481  15.091 -0.0708  0.1057 -0.8752
  668TMC3    C6 9885   3.959   0.581  15.115  0.3622  0.0925 -0.7018
  668TMC3     C 9886   3.996   0.356  14.780  0.1989 -0.3522  0.2181
  668TMC3     O 9887   4.109   0.310  14.764  0.2700 -0.0265  0.2082
  668TMC3     H 9888   4.138   0.577  14.825 -2.0198  1.1250 -0.3744
  668TMC3    H1 9889   3.824   0.313  14.968  1.5828 -1.3778  2.7581
  668TMC3    H2 9890   3.956   0.634  15.209  1.8418 -0.7725 -0.1712
  668TMC3    C7 9891   3.795   0.439  15.211  0.1403 -0.2901  0.1092
  668TMC3    C8 9892   4.176   0.665  15.081 -0.7016 -0.0803 -0.1093
  668TMC3    O1 9893   3.774   0.528  15.293 -0.2772  0.1858  0.0294
  668TMC3    O2 9894   4.192   0.636  15.199 -0.3093 -0.2794 -0.0632
  669TMC3    C1 9895   2.705   0.506  14.593 -0.3664 -0.1980 -0.3226
  669TMC3    C2 9896   2.576   0.483  14.565  0.1696 -0.0846 -0.1308
  669TMC3    C3 9897   2.528   0.531  14.445 -0.0051  0.2219 -0.7992
  669TMC3    C4 9898   2.787   0.567  14.498 -0.2951 -0.5358  0.0129
  669TMC3    C5 9899   2.750   0.589  14.371  0.5138  0.3996 -0.0169
  669TMC3    C6 9900   2.613   0.569  14.342 -0.3486 -1.5300  1.0023
  669TMC3     C 9901   2.757   0.421  14.700 -0.0531  0.5015  0.0017
  669TMC3     O 9902   2.685   0.412  14.796 -0.0937 -0.3670 -0.2611
  669TMC3     H 9903   2.507   0.442  14.637  0.2327 -0.1625 -0.1149
  669TMC3    H1 9904   2.890   0.582  14.526 -1.0855  2.0718  1.5511
  669TMC3    H2 9905   2.570   0.591  14.245  2.2387  0.8843  0.4113
  669TMC3    C7 9906   2.825   0.681  14.283  0.2263 -0.2620  0.8348
  669TMC3    C8 9907   2.388   0.500  14.410 -0.3001  0.5516  0.2828
  669TMC3    O1 9908   2.916   0.745  14.338 -0.2020 -0.5917 -0.3751
  669TMC3    O2 9909   2.366   0.435  14.311  0.5151 -0.2520 -0.3037
  670MPD2     C 9910   1.102   3.146  13.283  0.3971 -0.4376 -0.1031
  670MPD2    C1 9911   1.144   3.243  13.378 -0.4794  0.7130 -0.1484
  670MPD2    C2 9912   1.073   3.253  13.494  0.3679  0.3909  0.0444
  670MPD2    C3 9913   0.960   3.176  13.524 -0.1673 -0.5781 -0.1485
  670MPD2    C4 9914   0.916   3.088  13.429  0.5185 -0.4326 -0.3998
  670MPD2    C5 9915   0.990   3.072  13.311 -0.7931 -0.0161  0.3471
  670MPD2     H 9916   1.106   3.322  13.571 -1.3969  2.5153 -1.1146
  670MPD2    H1 9917   0.831   3.024  13.447  2.4057 -3.4155 -2.1900
  670MPD2    H2 9918   1.151   3.127  13.189  3.0904 -2.3018  1.6773
  670MPD2    H3 9919   0.953   2.998  13.241  0.8585 -0.9024  0.4119
  670MPD2     N 9920   0.898   3.192  13.651 -0.0318  0.2269 -0.5433
  670MPD2    H5 9921   0.946   3.243  13.724  1.6001 -0.7988 -0.8988
  670MPD2    N1 9922   1.263   3.325  13.367  0.5970 -0.2768 -0.3106
  670MPD2    H7 9923   1.274   3.387  13.447  0.6181  0.8331 -1.1650
  671TMC3    C1 9924   0.745   3.142  13.826 -0.2421 -0.8763 -0.2247
  671TMC3    C2 9925   0.842   3.150  13.916  0.6808 -0.5413  0.5976
  671TMC3    C3 9926   0.806   3.120  14.048  1.0316 -0.2353 -0.0954
  671TMC3    C4 9927   0.618   3.101  13.850  0.6454  0.1214  0.6155
  671TMC3    C5 9928   0.582   3.073  13.977  0.3189  0.2714 -0.7388
  671TMC3    C6 9929   0.675   3.084  14.077  0.2331  0.3702 -0.8452
  671TMC3     C 9930   0.779   3.133  13.681  0.2643  0.3863 -0.2258
  671TMC3     O 9931   0.683   3.123  13.605 -0.2285 -0.2130  0.5350
  671TMC3     H 9932   0.947   3.135  13.894  0.2932 -1.7769 -0.4178
  671TMC3    H1 9933   0.546   3.083  13.771  0.8636  0.6721  0.2881
  671TMC3    H2 9934   0.652   3.032  14.170 -1.9058  3.1957  0.2010
  671TMC3    C7 9935   0.471   2.972  13.985  0.1309  0.0302 -0.2283
  671TMC3    C8 9936   0.891   3.023  14.109  0.7444 -0.8568 -0.1315
  671TMC3    O1 9937   0.408   2.954  13.879  0.8527  0.8930 -0.1677
  671TMC3    O2 9938   0.935   2.929  14.045  0.2217 -0.0497 -0.6954
  672MPD2     C 9939   0.500   2.511   1.255 -0.1946  0.3347  0.1130
  672MPD2    C1 9940   0.531   2.612   1.167  0.4993  0.5707  0.0281
  672MPD2    C2 9941   0.571   2.729   1.217  0.4194 -0.3691  0.1972
  672MPD2    C3 9942   0.582   2.758   1.353 -0.1892 -0.7061  0.1515
  672MPD2    C4 9943   0.547   2.655   1.441 -0.4034  0.5294  0.1616
  672MPD2    C5 9944   0.498   2.540   1.393 -0.1497  0.6515 -0.1202
  672MPD2     H 9945   0.599   2.812   1.154  1.5362 -0.3086  0.7826
  672MPD2    H1 9946   0.562   2.662   1.548  3.6797 -0.5671 -0.3491
  672MPD2    H2 9947   0.467   2.412   1.225  1.1380 -0.1394  0.2261
  672MPD2    H3 9948   0.472   2.466   1.469 -0.7134  0.1832 -0.7647
  672MPD2     N 9949   0.638   2.874   1.405 -0.1942 -0.2205 -0.2813
  672MPD2    H5 9950   0.645   2.878   1.506 -0.5131 -0.7999 -0.2350
  672MPD2    N1 9951   0.546   2.605   1.025 -0.1048 -0.0856  0.4475
  672MPD2    H7 9952   0.593   2.679   0.975 -1.9578  0.5133 -0.4067
  673TMC3    C1 9953   0.547   2.511   0.817 -0.6399  0.0216  0.2631
  673TMC3    C2 9954   0.679   2.516   0.780 -0.5962 -0.2975 -0.0155
  673TMC3    C3 9955   0.703   2.564   0.649  0.5251  0.0944 -0.4969
  673TMC3    C4 9956   0.440   2.523   0.734 -0.2977  0.5362  0.0340
  673TMC3    C5 9957   0.469   2.567   0.609 -1.0065  0.0201  0.4169
  673TMC3    C6 9958   0.596   2.592   0.569 -0.1576 -0.2060 -0.4100
  673TMC3     C 9959   0.512   2.489   0.956 -0.1440  0.0575  0.1565
  673TMC3     O 9960   0.475   2.375   0.984 -0.2708 -0.0545  0.1036
  673TMC3     H 9961   0.760   2.489   0.847 -0.9020 -3.6176 -0.9694
  673TMC3    H1 9962   0.335   2.508   0.758  0.1064  1.2475  2.2287
  673TMC3    H2 9963   0.612   2.627   0.468  1.8237  0.5592  0.1688
  673TMC3    C7 9964   0.364   2.653   0.552 -1.2616  0.0550  0.3300
  673TMC3    C8 9965   0.833   2.561   0.583  0.7357 -0.4860 -0.0491
  673TMC3    O1 9966   0.253   2.601   0.554 -0.1390 -0.1101 -0.3346
  673TMC3    O2 9967   0.844   2.617   0.474 -0.4294 -0.2899 -0.0471
  674MPD2     C 9968   0.689   3.006  17.325 -0.4093  0.3302  0.2899
  674MPD2    C1 9969   0.649   2.891  17.391 -0.1171 -0.3379  0.4003
  674MPD2    C2 9970   0.571   2.900  17.505  0.0965  0.0790 -0.4559
  674MPD2    C3 9971   0.528   3.025  17.546  1.4220 -0.5609  0.0085
  674MPD2    C4 9972   0.563   3.139  17.472  0.2196  0.0481  1.1018
  674MPD2    C5 9973   0.644   3.130  17.368 -0.4109 -0.9465 -1.1030
  674MPD2     H 9974   0.542   2.809  17.556 -2.0187  0.6537 -0.6258
  674MPD2    H1 9975   0.524   3.234  17.506 -0.4876  0.4490 -0.8047
  674MPD2    H2 9976   0.741   3.002  17.230 -1.2345 -0.4564 -0.1273
  674MPD2    H3 9977   0.680   3.222  17.324  0.5807 -0.2964  1.0570
  674MPD2     N 9978   0.435   3.025  17.654  0.2007 -0.4078 -0.5455
  674MPD2    H5 9979   0.412   2.931   0.009  2.2697 -0.6663  0.1704
  674MPD2    N1 9980   0.685   2.758  17.355 -0.5631 -0.7353  0.1806
  674MPD2    H7 9981   0.656   2.673  17.403  0.0350 -0.6375  0.7041
  675TMC3    C1 9982   0.825   2.600  17.282  0.0901  0.2625 -0.1889
  675TMC3    C2 9983   0.736   2.499  17.298 -0.3179  0.3602  0.3124
  675TMC3    C3 9984   0.752   2.400  17.384 -0.2288 -0.4317 -0.0964
  675TMC3    C4 9985   0.943   2.602  17.347 -0.6586 -0.7575  0.1721
  675TMC3    C5 9986   0.958   2.488  17.425  0.1666  0.2153  0.2482
  675TMC3    C6 9987   0.869   2.389  17.455  0.5331 -0.5808  0.2000
  675TMC3     C 9988   0.773   2.730  17.257  0.1747 -0.3062  0.0648
  675TMC3     O 9989   0.845   2.802  17.188  0.2638  0.3674 -0.1066
  675TMC3     H 9990   0.634   2.510  17.262  0.6540 -0.2825 -2.6629
  675TMC3    H1 9991   1.022   2.671  17.320  0.2797 -1.2422  1.7149
  675TMC3    H2 9992   0.893   2.314  17.529  0.8962 -1.8388 -1.1812
  675TMC3    C7 9993   1.062   2.503  17.520 -0.3420 -0.0702 -0.2843
  675TMC3    C8 9994   0.638   2.308  17.402 -0.2154  0.1529  0.2225
  675TMC3    O1 9995   1.106   2.401  17.575 -0.2594  0.7132 -0.5039
  675TMC3    O2 9996   0.559   2.302  17.313  0.0086  0.1361 -0.3533
  676MPD2     C 9997   3.540   1.201  11.113  0.1738 -0.5273 -0.2666
  676MPD2    C1 9998   3.415   1.189  11.165  0.5829  0.3737 -0.2739
  676MPD2    C2 9999   3.361   1.058  11.168  0.6931  0.8103  0.4095
  676MPD2    C310000   3.431   0.950  11.118  0.5532 -0.1649 -0.5745
  676MPD2    C410001   3.562   0.967  11.073 -0.1820 -0.5660  0.2889
  676MPD2    C510002   3.618   1.092  11.063  0.6387  0.0272  0.1730
  676MPD2     H10003   3.266   1.036  11.216  0.4444 -1.6917 -1.2056
  676MPD2    H110004   3.630   0.888  11.044 -2.5985 -2.9655  1.1534
  676MPD2    H210005   3.594   1.294  11.103 -0.2954 -0.3741 -1.4676
  676MPD2    H310006   3.719   1.105  11.026  0.0487  1.6492 -0.8735
  676MPD2     N10007   3.386   0.811  11.129  0.3241  0.7127  0.2280
  676MPD2    H510008   3.451   0.739  11.100  0.5285  0.9684  0.0576
  676MPD2    N110009   3.343   1.292  11.225 -1.1070  0.0839  0.6148
  676MPD2    H710010   3.248   1.277  11.257 -1.8373  0.1639 -1.4908
  677TMC3    C110011   3.273   1.510  11.269  0.5842  0.7319  0.7314
  677TMC3    C210012   3.141   1.468  11.266 -0.7034 -0.6462 -0.3633
  677TMC3    C310013   3.048   1.556  11.308  0.2521  0.4923 -0.1011
  677TMC3    C410014   3.307   1.635  11.320  0.2280 -0.0577 -0.7934
  677TMC3    C510015   3.209   1.725  11.361  0.0286  0.0677  0.3274
  677TMC3    C610016   3.074   1.682  11.356 -0.1099 -0.4992  0.2481
  677TMC3     C10017   3.381   1.422  11.228 -0.2166 -0.3068  0.4111
  677TMC3     O10018   3.491   1.471  11.214  0.2354 -0.1146  0.2885
  677TMC3     H10019   3.107   1.370  11.234  0.9788 -1.1379 -0.6438
  677TMC3    H110020   3.412   1.654  11.338  0.1922 -1.0356  0.4642
  677TMC3    H210021   2.990   1.737  11.397 -1.1215  0.0992 -2.6058
  677TMC3    C710022   3.241   1.800  11.482  0.2777  0.9310 -0.1159
  677TMC3    C810023   2.917   1.491  11.325  0.5799 -1.3188 -0.3276
  677TMC3    O110024   3.145   1.826  11.552  0.2720 -0.0381 -0.1990
  677TMC3    O210025   2.864   1.436  11.234 -0.2760 -0.0272 -0.2016
  678MPD2     C10026   4.532   1.220   1.488 -0.0099 -0.0998 -0.3276
  678MPD2    C110027   4.546   1.206   1.347 -0.7361  0.0244 -0.4114
  678MPD2    C210028   4.477   1.291   1.269 -0.6139  0.3132  0.0067
  678MPD2    C310029   4.405   1.396   1.318 -0.4524  0.4961  0.2858
  678MPD2    C410030   4.406   1.426   1.456 -0.2426 -0.0462 -0.0262
  678MPD2    C510031   4.474   1.338   1.535 -0.3692 -0.0724 -0.2631
  678MPD2     H10032   4.478   1.268   1.163  1.3633 -1.3981  0.3824
  678MPD2    H110033   4.361   1.513   1.502  2.9903  2.7620 -2.1991
  678MPD2    H210034   4.581   1.157   1.561  1.6112 -0.0473 -1.3900
  678MPD2    H310035   4.479   1.350   1.642  1.7425 -2.2732 -0.1210
  678MPD2     N10036   4.332   1.473   1.222  0.6662  0.1791 -0.3648
  678MPD2    H510037   4.307   1.427   1.135 -0.0333 -2.1287  1.0360
  678MPD2    N110038   4.606   1.091   1.285 -0.0962  0.0063 -0.4604
  678MPD2    H710039   4.587   1.092   1.186  3.9984 -1.7275 -1.2804
  679TMC3    C110040   0.169   0.731   1.207  0.1160  0.0925 -0.2179
  679TMC3    C210041   0.082   0.801   1.287  0.0466  0.3401  0.3896
  679TMC3    C310042   0.041   0.924   1.244  0.0515  0.4184 -0.3829
  679TMC3    C410043   0.216   0.784   1.093 -0.5367  0.5895  0.0892
  679TMC3    C510044   0.152   0.896   1.044 -0.0570 -0.9185  0.3908
  679TMC3    C610045   0.056   0.967   1.120 -0.1940  0.0974 -0.0613
  679TMC3     C10046   0.241   0.618   1.261 -0.0339 -0.0427 -0.5356
  679TMC3     O10047   0.339   0.573   1.203 -0.0780  0.2655  0.2225
  679TMC3     H10048   0.060   0.764   1.387 -1.5534  1.4889  0.4648
  679TMC3    H110049   0.293   0.734   1.035 -1.5555  0.3162 -1.0134
  679TMC3    H210050   0.010   1.062   1.094 -0.6596  0.0240  0.5116
  679TMC3    C710051   0.206   0.983   0.943  0.3610 -0.2781  0.1266
  679TMC3    C810052   4.690   1.005   1.346  0.6478  0.1734  0.3726
  679TMC3    O110053   0.142   1.084   0.926  0.5442  0.1956  0.0279
  679TMC3    O210054   0.005   0.988   1.463 -0.0174  0.3943  0.0231
  680MPD2     C10055   0.353   0.450  13.449  0.5451  0.4346  0.4703
  680MPD2    C110056   0.473   0.391  13.487  0.4227 -0.8912 -0.4388
  680MPD2    C210057   0.590   0.466  13.499  0.2072  0.2277 -0.0426
  680MPD2    C310058   0.586   0.601  13.492  0.0793  0.4541 -0.0620
  680MPD2    C410059   0.461   0.663  13.462  0.3210  0.2301 -0.4880
  680MPD2    C510060   0.352   0.591  13.440 -0.1642  0.3881  0.7010
  680MPD2     H10061   0.677   0.406  13.521 -0.7224 -0.6257  1.3508
  680MPD2    H110062   0.452   0.770  13.452  2.2441  0.2166 -2.5091
  680MPD2    H210063   0.261   0.398  13.428  0.8822 -0.4628  1.2367
  680MPD2    H310064   0.260   0.641  13.413  0.6509  0.7777 -1.3908
  680MPD2     N10065   0.706   0.676  13.516  0.1368  0.5264  0.3847
  680MPD2    H510066   0.776   0.621  13.564 -0.4529 -0.1669  0.4583
  680MPD2    N110067   0.484   0.259  13.517 -0.7124  0.7994  0.1131
  680MPD2    H710068   0.575   0.222  13.543 -0.5611  1.2451  0.2190
  681TMC3    C110069   0.423   0.042  13.581 -0.5556  0.0209 -0.5595
  681TMC3    C210070   0.336   4.684  13.652 -0.2910  0.0755 -0.2602
  681TMC3    C310071   0.370   4.555  13.697 -0.0545  0.3792  0.3105
  681TMC3    C410072   0.542   4.706  13.534 -0.3442  0.4717 -0.6392
  681TMC3    C510073   0.574   4.577  13.582 -0.3214 -0.0818 -0.4232
  681TMC3    C610074   0.492   4.509  13.667  0.1909  0.0192  0.3320
  681TMC3     C10075   0.378   0.176  13.546  0.0463  0.2192 -0.0636
  681TMC3     O10076   0.258   0.193  13.524  0.3327 -0.3616  0.1646
  681TMC3     H10077   0.245   0.008  13.693 -0.0222 -0.7199  1.1610
  681TMC3    H110078   0.608   0.043  13.469  1.1577  0.1541  0.6218
  681TMC3    H210079   0.529   4.415  13.705 -0.9068  0.5290  2.6510
  681TMC3    C710080   0.709   4.540  13.572 -0.5169 -0.7756 -0.0016
  681TMC3    C810081   0.335   4.510  13.834  0.1911 -0.1841  0.2997
  681TMC3    O110082   0.731   4.425  13.618 -0.1896 -0.3698 -0.6083
  681TMC3    O210083   0.340   4.388  13.854  0.2181  0.0398 -0.3383
  682MPD2     C10084   2.413   1.550  10.473 -0.5528  0.0182  0.3012
  682MPD2    C110085   2.444   1.431  10.537 -0.5213  0.1370  0.0605
  682MPD2    C210086   2.390   1.408  10.658 -0.5891 -0.2166  0.4781
  682MPD2    C310087   2.315   1.507  10.733  0.3965 -0.1065  0.2353
  682MPD2    C410088   2.290   1.625  10.676  1.0424  0.3051 -0.0105
  682MPD2    C510089   2.339   1.645  10.544 -0.2287  0.1879  0.0518
  682MPD2     H10090   2.412   1.308  10.693  0.0236  0.4395  1.9716
  682MPD2    H110091   2.229   1.704  10.719 -0.5621 -1.3041  0.6846
  682MPD2    H210092   2.452   1.583  10.378  0.5546  0.1879  0.8045
  682MPD2    H310093   2.328   1.737  10.489  1.7123  0.0534 -0.5667
  682MPD2     N10094   2.260   1.476  10.863  0.2515 -0.2081  0.1995
  682MPD2    H510095   2.201   1.547  10.905  0.8488  0.1243  0.4783
  682MPD2    N110096   2.528   1.333  10.481 -0.0879  0.5697  0.2074
  682MPD2    H710097   2.539   1.246  10.531 -1.0872  0.7825  0.8102
  683TMC3    C110098   2.128   1.425  11.259  0.5114 -0.5787  0.5340
  683TMC3    C210099   2.128   1.298  11.314  0.2995  0.0506  0.5559
  683TMC3    C310100   2.142   1.193  11.230  0.2788  0.1902  0.6763
  683TMC3    C410101   2.174   1.454  11.133  0.4144  0.2911 -0.6081
  683TMC3    C510102   2.203   1.343  11.056  0.1262 -0.1910  0.2964
  683TMC3    C610103   2.184   1.213  11.098  0.2825  0.7300 -0.7618
  683TMC3     C10104   2.085   1.535  11.348  0.5332 -0.3865 -0.8523
  683TMC3     O10105   2.139   1.647  11.333 -0.3690 -0.4251 -0.0166
  683TMC3     H10106   2.109   1.285  11.419 -0.6387 -1.2514  0.2240
  683TMC3    H110107   2.199   1.554  11.099  2.1847  0.8978  2.4042
  683TMC3    H210108   2.192   1.126  11.034  3.1032  0.7761 -0.4480
  683TMC3    C710109   2.269   1.353  10.924 -0.8558 -0.9462  0.0782
  683TMC3    C810110   2.166   1.059  11.272 -0.0279 -0.6326  0.0981
  683TMC3    O110111   2.323   1.248  10.886  0.0957  0.5303  0.9121
  683TMC3    O210112   2.190   0.972  11.190  0.0484  0.1610  0.1428
  684MPD2     C10113   0.921   0.404  16.401  0.2415 -0.2605 -0.5123
  684MPD2    C110114   0.843   0.445  16.297 -0.5111  0.2842  0.6493
  684MPD2    C210115   0.767   0.563  16.301 -0.1918 -0.3179  0.2196
  684MPD2    C310116   0.788   0.639  16.413 -0.5390 -0.1086  0.3158
  684MPD2    C410117   0.851   0.590  16.526 -0.1839  0.1729 -0.0511
  684MPD2    C510118   0.917   0.469  16.523 -0.1410 -0.3252 -0.6021
  684MPD2     H10119   0.703   0.591  16.217  0.5690  1.2375  0.1509
  684MPD2    H110120   0.829   0.641  16.620  1.1225 -2.5989  1.7734
  684MPD2    H210121   0.985   0.318  16.390  1.1204 -0.0748  2.9570
  684MPD2    H310122   0.950   0.431  16.619  0.2813  0.6467 -0.3701
  684MPD2     N10123   0.746   0.774  16.423 -0.1367 -0.6041  0.2521
  684MPD2    H510124   0.793   0.829  16.495  0.3810  1.6145 -1.8052
  684MPD2    N110125   0.861   0.375  16.177 -0.0936  0.9653  0.0754
  684MPD2    H710126   0.937   0.308  16.172 -0.6812  0.3393 -0.3778
  685TMC3    C110127   0.853   0.354  15.936 -0.4175  0.0456  0.1061
  685TMC3    C210128   0.773   0.401  15.830  0.1684  0.3156 -0.1086
  685TMC3    C310129   0.819   0.497  15.746  0.1859 -0.6900  0.1155
  685TMC3    C410130   0.985   0.393  15.937  0.1574  0.0665  0.3108
  685TMC3    C510131   1.036   0.479  15.845  0.1837  1.2275  0.3710
  685TMC3    C610132   0.945   0.543  15.753 -0.3154 -0.4235  0.4904
  685TMC3     C10133   0.788   0.394  16.063  0.2562  0.1402  0.1188
  685TMC3     O10134   0.668   0.436  16.048  0.6814 -0.3652  0.5114
  685TMC3     H10135   0.667   0.378  15.832  0.4061 -0.9496 -1.7664
  685TMC3    H110136   1.050   0.366  16.020 -1.3402 -0.4347  1.3229
  685TMC3    H210137   0.985   0.624  15.693 -0.7727 -0.1576  0.5415
  685TMC3    C710138   1.169   0.527  15.877 -0.5325  0.2198  0.8355
  685TMC3    C810139   0.712   0.596  15.699  0.5807  0.0388  0.1006
  685TMC3    O110140   1.237   0.442  15.931 -0.3996 -0.4995  0.3180
  685TMC3    O210141   0.741   0.673  15.608 -0.1325 -0.8582  0.8698
  686MPD2     C10142   2.169   0.584  15.522  0.0211  0.0607  0.2856
  686MPD2    C110143   2.172   0.525  15.647 -0.1460  0.3497 -0.3671
  686MPD2    C210144   2.243   0.401  15.658 -0.1313  0.2110  0.8386
  686MPD2    C310145   2.294   0.341  15.541 -0.5865 -0.5532  0.5091
  686MPD2    C410146   2.295   0.413  15.421 -0.1594  0.0213  0.2246
  686MPD2    C510147   2.226   0.532  15.413 -0.3953 -0.3103  0.0978
  686MPD2     H10148   2.267   0.362  15.756  1.3309 -1.2981 -0.1294
  686MPD2    H110149   2.325   0.388  15.320 -1.3452  1.1565 -0.4076
  686MPD2    H210150   2.126   0.683  15.514  0.4074  0.2920  1.0456
  686MPD2    H310151   2.233   0.575  15.314  1.3449 -1.5218 -0.3097
  686MPD2     N10152   2.338   0.205  15.537 -0.3867  0.6582  0.1093
  686MPD2    H510153   2.359   0.164  15.447 -0.7575 -0.2090  0.4143
  686MPD2    N110154   2.118   0.590  15.754 -0.0626  0.6390 -0.4909
  686MPD2    H710155   2.055   0.667  15.732  0.0058  1.2499  1.4520
  687TMC3    C110156   2.248   0.122  15.750  0.0675  0.0351 -0.8276
  687TMC3    C210157   2.118   0.148  15.741  0.6166  0.2186 -0.3681
  687TMC3    C310158   2.043   0.142  15.859 -0.0459  0.4888 -0.2826
  687TMC3    C410159   2.311   0.084  15.867  0.3801  0.7114 -0.1832
  687TMC3    C510160   2.241   0.102  15.981  0.1347  0.2783 -0.1775
  687TMC3    C610161   2.112   0.139  15.980 -0.0623 -0.1406 -0.0648
  687TMC3     C10162   2.333   0.109  15.635  0.5442 -0.2407  0.0903
  687TMC3     O10163   2.404   0.012  15.633 -0.1010 -0.0497 -0.2158
  687TMC3     H10164   2.064   0.159  15.647 -1.7628 -1.0220  0.8310
  687TMC3    H110165   2.419   0.096  15.871  0.5530 -0.2149 -1.9152
  687TMC3    H210166   2.065   0.143  16.078 -2.8301 -2.7166 -1.2953
  687TMC3    C710167   2.323   0.147  16.088  0.3084 -0.1361  0.4865
  687TMC3    C810168   1.914   0.196  15.865  0.0985  0.0091  0.2447
  687TMC3    O110169   2.436   0.102  16.100  0.7115 -0.0957 -0.8655
  687TMC3    O210170   1.857   0.191  15.974  0.3305  0.0562  0.1991
  688MPD2     C10171   1.317   4.275  17.565  0.6310 -0.1898 -0.6909
  688MPD2    C110172   1.275   4.147  17.516 -0.5012  0.2002 -0.0315
  688MPD2    C210173   1.352   4.087  17.414 -0.0631  0.8399 -0.5960
  688MPD2    C310174   1.472   4.147  17.370  0.3333 -0.6797  0.5276
  688MPD2    C410175   1.499   4.272  17.414  0.4034 -0.4060  1.5141
  688MPD2    C510176   1.430   4.330  17.514  0.1741  0.2516  0.1434
  688MPD2     H10177   1.335   3.985  17.384 -2.2466  1.4528 -1.4295
  688MPD2    H110178   1.584   4.324  17.370 -0.5649 -0.6095 -0.5650
  688MPD2    H210179   1.270   4.320  17.652  1.7573 -1.3125  0.4914
  688MPD2    H310180   1.459   4.433  17.537 -0.7300  0.6903 -0.6908
  688MPD2     N10181   1.552   4.099  17.267  0.0673  0.1433  0.6644
  688MPD2    H510182   1.613   4.166  17.222 -1.6422  2.0364  1.1709
  688MPD2    N110183   1.166   4.073  17.570  0.8066  0.3713  0.3659
  688MPD2    H710184   1.169   3.979  17.533 -0.5162  0.1974  0.7021
  689TMC3    C110185   0.973   4.022   0.037 -0.7411 -0.1411 -0.2009
  689TMC3    C210186   0.889   4.067   0.135  0.4053 -0.3527 -0.1510
  689TMC3    C310187   0.830   3.979   0.216 -0.8255  0.0592  0.6415
  689TMC3    C410188   0.980   3.885   0.006  1.1541 -0.7071  0.0037
  689TMC3    C510189   0.926   3.800   0.097 -0.4488 -0.4886 -0.4214
  689TMC3    C610190   0.850   3.842   0.201 -0.4128  0.1198  0.0100
  689TMC3     C10191   1.067   4.123  17.651 -0.2178  0.3230 -0.2852
  689TMC3     O10192   1.053   4.241   0.009  0.1855  0.2805 -0.2762
  689TMC3     H10193   0.872   4.173   0.147 -0.3700 -0.6916  1.8088
  689TMC3    H110194   1.037   3.861  17.592  1.2198  0.2560 -0.2129
  689TMC3    H210195   0.811   3.774   0.275  1.8568  1.1564  2.1798
  689TMC3    C710196   0.928   3.664   0.074  0.0843  0.6017  0.5716
  689TMC3    C810197   0.768   4.026   0.346 -0.3340  0.1847  0.3400
  689TMC3    O110198   0.939   3.593   0.173 -0.5507  0.5641 -0.2100
  689TMC3    O210199   0.803   3.969   0.448 -0.0384  0.8602 -0.3425
  690MPD2     C10200   3.139   1.716  15.434  0.0152 -0.2171 -0.3208
  690MPD2    C110201   3.228   1.612  15.442  0.1315 -0.0458 -0.7499
  690MPD2    C210202   3.354   1.618  15.384  0.2954 -0.8285 -0.0282
  690MPD2    C310203   3.392   1.728  15.310  0.0202  0.3996 -0.2933
  690MPD2    C410204   3.305   1.833  15.295 -0.5865 -0.2782 -0.1294
  690MPD2    C510205   3.180   1.821  15.350  0.3373 -0.4690  0.0203
  690MPD2     H10206   3.417   1.529  15.377  0.5116 -0.5606 -1.3792
  690MPD2    H110207   3.330   1.914  15.228 -1.4908 -1.1772 -1.5462
  690MPD2    H210208   3.043   1.717  15.485  0.1887 -2.4613  0.0639
  690MPD2    H310209   3.114   1.907  15.347 -1.8023 -2.1488 -0.8623
  690MPD2     N10210   3.519   1.721  15.251 -0.4710  0.0550  0.5525
  690MPD2    H510211   3.537   1.806  15.199 -0.9021 -0.5090 -0.5202
  690MPD2    N110212   3.201   1.493  15.516 -0.2306  0.2969 -0.4198
  690MPD2    H710213   3.276   1.424  15.521  0.7884  1.4989  0.9721
  691TMC3    C110214   3.096   1.322  15.637  0.7655 -0.1628 -0.0513
  691TMC3    C210215   2.987   1.296  15.722  0.5159 -0.3214  0.0270
  691TMC3    C310216   2.953   1.167  15.747 -0.1454 -0.0858  0.1781
  691TMC3    C410217   3.176   1.218  15.589  0.1393  0.6178  0.3143
  691TMC3    C510218   3.142   1.094  15.630  0.2474 -0.0441  0.6537
  691TMC3    C610219   3.038   1.066  15.713  0.0020 -0.2745 -0.1579
  691TMC3     C10220   3.080   1.448  15.564  0.0283 -0.4289  0.2821
  691TMC3     O10221   2.968   1.495  15.560 -0.5712  0.2082 -0.4019
  691TMC3     H10222   2.937   1.381  15.766  0.5948 -0.3867  0.2402
  691TMC3    H110223   3.266   1.230  15.529  0.7536  1.0413  1.3234
  691TMC3    H210224   3.024   0.972  15.763  0.6319  0.4340  1.3397
  691TMC3    C710225   3.223   0.981  15.579 -1.1579  0.3416  0.2239
  691TMC3    C810226   2.824   1.129  15.803  0.0756  0.0815  0.7576
  691TMC3    O110227   3.343   1.000  15.560  0.3508 -0.5201  0.6735
  691TMC3    O210228   2.797   1.007  15.815 -0.4369  0.0996 -0.8040
  692TMC3    C110229   0.269   2.006  15.665  0.0815 -0.1598 -0.0970
  692TMC3    C210230   0.383   2.064  15.695 -0.6439 -0.1486 -0.0216
  692TMC3    C310231   0.485   1.974  15.726 -0.9499  0.1315 -0.6276
  692TMC3    C410232   0.235   1.880  15.691  0.6143 -0.1306  0.1487
  692TMC3    C510233   0.341   1.800  15.714  0.2680 -0.3504 -0.5163
  692TMC3    C610234   0.469   1.840  15.729 -1.1579  0.1105  0.2066
  692TMC3     C10235   0.156   2.095  15.685 -0.0765  0.5330  0.3023
  692TMC3     O10236   0.180   2.207  15.737 -0.0035  0.1647  0.1238
  692TMC3     H10237   0.390   2.167  15.662 -1.6623 -0.5773 -1.6043
  692TMC3    H110238   0.140   1.828  15.686 -1.0439  2.7154  1.6778
  692TMC3    H210239   0.548   1.778  15.771 -0.2240  0.5945 -0.8562
  692TMC3    C710240   0.313   1.655  15.707 -0.2458  0.1364  0.5322
  692TMC3    C810241   0.554   2.024  15.842 -0.6308  0.3590  0.0696
  692TMC3    O110242   0.208   1.615  15.656  0.7405  0.0640 -0.4132
  692TMC3    O210243   0.636   1.949  15.896  0.0798 -0.0159 -0.0946
  693MPD2     C10244   4.214   0.573  10.682  0.0984  0.3867 -1.0632
  693MPD2    C110245   4.241   0.451  10.625 -0.8154 -0.5437 -0.1025
  693MPD2    C210246   4.370   0.416  10.591  0.4815  0.1724  0.1678
  693MPD2    C310247   4.467   0.511  10.607 -0.0338 -0.2929  0.9095
  693MPD2    C410248   4.433   0.634  10.656 -0.7892  0.3946  0.2628
  693MPD2    C510249   4.307   0.675  10.692 -0.2310 -0.0455  0.6962
  693MPD2     H10250   4.388   0.312  10.567  3.6544  0.7482  0.0750
  693MPD2    H110251   4.505   0.715  10.661  0.5824 -0.7038 -1.6341
  693MPD2    H210252   4.110   0.600  10.697  0.1408  0.0422 -0.1009
  693MPD2    H310253   4.280   0.774  10.726  1.7934  0.4889  0.7529
  693MPD2     N10254   4.605   0.485  10.596  0.3265 -0.7731  0.1207
  693MPD2    H510255   4.671   0.554  10.630 -0.3174 -0.8184  1.4517
  693MPD2    N110256   4.139   0.349  10.629  0.2720  0.6062  0.2702
  693MPD2    H710257   4.044   0.362  10.662  0.9061  1.6873  1.6835
  694TMC3    C110258   4.044   0.137  10.622 -0.5230 -0.2806 -0.1069
  694TMC3    C210259   4.020   0.017  10.549  0.5183  0.1568 -0.0538
  694TMC3    C310260   3.970   4.629  10.619 -0.6965  0.1266 -0.5052
  694TMC3    C410261   4.017   0.133  10.757  0.0587  0.6500 -0.4949
  694TMC3    C510262   3.986   0.017  10.824  1.0800  0.6105 -0.1774
  694TMC3    C610263   3.953   4.626  10.756  0.1706  0.5995 -0.3966
  694TMC3     C10264   4.146   0.222  10.575 -0.1197 -0.5289  0.7988
  694TMC3     O10265   4.224   0.179  10.494  0.1354  0.1843  0.6014
  694TMC3     H10266   4.044   0.018  10.443 -0.8615  0.4484 -0.3583
  694TMC3    H110267   4.029   0.226  10.812 -1.4342  1.1130 -0.9635
  694TMC3    H210268   3.926   4.528  10.795  0.3428  0.8593  0.3685
  694TMC3    C710269   3.975   0.026  10.971  0.5396 -0.3610  0.0898
  694TMC3    C810270   3.939   4.499  10.545 -0.2933 -0.0614  0.4766
  694TMC3    O110271   3.939   0.129  11.023  0.3071  0.3084  0.2936
  694TMC3    O210272   3.870   4.419  10.602 -0.1176  0.2028 -0.3584
  695MPD2     C10273   0.731   2.045  13.883  0.1711  0.4578 -0.0160
  695MPD2    C110274   0.728   2.174  13.927 -0.3699 -0.4320 -0.6899
  695MPD2    C210275   0.644   2.256  13.853  0.6714 -0.2208  0.1742
  695MPD2    C310276   0.567   2.215  13.750  0.0350 -0.1347  0.2116
  695MPD2    C410277   0.575   2.086  13.708  0.4681 -0.5910  1.0074
  695MPD2    C510278   0.648   1.998  13.786  0.0493  0.2361 -0.1820
  695MPD2     H10279   0.623   2.357  13.888 -0.1927 -0.3459  0.0080
  695MPD2    H110280   0.516   2.034  13.633  1.0328 -0.2618  0.3284
  695MPD2    H210281   0.797   1.976  13.934 -0.4310 -0.2521 -0.2029
  695MPD2    H310282   0.643   1.893  13.760 -2.8929  0.0436  1.1354
  695MPD2     N10283   0.455   2.295  13.709 -0.0984  0.1244 -0.1128
  695MPD2    H510284   0.445   2.384  13.757 -0.4987 -1.1869  2.2663
  695MPD2    N110285   0.814   2.229  14.028 -0.2135  0.4429  0.0731
  695MPD2    H710286   0.825   2.329  14.038  0.9705  0.3256  0.0177
  696TMC3    C110287   0.254   2.341  13.606 -0.3168  0.0143  0.5245
  696TMC3    C210288   0.199   2.374  13.729  0.4032 -0.0168  0.3562
  696TMC3    C310289   0.099   2.472  13.738 -0.5766  0.0372 -1.0499
  696TMC3    C410290   0.208   2.384  13.487  0.3535  0.5517  0.1181
  696TMC3    C510291   0.116   2.490  13.498  0.4423  0.3233  0.0711
  696TMC3    C610292   0.055   2.527  13.619  0.1759  0.4696  0.3052
  696TMC3     C10293   0.375   2.259  13.609 -0.3105  0.7746  0.0351
  696TMC3     O10294   0.389   2.181  13.513 -0.2179  0.8699 -0.3042
  696TMC3     H10295   0.239   2.340  13.824 -0.7404  0.4931  1.0169
  696TMC3    H110296   0.256   2.375  13.390 -2.2059  0.1717 -1.1188
  696TMC3    H210297   4.698   2.602  13.637  0.7811  0.8749  1.1402
  696TMC3    C710298   0.175   2.612  13.439  0.4823  0.1403 -0.3832
  696TMC3    C810299   0.119   2.579  13.834  0.7538 -0.4609  0.2170
  696TMC3    O110300   0.228   2.606  13.326 -0.0929  0.5005 -0.3854
  696TMC3    O210301   0.115   2.689  13.790  0.3658 -0.5905 -0.0463
  697MPD2     C10302   0.501   4.394  15.515 -0.6905 -0.2184 -0.6341
  697MPD2    C110303   0.405   4.363  15.422  0.6682 -0.6121 -0.4567
  697MPD2    C210304   0.353   4.455  15.335 -0.3897  0.1825 -0.2390
  697MPD2    C310305   0.387   4.586  15.342 -0.2779  0.6631  0.4664
  697MPD2    C410306   0.474   4.623  15.436 -0.0928  0.9118  0.5092
  697MPD2    C510307   0.532   4.529  15.522  0.1963  0.7818  0.0418
  697MPD2     H10308   0.281   4.425  15.260  0.3897 -0.3974 -0.7408
  697MPD2    H110309   0.503   0.009  15.447  1.3635  0.5365  0.3220
  697MPD2    H210310   0.533   4.318  15.585 -1.8831  0.9011  1.1017
  697MPD2    H310311   0.613   4.556  15.588  1.8765  0.5481 -1.9144
  697MPD2     N10312   0.336   4.667  15.241  0.3097 -0.4556 -0.6712
  697MPD2    H510313   0.265   4.624  15.183 -0.8615  3.7760 -2.3340
  697MPD2    N110314   0.360   4.229  15.400 -0.4747 -0.2815 -0.2774
  697MPD2    H710315   0.341   4.198  15.305  1.2970  0.9446 -1.0346
  698TMC3    C110316   0.288   0.126  15.097  0.4848  0.3792 -0.6494
  698TMC3    C210317   0.314   0.256  15.061  0.2634 -1.0144 -0.3971
  698TMC3    C310318   0.220   0.306  14.972 -0.8040  0.1351 -0.6849
  698TMC3    C410319   0.202   0.043  15.029  0.0973 -0.6248 -0.3183
  698TMC3    C510320   0.105   0.104  14.945 -0.2396 -0.3391  0.3409
  698TMC3    C610321   0.118   0.235  14.914  0.0284  0.2098  0.4033
  698TMC3     C10322   0.379   0.075  15.193 -0.4762 -0.4644  0.0438
  698TMC3     O10323   0.473   0.141  15.233 -0.1851 -0.1355  0.0256
  698TMC3     H10324   0.390   0.315  15.111 -0.6012 -0.6954  0.5550
  698TMC3    H110325   0.220   4.655  15.029  1.2059 -0.4418  1.3651
  698TMC3    H210326   0.032   0.291  14.880  0.2809  1.5908  2.0456
  698TMC3    C710327   0.020   0.015  14.863 -0.6072 -0.0619  0.1668
  698TMC3    C810328   0.265   0.423  14.891  0.3447  0.4799 -0.2928
  698TMC3    O110329   4.677   0.059  14.766 -0.1486 -0.3189  0.3284
  698TMC3    O210330   0.177   0.466  14.823 -0.0416  0.3832 -0.5605
  699TMC3    C110331   0.380   2.243  12.794 -0.1364 -0.0182  0.7243
  699TMC3    C210332   0.406   2.122  12.858 -0.5151  0.0227  0.0267
  699TMC3    C310333   0.371   2.120  12.994  0.4102  0.2005  0.5092
  699TMC3    C410334   0.308   2.341  12.870  0.4048  0.3710  0.1491
  699TMC3    C510335   0.283   2.331  13.002  0.0993  0.1352  0.1178
  699TMC3    C610336   0.315   2.220  13.070  0.3706 -0.1723 -0.1500
  699TMC3     C10337   0.395   2.253  12.654 -0.1230  0.3940 -0.7417
  699TMC3     O10338   0.394   2.363  12.603  0.0059 -0.1278  0.0880
  699TMC3     H10339   0.448   2.035  12.809 -0.1994 -2.3350  4.5507
  699TMC3    H110340   0.305   2.440  12.825 -0.7719  0.3588  0.2011
  699TMC3    H210341   0.283   2.203  13.172  0.2644  1.0957  0.0296
  699TMC3    C710342   0.151   2.370  13.035 -0.1057 -0.9870 -0.2645
  699TMC3    C810343   0.363   1.985  13.046  0.6019  0.2320 -0.5942
  699TMC3    O110344   0.108   2.336  13.142 -0.3774  0.1118  0.3302
  699TMC3    O210345   0.430   1.895  12.996 -0.4716  0.1537  0.0621
  700TMC3    C110346   3.988   4.360  17.134 -0.1162  0.3622 -0.2213
  700TMC3    C210347   4.058   4.241  17.148  0.1263  0.1636  0.6455
  700TMC3    C310348   4.160   4.230  17.243 -0.0235  0.0351  0.0207
  700TMC3    C410349   4.012   4.466  17.213 -0.8183  0.4108  0.0359
  700TMC3    C510350   4.097   4.454  17.322  0.4909 -0.1749  0.1733
  700TMC3    C610351   4.181   4.343  17.330  0.1590 -0.2557 -0.1981
  700TMC3     C10352   3.942   4.381  17.001 -0.1053  0.2751  0.3001
  700TMC3     O10353   3.929   4.283  16.926  0.2596  0.6708 -0.2025
  700TMC3     H10354   4.014   4.157  17.097  0.5509  0.9936 -1.0742
  700TMC3    H110355   3.955   4.558  17.209 -0.3666  0.7046  0.3647
  700TMC3    H210356   4.244   4.326  17.416  0.0233 -3.1022 -0.6745
  700TMC3    C710357   4.155   4.578  17.369  0.0903 -0.4304  0.2727
  700TMC3    C810358   4.267   4.137  17.218 -0.2381 -0.0864 -0.4158
  700TMC3    O110359   4.274   4.586  17.356  0.6531  0.1362 -0.1302
  700TMC3    O210360   4.244   4.045  17.145  0.2663  0.1141 -0.3865
  701TMC3    C110361   4.423   3.348  15.421 -0.1720 -0.0864 -0.0740
  701TMC3    C210362   4.453   3.249  15.334  0.6495 -0.0239  0.1476
  701TMC3    C310363   4.527   3.285  15.225  0.5299  0.4759  0.8340
  701TMC3    C410364   4.476   3.474  15.406  0.4528 -0.0268  0.1416
  701TMC3    C510365   4.553   3.492  15.303  0.3947 -0.0144 -0.9770
  701TMC3    C610366   4.584   3.400  15.206  0.1869  0.4329 -0.6382
  701TMC3     C10367   4.329   3.323  15.528 -0.1851  0.4557  0.7388
  701TMC3     O10368   4.265   3.218  15.510  0.1514 -0.1136  0.2742
  701TMC3     H10369   4.417   3.147  15.336  0.6615 -0.0364 -0.2067
  701TMC3    H110370   4.447   3.555  15.473  0.3229  0.0699 -0.0312
  701TMC3    H210371   4.662   3.409  15.132  1.3610  0.1991  0.5771
  701TMC3    C710372   4.615   3.617  15.280 -0.0880  0.7227 -0.5965
  701TMC3    C810373   4.519   3.199  15.107  0.4380 -0.1949 -0.7060
  701TMC3    O110374   4.654   3.640  15.165 -0.4575 -0.3403  0.5844
  701TMC3    O210375   4.611   3.192  15.026 -0.7274 -0.3235  0.0660
  702MPD2     C10376   3.434   0.422  10.643 -0.2978  0.1828  0.1549
  702MPD2    C110377   3.431   0.521  10.733  0.4828  0.5287  0.3570
  702MPD2    C210378   3.450   0.652  10.694 -0.2004  0.4365  0.7837
  702MPD2    C310379   3.467   0.686  10.558 -0.2132  0.0348  0.6692
  702MPD2    C410380   3.489   0.576  10.475  0.4594  0.1695 -0.0683
  702MPD2    C510381   3.468   0.447  10.513  0.5272  0.2765  0.5041
  702MPD2     H10382   3.442   0.734  10.765 -0.2659  1.7510 -0.7430
  702MPD2    H110383   3.517   0.599  10.373 -1.1558 -3.1551 -1.2567
  702MPD2    H210384   3.424   0.317  10.668  1.9696  0.1957  1.1877
  702MPD2    H310385   3.483   0.369  10.439 -1.7345  0.0117  0.3253
  702MPD2     N10386   3.469   0.819  10.506  0.5986 -0.2855 -0.5410
  702MPD2    H510387   3.524   0.842  10.424 -2.7883  0.6656 -2.5679
  702MPD2    N110388   3.395   0.509  10.864  0.1361 -0.6219  0.3345
  702MPD2    H710389   3.380   0.593  10.921 -1.6362 -0.2979 -0.6134
  703TMC3    C110390   3.460   1.052  10.530  0.2779  0.2138 -0.3006
  703TMC3    C210391   3.364   1.145  10.521 -0.0265  0.2295 -0.1364
  703TMC3    C310392   3.405   1.269  10.470  0.8447 -0.6818  0.0471
  703TMC3    C410393   3.586   1.064  10.483 -0.5386  0.5408 -0.1723
  703TMC3    C510394   3.618   1.178  10.415  0.0911 -0.1938  0.5687
  703TMC3    C610395   3.529   1.283  10.414 -0.4597  0.4447 -0.5948
  703TMC3     C10396   3.422   0.926  10.582  0.0352 -0.1384 -0.2202
  703TMC3     O10397   3.324   0.929  10.660 -0.4898  0.2660  0.0127
  703TMC3     H10398   3.262   1.117  10.546  0.1227 -0.6994 -0.5834
  703TMC3    H110399   3.658   0.986  10.503 -1.6722 -0.3737  0.3832
  703TMC3    H210400   3.544   1.372  10.354  1.0737  0.0493 -0.7986
  703TMC3    C710401   3.761   1.208  10.378 -0.5752 -0.1731  0.0556
  703TMC3    C810402   3.308   1.375  10.456  0.0233  0.1901 -0.5792
  703TMC3    O110403   3.766   1.324  10.345 -0.7190 -0.5968  0.1202
  703TMC3    O210404   3.343   1.466  10.384 -0.4636 -0.3462  0.1509
  704TMC3    C110405   0.935   4.124  12.024  0.5970  0.5545  0.1671
  704TMC3    C210406   1.068   4.154  12.022  0.3473  0.1479 -0.2775
  704TMC3    C310407   1.147   4.087  12.111 -0.0973 -0.0942 -0.7370
  704TMC3    C410408   0.877   4.033  12.114 -0.8903 -0.5306 -0.1721
  704TMC3    C510409   0.965   3.954  12.187 -1.1179  0.2442  0.1991
  704TMC3    C610410   1.102   3.978  12.183 -0.7428  0.1878  0.7197
  704TMC3     C10411   0.860   4.145  11.901 -0.1733 -0.3792 -0.4810
  704TMC3     O10412   0.744   4.175  11.926 -0.3009  0.2831  0.3104
  704TMC3     H10413   1.101   4.233  11.954 -1.1342 -0.3236 -1.5479
  704TMC3    H110414   0.772   4.008  12.107 -1.0912  0.3459 -0.2630
  704TMC3    H210415   1.167   3.936  12.260 -0.6752  1.8147  1.5565
  704TMC3    C710416   0.916   3.839  12.259 -0.1732 -0.3887 -0.2558
  704TMC3    C810417   1.291   4.103  12.100  0.2471  0.8555 -0.0583
  704TMC3    O110418   0.805   3.846  12.302 -0.3233  0.4900  0.4413
  704TMC3    O210419   1.334   4.150  11.996 -0.3728 -0.4692  0.0779
  705MPD2     C10420   0.680   1.633  16.282  0.1395  0.3314 -0.4697
  705MPD2    C110421   0.726   1.759  16.315 -0.0516  0.2980 -0.5823
  705MPD2    C210422   0.629   1.850  16.362  0.3463  0.2464 -0.0797
  705MPD2    C310423   0.495   1.817  16.374  0.1735  0.3719  1.0814
  705MPD2    C410424   0.462   1.682  16.347  0.5925  0.1411 -0.2914
  705MPD2    C510425   0.556   1.593  16.307  1.0091 -1.0042  0.4882
  705MPD2     H10426   0.652   1.953  16.385 -2.1895  0.7477  0.2115
  705MPD2    H110427   0.366   1.642  16.377  0.5779  1.1485  1.0297
  705MPD2    H210428   0.750   1.564  16.236 -0.8554 -0.4547 -0.8160
  705MPD2    H310429   0.524   1.494  16.275 -2.7679  0.1996  0.5846
  705MPD2     N10430   0.399   1.905  16.420  0.1618  0.1189 -0.1068
  705MPD2    H510431   0.304   1.871  16.426  0.8014 -2.4640 -4.2838
  705MPD2    N110432   0.862   1.806  16.297  0.1571  0.7348 -0.2694
  705MPD2    H710433   0.880   1.898  16.336  3.4810 -0.2958  0.6389
  706TMC3    C110434   1.264   1.904  16.160 -0.3696 -0.3547 -0.5365
  706TMC3    C210435   1.280   1.996  16.262  0.7540  0.0496  0.7701
  706TMC3    C310436   1.194   1.996  16.365 -0.7636 -0.3275  0.8215
  706TMC3    C410437   1.171   1.811  16.160 -0.3122 -0.0557 -0.0305
  706TMC3    C510438   1.091   1.801  16.275  0.1685  0.3931  0.3019
  706TMC3    C610439   1.101   1.893  16.374  0.0339  0.0029 -0.1883
  706TMC3     C10440   1.367   1.923  16.049 -0.7007 -0.3885 -0.0497
  706TMC3     O10441   1.462   1.993  16.079 -0.0089 -0.3438 -0.0474
  706TMC3     H10442   1.353   2.074  16.247  1.6763 -0.8925  0.3359
  706TMC3    H110443   1.160   1.726  16.093 -1.4863 -0.5893  0.8359
  706TMC3    H210444   1.038   1.892  16.463  1.0945 -0.2501  0.5688
  706TMC3    C710445   0.967   1.734  16.247 -0.2411  0.3783  0.1713
  706TMC3    C810446   1.126   2.123  16.370 -0.2181 -0.0503  0.5792
  706TMC3    O110447   0.975   1.620  16.196 -0.2024 -0.0160  0.4503
  706TMC3    O210448   1.004   2.127  16.352 -0.6782  0.7794 -0.2245
  707TMC3    C110449   3.151   1.574   1.469  0.0234  0.2907  0.3065
  707TMC3    C210450   3.283   1.544   1.504  0.5390 -0.1452 -0.3541
  707TMC3    C310451   3.319   1.565   1.634  0.2278 -0.0017 -0.6752
  707TMC3    C410452   3.061   1.627   1.557 -0.5693  0.6435 -0.0145
  707TMC3    C510453   3.114   1.660   1.681 -0.1714 -0.0538 -0.1626
  707TMC3    C610454   3.238   1.619   1.727 -0.4645  0.3376 -0.3651
  707TMC3     C10455   3.119   1.534   1.336  0.2574 -0.0357  1.0457
  707TMC3     O10456   3.215   1.522   1.263  0.8362  0.0615  0.7474
  707TMC3     H10457   3.355   1.498   1.437  0.5247 -2.5732  1.2470
  707TMC3    H110458   2.963   1.650   1.515  0.2224  1.8527 -1.2106
  707TMC3    H210459   3.282   1.658   1.818  0.3862  0.4433 -0.8252
  707TMC3    C710460   3.033   1.734   1.778 -0.1338 -0.0394 -0.1761
  707TMC3    C810461   3.443   1.511   1.688  0.5283  0.0733 -0.0262
  707TMC3    O110462   3.069   1.761   1.898  0.0266 -0.3005  0.2841
  707TMC3    O210463   3.463   1.552   1.807 -0.8207  0.2097 -0.2376
  708MPD2     C10464   4.284   0.378  13.589  0.5107  0.0394 -0.1726
  708MPD2    C110465   4.201   0.479  13.536 -0.2455  0.6038  0.0226
  708MPD2    C210466   4.077   0.483  13.583  0.7196 -0.4012  0.1776
  708MPD2    C310467   4.023   0.401  13.676 -0.3772 -0.3513 -0.7546
  708MPD2    C410468   4.102   0.306  13.730 -0.4999  0.0562  0.0025
  708MPD2    C510469   4.231   0.298  13.687 -0.3412 -0.1734  0.1080
  708MPD2     H10470   4.014   0.566  13.552  0.7220  0.8652  3.5376
  708MPD2    H110471   4.078   0.229  13.802 -0.6922  0.4852  0.3926
  708MPD2    H210472   4.387   0.373  13.555  0.2713 -2.5005 -0.4969
  708MPD2    H310473   4.291   0.216  13.725 -0.0582  0.1290  0.3178
  708MPD2     N10474   3.895   0.432  13.710 -0.1991 -0.1418 -0.4835
  708MPD2    H510475   3.867   0.521  13.670  0.3450  0.1455 -0.2154
  708MPD2    N110476   4.242   0.574  13.443  0.4951  0.0322  0.4541
  708MPD2    H710477   4.186   0.658  13.441  1.9475  1.0155  1.1332
  709TMC3    C110478   4.352   0.713  13.308  0.2965  0.3146 -0.6293
  709TMC3    C210479   4.307   0.688  13.183 -1.2410  0.5295  0.1895
  709TMC3    C310480   4.219   0.766  13.125 -0.2975 -0.1711 -0.1320
  709TMC3    C410481   4.298   0.818  13.377 -0.0966  0.2976  0.1927
  709TMC3    C510482   4.203   0.896  13.320  0.6217 -0.8507 -0.3412
  709TMC3    C610483   4.161   0.869  13.191 -0.0038 -0.0686  1.0273
  709TMC3     C10484   4.361   0.589  13.382 -0.5950  0.1104 -0.1771
  709TMC3     O10485   4.445   0.504  13.357 -0.3297 -0.2198  0.4327
  709TMC3     H10486   4.342   0.592  13.146 -3.1921  0.4364 -1.4141
  709TMC3    H110487   4.322   0.832  13.482  0.9669 -0.9630  0.1187
  709TMC3    H210488   4.082   0.931  13.149 -0.1247 -0.7964  0.1907
  709TMC3    C710489   4.096   0.899  13.423 -0.2948 -0.1617  0.5858
  709TMC3    C810490   4.156   0.730  12.998  0.0858 -0.6293  0.4177
  709TMC3    O110491   4.074   0.789  13.475 -0.1662  0.3561 -0.7312
  709TMC3    O210492   4.057   0.794  12.960  0.6364 -0.0575  0.3341
  710TMC3    C110493   0.230   1.647   0.361 -0.3801  0.0357  0.4374
  710TMC3    C210494   0.273   1.602   0.233 -0.4685 -0.7290  0.6737
  710TMC3    C310495   0.335   1.480   0.215 -0.6755 -0.0539 -0.8775
  710TMC3    C410496   0.243   1.565   0.471 -0.4716  0.4622  0.2272
  710TMC3    C510497   0.311   1.448   0.447 -1.0607  0.5113  0.0402
  710TMC3    C610498   0.357   1.398   0.325  0.2072 -0.6039  0.1806
  710TMC3     C10499   0.190   1.785   0.364  0.2684  0.3663 -0.4189
  710TMC3     O10500   0.205   1.852   0.267  0.5331 -0.4450  0.0272
  710TMC3     H10501   0.260   1.661   0.143  2.2391  0.5606  1.1378
  710TMC3    H110502   0.221   1.600   0.571  2.0063  0.5616  0.7384
  710TMC3    H210503   0.400   1.299   0.317  0.4441 -0.3719 -1.4725
  710TMC3    C710504   0.322   1.360   0.560  0.0166 -0.0205 -0.2898
  710TMC3    C810505   0.427   1.467   0.103 -0.4574 -0.4484 -1.7125
  710TMC3    O110506   0.232   1.363   0.645 -0.0551 -0.1743  0.0563
  710TMC3    O210507   0.466   1.574   0.053  0.0521 -0.5555 -0.1175
  711TMC3    C110508   4.617   2.370  15.139 -0.2277 -1.0639 -0.4356
  711TMC3    C210509   0.008   2.298  15.178  0.2258  0.6122 -0.1201
  711TMC3    C310510   0.055   2.315  15.306 -0.8749 -0.3001 -0.3738
  711TMC3    C410511   4.551   2.448  15.229 -0.0429 -0.5092  1.0081
  711TMC3    C510512   4.594   2.460  15.356  0.0448 -0.3625  0.1344
  711TMC3    C610513   4.700   2.384  15.403 -0.0111 -0.1968  0.5350
  711TMC3     C10514   4.586   2.383  15.000 -0.8645 -0.2568  0.3182
  711TMC3     O10515   4.465   2.392  14.972  0.1512 -0.0743 -0.1461
  711TMC3     H10516   0.049   2.232  15.102  1.4568  1.8655 -0.5404
  711TMC3    H110517   4.488   2.530  15.196 -2.0934 -2.4639  0.0278
  711TMC3    H210518   0.028   2.395  15.500  2.6634 -1.9029 -0.5346
  711TMC3    C710519   4.612   2.586  15.415  0.9819 -0.0275  0.4728
  711TMC3    C810520   0.198   2.301  15.323 -0.0133 -0.1810 -0.3638
  711TMC3    O110521   4.522   2.646  15.469 -0.7993  0.5454  0.2114
  711TMC3    O210522   0.257   2.265  15.219  0.0635  0.2657 -0.2359
  712MPD2     C10523   1.525   4.272  13.903  0.3658  0.0714 -0.2932
  712MPD2    C110524   1.519   4.246  13.764 -0.3588 -0.0437  0.0402
  712MPD2    C210525   1.524   4.359  13.686  0.0749 -0.2394 -0.1570
  712MPD2    C310526   1.549   4.486  13.741 -0.5775 -0.2106  0.1182
  712MPD2    C410527   1.553   4.502  13.875  0.0084  0.0632 -0.2440
  712MPD2    C510528   1.530   4.392  13.956  0.2189  0.0018  0.6216
  712MPD2     H10529   1.504   4.349  13.580  1.0046 -0.3669 -0.3252
  712MPD2    H110530   1.565   4.597  13.926  0.4730 -0.4204  0.5455
  712MPD2    H210531   1.524   4.189  13.972  1.6102  1.0373  0.8699
  712MPD2    H310532   1.542   4.399  14.063 -2.8520  0.5171  0.9293
  712MPD2     N10533   1.562   4.603  13.664 -1.0257 -0.1504 -0.7029
  712MPD2    H510534   1.581   4.690  13.712 -0.4177 -1.5986  1.7369
  712MPD2    N110535   1.501   4.116  13.705  0.2108  0.1219 -0.1054
  712MPD2    H710536   1.467   4.114  13.610 -0.2689  0.9694  0.0481
  713TMC3    C110537   1.569   0.036  13.487 -0.4460 -0.0352 -0.1498
  713TMC3    C210538   1.694   0.075  13.518  0.5060  0.6434  0.1854
  713TMC3    C310539   1.735   0.194  13.471 -0.2029 -0.3201 -0.6853
  713TMC3    C410540   1.492   0.098  13.383 -0.4514 -0.1574  0.1473
  713TMC3    C510541   1.545   0.214  13.330 -0.1733  0.0298  0.0325
  713TMC3    C610542   1.660   0.264  13.377  0.7287  0.1829 -0.5447
  713TMC3     C10543   1.526   4.623  13.532 -0.5135 -0.7319 -0.9205
  713TMC3     O10544   1.479   4.541  13.454  0.2614 -0.1062  0.0410
  713TMC3     H10545   1.756   0.007  13.575 -1.1273  0.0212  1.2383
  713TMC3    H110546   1.395   0.058  13.358  1.1987 -1.8568 -3.4018
  713TMC3    H210547   1.690   0.365  13.350  0.3318 -0.0944 -2.0079
  713TMC3    C710548   1.473   0.293  13.234 -0.6529  0.3515  0.0604
  713TMC3    C810549   1.878   0.232  13.474 -0.4358 -0.3710  0.2160
  713TMC3    O110550   1.516   0.404  13.202  0.0829 -0.7202  0.1318
  713TMC3    O210551   1.908   0.327  13.405 -0.7131 -0.5119  0.3215
  714MPD2     C10552   3.026   3.403   1.650 -0.5088  1.1272  0.2043
  714MPD2    C110553   3.058   3.311   1.551 -0.1885  0.5568  0.1079
  714MPD2    C210554   3.014   3.326   1.421  0.2239 -0.3310 -0.7865
  714MPD2    C310555   2.945   3.444   1.393  0.1820  0.5177 -0.2060
  714MPD2    C410556   2.920   3.539   1.485  0.3279  0.8072  0.0098
  714MPD2    C510557   2.950   3.513   1.613  0.3518 -0.8807 -0.3051
  714MPD2     H10558   3.052   3.260   1.344  3.4502  0.3489  0.2260
  714MPD2    H110559   2.867   3.629   1.457 -1.2077  0.1965  0.9522
  714MPD2    H210560   3.076   3.396   1.746 -1.6957  0.3469  0.7616
  714MPD2    H310561   2.908   3.582   1.685  0.5698  0.7673 -1.7775
  714MPD2     N10562   2.917   3.463   1.255  0.1375 -0.1292  0.7649
  714MPD2    H510563   2.950   3.386   1.197 -2.7384 -0.4574 -0.4139
  714MPD2    N110564   3.138   3.197   1.589 -0.0925 -0.0148 -0.0618
  714MPD2    H710565   3.152   3.184   1.689 -1.4515  0.8693  0.2444
  715TMC3    C110566   3.263   3.007   1.590  0.2878  0.2359 -0.3657
  715TMC3    C210567   3.285   2.885   1.528 -0.5204  0.2395 -0.6400
  715TMC3    C310568   3.356   2.792   1.599 -0.5500 -0.7309  0.5109
  715TMC3    C410569   3.304   3.029   1.718  0.0496 -0.3907  0.4436
  715TMC3    C510570   3.371   2.930   1.790  0.1138  0.2122  0.2822
  715TMC3    C610571   3.392   2.805   1.732  0.2553  1.3071 -0.0630
  715TMC3     C10572   3.182   3.096   1.512 -1.1121 -0.8677 -0.4230
  715TMC3     O10573   3.175   3.062   1.391 -0.5223 -0.2280  0.3529
  715TMC3     H10574   3.262   2.865   1.424  0.4047 -1.3992 -0.5293
  715TMC3    H110575   3.300   3.127   1.765  0.5741 -0.2354  0.1737
  715TMC3    H210576   3.435   2.725   1.791 -1.9555  1.4181  1.7265
  715TMC3    C710577   3.502   2.969   1.835 -0.6224  0.7455  0.0853
  715TMC3    C810578   3.446   2.714   1.524  0.9059  0.1713 -0.2879
  715TMC3    O110579   3.586   2.879   1.835 -0.6625 -0.2559  0.3601
  715TMC3    O210580   3.417   2.663   1.418 -0.6302 -0.0201 -0.2616
  716MPD2     C10581   3.816   0.164   9.954 -0.2212  0.7475 -0.7631
  716MPD2    C110582   3.779   0.208   9.828 -0.0162  0.4852  0.0647
  716MPD2    C210583   3.749   0.116   9.731 -0.3953 -0.1494  0.0459
  716MPD2    C310584   3.751   4.697   9.758 -0.3076  0.0431  0.6526
  716MPD2    C410585   3.783   4.653   9.883  0.0311  0.2112 -0.0570
  716MPD2    C510586   3.818   0.027   9.980 -0.9123  0.0157 -0.0720
  716MPD2     H10587   3.724   0.150   9.631  3.0507  3.3735  0.4036
  716MPD2    H110588   3.776   4.547   9.907 -0.6533  0.7462  2.0743
  716MPD2    H210589   3.843   0.240  10.026  0.2748  1.2988 -1.5336
  716MPD2    H310590   3.853   0.008  10.081  2.0820 -1.1609 -1.3392
  716MPD2     N10591   3.721   4.613   9.644  0.2144 -0.2573  0.6589
  716MPD2    H510592   3.703   4.657   9.555  1.1743 -1.8389 -0.3133
  716MPD2    N110593   3.782   0.345   9.785  0.0581 -0.5189  0.0705
  716MPD2    H710594   3.733   0.357   9.697  2.0847  0.2110 -0.9530
  717TMC3    C110595   3.679   4.429   9.520  0.4072 -0.7293 -0.6586
  717TMC3    C210596   3.607   4.505   9.429 -0.7641  0.0263 -0.0872
  717TMC3    C310597   3.604   4.457   9.302 -0.7530  0.5069 -0.3457
  717TMC3    C410598   3.750   4.318   9.481 -0.2412 -0.1240 -0.2122
  717TMC3    C510599   3.754   4.290   9.350 -0.3079  0.3066  0.0947
  717TMC3    C610600   3.681   4.355   9.258 -0.7662 -0.2016 -0.2087
  717TMC3     C10601   3.721   4.477   9.648 -0.3766 -0.6769  0.0575
  717TMC3     O10602   3.762   4.401   9.738 -0.1895  0.3008 -0.0653
  717TMC3     H10603   3.550   4.593   9.459  1.9898  1.5961  0.5619
  717TMC3    H110604   3.799   4.255   9.553 -0.7301  0.9320  1.0421
  717TMC3    H210605   3.669   4.312   9.160 -1.9031  0.9886 -0.5859
  717TMC3    C710606   3.854   4.198   9.292 -0.2775 -0.1686  0.3325
  717TMC3    C810607   3.540   4.549   9.208  0.0870  0.0960 -0.1560
  717TMC3    O110608   3.880   4.213   9.174  0.9352  0.0386 -0.1737
  717TMC3    O210609   3.444   4.618   9.245 -0.2713 -0.0772  0.0570
  718MPD2     C10610   3.716   4.422  13.109  0.1263 -0.5144  0.5844
  718MPD2    C110611   3.663   4.476  12.994 -1.0054 -0.4708 -0.5849
  718MPD2    C210612   3.529   4.451  12.966  0.5196  0.1770 -0.0339
  718MPD2    C310613   3.445   4.374  13.049 -0.0213 -0.3935  0.3081
  718MPD2    C410614   3.493   4.327  13.167 -0.6446 -0.4165 -0.4650
  718MPD2    C510615   3.633   4.347  13.190  0.1833  0.4533  0.6244
  718MPD2     H10616   3.474   4.493  12.883  1.1984  2.4765  0.6685
  718MPD2    H110617   3.430   4.292  13.248 -2.0465 -0.6824 -1.6711
  718MPD2    H210618   3.815   4.445  13.146 -0.3578  1.4832  0.6285
  718MPD2    H310619   3.684   4.293  13.268  3.8443  0.5676 -1.6677
  718MPD2     N10620   3.313   4.370  13.003  0.3161  0.1111 -0.3303
  718MPD2    H510621   3.300   4.421  12.916  0.5549  1.3891  0.3758
  718MPD2    N110622   3.736   4.575  12.926  0.0908 -0.4141 -0.0258
  718MPD2    H710623   3.834   4.582  12.950  0.0351 -0.6041  0.2508
  719TMC3    C110624   3.786   4.715  12.754  1.2239 -0.6780 -0.1654
  719TMC3    C210625   3.730   0.081  12.667 -0.7001  0.2759 -0.4371
  719TMC3    C310626   3.770   0.078  12.536 -0.1314 -0.3352 -0.4131
  719TMC3    C410627   3.882   4.624  12.715 -0.2928  0.0403 -0.5611
  719TMC3    C510628   3.919   4.617  12.582 -0.7952  0.1854  0.4660
  719TMC3    C610629   3.865   4.705  12.495  0.6273 -0.2982  1.1547
  719TMC3     C10630   3.687   4.660  12.832  0.5084  0.8408 -0.0852
  719TMC3     O10631   3.573   4.694  12.801 -0.0158  0.1075 -0.3892
  719TMC3     H10632   3.680   0.170  12.704 -1.6869 -0.4912  0.0608
  719TMC3    H110633   3.935   4.572  12.794 -2.4175 -0.1827  0.7291
  719TMC3    H210634   3.888   4.704  12.389 -2.3946  1.2958  0.4740
  719TMC3    C710635   3.934   4.484  12.520  0.4319  0.8823 -0.8390
  719TMC3    C810636   3.657   0.078  12.448 -1.2826 -0.4670  0.1175
  719TMC3    O110637   3.952   4.480  12.401  0.7329 -0.2499  0.2571
  719TMC3    O210638   3.671   0.056  12.330 -0.2739 -0.3764  0.5488
  720MPD2     C10639   1.148   1.427  14.204 -0.3268  0.9616  0.3215
  720MPD2    C110640   1.234   1.452  14.106 -0.1851 -0.5605 -0.2672
  720MPD2    C210641   1.371   1.428  14.127 -0.1203 -0.0094 -0.3845
  720MPD2    C310642   1.416   1.389  14.250  0.0446  0.1942 -0.0899
  720MPD2    C410643   1.324   1.365  14.351  0.8228  0.1132  0.5193
  720MPD2    C510644   1.186   1.388  14.326  0.5309 -0.0254  1.1974
  720MPD2     H10645   1.435   1.455  14.043 -0.3193  1.7921  0.0480
  720MPD2    H110646   1.354   1.339  14.452 -1.4503 -3.7370  0.1880
  720MPD2    H210647   1.044   1.446  14.180 -0.5088  0.9339  1.1008
  720MPD2    H310648   1.107   1.387  14.400 -0.1188 -0.6378  0.4913
  720MPD2     N10649   1.551   1.375  14.262 -0.3087 -0.8684 -0.7872
  720MPD2    H510650   1.600   1.392  14.175 -1.2565  1.0441 -0.9310
  720MPD2    N110651   1.196   1.493  13.974 -0.0510 -0.2952 -0.1774
  720MPD2    H710652   1.268   1.482  13.902 -0.2087  1.2013 -0.5645
  721TMC3    C110653   1.767   1.349  14.370  0.2815  0.0255 -0.3971
  721TMC3    C210654   1.833   1.269  14.457 -0.2432  1.1706 -0.6499
  721TMC3    C310655   1.963   1.242  14.431 -0.0894 -0.1638  0.0090
  721TMC3    C410656   1.821   1.395  14.261  0.5600 -0.5365  0.2742
  721TMC3    C510657   1.955   1.368  14.244  0.0062  0.0060 -0.1688
  721TMC3    C610658   2.028   1.287  14.322  0.7476  0.1290 -0.9124
  721TMC3     C10659   1.622   1.343  14.379  0.5566 -0.2559 -0.1112
  721TMC3     O10660   1.579   1.323  14.490 -0.0132  0.3779 -0.2079
  721TMC3     H10661   1.779   1.212  14.532 -0.6047 -0.3459 -2.0505
  721TMC3    H110662   1.771   1.467  14.196  0.5600  0.4590  1.3867
  721TMC3    H210663   2.135   1.277  14.308  0.8419 -1.3245  0.8147
  721TMC3    C710664   2.022   1.434  14.131 -0.6526 -0.3431 -0.1170
  721TMC3    C810665   2.039   1.150  14.514  0.5510  0.4309  0.0037
  721TMC3    O110666   1.955   1.512  14.069  0.0616  0.1862  0.0639
  721TMC3    O210667   2.144   1.116  14.467  0.6258 -0.8773 -0.6976
  722MPD2     C10668   0.732   4.356  13.209  0.4064 -0.1157 -0.2627
  722MPD2    C110669   0.625   4.445  13.197  0.2574 -0.1541 -0.4292
  722MPD2    C210670   0.511   4.422  13.266  0.0023  0.1347  0.0485
  722MPD2    C310671   0.495   4.309  13.349 -0.5842  0.3596 -0.0865
  722MPD2    C410672   0.599   4.217  13.361 -1.0136  0.2447 -0.6156
  722MPD2    C510673   0.713   4.246  13.284 -0.1638  0.5243  0.1339
  722MPD2     H10674   0.425   4.488  13.267 -0.0449  0.0716  0.1985
  722MPD2    H110675   0.592   4.136  13.433 -0.4450 -1.4962 -2.5050
  722MPD2    H210676   0.829   4.368  13.161 -0.0500  1.4318 -0.8171
  722MPD2    H310677   0.796   4.177  13.292 -1.6973 -1.2189  0.9977
  722MPD2     N10678   0.366   4.299  13.414  0.2273  0.3793 -0.2564
  722MPD2    H510679   0.296   4.371  13.398 -0.6599 -0.3477  0.3634
  722MPD2    N110680   0.638   4.555  13.112 -0.6215  0.3125  0.6231
  722MPD2    H710681   0.726   4.569  13.062 -1.4671  1.0805 -0.6598
  723TMC3    C110682   0.192   4.197  13.522  0.4197 -0.4327 -0.1064
  723TMC3    C210683   0.125   4.077  13.511  0.9124 -0.0531  0.1705
  723TMC3    C310684   0.003   4.070  13.576  0.7573  0.2410 -0.5738
  723TMC3    C410685   0.133   4.309  13.574  0.1079 -0.1397 -0.2670
  723TMC3    C510686   0.007   4.301  13.624 -0.2653 -0.4837  0.0919
  723TMC3    C610687   4.668   4.175  13.644 -0.0836  0.5539 -0.6868
  723TMC3     C10688   0.332   4.195  13.499 -0.3922 -0.5787 -0.2539
  723TMC3     O10689   0.389   4.091  13.530  0.2932 -0.1210 -0.2520
  723TMC3     H10690   0.177   3.987  13.480  0.4795 -0.0095 -0.6648
  723TMC3    H110691   0.179   4.406  13.562 -2.0859  0.9010 -0.2458
  723TMC3    H210692   4.577   4.171  13.704  0.4876 -0.5423  0.1130
  723TMC3    C710693   4.704   4.393  13.738 -0.1659  0.1832  0.8191
  723TMC3    C810694   4.640   3.952  13.585 -0.0637  0.4514 -0.3192
  723TMC3    O110695   4.675   4.339  13.845 -0.3181  0.4363  0.3256
  723TMC3    O210696   4.543   3.953  13.659  0.1699  0.2509 -0.0727
  724TMC3    C110697   0.498   1.630   9.997 -0.3461 -0.1826 -0.2251
  724TMC3    C210698   0.589   1.684  10.079 -0.2752 -0.2878  0.2169
  724TMC3    C310699   0.634   1.806  10.042 -0.2435  0.2292  0.1727
  724TMC3    C410700   0.441   1.689   9.886  0.1413 -0.0693 -0.9982
  724TMC3    C510701   0.483   1.819   9.864  0.2776 -0.0470  0.0734
  724TMC3    C610702   0.577   1.884   9.943  0.2199 -0.5424 -0.1105
  724TMC3     C10703   0.483   1.489   9.997 -0.5350  0.1548 -0.2093
  724TMC3     O10704   0.521   1.419  10.091 -0.1139 -0.1673  0.1675
  724TMC3     H10705   0.643   1.612  10.140 -1.4577 -3.2106 -2.1769
  724TMC3    H110706   0.359   1.656   9.823  0.2172 -0.2062 -1.0251
  724TMC3    H210707   0.609   1.985   9.923  1.3323 -0.9477 -0.3805
  724TMC3    C710708   0.448   1.884   9.734  0.1470 -0.0944 -0.5058
  724TMC3    C810709   0.745   1.857  10.122 -0.2213  0.1778 -0.4318
  724TMC3    O110710   0.489   2.000   9.722 -0.2185 -0.1570  0.0334
  724TMC3    O210711   0.770   1.788  10.219 -0.0541  0.0739 -0.9221
  725TMC3    C110712   1.710   2.231  13.284  0.4311 -0.2257  0.4961
  725TMC3    C210713   1.606   2.148  13.315  0.1921  0.0576  0.1967
  725TMC3    C310714   1.614   2.018  13.280 -0.5666 -0.2238 -0.0941
  725TMC3    C410715   1.824   2.179  13.226  0.0432 -0.1813  0.4309
  725TMC3    C510716   1.828   2.043  13.198 -0.3555 -0.5040  0.7876
  725TMC3    C610717   1.721   1.955  13.229 -0.5130 -0.3421  0.1261
  725TMC3     C10718   1.713   2.368  13.311 -0.9038  0.3676  0.2097
  725TMC3     O10719   1.787   2.437  13.235  0.3281 -0.4577  0.2598
  725TMC3     H10720   1.506   2.184  13.335 -0.6877 -3.2741  1.7382
  725TMC3    H110721   1.914   2.235  13.203  0.9123 -1.2343  1.2857
  725TMC3    H210722   1.716   1.856  13.185  0.0623 -0.0846 -0.5149
  725TMC3    C710723   1.958   1.993  13.144  0.6086  0.3107  0.3098
  725TMC3    C810724   1.487   1.966  13.230  0.7174 -0.2714  0.0676
  725TMC3    O110725   2.033   2.066  13.082 -0.0858  0.1943  0.5752
  725TMC3    O210726   1.443   1.868  13.284  0.1098  0.3545  0.9318
  726MPD2     C10727   0.399   2.382  10.404 -0.0095  0.7788 -0.0420
  726MPD2    C110728   0.353   2.514  10.407 -0.5024 -0.4582  0.2454
  726MPD2    C210729   0.216   2.531  10.408  0.8003 -0.3723 -0.8684
  726MPD2    C310730   0.128   2.425  10.420  0.2298  0.0031 -0.7631
  726MPD2    C410731   0.175   2.294  10.414  0.1180 -0.2905 -0.0577
  726MPD2    C510732   0.306   2.279  10.412  0.4167  1.2864 -0.4102
  726MPD2     H10733   0.170   2.630  10.408 -1.2276 -1.3383  1.0182
  726MPD2    H110734   0.111   2.208  10.427  0.6650 -0.4373  1.6323
  726MPD2    H210735   0.506   2.365  10.395 -0.1359 -0.6855  1.1613
  726MPD2    H310736   0.337   2.178  10.437 -1.3728  0.0919 -3.0935
  726MPD2     N10737   4.712   2.446  10.448 -0.7150  0.0650 -0.4647
  726MPD2    H510738   4.655   2.362  10.450  1.4146 -1.3874 -0.7413
  726MPD2    N110739   0.430   2.630  10.399 -0.0534  0.9028 -0.4884
  726MPD2    H710740   0.380   2.715  10.374 -3.6899 -1.1824 -0.3196
  727TMC3    C110741   0.617   2.770  10.425 -0.1027  0.2518  0.4526
  727TMC3    C210742   0.752   2.794  10.394 -0.1365  0.2513  0.4121
  727TMC3    C310743   0.800   2.925  10.398  0.1355  0.2465  0.0032
  727TMC3    C410744   0.536   2.873  10.456 -0.1255 -0.0894  0.1319
  727TMC3    C510745   0.590   2.998  10.462 -0.8293  0.3454  0.4242
  727TMC3    C610746   0.720   3.034  10.436  0.3589 -0.4482  0.3966
  727TMC3     C10747   0.570   2.636  10.397 -0.3070  0.5552 -0.5405
  727TMC3     O10748   0.647   2.542  10.405 -0.0303  0.1407 -0.5027
  727TMC3     H10749   0.820   2.712  10.375 -0.0289  0.3710  0.2867
  727TMC3    H110750   0.435   2.865  10.494 -0.6874  2.0584 -0.9103
  727TMC3    H210751   0.761   3.134  10.437  0.7142 -0.5873 -0.3593
  727TMC3    C710752   0.490   3.100  10.441  0.7842 -0.3829 -0.2731
  727TMC3    C810753   0.928   2.937  10.334  0.2490 -0.4531  0.3893
  727TMC3    O110754   0.413   3.060  10.354 -0.8156  0.5678  0.4132
  727TMC3    O210755   0.996   2.839  10.310 -1.1259  0.0169  0.5445
  728TMC3    C110756   3.733   1.647  15.197 -0.1425 -0.1019  0.3724
  728TMC3    C210757   3.854   1.612  15.250  0.0605  1.0220  0.0333
  728TMC3    C310758   3.956   1.594  15.157  0.2936  0.5132  0.2283
  728TMC3    C410759   3.715   1.666  15.063 -0.0776 -0.5099  0.3631
  728TMC3    C510760   3.811   1.648  14.980  0.8774 -0.0578  0.4222
  728TMC3    C610761   3.940   1.617  15.025  0.1561 -0.1063  0.3417
  728TMC3     C10762   3.616   1.627  15.284 -0.2092  0.0476  0.2465
  728TMC3     O10763   3.633   1.570  15.393  0.5685  0.4813 -0.1235
  728TMC3     H10764   3.868   1.598  15.356  0.8509 -0.6510 -0.2967
  728TMC3    H110765   3.616   1.696  15.028 -0.6762 -0.4886  2.0984
  728TMC3    H210766   4.006   1.577  14.950 -0.2531 -0.4488  0.1625
  728TMC3    C710767   3.778   1.666  14.842  0.1449 -0.1164  0.4079
  728TMC3    C810768   4.088   1.563  15.210 -0.4955  0.8250 -0.0006
  728TMC3    O110769   3.660   1.658  14.808 -0.5919  0.1888  0.2580
  728TMC3    O210770   4.093   1.515  15.324  0.3847  0.4153  0.3245
  729MPD2     C10771   1.585   2.542  16.758 -0.0607 -0.5414 -0.5010
  729MPD2    C110772   1.703   2.580  16.818  0.0263 -0.1231  0.9406
  729MPD2    C210773   1.706   2.590  16.959  0.2585  0.7181 -0.1519
  729MPD2    C310774   1.584   2.572  17.031  0.3281 -0.4078  0.7075
  729MPD2    C410775   1.472   2.536  16.963  0.2655 -0.2661  1.0321
  729MPD2    C510776   1.471   2.520  16.829 -0.0370 -0.6623 -0.1077
  729MPD2     H10777   1.792   2.630  17.011  0.4444  1.5572 -1.0972
  729MPD2    H110778   1.380   2.508  17.013  0.3774 -0.4767  1.1174
  729MPD2    H210779   1.581   2.537  16.650  3.0895 -2.3706 -0.5336
  729MPD2    H310780   1.380   2.499  16.773  0.1840  0.8602 -1.0591
  729MPD2     N10781   1.581   2.608  17.170  0.2990 -0.1896  0.0675
  729MPD2    H510782   1.670   2.648  17.196  0.7008 -0.0555 -1.4870
  729MPD2    N110783   1.808   2.604  16.729 -0.0290 -0.1046  0.0641
  729MPD2    H710784   1.778   2.599  16.632  1.2509  1.1581 -0.3895
  730TMC3    C110785   1.493   2.674  17.375 -0.0040  0.9356 -0.1194
  730TMC3    C210786   1.621   2.679  17.414  0.2655  0.5169 -0.1533
  730TMC3    C310787   1.661   2.791  17.475 -0.6215 -0.0082 -0.1045
  730TMC3    C410788   1.403   2.766  17.409 -1.1510  0.6025 -0.6534
  730TMC3    C510789   1.440   2.882  17.464 -0.2280  0.3707 -0.3314
  730TMC3    C610790   1.575   2.897  17.500  0.3525 -0.2645 -0.0425
  730TMC3     C10791   1.471   2.608  17.248 -0.2305  0.0483  0.5022
  730TMC3     O10792   1.352   2.583  17.226  0.3514  0.3193  0.8300
  730TMC3     H10793   1.685   2.596  17.386 -0.7904  0.2293 -1.7002
  730TMC3    H110794   1.314   2.764  17.347 -1.1295  1.7276 -0.7157
  730TMC3    H210795   1.604   2.980  17.563 -0.0037 -1.1021  1.2256
  730TMC3    C710796   1.376   3.001  17.411  0.6657  0.3969  0.5492
  730TMC3    C810797   1.801   2.821  17.456 -0.6959  0.3596 -0.0427
  730TMC3    O110798   1.339   2.985  17.296 -0.2123 -0.0191 -0.5547
  730TMC3    O210799   1.872   2.720  17.476 -0.0452  0.3365  0.4355
  731MPD2     C10800   1.840   1.608  12.349  0.2598  0.2361 -0.2322
  731MPD2    C110801   1.877   1.478  12.334  0.0993 -0.2400  0.0274
  731MPD2    C210802   1.824   1.381  12.428  0.5804  0.3757 -0.0627
  731MPD2    C310803   1.719   1.416  12.513 -0.2517 -0.1096 -0.3800
  731MPD2    C410804   1.687   1.545  12.525  0.5035  0.6118 -0.2201
  731MPD2    C510805   1.751   1.638  12.446 -0.2657 -0.1303  0.5277
  731MPD2     H10806   1.859   1.279  12.425 -0.8938 -0.1331 -0.1150
  731MPD2    H110807   1.616   1.576  12.601  0.6133  2.0201 -0.6933
  731MPD2    H210808   1.890   1.687  12.294 -0.7049  1.3699  0.5188
  731MPD2    H310809   1.711   1.739  12.449 -1.6358 -0.6477 -0.6713
  731MPD2     N10810   1.681   1.324  12.605 -1.1064  0.2112 -0.7821
  731MPD2    H510811   1.726   1.234  12.609  0.2926  1.0090  1.2994
  731MPD2    N110812   1.966   1.451  12.228 -0.3697  0.2456 -0.1598
  731MPD2    H710813   1.985   1.531  12.169 -0.6854 -1.2295 -2.2407
  732TMC3    C110814   2.056   1.338  12.055  0.0216  0.4979  0.1546
  732TMC3    C210815   1.992   1.272  11.956  0.2555 -0.0866 -0.6107
  732TMC3    C310816   2.053   1.263  11.833 -0.7188  0.5123 -0.4140
  732TMC3    C410817   2.167   1.409  12.034  0.1555 -0.0488  0.5363
  732TMC3    C510818   2.222   1.400  11.904  0.0582  0.0813 -0.5372
  732TMC3    C610819   2.165   1.330  11.803 -0.1853 -0.5376 -0.5857
  732TMC3     C10820   2.008   1.329  12.185  0.1662 -0.2749  0.3964
  732TMC3     O10821   1.987   1.218  12.233  0.7923 -0.1356 -0.4876
  732TMC3     H10822   1.909   1.208  11.985  0.6257 -0.0525  0.5428
  732TMC3    H110823   2.208   1.462  12.119 -0.3494 -0.7919  1.2309
  732TMC3    H210824   2.223   1.317  11.712 -1.8136  1.7106 -1.9445
  732TMC3    C710825   2.336   1.490  11.864 -0.5318 -0.7440 -0.5872
  732TMC3    C810826   1.974   1.214  11.721  0.6146 -1.4766  0.4826
  732TMC3    O110827   2.378   1.496  11.748 -0.7361  0.8088 -0.4933
  732TMC3    O210828   2.037   1.195  11.620 -0.1091  0.2431 -0.2625
  733TMC3    C110829   2.869   4.351  12.945  0.3843  0.7336 -0.3059
  733TMC3    C210830   2.970   4.317  13.024 -0.1025  0.0577  0.0112
  733TMC3    C310831   3.094   4.329  12.975 -0.7543  0.1779 -0.4433
  733TMC3    C410832   2.884   4.403  12.816  0.1667 -0.4577  0.0099
  733TMC3    C510833   3.015   4.410  12.769  0.1779 -0.1663 -0.0049
  733TMC3    C610834   3.116   4.373  12.848 -0.6135 -0.4755  0.1015
  733TMC3     C10835   2.740   4.378  13.009  0.3019  0.0626  0.0045
  733TMC3     O10836   2.660   4.445  12.943 -0.6075  0.6251 -0.2132
  733TMC3     H10837   2.958   4.282  13.126  1.6613  0.7303  0.4483
  733TMC3    H110838   2.806   4.460  12.767  0.1834 -1.5118 -1.2205
  733TMC3    H210839   3.212   4.369  12.798 -1.1974 -1.7065 -0.9032
  733TMC3    C710840   3.039   4.461  12.641 -0.3632 -0.5967  0.6223
  733TMC3    C810841   3.205   4.317  13.064  0.1047  0.1298 -0.1887
  733TMC3    O110842   2.953   4.440  12.553 -0.4791 -0.0629  0.0566
  733TMC3    O210843   3.190   4.283  13.178  0.0786  0.1319 -0.6191
  734MPD2     C10844   4.531   1.644  12.671  0.0156  0.0481  0.3308
  734MPD2    C110845   4.398   1.639  12.619 -0.4236 -0.4863 -0.2762
  734MPD2    C210846   4.364   1.719  12.512 -0.4828 -0.2385 -0.2551
  734MPD2    C310847   4.449   1.818  12.471  0.3556  0.1237 -0.9898
  734MPD2    C410848   4.578   1.823  12.522  0.0908  0.1702 -0.1431
  734MPD2    C510849   4.613   1.732  12.612 -0.9803 -0.3830  0.1075
  734MPD2     H10850   4.266   1.715  12.466 -0.7378  0.3685  0.2396
  734MPD2    H110851   4.652   1.886  12.473 -1.2112  0.0807 -2.2307
  734MPD2    H210852   4.553   1.591  12.763  2.0085 -1.3766 -0.9830
  734MPD2    H310853   0.000   1.739  12.637 -0.7182 -2.4213 -0.3996
  734MPD2     N10854   4.404   1.898  12.366 -0.0625 -0.3388 -0.1394
  734MPD2    H510855   4.308   1.883  12.338 -0.1695  1.5247 -0.7849
  734MPD2    N110856   4.314   1.527  12.667  0.1038  0.1081 -0.4495
  734MPD2    H710857   4.358   1.461  12.731  0.8535  2.1869  1.1727
  735TMC3    C110858   4.131   1.375  12.653  0.0503  0.3102  0.3260
  735TMC3    C210859   4.001   1.368  12.604  0.2600 -0.2414  0.8518
  735TMC3    C310860   3.978   1.266  12.511  0.3030  0.4669  0.1546
  735TMC3    C410861   4.226   1.281  12.622 -0.4968  0.0784 -0.1166
  735TMC3    C510862   4.191   1.173  12.540 -0.3302  0.7047 -0.4987
  735TMC3    C610863   4.071   1.168  12.484  0.1644 -0.2736  0.3517
  735TMC3     C10864   4.178   1.511  12.637  0.4024  0.3792 -0.7118
  735TMC3     O10865   4.110   1.590  12.573 -0.0024  0.3195 -0.1157
  735TMC3     H10866   3.924   1.440  12.629  1.4261  1.1064  0.5847
  735TMC3    H110867   4.330   1.286  12.652 -0.3380 -0.7042 -0.5374
  735TMC3    H210868   4.066   1.107  12.394  0.8636 -0.1395  0.2266
  735TMC3    C710869   4.297   1.114  12.466  0.3560  0.0566  0.3006
  735TMC3    C810870   3.913   1.314  12.392 -0.3650  0.6725 -1.1656
  735TMC3    O110871   4.388   1.194  12.434 -0.3749  0.6693 -0.7780
  735TMC3    O210872   3.863   1.228  12.316 -0.4405 -0.2827  0.0211
  736MPD2     C10873   4.385   0.775  12.461 -0.0722 -0.3102  0.1299
  736MPD2    C110874   4.398   0.903  12.421 -0.0678 -0.7293  0.5355
  736MPD2    C210875   4.507   0.939  12.332  0.4814  0.3226  0.3639
  736MPD2    C310876   4.596   0.851  12.286  0.0238 -0.0971  0.3774
  736MPD2    C410877   4.576   0.720  12.324 -0.0414  0.4617  0.1515
  736MPD2    C510878   4.474   0.686  12.406 -0.5261 -0.2530 -0.5177
  736MPD2     H10879   4.515   1.043  12.304  3.1644  0.1536  0.5030
  736MPD2    H110880   4.633   0.634  12.291 -0.4420 -0.3388  1.5203
  736MPD2    H210881   4.310   0.741  12.532  0.5357 -3.1608 -0.5820
  736MPD2    H310882   4.454   0.581  12.426  2.3254 -0.4282  1.4459
  736MPD2     N10883   4.697   0.889  12.194 -0.1748  0.4604  0.0139
  736MPD2    H510884   0.050   0.819  12.178 -0.7407  0.1131 -1.0123
  736MPD2    N110885   4.300   0.986  12.474 -0.1980  0.3802  0.2012
  736MPD2    H710886   4.236   0.944  12.541 -0.6326  0.7764  0.0361
  737TMC3    C110887   0.134   1.022  12.062  0.5230 -0.6304 -0.0288
  737TMC3    C210888   0.175   1.139  12.013  0.6118 -0.0096  0.0771
  737TMC3    C310889   0.252   1.150  11.895  0.2835 -0.9120  0.3793
  737TMC3    C410890   0.171   0.905  11.992 -0.2427 -0.7396  0.4621
  737TMC3    C510891   0.264   0.914  11.885 -0.7520 -0.3787 -0.5634
  737TMC3    C610892   0.299   1.037  11.826 -0.1480  0.1636  0.2622
  737TMC3     C10893   0.011   1.016  12.137 -0.4955 -0.2220  0.3849
  737TMC3     O10894   4.681   1.129  12.161  0.4776 -0.1257  0.1261
  737TMC3     H10895   0.131   1.227  12.058  0.2171 -0.8780  1.4055
  737TMC3    H110896   0.133   0.807  12.015  2.4486 -2.0346 -0.5251
  737TMC3    H210897   0.376   1.046  11.750 -0.4001 -2.9403 -0.4014
  737TMC3    C710898   0.307   0.790  11.829  0.6397  0.0757 -0.1842
  737TMC3    C810899   0.273   1.284  11.846 -0.4752 -0.1391  0.9275
  737TMC3    O110900   0.272   0.680  11.875 -0.1800  0.4692  0.3157
  737TMC3    O210901   0.256   1.375  11.929  0.2149 -0.6098 -0.1397
  738MPD2     C10902   0.394   0.563  14.656  0.0085  1.1749  0.3959
  738MPD2    C110903   0.463   0.490  14.753  0.4842  0.3796  1.0981
  738MPD2    C210904   0.602   0.475  14.738 -0.2315  0.0071 -0.3769
  738MPD2    C310905   0.656   0.543  14.625 -0.3880 -0.0162  0.9832
  738MPD2    C410906   0.589   0.618  14.534  0.0901  0.2578 -0.0425
  738MPD2    C510907   0.457   0.629  14.557 -0.2666  0.1179 -0.1110
  738MPD2     H10908   0.661   0.425  14.814 -1.1854 -1.6371 -0.7159
  738MPD2    H110909   0.629   0.684  14.458 -1.9071  0.7052 -0.7265
  738MPD2    H210910   0.286   0.578  14.661  0.2278  2.4568  1.2279
  738MPD2    H310911   0.404   0.696  14.490  0.3606  2.6959  1.9935
  738MPD2     N10912   0.791   0.529  14.585 -0.2899  0.0785  0.4945
  738MPD2    H510913   0.824   0.573  14.500  2.6112 -1.7679  0.6566
  738MPD2    N110914   0.400   0.423  14.857 -0.2999  0.4626 -0.7139
  738MPD2    H710915   0.469   0.375  14.914 -0.4550  1.8198  0.6011
  739TMC3    C110916   1.020   0.498  14.599  0.3075 -0.0152 -0.0689
  739TMC3    C210917   1.033   0.585  14.491  0.1510 -0.0055  0.1634
  739TMC3    C310918   1.139   0.571  14.403 -0.5021 -0.3899  0.0847
  739TMC3    C410919   1.104   0.391  14.618  0.6616  0.0055  0.0659
  739TMC3    C510920   1.201   0.381  14.522 -0.2047  0.1200 -0.4673
  739TMC3    C610921   1.220   0.460  14.410 -0.6242 -0.1264 -0.1366
  739TMC3     C10922   0.892   0.486  14.662  0.0727 -0.8077  0.1654
  739TMC3     O10923   0.883   0.424  14.766 -0.3385  0.2150  0.6100
  739TMC3     H10924   0.981   0.680  14.488 -0.4767 -0.3873 -1.0148
  739TMC3    H110925   1.084   0.316  14.695  0.4304  0.6786  0.6600
  739TMC3    H210926   1.303   0.448  14.341 -0.7877 -0.5548 -0.2571
  739TMC3    C710927   1.316   0.292  14.546 -0.5611  0.7970 -0.0554
  739TMC3    C810928   1.146   0.649  14.286  0.0705 -0.3707  0.1143
  739TMC3    O110929   1.410   0.299  14.467 -0.4382 -0.3427 -0.3132
  739TMC3    O210930   1.044   0.706  14.248 -0.5499 -0.2499 -0.0390
  740TMC3    C110931   1.281   1.669  14.627 -0.0210 -0.0068  0.7330
  740TMC3    C210932   1.355   1.645  14.739  0.0754  0.7150 -0.0434
  740TMC3    C310933   1.488   1.624  14.716 -0.3737 -0.0466 -0.2815
  740TMC3    C410934   1.332   1.694  14.498 -1.1193 -0.0637 -0.0948
  740TMC3    C510935   1.470   1.679  14.489 -0.8862 -0.1032 -0.0463
  740TMC3    C610936   1.547   1.633  14.596 -0.1619 -0.0090 -0.4431
  740TMC3     C10937   1.144   1.697  14.635 -0.8111 -0.4093  0.1055
  740TMC3     O10938   1.096   1.791  14.576 -0.2656  0.2204  0.6596
  740TMC3     H10939   1.309   1.627  14.836 -0.7972  0.8154 -0.4478
  740TMC3    H110940   1.264   1.685  14.414 -1.5753 -0.8901  0.3639
  740TMC3    H210941   1.655   1.630  14.579 -0.0584 -0.0031  0.2233
  740TMC3    C710942   1.544   1.688  14.362 -0.2309  0.0733  0.2924
  740TMC3    C810943   1.570   1.560  14.816  0.7681 -0.7901  0.2161
  740TMC3    O110944   1.661   1.646  14.352  0.5021 -0.3121 -0.2960
  740TMC3    O210945   1.672   1.510  14.784 -0.0944  0.2615  0.6796
  741TMC3    C110946   0.433   1.202  13.675  0.1605  0.4659  0.0891
  741TMC3    C210947   0.346   1.096  13.662  0.0001  0.4159  0.2225
  741TMC3    C310948   0.391   0.983  13.717 -0.0683  0.1367  0.1783
  741TMC3    C410949   0.567   1.199  13.715  0.4686 -0.7902  0.0212
  741TMC3    C510950   0.607   1.077  13.757  0.4546  0.4825 -0.3955
  741TMC3    C610951   0.518   0.968  13.762  0.0483  0.1279  0.0078
  741TMC3     C10952   0.360   1.327  13.698  0.3792 -0.2112 -0.0060
  741TMC3     O10953   0.248   1.345  13.652  0.8650  0.1053  0.0938
  741TMC3     H10954   0.240   1.111  13.650  0.1436  1.8431  0.7645
  741TMC3    H110955   0.628   1.287  13.732 -2.9866  1.4117  1.2785
  741TMC3    H210956   0.552   0.873  13.802 -2.5602 -0.3869  1.0032
  741TMC3    C710957   0.707   1.060  13.851 -0.7496 -0.5122 -0.7302
  741TMC3    C810958   0.284   0.898  13.767 -0.1605 -0.2326  0.8410
  741TMC3    O110959   0.686   0.971  13.933 -0.3500  0.5377 -0.2145
  741TMC3    O210960   0.170   0.937  13.786 -0.3017 -0.3456 -0.0673
  742TMC3    C110961   0.961   4.459  14.991 -0.1248 -0.5153  0.1167
  742TMC3    C210962   0.881   4.425  14.887 -0.5411  0.3925  1.0414
  742TMC3    C310963   0.841   4.293  14.890 -0.4408  0.3367 -0.2392
  742TMC3    C410964   1.018   4.375  15.084 -0.1681 -0.1635  0.3669
  742TMC3    C510965   0.984   4.244  15.070  0.5143  0.7536  0.0031
  742TMC3    C610966   0.892   4.201  14.978  0.3083  0.1495 -0.0507
  742TMC3     C10967   0.970   4.602  15.020 -0.2539  0.2619 -0.3235
  742TMC3     O10968   0.885   4.670  14.960  0.0794  0.2699  0.4353
  742TMC3     H10969   0.836   4.511  14.840  0.4267  0.9609  1.1505
  742TMC3    H110970   1.085   4.410  15.162 -0.4777  1.0500  0.0781
  742TMC3    H210971   0.858   4.098  14.977  1.5373 -0.2500 -0.8767
  742TMC3    C710972   1.037   4.149  15.162 -0.2025 -0.1241 -0.1001
  742TMC3    C810973   0.738   4.236  14.803 -0.1117 -0.5692  0.3348
  742TMC3    O110974   0.973   4.049  15.189 -0.5322 -0.2116  0.1442
  742TMC3    O210975   0.722   4.113  14.800 -0.0753 -0.3051  1.1617
  743MPD2     C10976   4.114   0.284   1.544  0.1732  0.3242  0.6113
  743MPD2    C110977   4.151   0.399   1.485  0.0542 -0.6803 -1.1683
  743MPD2    C210978   4.280   0.413   1.433 -0.0759 -1.2211  0.2216
  743MPD2    C310979   4.365   0.302   1.437 -0.4418 -0.1506 -0.3767
  743MPD2    C410980   4.326   0.186   1.504  0.1561 -0.3214 -1.0081
  743MPD2    C510981   4.199   0.183   1.554  0.0489 -0.4707  0.0606
  743MPD2     H10982   4.319   0.503   1.388  1.7281 -2.2021 -0.1661
  743MPD2    H110983   4.376   0.092   1.524  0.0354 -0.1101  0.3402
  743MPD2    H210984   4.014   0.281   1.583  0.0722  1.0957  0.4175
  743MPD2    H310985   4.180   0.085   1.595 -0.1460 -1.3070 -2.0569
  743MPD2     N10986   4.489   0.321   1.376 -0.8324  0.4255 -0.0955
  743MPD2    H510987   4.514   0.414   1.346 -0.5591  0.4797  0.3111
  743MPD2    N110988   4.054   0.503   1.474 -0.4780  0.0964 -0.0049
  743MPD2    H710989   3.957   0.481   1.496 -0.0762  1.1109  2.7789
  744TMC3    C110990   3.958   0.690   1.393  0.3071  0.3828  0.4859
  744TMC3    C210991   3.897   0.793   1.470 -0.7354  0.7115  0.0741
  744TMC3    C310992   3.764   0.797   1.478 -0.5564 -0.5747 -0.2331
  744TMC3    C410993   3.885   0.599   1.327 -0.2840  0.7020  0.3346
  744TMC3    C510994   3.750   0.615   1.336 -0.4678 -0.0639  0.8133
  744TMC3    C610995   3.682   0.706   1.414  0.0585  0.2087 -0.5692
  744TMC3     C10996   4.079   0.635   1.438 -0.4612  1.0367 -0.7437
  744TMC3     O10997   4.188   0.697   1.441  0.2396  0.1031  0.3501
  744TMC3     H10998   3.964   0.860   1.522  2.2999 -1.6027 -0.8934
  744TMC3    H110999   3.932   0.516   1.275 -1.4839  0.4465 -0.3494
  744TMC3    H211000   3.574   0.711   1.413  0.0252 -0.0331  1.8962
  744TMC3    C711001   3.667   0.552   1.232  0.1434  0.1777  0.4954
  744TMC3    C811002   3.705   0.924   1.505  0.4869  0.4714  0.4715
  744TMC3    O111003   3.550   0.526   1.253 -0.0171  0.0477  0.2531
  744TMC3    O211004   3.604   0.944   1.436 -0.0537 -0.1390  0.5577
  745TMC3    C111005   1.495   3.874  13.709 -0.7093  0.1892 -0.0110
  745TMC3    C211006   1.417   3.786  13.776 -0.0987  0.8375  0.4279
  745TMC3    C311007   1.295   3.756  13.719 -0.7576  0.6030 -0.1345
  745TMC3    C411008   1.482   3.878  13.575 -0.3986 -0.2279 -0.2299
  745TMC3    C511009   1.385   3.804  13.515 -0.1688 -0.6654 -0.0303
  745TMC3    C611010   1.286   3.744  13.583  0.7455 -0.6917  0.2741
  745TMC3     C11011   1.516   3.998  13.779  0.2110 -0.1308  0.2053
  745TMC3     O11012   1.539   3.985  13.900  0.6747  0.2068  0.2154
  745TMC3     H11013   1.425   3.782  13.884  1.6256  0.5025  0.2874
  745TMC3    H111014   1.539   3.954  13.523 -0.3137 -0.9217 -1.1700
  745TMC3    H211015   1.189   3.717  13.544  0.2843  1.0950  0.1997
  745TMC3    C711016   1.368   3.804  13.366  0.7573  0.3172  0.0798
  745TMC3    C811017   1.205   3.858  13.765  0.4250  0.0785 -0.0458
  745TMC3    O111018   1.276   3.736  13.325  0.4005  0.1604 -0.1684
  745TMC3    O211019   1.128   3.898  13.681  0.1227  0.3700 -0.2026
  746TMC3    C111020   3.242   0.627  11.153  0.1598 -0.3522 -0.0610
  746TMC3    C211021   3.331   0.542  11.096  0.0180 -0.1747 -0.7965
  746TMC3    C311022   3.288   0.429  11.032  0.6583  0.6192  0.0205
  746TMC3    C411023   3.109   0.594  11.162  0.5284  0.2846 -0.4203
  746TMC3    C511024   3.064   0.477  11.095  0.1775  0.5920 -0.1543
  746TMC3    C611025   3.156   0.390  11.033 -0.3209 -0.2869  0.4619
  746TMC3     C11026   3.265   0.767  11.170  0.7405  0.0997  0.4622
  746TMC3     O11027   3.172   0.844  11.193  0.2743  0.2171  0.5065
  746TMC3     H11028   3.437   0.560  11.100 -0.0250  0.2984 -1.7088
  746TMC3    H111029   3.040   0.664  11.207  2.0974  1.2679  0.4486
  746TMC3    H211030   3.115   0.320  10.961  1.0780  0.6702 -1.2702
  746TMC3    C711031   2.926   0.451  11.083 -0.1165  0.0106  0.3546
  746TMC3    C811032   3.357   0.390  10.918  0.0989 -0.0793  0.8914
  746TMC3    O111033   2.892   0.415  10.970  0.3041  0.2002  0.3046
  746TMC3    O211034   3.351   0.278  10.865 -0.1170 -0.1267 -0.3420
  747TMC3    C111035   1.151   0.856  11.189 -0.1740 -0.4813  0.4776
  747TMC3    C211036   1.061   0.769  11.242 -0.0274 -0.4339 -0.2038
  747TMC3    C311037   0.978   0.819  11.331 -0.0069  0.4404 -0.5692
  747TMC3    C411038   1.155   0.994  11.218  0.0754  0.1782 -0.0373
  747TMC3    C511039   1.067   1.035  11.315 -0.3497  0.3884  0.1141
  747TMC3    C611040   0.973   0.952  11.374  0.0864 -0.3598  0.2697
  747TMC3     C11041   1.253   0.812  11.099  0.1182 -0.2437  0.1779
  747TMC3     O11042   1.352   0.881  11.087  0.0246  0.3179  0.8623
  747TMC3     H11043   1.055   0.663  11.218  0.0066 -0.2129 -1.1605
  747TMC3    H111044   1.229   1.056  11.168 -2.2707  1.3547 -2.0239
  747TMC3    H211045   0.916   0.984  11.461  0.1851 -2.8955  1.2792
  747TMC3    C711046   1.044   1.178  11.324  0.3680 -0.2953  0.0501
  747TMC3    C811047   0.894   0.713  11.391  0.1326 -0.6040 -0.2566
  747TMC3    O111048   0.982   1.225  11.422 -0.6488 -0.4252 -0.0232
  747TMC3    O211049   0.934   0.597  11.403  0.0012 -0.4347 -0.7084
  748MPD2     C11050   2.369   2.382   1.818 -0.4799 -0.4069  0.1038
  748MPD2    C111051   2.366   2.279   1.723  0.3525 -0.5285 -0.1295
  748MPD2    C211052   2.488   2.217   1.713 -0.2504 -0.6659  0.1863
  748MPD2    C311053   2.606   2.265   1.767 -0.5613 -0.0051  0.3653
  748MPD2    C411054   2.602   2.367   1.861  0.1820  0.5741  0.1299
  748MPD2    C511055   2.481   2.428   1.880  0.4970 -0.2260  0.1918
  748MPD2     H11056   2.504   2.128   1.652 -0.0392 -1.0003  0.7289
  748MPD2    H111057   2.695   2.407   1.899 -0.4198 -0.8579  3.1038
  748MPD2    H211058   2.275   2.433   1.837 -1.2332 -1.8260  0.2176
  748MPD2    H311059   2.471   2.515   1.943  2.1393  1.3673 -1.7607
  748MPD2     N11060   2.725   2.214   1.712 -0.3369  0.5905 -0.5881
  748MPD2    H511061   2.715   2.156   1.630  0.1181 -0.8397  0.3704
  748MPD2    N111062   2.247   2.242   1.665 -0.5961 -0.4841 -0.3633
  748MPD2    H711063   2.162   2.292   1.689  0.7435  1.2493  0.7323
  749TMC3    C111064   2.953   2.193   1.668  0.0221  0.2361  0.6590
  749TMC3    C211065   3.069   2.140   1.714  0.4624 -0.4051 -0.0239
  749TMC3    C311066   3.173   2.111   1.633  0.1531 -0.7444  0.6667
  749TMC3    C411067   2.930   2.204   1.536 -0.7603 -0.0323 -0.0564
  749TMC3    C511068   3.027   2.164   1.455  0.1098  0.2123 -0.3552
  749TMC3    C611069   3.151   2.131   1.504  0.2775 -0.1218  0.4942
  749TMC3     C11070   2.855   2.235   1.763  0.2778 -0.1637  0.1857
  749TMC3     O11071   2.902   2.256   1.876 -0.5318  0.2489  0.2818
  749TMC3     H11072   3.087   2.140   1.821 -0.5307 -1.0700  0.1488
  749TMC3    H111073   2.839   2.250   1.499 -1.0158  0.1401  0.7821
  749TMC3    H211074   3.232   2.115   1.433  1.9079 -0.8430  2.5276
  749TMC3    C711075   3.031   2.231   1.325 -0.2272 -0.5969 -0.7473
  749TMC3    C811076   3.297   2.066   1.687 -0.3224 -0.0256  0.3078
  749TMC3    O111077   3.126   2.308   1.307 -0.1511  0.6601 -0.1882
  749TMC3    O211078   3.315   2.100   1.804 -0.1162  0.1439  0.1207
  750MPD2     C11079   3.753   2.654  11.124 -0.0462  0.1266  0.3228
  750MPD2    C111080   3.641   2.635  11.201 -0.0689 -0.0474  0.3788
  750MPD2    C211081   3.591   2.512  11.207 -0.4882  0.3147  0.3626
  750MPD2    C311082   3.637   2.409  11.124 -0.0995  0.3339 -0.1299
  750MPD2    C411083   3.747   2.422  11.038  0.6302  0.3664  0.3433
  750MPD2    C511084   3.805   2.549  11.042 -0.6864 -0.1298 -0.2816
  750MPD2     H11085   3.511   2.491  11.277 -0.7716  0.8725  0.2077
  750MPD2    H111086   3.794   2.342  10.981 -1.0316  1.3487 -2.4443
  750MPD2    H211087   3.801   2.751  11.115  0.0895  0.1453  1.3529
  750MPD2    H311088   3.886   2.555  10.971 -0.9215  3.3011 -0.2586
  750MPD2     N11089   3.581   2.276  11.128 -0.0574  0.6251 -0.4960
  750MPD2    H511090   3.617   2.202  11.070 -1.1010 -1.6842  1.8201
  750MPD2    N111091   3.597   2.750  11.282 -0.2024  0.2231 -0.2452
  750MPD2    H711092   3.650   2.835  11.267 -2.2715  1.9877  2.4384
  751TMC3    C111093   3.421   2.111  11.173  0.4205 -0.1338 -0.3156
  751TMC3    C211094   3.294   2.094  11.203  0.2332 -0.4552 -0.5146
  751TMC3    C311095   3.232   1.984  11.152  0.2369  0.1159 -0.1006
  751TMC3    C411096   3.494   2.023  11.113 -0.6392  0.3004 -0.3630
  751TMC3    C511097   3.429   1.915  11.061 -0.0008  0.3268 -0.8183
  751TMC3    C611098   3.301   1.887  11.079  0.7949  0.4617 -0.3378
  751TMC3     C11099   3.481   2.243  11.209 -0.8261  0.1038  0.4550
  751TMC3     O11100   3.405   2.303  11.285  0.3552 -0.0683 -0.4409
  751TMC3     H11101   3.238   2.179  11.241  1.3383  0.0070  0.0811
  751TMC3    H111102   3.603   2.022  11.115 -0.6399 -1.4432 -2.1762
  751TMC3    H211103   3.248   1.809  11.027  1.6963  0.0434 -0.6247
  751TMC3    C711104   3.512   1.815  10.992  0.2272 -0.2128  0.2752
  751TMC3    C811105   3.089   1.976  11.136  0.3682  0.9371 -0.1640
  751TMC3    O111106   3.630   1.841  10.967  0.2276  0.2085  0.3652
  751TMC3    O211107   3.058   1.892  11.057 -0.0709  0.5750 -0.3062
  752TMC3    C111108   2.957   2.748  17.083 -0.3554  0.2802 -0.3074
  752TMC3    C211109   2.857   2.681  17.147 -0.0004 -0.6796 -0.1487
  752TMC3    C311110   2.869   2.639  17.275  0.1807 -0.7201  0.7385
  752TMC3    C411111   3.065   2.784  17.157 -0.0818 -0.6976  0.5080
  752TMC3    C511112   3.078   2.735  17.290 -0.0245 -1.0614  0.1629
  752TMC3    C611113   2.984   2.656  17.349  0.6183  0.1254 -0.0220
  752TMC3     C11114   2.908   2.850  16.998  0.3250  0.2258  0.5572
  752TMC3     O11115   2.956   2.960  17.016  0.1110  0.1059 -0.0591
  752TMC3     H11116   2.764   2.657  17.096  0.1135 -0.4250 -0.4773
  752TMC3    H111117   3.146   2.842  17.113 -0.2138  0.3150  1.5813
  752TMC3    H211118   2.993   2.619  17.450  2.0862 -0.9378 -0.5485
  752TMC3    C711119   3.209   2.741  17.362 -0.5653 -0.6212  0.6195
  752TMC3    C811120   2.756   2.553  17.321  0.6141 -0.4474  0.2819
  752TMC3    O111121   3.216   2.668  17.461 -0.6367  0.2556 -0.0853
  752TMC3    O211122   2.699   2.477  17.242  0.0759  0.5860 -0.0392
  753TMC3    C111123   4.080   3.749  13.372  0.1421  0.3198  0.2612
  753TMC3    C211124   4.100   3.735  13.505 -0.3179  0.2027  0.3077
  753TMC3    C311125   4.074   3.615  13.564 -0.6542 -0.5596  0.2681
  753TMC3    C411126   4.037   3.641  13.299 -0.3517  0.6103 -0.2912
  753TMC3    C511127   4.015   3.518  13.357  0.3505  0.4486  0.0331
  753TMC3    C611128   4.028   3.506  13.493 -0.4795  0.6537  0.1176
  753TMC3     C11129   4.155   3.854  13.295  0.4439  0.6207 -0.4676
  753TMC3     O11130   4.137   3.856  13.173 -0.3437 -0.5560 -0.3180
  753TMC3     H11131   4.125   3.826  13.559  1.5046  0.6443 -1.2608
  753TMC3    H111132   4.017   3.649  13.193 -0.8144  0.8286 -0.1880
  753TMC3    H211133   4.000   3.420  13.552  0.2548  0.8612  0.7576
  753TMC3    C711134   4.022   3.405  13.264  0.1432 -0.1254  0.7563
  753TMC3    C811135   4.118   3.594  13.702 -0.6264 -0.3081 -0.2884
  753TMC3    O111136   4.089   3.427  13.162  0.4478 -0.1647  0.1320
  753TMC3    O211137   4.083   3.487  13.757  0.5413 -0.4559 -0.2168
  754MPD2     C11138   2.339   3.087  13.296  0.3351  0.7881 -0.0268
  754MPD2    C111139   2.207   3.058  13.312 -0.1296  0.4218 -0.2473
  754MPD2    C211140   2.110   3.098  13.222  0.2087 -0.6100 -0.7526
  754MPD2    C311141   2.134   3.199  13.129  0.0645 -0.3721 -0.8809
  754MPD2    C411142   2.271   3.226  13.112  1.2000  0.0497  0.1558
  754MPD2    C511143   2.367   3.156  13.185  0.0676  0.3151 -0.3498
  754MPD2     H11144   2.009   3.059  13.220  0.0217 -0.0373 -2.3760
  754MPD2    H111145   2.300   3.287  13.027 -0.6929 -0.1197 -0.6074
  754MPD2    H211146   2.420   3.042  13.351  0.0403 -0.9189 -0.9789
  754MPD2    H311147   2.471   3.180  13.169  0.3659  0.0328  1.1851
  754MPD2     N11148   2.037   3.262  13.044  0.2844 -0.5834  0.0155
  754MPD2    H511149   2.087   3.311  12.971  1.6429 -2.0705 -0.0679
  754MPD2    N111150   2.176   2.987  13.428 -0.6562 -0.0259  0.1669
  754MPD2    H711151   2.259   2.978  13.486 -0.5952 -2.0023 -0.2374
  755MPD2     C11152   2.310   3.462  13.760 -0.3144  0.4347  0.4117
  755MPD2    C111153   2.213   3.379  13.808  0.3612  0.1835 -0.4934
  755MPD2    C211154   2.115   3.342  13.721 -0.0625  0.7071 -0.0461
  755MPD2    C311155   2.122   3.375  13.587 -0.4423 -0.1190  0.3740
  755MPD2    C411156   2.228   3.452  13.542 -0.1252  1.1740 -0.1473
  755MPD2    C511157   2.321   3.494  13.628 -0.2158  0.2322 -0.1143
  755MPD2     H11158   2.027   3.298  13.766  0.1783  1.4861  1.1824
  755MPD2    H111159   2.228   3.476  13.437  2.2797  1.5338 -0.0684
  755MPD2    H211160   2.395   3.487  13.822  1.4980 -3.6872 -0.4107
  755MPD2    H311161   2.410   3.540  13.587 -0.4293  1.2481  0.5448
  755MPD2     N11162   2.023   3.339  13.500 -0.7453  0.5892  0.3979
  755MPD2    H511163   2.035   3.380  13.408 -1.0840 -3.0829 -1.2891
  755MPD2    N111164   2.205   3.340  13.935  0.1479  0.0031 -0.2565
  755MPD2    H711165   2.126   3.282  13.962  0.6057  0.9209  3.1117
  756MPD2     C11166   3.610   2.822   9.473 -0.4664 -0.4113  0.7318
  756MPD2    C111167   3.554   2.898   9.374  0.2564 -1.2132 -0.5884
  756MPD2    C211168   3.430   2.858   9.321  0.9167  0.3403  0.1708
  756MPD2    C311169   3.369   2.755   9.381  0.0612  0.2644  0.0435
  756MPD2    C411170   3.414   2.683   9.487 -0.7399  1.3075  0.0416
  756MPD2    C511171   3.547   2.713   9.524 -0.5806 -0.0185 -0.0856
  756MPD2     H11172   3.384   2.920   9.245 -2.1733 -1.9604  0.1739
  756MPD2    H111173   3.358   2.610   9.544 -1.0886 -0.3113 -2.3324
  756MPD2    H211174   3.715   2.841   9.491 -0.2023 -1.1694  0.0122
  756MPD2    H311175   3.597   2.665   9.608 -2.9693  0.5801  1.7059
  756MPD2     N11176   3.241   2.717   9.327  0.5860  0.0850 -0.3662
  756MPD2    H511177   3.204   2.767   9.247 -2.0002 -0.3984  0.5243
  756MPD2    N111178   3.615   3.015   9.331  0.7462 -0.1160  0.1150
  756MPD2    H711179   3.575   3.059   9.248 -0.6651  0.4844  1.1352
  757MPD2     C11180   2.613   1.978   9.564 -0.5513  0.4024  0.3469
  757MPD2    C111181   2.749   1.980   9.542 -0.2591  0.3013  0.6341
  757MPD2    C211182   2.798   2.076   9.457  0.3876 -0.6460 -0.5126
  757MPD2    C311183   2.716   2.175   9.418 -0.4892 -0.8875 -0.3786
  757MPD2    C411184   2.582   2.180   9.444  0.6492  0.4890  0.2792
  757MPD2    C511185   2.534   2.074   9.516 -0.2690 -0.4562  0.5254
  757MPD2     H11186   2.896   2.062   9.413  0.4669  0.9203 -0.8451
  757MPD2    H111187   2.523   2.260   9.401  0.9824 -0.4631 -1.9571
  757MPD2    H211188   2.558   1.908   9.626 -0.3151  0.3801  0.5323
  757MPD2    H311189   2.428   2.061   9.536 -0.4546 -1.8065 -1.3566
  757MPD2     N11190   2.780   2.278   9.340  0.2691 -0.3795 -0.6159
  757MPD2    H511191   2.881   2.276   9.352  0.5203 -1.9220 -3.0263
  757MPD2    N111192   2.839   1.883   9.600  0.5053 -0.2062  0.0274
  757MPD2    H711193   2.799   1.803   9.648  2.5436 -0.7687  0.7847
  758MPD2     C11194   3.020   2.005  15.950 -0.1576 -0.6226 -0.0609
  758MPD2    C111195   3.138   1.952  15.995 -0.3247 -0.2048  0.7309
  758MPD2    C211196   3.161   1.952  16.132 -0.6668  0.3656  0.4365
  758MPD2    C311197   3.063   1.981  16.229 -0.0841  0.2358  0.0851
  758MPD2    C411198   2.944   2.021  16.177 -0.1561 -0.1422 -0.1614
  758MPD2    C511199   2.927   2.042  16.043 -0.2599 -0.1781  0.4439
  758MPD2     H11200   3.259   1.913  16.158 -0.8211 -2.1911 -2.7244
  758MPD2    H111201   2.860   2.029  16.245  1.0891  1.0201  1.2634
  758MPD2    H211202   3.009   2.017  15.843 -0.9734 -2.1039 -0.1452
  758MPD2    H311203   2.832   2.087  16.018 -0.5281 -1.0130 -0.0214
  758MPD2     N11204   3.087   1.971  16.366 -0.4632  0.0579  0.5342
  758MPD2    H511205   3.013   2.001  16.429 -0.3173  2.0267 -0.2115
  758MPD2    N111206   3.239   1.910  15.911  0.2277 -0.0014 -0.0013
  758MPD2    H711207   3.309   1.858  15.962 -0.0112 -0.7752 -0.4708
  759MPD2     C11208   2.502   4.262  10.032 -0.2103 -0.0890 -0.1723
  759MPD2    C111209   2.437   4.145  10.008  0.2536  0.7137 -0.3895
  759MPD2    C211210   2.388   4.119   9.881  0.0272  0.1387 -0.4401
  759MPD2    C311211   2.398   4.217   9.788  0.4597 -0.1848 -0.0043
  759MPD2    C411212   2.448   4.341   9.813  0.2467  0.1511 -0.8017
  759MPD2    C511213   2.512   4.354   9.931  0.0815  0.5412  0.8096
  759MPD2     H11214   2.330   4.030   9.859 -1.1112  0.7199  0.2275
  759MPD2    H111215   2.454   4.417   9.737  0.8644 -0.6184 -1.5254
  759MPD2    H211216   2.537   4.291  10.130 -0.7280 -1.1818  0.3364
  759MPD2    H311217   2.557   4.450   9.953 -2.2861  1.7665  0.3351
  759MPD2     N11218   2.353   4.174   9.659 -0.1188  0.4941 -0.0800
  759MPD2    H511219   2.321   4.078   9.652  0.9348  0.2335 -1.2901
  759MPD2    N111220   2.417   4.055  10.117 -0.3157 -0.2054  0.1885
  759MPD2    H711221   2.397   3.961  10.083  0.3419 -0.0232 -0.6940
  760MPD2     C11222   1.409   2.727  12.167  0.7151  0.1860 -0.4525
  760MPD2    C111223   1.539   2.680  12.140 -0.3435  1.0159  0.9318
  760MPD2    C211224   1.582   2.565  12.205 -0.0105  1.2494 -0.4518
  760MPD2    C311225   1.499   2.493  12.292 -0.4721 -0.0209  0.1102
  760MPD2    C411226   1.373   2.539  12.322 -0.4826 -0.2336 -0.3352
  760MPD2    C511227   1.332   2.656  12.251 -0.1819 -0.2968  0.4702
  760MPD2     H11228   1.685   2.533  12.197 -0.4071 -0.7482  2.6084
  760MPD2    H111229   1.308   2.484  12.389 -1.3364 -0.5582 -1.4345
  760MPD2    H211230   1.373   2.820  12.123 -1.7633  0.3368  1.9056
  760MPD2    H311231   1.235   2.699  12.273  1.3051  3.3397 -0.1423
  760MPD2     N11232   1.535   2.366  12.350  0.8282  0.0891 -0.2802
  760MPD2    H511233   1.457   2.315  12.390 -0.1203  0.8775 -1.1522
  760MPD2    N111234   1.625   2.757  12.063 -0.4048  0.4089 -0.2084
  760MPD2    H711235   1.725   2.738  12.058 -0.3754  0.6123 -0.4171
  761MPD2     C11236   2.606   2.047  11.274  0.0301  0.0256 -0.2985
  761MPD2    C111237   2.660   1.953  11.190 -0.1186  0.2386 -0.3231
  761MPD2    C211238   2.797   1.941  11.180 -0.1582  0.2174 -0.1793
  761MPD2    C311239   2.876   2.037  11.245 -0.7918  0.6587 -0.3750
  761MPD2    C411240   2.819   2.136  11.330  0.3739 -0.2876  0.7560
  761MPD2    C511241   2.686   2.135  11.350 -1.0820 -0.6899  0.0513
  761MPD2     H11242   2.847   1.866  11.120  0.5169  0.0714  0.5679
  761MPD2    H111243   2.887   2.202  11.383 -0.0931  0.5774  0.2643
  761MPD2    H211244   2.500   2.044  11.298 -0.0522  3.6774 -0.2853
  761MPD2    H311245   2.642   2.203  11.422  0.1003  1.9293 -1.6745
  761MPD2     N11246   3.017   2.047  11.220  0.2256  0.9499  0.8529
  761MPD2    H511247   3.068   2.114  11.276 -3.4808  3.9013  0.6368
  761MPD2    N111248   2.578   1.856  11.126 -0.1380 -0.2603 -0.3643
  761MPD2    H711249   2.483   1.858  11.161 -0.2021  1.7378 -0.6126
  762MPD2     C11250   2.844   1.578  10.532 -0.3209 -0.0812  0.0021
  762MPD2    C111251   2.857   1.489  10.633 -0.9317 -0.8283  0.3069
  762MPD2    C211252   2.973   1.409  10.624  0.0055  0.0188 -1.1119
  762MPD2    C311253   3.075   1.429  10.524  0.6588  0.0973 -0.5419
  762MPD2    C411254   3.047   1.513  10.423 -0.1266  0.0523 -0.1656
  762MPD2    C511255   2.929   1.582  10.430  0.4330  0.2194 -0.2017
  762MPD2     H11256   2.993   1.338  10.704 -2.7598  0.0022 -0.4115
  762MPD2    H111257   3.114   1.515  10.338  1.1902 -1.2944  0.8406
  762MPD2    H211258   2.761   1.648  10.528 -0.4593 -0.1977  0.8377
  762MPD2    H311259   2.901   1.646  10.347  1.2064 -0.5169 -1.0285
  762MPD2     N11260   3.195   1.353  10.532  0.1746  0.1090 -0.1792
  762MPD2    H511261   3.190   1.282  10.605  3.6692 -1.0006 -1.0183
  762MPD2    N111262   2.757   1.497  10.740 -0.6094 -0.3938  0.0481
  762MPD2    H711263   2.690   1.572  10.727 -0.9986 -0.2454  2.7702
  763MPD2     C11264   0.217   1.902  16.062  0.6779  0.0291 -0.0995
  763MPD2    C111265   0.087   1.937  16.028 -0.4544  0.0097 -0.1513
  763MPD2    C211266   0.050   2.071  16.043  0.0368 -0.0054  0.4204
  763MPD2    C311267   0.134   2.164  16.101  0.1194  0.1517  0.4120
  763MPD2    C411268   0.258   2.124  16.136 -0.1063 -0.0662  0.2555
  763MPD2    C511269   0.299   1.998  16.115  0.4821 -0.6655  0.4721
  763MPD2     H11270   4.667   2.096  16.016  0.4443  2.1054  0.8644
  763MPD2    H111271   0.340   2.185  16.173  1.4141 -1.3936 -0.9080
  763MPD2    H211272   0.257   1.801  16.065 -1.0858 -0.7680 -3.0030
  763MPD2    H311273   0.398   1.967  16.146  0.0564 -2.7698 -0.2797
  763MPD2     N11274   0.089   2.295  16.125 -0.0440  0.3436 -0.1689
  763MPD2    H511275   0.018   2.338  16.066 -1.9105 -0.5163  1.4295
  763MPD2    N111276   4.715   1.845  15.971  0.0438 -0.5251  0.1741
  763MPD2    H711277   4.626   1.881  15.941  0.6287 -0.6791 -1.7648
  764MPD2     C11278   2.918   4.284  16.922 -0.4535  0.0279  1.2205
  764MPD2    C111279   2.835   4.171  16.933  0.2223 -0.1674  0.4826
  764MPD2    C211280   2.815   4.111  17.052 -0.3071  0.8152 -0.7345
  764MPD2    C311281   2.881   4.161  17.167  0.2897 -0.6547 -0.2984
  764MPD2    C411282   2.964   4.270  17.157  0.1734 -0.0464 -0.0458
  764MPD2    C511283   2.981   4.323  17.036  1.0042 -0.1224  0.1086
  764MPD2     H11284   2.743   4.030  17.058  0.3557  0.1802 -1.2937
  764MPD2    H111285   3.006   4.326  17.240  0.6877 -1.0807  0.3821
  764MPD2    H211286   2.944   4.332  16.828  0.6650 -0.6355  1.1971
  764MPD2    H311287   3.048   4.408  17.029  0.5789  0.1268 -0.8549
  764MPD2     N11288   2.830   4.108  17.291  0.6498 -0.4937 -0.3536
  764MPD2    H511289   2.755   4.040  17.284  1.1059 -1.0574  0.3364
  764MPD2    N111290   2.754   4.125  16.826 -0.5173  0.2760  0.2199
  764MPD2    H711291   2.700   4.040  16.840  0.2272 -0.3795 -0.7891
  765MPD2     C11292   2.378   1.310  16.007  0.5835 -0.0324  0.4195
  765MPD2    C111293   2.471   1.411  15.999  0.5528 -0.5458  0.0319
  765MPD2    C211294   2.607   1.388  15.953  0.0119  0.1405  0.3210
  765MPD2    C311295   2.633   1.257  15.908 -0.7490  0.2110 -0.0700
  765MPD2    C411296   2.533   1.158  15.907  0.2068 -0.3034 -0.0044
  765MPD2    C511297   2.406   1.188  15.955 -0.2238 -0.0045 -0.3404
  765MPD2     H11298   2.693   1.454  15.956 -0.4597  0.7514  0.4250
  765MPD2    H111299   2.549   1.057  15.873  0.6925  0.1640 -1.1788
  765MPD2    H211300   2.280   1.331  16.049 -1.1692  0.0247 -3.6695
  765MPD2    H311301   2.322   1.118  15.958  0.5682 -0.9422 -0.0754
  765MPD2     N11302   2.764   1.240  15.851 -0.6415  0.8289 -0.6038
  765MPD2    H511303   2.823   1.322  15.848 -1.6973  1.3971 -5.4874
  765MPD2    N111304   2.435   1.546  16.042  0.1887 -0.2220 -0.0569
  765MPD2    H711305   2.343   1.554  16.084  0.1151 -1.9525  0.1118
  766MPD2     C11306   1.984   1.766  15.639  0.2594  0.2776 -0.4550
  766MPD2    C111307   2.121   1.763  15.640  1.0177  0.3437 -0.1076
  766MPD2    C211308   2.195   1.696  15.547 -0.4096  0.4839  0.3535
  766MPD2    C311309   2.130   1.647  15.437  0.5515 -0.3922  0.2234
  766MPD2    C411310   1.990   1.650  15.428 -0.2035 -0.8531 -0.4086
  766MPD2    C511311   1.913   1.706  15.527  0.0413 -0.0771 -0.4413
  766MPD2     H11312   2.303   1.692  15.553 -0.4537  0.3973  1.0815
  766MPD2    H111313   1.933   1.598  15.351  0.9995 -1.1348 -1.1236
  766MPD2    H211314   1.916   1.807  15.713 -1.2888  0.5949 -2.0497
  766MPD2    H311315   1.806   1.698  15.511 -0.0484  0.9513 -0.4113
  766MPD2     N11316   2.196   1.605  15.322  0.1661  0.2381  0.4798
  766MPD2    H511317   2.149   1.587  15.234 -0.1299 -0.6005  0.8114
  766MPD2    N111318   2.189   1.792  15.760 -0.2872 -0.3434  0.0753
  766MPD2    H711319   2.287   1.766  15.764 -0.2545 -0.7882 -3.0995
  767MPD2     C11320   1.823   1.959  15.361 -0.3513 -0.2356  0.1978
  767MPD2    C111321   1.953   1.961  15.311  0.1455 -0.6371 -0.3507
  767MPD2    C211322   1.964   1.920  15.181 -0.4334  0.0607 -0.0667
  767MPD2    C311323   1.865   1.882  15.096 -0.1202  0.3449  0.5960
  767MPD2    C411324   1.737   1.869  15.152 -0.5507  0.0530 -0.3518
  767MPD2    C511325   1.712   1.915  15.280 -0.0335  1.1735  0.1602
  767MPD2     H11326   2.058   1.927  15.127  0.9061 -3.0038  1.8411
  767MPD2    H111327   1.655   1.832  15.092  0.2379 -0.6775 -0.9699
  767MPD2    H211328   1.804   1.987  15.464  0.4761  0.5550  0.1297
  767MPD2    H311329   1.609   1.920  15.315  0.2075 -0.7900  1.1124
  767MPD2     N11330   1.899   1.841  14.970  0.2046  0.4890  0.1539
  767MPD2    H511331   1.999   1.842  14.951  0.2224 -1.0890  0.1451
  767MPD2    N111332   2.056   2.001  15.393  0.1865 -0.3671 -0.5236
  767MPD2    H711333   2.034   2.042  15.483 -2.8593  2.5091 -2.5945
  768MPD2     C11334   2.619   4.522  10.822  0.0959 -0.2333 -0.3270
  768MPD2    C111335   2.610   4.640  10.898  0.1467 -0.2250 -0.1074
  768MPD2    C211336   2.711   4.659  10.985 -0.1881 -0.0364  0.2633
  768MPD2    C311337   2.807   4.563  11.001 -0.1742 -0.0998  0.1820
  768MPD2    C411338   2.808   4.444  10.924  0.0460 -0.6121  0.2063
  768MPD2    C511339   2.708   4.419  10.830 -0.4182  0.2200 -0.0855
  768MPD2     H11340   2.702   0.033  11.042 -1.3740  0.7684 -1.2028
  768MPD2    H111341   2.874   4.361  10.944 -0.8252 -0.8760  1.9974
  768MPD2    H211342   2.544   4.512  10.745 -0.3360 -0.2020  0.0937
  768MPD2    H311343   2.701   4.324  10.778 -0.6507 -0.2346  0.7799
  768MPD2     N11344   2.912   4.586  11.090  0.0895  0.5445  0.7229
  768MPD2    H511345   2.976   4.508  11.098  1.6407  1.6199 -1.1623
  768MPD2    N111346   2.513   0.019  10.871  0.3906  0.1368 -0.5671
  768MPD2    H711347   2.514   0.096  10.938  2.1905  0.1990 -0.6701
  769MPD2     C11348   4.231   2.927  14.781  0.2967 -0.2423  0.2860
  769MPD2    C111349   4.145   2.975  14.881 -0.6401 -0.0302  0.2761
  769MPD2    C211350   4.204   3.034  14.994  0.1209 -0.2795 -0.1582
  769MPD2    C311351   4.339   3.064  14.998 -0.0327  0.2365  0.0984
  769MPD2    C411352   4.418   3.010  14.899  0.1208  0.7445  0.2263
  769MPD2    C511353   4.362   2.950  14.786  0.2590 -0.4989 -0.5589
  769MPD2     H11354   4.142   3.076  15.073 -0.8492  2.3932 -2.3441
  769MPD2    H111355   4.524   3.030  14.888  0.2755 -0.0099  0.3909
  769MPD2    H211356   4.193   2.880  14.692 -0.3855  0.4793  0.2016
  769MPD2    H311357   4.423   2.934  14.698  0.9484 -2.2016  0.2042
  769MPD2     N11358   4.394   3.145  15.100 -1.0060  0.1576 -0.1889
  769MPD2    H511359   4.323   3.184  15.160 -0.3358  1.1786 -0.0651
  769MPD2    N111360   4.009   2.961  14.853  0.1959 -0.6961 -0.1562
  769MPD2    H711361   3.979   2.920  14.765  2.4247 -2.4018 -0.1143
  770MPD2     C11362   3.218   2.624  15.212 -0.4302 -0.4916  0.1340
  770MPD2    C111363   3.306   2.581  15.111  0.2418 -0.2168  0.0471
  770MPD2    C211364   3.381   2.679  15.041  0.3086  0.2742 -0.7002
  770MPD2    C311365   3.366   2.815  15.065 -0.0356 -0.6458 -0.0301
  770MPD2    C411366   3.288   2.854  15.174  0.6395 -0.1866  0.5761
  770MPD2    C511367   3.221   2.755  15.252 -0.6968 -0.0296 -0.2310
  770MPD2     H11368   3.435   2.658  14.950  1.6667 -1.3488  0.4849
  770MPD2    H111369   3.275   2.957  15.203 -1.1095 -0.2014 -0.1515
  770MPD2    H211370   3.159   2.555  15.270  0.2018  1.7055  3.4015
  770MPD2    H311371   3.157   2.784  15.334  0.6379  3.6261 -0.5020
  770MPD2     N11372   3.445   2.892  14.983 -0.8170  0.0369  0.4240
  770MPD2    H511373   3.490   2.843  14.907 -1.9771  1.0936 -0.9489
  770MPD2    N111374   3.321   2.441  15.077 -0.1301 -0.0264  0.2293
  770MPD2    H711375   3.266   2.372  15.127 -0.0788  0.1247  0.4956
  771MPD2     C11376   4.098   1.217  13.720  0.4662 -0.0366  0.5491
  771MPD2    C111377   4.227   1.257  13.708  0.2040 -0.2752  0.0513
  771MPD2    C211378   4.324   1.158  13.710 -0.2928  0.1267  0.3150
  771MPD2    C311379   4.287   1.025  13.712  0.0387 -0.5953  0.5187
  771MPD2    C411380   4.153   0.988  13.724  0.3274  0.2588 -0.5915
  771MPD2    C511381   4.060   1.088  13.724  0.0159  0.7887 -0.4245
  771MPD2     H11382   4.430   1.182  13.714 -0.0895 -0.4230 -1.8111
  771MPD2    H111383   4.120   0.885  13.719  0.7749  0.2016 -2.4108
  771MPD2    H211384   4.018   1.288  13.699  1.1911  0.1568 -1.5323
  771MPD2    H311385   3.958   1.052  13.721  0.2707 -0.0025  0.4975
  771MPD2     N11386   4.388   0.923  13.705  0.0051 -0.4646  0.4181
  771MPD2    H511387   4.484   0.956  13.697 -0.3440  0.5854  0.6088
  771MPD2    N111388   4.264   1.395  13.699 -0.3851 -0.1123 -0.1331
  771MPD2    H711389   4.362   1.419  13.713 -0.7733 -0.4098  3.1109
  772MPD2     C11390   3.992   2.003  13.181 -0.0775 -0.5659  1.3080
  772MPD2    C111391   3.957   1.907  13.274  0.4659  0.0612  0.5196
  772MPD2    C211392   3.820   1.880  13.296 -0.3980 -0.1266  0.3670
  772MPD2    C311393   3.720   1.931  13.214  0.4721 -0.0857  0.2836
  772MPD2    C411394   3.765   2.016  13.116 -0.5096 -0.1603  0.0571
  772MPD2    C511395   3.893   2.049  13.100 -0.0503 -0.5652 -0.2311
  772MPD2     H11396   3.802   1.815  13.381  0.0193  1.6128  1.7859
  772MPD2    H111397   3.688   2.063  13.055  0.1472  1.6377  0.6158
  772MPD2    H211398   4.093   2.030  13.151 -1.3193  1.3512 -1.1319
  772MPD2    H311399   3.912   2.107  13.010 -1.7803 -0.1977 -0.3728
  772MPD2     N11400   3.582   1.905  13.229 -1.1578 -0.6394  0.5416
  772MPD2    H511401   3.524   1.967  13.174 -1.0376 -0.8845  0.1412
  772MPD2    N111402   4.041   1.830  13.362 -0.1264  0.4258 -0.2766
  772MPD2    H711403   4.000   1.743  13.394  0.1229 -0.1326 -1.4430
  773MPD2     C11404   3.900   2.331   0.002 -0.0009  0.0595 -0.4845
  773MPD2    C111405   3.798   2.253  17.618  0.0999  0.4677  0.9967
  773MPD2    C211406   3.745   2.146   0.014  0.1442 -0.2305 -0.6594
  773MPD2    C311407   3.806   2.099   0.128  0.1929  0.0731 -0.6338
  773MPD2    C411408   3.917   2.158   0.174 -0.2448  0.4720  0.3243
  773MPD2    C511409   3.962   2.278   0.112  1.0042 -0.5903 -0.6678
  773MPD2     H11410   3.659   2.097  17.646 -0.4256 -0.2128  0.4278
  773MPD2    H111411   3.979   2.116   0.251  1.3615  0.7677 -0.8083
  773MPD2    H211412   3.944   2.412  17.621 -0.3378  0.8559  0.3944
  773MPD2    H311413   4.048   2.326   0.157  0.2721  1.2318 -1.2031
  773MPD2     N11414   3.755   1.980   0.181  0.8475 -0.2193 -1.1136
  773MPD2    H511415   3.686   1.927   0.128  0.7845 -0.3423 -0.9084
  773MPD2    N111416   3.731   2.295  17.495  0.0224  0.0958  0.2321
  773MPD2    H711417   3.667   2.228  17.454  1.1188 -1.1451  0.5098
  774MPD2     C11418   1.807   2.063  13.629  0.0512  0.9163 -0.4971
  774MPD2    C111419   1.926   2.101  13.566  0.2379 -0.0483  0.3369
  774MPD2    C211420   1.955   2.237  13.568  0.2920  0.1337 -0.3002
  774MPD2    C311421   1.884   2.330  13.636 -0.6647 -0.2031  0.3502
  774MPD2    C411422   1.768   2.282  13.701  0.0880 -0.6301  0.6184
  774MPD2    C511423   1.736   2.150  13.707 -0.2693 -0.3770  0.4328
  774MPD2     H11424   2.042   2.271  13.514  0.7900 -1.7742 -0.7009
  774MPD2    H111425   1.707   2.355  13.754 -1.0690 -0.0670 -1.4811
  774MPD2    H211426   1.787   1.956  13.629 -0.4894  1.0099  1.3452
  774MPD2    H311427   1.644   2.121  13.755 -0.3360 -2.9860 -1.2675
  774MPD2     N11428   1.939   2.462  13.640 -0.3574  0.2113  0.1967
  774MPD2    H511429   2.008   2.486  13.570 -1.8030  0.4983 -1.1210
  774MPD2    N111430   2.006   2.007  13.496  0.3155 -0.1676  0.0569
  774MPD2    H711431   1.970   1.912  13.499  2.2467 -0.8523  1.7269
  775MPD2     C11432   0.024   3.210  15.552  0.4533  0.5428  0.4204
  775MPD2    C111433   0.008   3.306  15.643 -0.8580 -0.0664  0.5945
  775MPD2    C211434   0.067   3.428  15.612 -0.6014  0.5166 -1.1216
  775MPD2    C311435   0.138   3.445  15.490  0.3673  0.2896 -0.2044
  775MPD2    C411436   0.141   3.346  15.398 -0.9224 -0.5642 -0.2742
  775MPD2    C511437   0.089   3.226  15.437  0.4072 -0.2272 -0.1750
  775MPD2     H11438   0.051   3.516  15.673 -0.4017 -1.5411  1.9122
  775MPD2    H111439   0.183   3.358  15.298 -1.9214 -0.6035 -0.6944
  775MPD2    H211440   4.703   3.110  15.561  1.9658 -0.2040 -1.2920
  775MPD2    H311441   0.105   3.144  15.368 -0.2335 -0.4810 -0.0254
  775MPD2     N11442   0.209   3.562  15.456  0.2847  0.1489 -0.3899
  775MPD2    H511443   0.236   3.577  15.359 -0.1960  0.6482 -0.4464
  775MPD2    N111444   4.642   3.279  15.758 -0.3959  0.3382  0.0060
  775MPD2    H711445   4.587   3.195  15.741 -2.2274  1.1578  1.9475
  776MPD2     C11446   3.972   3.160  11.626 -0.1826 -0.4980 -0.3070
  776MPD2    C111447   3.862   3.228  11.576  0.5561 -0.4456 -0.2291
  776MPD2    C211448   3.874   3.357  11.554 -0.0362 -0.7561  0.3819
  776MPD2    C311449   4.000   3.419  11.564  1.3157 -0.0281  0.1687
  776MPD2    C411450   4.104   3.350  11.624  0.8599 -0.3391 -0.2462
  776MPD2    C511451   4.092   3.221  11.650  0.3332  0.3900  0.1712
  776MPD2     H11452   3.799   3.418  11.505  0.9085  2.1991  2.6252
  776MPD2    H111453   4.207   3.384  11.630 -0.3159  3.0550  0.3318
  776MPD2    H211454   3.956   3.054  11.648 -1.7899  0.9444  5.5113
  776MPD2    H311455   4.171   3.162  11.696 -2.0884 -1.8037  1.5652
  776MPD2     N11456   4.029   3.551  11.526 -0.2328  0.5694 -0.4605
  776MPD2    H511457   4.115   3.594  11.559 -1.5087  2.1086  0.8882
  776MPD2    N111458   3.745   3.150  11.550 -0.2071 -0.1856 -0.0383
  776MPD2    H711459   3.762   3.050  11.553  1.4169  0.0738 -0.3535
  777MPD2     C11460   3.479   1.363   0.781 -0.2937 -0.1891  0.6382
  777MPD2    C111461   3.594   1.305   0.830  0.0282 -0.4097 -0.9623
  777MPD2    C211462   3.653   1.205   0.747  0.9732 -0.3340  0.0814
  777MPD2    C311463   3.603   1.158   0.625 -0.0804  0.1692  0.4078
  777MPD2    C411464   3.493   1.222   0.574 -0.3342  0.4678  0.8000
  777MPD2    C511465   3.438   1.325   0.652  0.4589 -0.3736  0.5110
  777MPD2     H11466   3.749   1.168   0.782  1.2794  0.6034  0.2375
  777MPD2    H111467   3.447   1.199   0.479  1.5147  2.4284 -0.5834
  777MPD2    H211468   3.437   1.453   0.823  2.4176  1.6194 -0.5214
  777MPD2    H311469   3.364   1.385   0.599 -1.3174 -1.7536  1.4428
  777MPD2     N11470   3.674   1.050   0.565  0.1290 -0.3025 -0.2347
  777MPD2    H511471   3.752   1.011   0.616  0.0158 -1.1608 -0.7117
  777MPD2    N111472   3.646   1.353   0.959 -0.1221 -0.3836  0.4048
  777MPD2    H711473   3.585   1.410   1.017  0.5637  0.3710  0.3787
  778MPD2     C11474   4.462   0.742  15.139 -0.2425  0.1208  0.5896
  778MPD2    C111475   4.388   0.802  15.040 -0.2344 -0.3510  0.1581
  778MPD2    C211476   4.452   0.889  14.953  0.1185  0.4970 -0.3977
  778MPD2    C311477   4.588   0.926  14.968 -0.2816 -0.0163  0.4451
  778MPD2    C411478   4.662   0.860  15.068 -0.0541 -0.4219  0.5283
  778MPD2    C511479   4.588   0.790  15.159 -0.2467  0.4338  0.3291
  778MPD2     H11480   4.401   0.932  14.868 -2.1770 -1.2516  0.0862
  778MPD2    H111481   0.050   0.872  15.086 -0.3574  1.7575  0.9107
  778MPD2    H211482   4.412   0.679  15.211  1.4221 -1.5604  0.2654
  778MPD2    H311483   4.648   0.740  15.234  0.1691  0.0521 -0.2504
  778MPD2     N11484   4.646   1.021  14.885  0.2703  0.0346 -0.0626
  778MPD2    H511485   4.590   1.068  14.814 -2.5662 -1.4329  1.1722
  778MPD2    N111486   4.256   0.748  15.004  0.1095  0.1391 -0.1344
  778MPD2    H711487   4.221   0.797  14.923  2.4313  0.4648 -0.9346
  779MPD2     C11488   4.093   0.013  14.080 -0.0429 -0.7683  0.5250
  779MPD2    C111489   4.226   0.018  14.104 -0.1714 -0.2087  0.5140
  779MPD2    C211490   4.285   0.143  14.116  0.2915  0.2788  0.1472
  779MPD2    C311491   4.209   0.259  14.093 -0.4707  0.0667 -0.3309
  779MPD2    C411492   4.074   0.249  14.058 -0.2881  0.5074 -0.1873
  779MPD2    C511493   4.021   0.126  14.049  0.3696  0.5881 -0.1780
  779MPD2     H11494   4.393   0.147  14.130  0.1814 -1.2625  1.4321
  779MPD2    H111495   4.013   0.337  14.047  0.4194  1.0172 -0.0193
  779MPD2    H211496   4.028   4.646  14.065 -2.5298  0.8239  2.1293
  779MPD2    H311497   3.918   0.111  14.020  1.1120 -1.3772 -1.8731
  779MPD2     N11498   4.277   0.389  14.110  0.3845 -0.7763  0.6591
  779MPD2    H511499   4.378   0.384  14.125  0.6898 -1.7551 -1.7327
  779MPD2    N111500   4.315   4.625  14.140  0.4621 -0.4714 -0.0505
  779MPD2    H711501   4.409   4.646  14.170  0.7221 -0.0102 -1.2199
  780MPD2     C11502   0.130   4.656   0.883  0.6069 -0.0305  0.7435
  780MPD2    C111503   0.013   0.011   0.874  0.1957 -0.3875 -0.1709
  780MPD2    C211504   4.683   0.052   0.747 -0.4467  0.4114 -0.7143
  780MPD2    C311505   0.048   0.043   0.638  0.3271 -0.1343  0.5115
  780MPD2    C411506   0.171   4.702   0.654 -0.2895 -0.1727  0.6324
  780MPD2    C511507   0.210   4.648   0.770 -0.6899  0.4989  0.4604
  780MPD2     H11508   4.585   0.096   0.734 -0.7976  0.7900  3.1030
  780MPD2    H111509   0.232   4.697   0.565 -2.1620 -0.6410 -0.6251
  780MPD2    H211510   0.172   4.613   0.973  0.1810  0.7924  1.3354
  780MPD2    H311511   0.304   4.595   0.775 -1.3207 -0.7169 -0.4990
  780MPD2     N11512   4.711   0.071   0.517 -0.4913  0.5989 -0.2691
  780MPD2    H511513   4.613   0.097   0.512 -0.1315  1.8173 -0.9904
  780MPD2    N111514   4.651   0.004   0.987 -0.5162  0.1506  0.5704
  780MPD2    H711515   4.672   4.649   1.055  0.0096 -0.3313 -0.1170
  781MPD2     C11516   1.128   2.279  12.130  0.4598  0.0686 -0.4985
  781MPD2    C111517   1.106   2.143  12.133  0.0574 -0.9396  0.3698
  781MPD2    C211518   1.055   2.085  12.020  0.4238 -0.9533  0.3971
  781MPD2    C311519   1.021   2.156  11.909 -0.1794  0.0065 -0.5224
  781MPD2    C411520   1.036   2.297  11.909  0.5498 -0.2174  0.1309
  781MPD2    C511521   1.089   2.356  12.023  0.0243 -0.0822  0.0797
  781MPD2     H11522   1.051   1.977  12.018  1.1764 -0.9912  0.9927
  781MPD2    H111523   0.991   2.357  11.830  1.1217 -0.8023 -0.6446
  781MPD2    H211524   1.165   2.337  12.215  1.7167  0.5508 -1.3745
  781MPD2    H311525   1.096   2.462  12.046  1.8170 -0.3257  0.7086
  781MPD2     N11526   0.945   2.112  11.795 -0.9842 -0.3977  0.6756
  781MPD2    H511527   0.918   2.185  11.729 -0.2678 -0.6782  0.0666
  781MPD2    N111528   1.127   2.063  12.243  0.4512 -0.1448  0.2304
  781MPD2    H711529   1.085   1.970  12.247 -1.7757  0.8110 -0.7976
  782MPD2     C11530   4.016   1.896  10.244 -0.3738 -0.0445  0.2185
  782MPD2    C111531   4.083   1.885  10.370 -0.1953 -0.2801 -0.8582
  782MPD2    C211532   4.134   1.994  10.438  0.0985  0.1742 -0.2689
  782MPD2    C311533   4.133   2.117  10.381  0.2852  0.3737  0.2794
  782MPD2    C411534   4.083   2.129  10.248 -0.0193  0.3892  0.0802
  782MPD2    C511535   4.021   2.023  10.191 -0.1077  0.1160 -0.5875
  782MPD2     H11536   4.169   1.986  10.540 -1.1226  0.5345  0.1833
  782MPD2    H111537   4.076   2.227  10.203  0.0068  0.8573  1.1074
  782MPD2    H211538   3.982   1.812  10.185  1.1575 -1.6822  1.6530
  782MPD2    H311539   3.971   2.044  10.097  0.2420 -0.0154 -0.8028
  782MPD2     N11540   4.199   2.219  10.450 -0.3854  0.0197  0.1213
  782MPD2    H511541   4.224   2.194  10.545  0.0455  1.6063  0.4224
  782MPD2    N111542   4.085   1.757  10.424  0.0123 -0.3612  0.0761
  782MPD2    H711543   4.025   1.688  10.381  1.2510 -0.3801 -1.6404
  783MPD2     C11544   3.415   1.481  10.852  0.0871 -0.1348 -0.4166
  783MPD2    C111545   3.496   1.583  10.883 -0.1676  0.1643  0.8941
  783MPD2    C211546   3.626   1.576  10.844  0.3511  0.1015  0.1526
  783MPD2    C311547   3.675   1.465  10.771  0.4852 -0.5729 -0.0325
  783MPD2    C411548   3.594   1.352  10.755  0.1480  0.5774  0.4556
  783MPD2    C511549   3.457   1.365  10.793  0.1728 -0.3378 -0.1311
  783MPD2     H11550   3.706   1.645  10.872 -0.6943 -0.2573  4.0327
  783MPD2    H111551   3.637   1.262  10.711 -0.7888 -0.6025  1.9349
  783MPD2    H211552   3.312   1.479  10.888  0.6352  1.4647  1.2104
  783MPD2    H311553   3.395   1.278  10.776  0.0874 -0.7618  2.3248
  783MPD2     N11554   3.804   1.471  10.721 -0.0967  0.2409 -0.0357
  783MPD2    H511555   3.833   1.568  10.732 -1.7685  0.5994  1.1310
  783MPD2    N111556   3.443   1.697  10.952  0.4849  0.0900 -0.1481
  783MPD2    H711557   3.342   1.701  10.957  0.6805  1.8046  2.2481
  784MPD2     C11558   1.345   2.508   0.604  0.0427 -0.0305 -0.0706
  784MPD2    C111559   1.291   2.518   0.734 -0.5881  0.2168 -0.5472
  784MPD2    C211560   1.157   2.525   0.750  0.4962 -0.1146  0.5064
  784MPD2    C311561   1.069   2.522   0.643  0.2252 -0.2769  0.0662
  784MPD2    C411562   1.120   2.515   0.514 -0.4527 -0.2895  0.3320
  784MPD2    C511563   1.256   2.504   0.502 -0.7626  0.1706 -0.3285
  784MPD2     H11564   1.113   2.539   0.848  1.6742  1.8168  0.7428
  784MPD2    H111565   1.056   2.501   0.428 -0.1820  1.2599 -0.1272
  784MPD2    H211566   1.452   2.516   0.590  0.4646 -2.1847  1.8927
  784MPD2    H311567   1.286   2.489   0.399 -1.0000 -1.2609 -0.1913
  784MPD2     N11568   0.933   2.526   0.669  0.5530  0.1934  0.1720
  784MPD2    H511569   0.906   2.549   0.764 -0.5435  0.4857 -0.2191
  784MPD2    N111570   1.374   2.546   0.849  0.4701  0.6832  0.5420
  784MPD2    H711571   1.321   2.567   0.933 -0.3411 -2.7103  0.8498
  785MPD2     C11572   1.414   0.648  10.560  0.5459 -0.0392 -0.2924
  785MPD2    C111573   1.368   0.759  10.509  0.5797 -0.4348 -0.0154
  785MPD2    C211574   1.282   0.762  10.405  0.5921 -0.7551 -0.6750
  785MPD2    C311575   1.240   0.639  10.347 -0.9350  0.1487 -0.0045
  785MPD2    C411576   1.287   0.522  10.401 -0.1599  0.4611 -0.0490
  785MPD2    C511577   1.377   0.530  10.506  0.8042  0.0958  0.4169
  785MPD2     H11578   1.259   0.858  10.360  0.6805  1.0873  3.2144
  785MPD2    H111579   1.257   0.424  10.366  0.3197  0.2422  0.1565
  785MPD2    H211580   1.493   0.644  10.634  1.0741 -0.4358 -0.8873
  785MPD2    H311581   1.421   0.442  10.551  0.4552 -0.0431  0.4900
  785MPD2     N11582   1.147   0.649  10.236 -0.0705 -0.0794  0.3516
  785MPD2    H511583   1.131   0.742  10.198  0.2939  1.2047  3.3542
  785MPD2    N111584   1.412   0.882  10.563  0.0190  0.1838 -0.0543
  785MPD2    H711585   1.377   0.961  10.510 -1.8761 -0.6632 -0.0608
  786MPD2     C11586   0.308   4.313  14.532  0.3536 -0.2726  0.6565
  786MPD2    C111587   0.366   4.196  14.573  0.3357  0.1487 -0.0635
  786MPD2    C211588   0.486   4.201  14.649 -0.2308 -0.2887 -0.5714
  786MPD2    C311589   0.557   4.326  14.662  0.1110 -0.4599  0.1028
  786MPD2    C411590   0.511   4.434  14.595 -0.2572  0.0839  0.6894
  786MPD2    C511591   0.383   4.427  14.542 -0.1125  0.2701 -1.1008
  786MPD2     H11592   0.535   4.111  14.683  0.1149  0.4640  0.9000
  786MPD2    H111593   0.561   4.530  14.604 -1.5402  1.2523 -4.3385
  786MPD2    H211594   0.218   4.307  14.472 -0.2661 -1.8414  1.7360
  786MPD2    H311595   0.337   4.518  14.507 -2.3076 -0.4559 -0.1008
  786MPD2     N11596   0.670   4.344  14.742  1.1667 -0.5249 -0.0666
  786MPD2    H511597   0.707   4.439  14.744  2.1939 -0.9248 -0.0314
  786MPD2    N111598   0.317   4.072  14.538  0.0467 -0.3491  0.3481
  786MPD2    H711599   0.373   3.994  14.573 -0.7892 -1.8095 -1.5724
  787MPD2     C11600   0.696   4.144  14.289 -0.0578 -0.8702 -0.6221
  787MPD2    C111601   0.694   4.029  14.363  0.3476  0.8736 -0.3529
  787MPD2    C211602   0.790   4.009  14.463  0.2107 -0.0596 -0.1312
  787MPD2    C311603   0.882   4.109  14.483 -0.0737  0.3877 -0.2703
  787MPD2    C411604   0.880   4.229  14.418  0.2169 -0.1364  1.1130
  787MPD2    C511605   0.779   4.245  14.324 -0.0248 -0.0756  0.6295
  787MPD2     H11606   0.793   3.919  14.523  1.4433  0.1845  0.1804
  787MPD2    H111607   0.944   4.316  14.427 -1.5162  1.0715  1.5528
  787MPD2    H211608   0.624   4.162  14.210  0.8532  1.3048 -0.9586
  787MPD2    H311609   0.765   4.341  14.274 -1.9083 -0.7314 -0.1025
  787MPD2     N11610   0.977   4.077  14.586 -0.1072  0.4299 -0.3642
  787MPD2    H511611   0.966   3.985  14.627 -0.7981  0.5031 -0.3821
  787MPD2    N111612   0.588   3.936  14.337 -0.5107 -0.5866 -0.3350
  787MPD2    H711613   0.526   3.957  14.260  0.7774  2.4223 -0.5328
  788MPD2     C11614   2.332   2.523   0.504 -0.2053  0.3616 -0.0004
  788MPD2    C111615   2.343   2.391   0.472 -0.3731 -0.8820 -0.1987
  788MPD2    C211616   2.274   2.344   0.359 -0.1816  0.0189  0.4951
  788MPD2    C311617   2.188   2.427   0.294  0.0652 -0.3810  0.5855
  788MPD2    C411618   2.191   2.558   0.327 -0.4372 -0.6271  0.6180
  788MPD2    C511619   2.259   2.607   0.428  0.3448  0.4741 -0.3915
  788MPD2     H11620   2.286   2.243   0.321 -3.2818 -0.5472  1.0386
  788MPD2    H111621   2.131   2.634   0.278  0.1428 -1.5409 -1.5110
  788MPD2    H211622   2.393   2.576   0.576 -0.3121 -1.1030  1.1744
  788MPD2    H311623   2.246   2.709   0.463 -1.2446  0.1763 -0.0999
  788MPD2     N11624   2.105   2.386   0.189 -0.2783  0.3800 -0.0093
  788MPD2    H511625   2.067   2.461   0.131  1.3412  0.7721 -0.5479
  788MPD2    N111626   2.439   2.300   0.521  0.8245 -0.5739  0.3731
  788MPD2    H711627   2.444   2.212   0.470  1.7385 -1.0758  1.3292
  789MPD2     C11628   2.580   1.740  16.739  0.4725  0.3629 -0.0735
  789MPD2    C111629   2.516   1.649  16.660  0.3763 -0.1831  0.2925
  789MPD2    C211630   2.384   1.669  16.625 -2.0481  0.4781  0.4323
  789MPD2    C311631   2.322   1.780  16.678 -0.4127 -0.6239  0.4864
  789MPD2    C411632   2.386   1.870  16.760 -0.2503  0.2058 -0.3379
  789MPD2    C511633   2.518   1.854  16.780 -0.2255 -0.1356 -0.4563
  789MPD2     H11634   2.341   1.596  16.557 -2.0675 -0.1755  1.1492
  789MPD2    H111635   2.331   1.955  16.799  1.2088  0.0085  2.1415
  789MPD2    H211636   2.686   1.737  16.764  0.5717  0.3759 -0.4943
  789MPD2    H311637   2.581   1.925  16.834 -0.1227 -0.1312 -0.5813
  789MPD2     N11638   2.177   1.807  16.650  0.6903 -0.3113 -0.8313
  789MPD2    H511639   2.135   1.890  16.689 -0.2989 -0.4733 -1.5571
  789MPD2    N111640   2.575   1.523  16.619 -0.1907  0.5429 -0.3654
  789MPD2    H711641   2.521   1.467  16.554  1.9445 -0.3018 -1.4320
  790MPD2     C11642   3.475   3.641  13.593 -0.4159  0.3510 -0.4139
  790MPD2    C111643   3.558   3.548  13.541 -0.0762  0.4397  0.6391
  790MPD2    C211644   3.581   3.533  13.402  0.6320  0.7993 -0.1168
  790MPD2    C311645   3.517   3.618  13.319  0.5500 -0.8107 -0.9125
  790MPD2    C411646   3.426   3.705  13.372  0.2041 -0.6693 -0.0818
  790MPD2    C511647   3.407   3.721  13.506 -1.1295 -0.2148  0.0284
  790MPD2     H11648   3.640   3.450  13.367 -0.2092  0.1166  0.0902
  790MPD2    H111649   3.367   3.767  13.305 -2.4657 -1.7764  1.2558
  790MPD2    H211650   3.456   3.656  13.699 -0.1678 -0.5488 -0.2458
  790MPD2    H311651   3.331   3.792  13.534 -0.5366  0.2577  0.4208
  790MPD2     N11652   3.522   3.612  13.179 -0.1401 -0.1491  0.9300
  790MPD2    H511653   3.445   3.640  13.120  0.2391 -1.1240 -0.0500
  790MPD2    N111654   3.609   3.456  13.634  0.6311 -0.3336  0.8564
  790MPD2    H711655   3.573   3.464  13.728  0.6593  0.2721  0.8161
  791MPD2     C11656   3.084   3.728  12.770 -0.3371  0.2565  0.6227
  791MPD2    C111657   3.113   3.595  12.783 -0.2455 -0.5001  0.3123
  791MPD2    C211658   3.008   3.503  12.797 -0.4403  0.5377 -0.5009
  791MPD2    C311659   2.883   3.541  12.774  0.0406  0.5819 -0.3822
  791MPD2    C411660   2.849   3.676  12.762 -0.4581 -0.5503 -0.4915
  791MPD2    C511661   2.950   3.765  12.770 -0.6450  0.5606 -0.1968
  791MPD2     H11662   3.035   3.402  12.825  1.0162  0.8320 -0.8066
  791MPD2    H111663   2.748   3.714  12.752 -1.1416 -2.3775 -0.3575
  791MPD2    H211664   3.157   3.807  12.777  1.0189 -1.0895  1.8772
  791MPD2    H311665   2.922   3.869  12.774 -1.0250  0.4325  0.5644
  791MPD2     N11666   2.792   3.435  12.786 -0.4636  0.2396  0.1661
  791MPD2    H511667   2.827   3.342  12.806 -0.3020  0.3518  0.4038
  791MPD2    N111668   3.249   3.567  12.803 -0.4244 -0.1544  0.7871
  791MPD2    H711669   3.317   3.641  12.817  0.5616 -1.0649  0.8491
  792MPD2     C11670   4.455   3.010  10.908 -0.2158  0.5376  0.2740
  792MPD2    C111671   4.316   3.007  10.885  0.5613 -0.4890 -0.5880
  792MPD2    C211672   4.271   2.955  10.762 -0.1037 -1.0522  0.5379
  792MPD2    C311673   4.368   2.919  10.664  0.1280  0.2773 -0.3975
  792MPD2    C411674   4.503   2.945  10.689 -0.3734  0.6816  0.2897
  792MPD2    C511675   4.545   2.975  10.812 -0.5980  0.4046  0.0537
  792MPD2     H11676   4.164   2.951  10.745 -0.0174 -3.0191  0.4586
  792MPD2    H111677   4.581   2.915  10.621  0.1817  1.2382  0.6865
  792MPD2    H211678   4.497   3.055  10.997 -0.4536 -0.8939  1.1070
  792MPD2    H311679   4.653   2.970  10.823 -0.6780  0.6914  0.9672
  792MPD2     N11680   4.327   2.886  10.532  0.5892 -0.2458  0.2868
  792MPD2    H511681   4.393   2.893  10.456  1.1076  0.2353  0.7858
  792MPD2    N111682   4.234   3.066  10.983 -0.4776  0.2591  0.3612
  792MPD2    H711683   4.281   3.102  11.065 -1.0027  1.2369  0.2258
  793MPD2     C11684   3.971   3.459   9.845 -0.3365  0.3204  0.2948
  793MPD2    C111685   3.945   3.345   9.772 -0.9283  0.3127  0.3896
  793MPD2    C211686   3.972   3.227   9.833 -0.5410 -0.3055 -0.0391
  793MPD2    C311687   4.053   3.214   9.947  0.7055 -0.4511  0.4825
  793MPD2    C411688   4.078   3.332  10.011  0.1072 -0.3857  0.1016
  793MPD2    C511689   4.033   3.450   9.965  0.0876  0.1369  0.1241
  793MPD2     H11690   3.922   3.143   9.786 -2.5456  0.2137  1.1592
  793MPD2    H111691   4.116   3.343  10.112  2.7134  1.1434 -1.0490
  793MPD2    H211692   3.948   3.560   9.812 -2.4611 -1.3987 -3.4296
  793MPD2    H311693   4.042   3.540  10.025  0.9640 -0.7373  1.3108
  793MPD2     N11694   4.087   3.086   9.996  0.2608 -0.2303 -0.0948
  793MPD2    H511695   4.065   3.003   9.942 -1.2468  0.4816 -0.5818
  793MPD2    N111696   3.876   3.357   9.650 -0.1047  0.0974 -0.5870
  793MPD2    H711697   3.867   3.269   9.600 -0.4507  0.6650 -1.5279
  794MPD2     C11698   3.475   2.946  16.978 -0.5389 -0.4747 -0.1672
  794MPD2    C111699   3.407   2.836  16.948 -0.4942  0.1857  0.0734
  794MPD2    C211700   3.296   2.846  16.863  0.7190 -0.1340 -1.3946
  794MPD2    C311701   3.248   2.975  16.818 -0.3505 -0.1697  0.2323
  794MPD2    C411702   3.327   3.088  16.841  0.1024  0.2344  0.9330
  794MPD2    C511703   3.444   3.065  16.915  0.5878 -0.4441 -0.2408
  794MPD2     H11704   3.256   2.747  16.846 -1.1837  0.4088 -0.0086
  794MPD2    H111705   3.306   3.190  16.810 -0.5177  0.3364  1.6900
  794MPD2    H211706   3.561   2.952  17.044  0.2417 -0.8895 -1.1347
  794MPD2    H311707   3.511   3.147  16.939  0.6119  0.2883 -2.7456
  794MPD2     N11708   3.123   2.984  16.745  1.1253  0.3438  0.0831
  794MPD2    H511709   3.093   3.076  16.716  0.1851  0.4620  1.4570
  794MPD2    N111710   3.435   2.713  17.009  0.2199 -0.0616 -0.4534
  794MPD2    H711711   3.358   2.647  17.008  0.0373  0.1163  3.6818
  795MPD2     C11712   1.098   0.350  12.903 -0.7316 -0.4187 -0.9243
  795MPD2    C111713   1.043   0.280  13.005  0.0915 -0.4673  0.2675
  795MPD2    C211714   1.122   0.250  13.114 -0.0402 -0.0367 -0.6928
  795MPD2    C311715   1.255   0.297  13.121  0.3912 -1.0431  0.3480
  795MPD2    C411716   1.299   0.389  13.029  0.5765 -0.1201 -0.2061
  795MPD2    C511717   1.223   0.402  12.920  0.1035 -0.1404 -0.6955
  795MPD2     H11718   1.082   0.184  13.190  2.2682  1.1527  1.5338
  795MPD2    H111719   1.401   0.424  13.022 -0.0601  1.3233 -2.1978
  795MPD2    H211720   1.042   0.370  12.813  1.8051  2.9250 -1.7432
  795MPD2    H311721   1.261   0.462  12.838  0.1851  0.1980 -0.4050
  795MPD2     N11722   1.344   0.242  13.216  0.5700 -0.1936  0.0691
  795MPD2    H511723   1.310   0.165  13.272 -2.4291  0.6760 -0.5329
  795MPD2    N111724   0.917   0.230  13.000 -0.4305 -0.1382 -0.4931
  795MPD2    H711725   0.888   0.181  13.085 -1.5298 -0.1466 -0.8660
  796MPD2     C11726   0.413   1.173  15.831 -0.2073  0.2554  0.2342
  796MPD2    C111727   0.483   1.266  15.911  0.3751 -0.4269 -0.5248
  796MPD2    C211728   0.482   1.392  15.874  0.2007 -0.4994 -0.0411
  796MPD2    C311729   0.403   1.445  15.777  0.3817  0.5507  0.1839
  796MPD2    C411730   0.338   1.350  15.691  0.0570  0.1181 -0.6152
  796MPD2    C511731   0.348   1.218  15.719 -0.0245 -0.3136  0.2653
  796MPD2     H11732   0.523   1.472  15.935 -1.5888 -1.3421  2.2624
  796MPD2    H111733   0.277   1.378  15.605  0.2673  3.3144  0.2933
  796MPD2    H211734   0.426   1.066  15.843 -0.5278  0.0681 -1.0617
  796MPD2    H311735   0.300   1.145  15.655 -3.0394 -0.6711  2.9125
  796MPD2     N11736   0.407   1.583  15.770 -0.0561  0.3296  0.4159
  796MPD2    H511737   0.467   1.638  15.830 -0.1809  1.2061 -0.2650
  796MPD2    N111738   0.552   1.213  16.019 -0.7157  0.2198  1.3074
  796MPD2    H711739   0.522   1.120  16.048  0.7769 -1.1121 -1.3229
  797MPD2     C11740   1.546   0.886  17.315  0.6199  0.7190  0.2911
  797MPD2    C111741   1.465   0.928  17.425  0.0590  0.4306  0.1567
  797MPD2    C211742   1.346   0.985  17.401 -0.2318  0.6613  0.0642
  797MPD2    C311743   1.314   1.022  17.272  0.2753  0.0516 -0.8026
  797MPD2    C411744   1.395   0.991  17.166  0.7264  0.5346  0.2159
  797MPD2    C511745   1.500   0.913  17.191 -0.1543 -0.3238 -0.0275
  797MPD2     H11746   1.284   1.024  17.480 -2.1993 -3.7375  0.7098
  797MPD2    H111747   1.376   1.017  17.063 -1.6971  2.8100  1.2317
  797MPD2    H211748   1.635   0.827  17.331  2.4689  3.0789 -1.3135
  797MPD2    H311749   1.559   0.880  17.106  2.3208  2.3396  0.6548
  797MPD2     N11750   1.208   1.115  17.234 -0.2475  0.1966  0.4621
  797MPD2    H511751   1.216   1.148  17.139  0.7360  1.7330  1.0807
  797MPD2    N111752   1.519   0.918  17.558  0.2145  0.2207 -0.0208
  797MPD2    H711753   1.457   0.959  17.628 -0.0388 -0.2334  0.0231
  798MPD2     C11754   1.135   1.453   0.205  0.6877  0.4022  0.3219
  798MPD2    C111755   1.185   1.432   0.078  0.0932  0.5901  0.4092
  798MPD2    C211756   1.312   1.379   0.076  0.1750 -0.2189  0.9036
  798MPD2    C311757   1.377   1.331   0.191 -0.2004 -0.7421 -0.3633
  798MPD2    C411758   1.328   1.355   0.315 -0.0412  0.6636  0.3868
  798MPD2    C511759   1.206   1.419   0.318  0.1854  0.6036 -0.2813
  798MPD2     H11760   1.350   1.356  17.653  0.4050  2.4129  0.3758
  798MPD2    H111761   1.389   1.330   0.401 -1.5349  0.2846  1.3279
  798MPD2    H211762   1.034   1.493   0.216  0.1440 -1.1197  0.9542
  798MPD2    H311763   1.173   1.447   0.417  0.4832  1.0049 -0.2940
  798MPD2     N11764   1.488   1.253   0.170 -0.2084  0.2972  0.1058
  798MPD2    H511765   1.527   1.256   0.076  1.3197 -1.3028  0.6816
  798MPD2    N111766   1.108   1.459  17.638  0.7369 -0.1570 -0.8500
  798MPD2    H711767   1.009   1.437  17.645  0.8108 -1.1258 -2.9698
  799MPD2     C11768   0.698   3.133  14.583 -0.1885 -0.4859  0.1729
  799MPD2    C111769   0.621   3.038  14.517 -0.0406  0.5352  0.4777
  799MPD2    C211770   0.533   3.078  14.416 -0.8197 -0.4430 -0.3734
  799MPD2    C311771   0.506   3.220  14.397  0.9996  0.1050 -0.5995
  799MPD2    C411772   0.594   3.311  14.460 -0.2476 -0.5261 -0.1469
  799MPD2    C511773   0.685   3.267  14.558  0.4662 -0.4374  0.5716
  799MPD2     H11774   0.479   2.998  14.367 -1.3023 -0.3144 -0.0607
  799MPD2    H111775   0.591   3.418  14.442  1.5776 -0.6001 -0.8753
  799MPD2    H211776   0.768   3.104  14.661  0.3447  1.5584  0.4553
  799MPD2    H311777   0.754   3.337  14.604 -1.0314  0.6481  1.1681
  799MPD2     N11778   0.423   3.274  14.297 -0.0176 -0.1756  0.3130
  799MPD2    H511779   0.431   3.370  14.264 -0.5494 -1.1472 -2.6716
  799MPD2    N111780   0.648   2.900  14.525  0.2745  0.6925  0.2552
  799MPD2    H711781   0.622   2.848  14.442  0.0439 -0.6508  1.1699
  800MPD2     C11782   1.005   4.222  14.061  0.4209 -0.5894 -0.3003
  800MPD2    C111783   1.136   4.201  14.101  0.0959 -0.3687 -0.1978
  800MPD2    C211784   1.202   4.091  14.046 -0.0157 -0.6270  0.1718
  800MPD2    C311785   1.140   4.012  13.953 -0.6511  0.6438  0.1910
  800MPD2    C411786   1.006   4.044  13.910 -0.0216  0.3392 -0.3597
  800MPD2    C511787   0.932   4.143  13.973 -0.0271  0.4267 -0.7088
  800MPD2     H11788   1.308   4.092  14.067  0.0822  0.0094 -0.3593
  800MPD2    H111789   0.953   3.991  13.832 -1.3528  1.3020 -0.0950
  800MPD2    H211790   0.960   4.316  14.093 -0.2691 -0.1911 -2.4393
  800MPD2    H311791   0.843   4.180  13.922 -0.3434  0.8271  0.1317
  800MPD2     N11792   1.222   3.916  13.891 -0.1414 -0.3135  0.4160
  800MPD2    H511793   1.315   3.903  13.927  0.6024  0.9178 -1.0724
  800MPD2    N111794   1.192   4.295  14.189 -0.7870 -0.0937  0.1816
  800MPD2    H711795   1.134   4.377  14.206 -0.1284  0.4356 -0.1651
  801MPD2     C11796   1.148   0.282  14.099 -0.2319 -0.2196 -0.4926
  801MPD2    C111797   1.120   0.177  14.178 -0.6309  0.7511  0.5950
  801MPD2    C211798   1.008   0.184  14.259  0.0744 -0.1112  0.2913
  801MPD2    C311799   0.911   0.289  14.239  0.2538  0.1536  0.6570
  801MPD2    C411800   0.940   0.384  14.144 -0.1895  0.3273  0.1245
  801MPD2    C511801   1.060   0.384  14.079 -0.3597 -0.4588 -0.0399
  801MPD2     H11802   0.990   0.115  14.340  0.6160 -1.3045 -0.6034
  801MPD2    H111803   0.878   0.472  14.134 -0.8315 -0.4537 -2.8303
  801MPD2    H211804   1.241   0.283  14.044  0.5982 -2.4777  0.8699
  801MPD2    H311805   1.088   0.473  14.024 -0.2116 -0.2538  0.3640
  801MPD2     N11806   0.791   0.313  14.319  0.4617 -0.5497 -0.3482
  801MPD2    H511807   0.724   0.385  14.295  1.4712 -0.8539 -4.0746
  801MPD2    N111808   1.209   0.068  14.193 -0.0136 -0.1073  0.2382
  801MPD2    H711809   1.175   4.716  14.258  1.7591  1.5825  3.0208
  802MPD2     C11810   0.690   0.491   0.010  0.4229 -0.8917 -0.9334
  802MPD2    C111811   0.617   0.521  17.571  0.1509  0.7804 -0.6398
  802MPD2    C211812   0.619   0.428  17.471 -0.4753  0.3695 -0.5771
  802MPD2    C311813   0.694   0.320  17.477 -0.0292 -0.0821 -0.5991
  802MPD2    C411814   0.759   0.283  17.595 -0.1325 -0.5611  0.1989
  802MPD2    C511815   0.763   0.375   0.024  0.3202  0.7071 -0.5911
  802MPD2     H11816   0.567   0.455  17.380 -3.6935  0.1803  1.2165
  802MPD2    H111817   0.825   0.198  17.603  0.3617 -0.2750 -0.8020
  802MPD2    H211818   0.688   0.551   0.100  0.1022 -2.0336 -0.1736
  802MPD2    H311819   0.805   0.351   0.121 -0.4595  0.8693 -0.2159
  802MPD2     N11820   0.711   0.237  17.364 -0.1568  0.0834  0.3038
  802MPD2    H511821   0.662   0.275  17.284 -1.7163 -0.6554  0.9182
  802MPD2    N111822   0.540   0.635  17.555  0.2060  0.5540  0.5640
  802MPD2    H711823   0.464   0.631  17.488  0.9066 -2.0087 -0.0429
  803MPD2     C11824   1.733   3.401  11.672  0.3063 -0.3634  0.1258
  803MPD2    C111825   1.768   3.450  11.797 -1.1380 -0.1286  0.3745
  803MPD2    C211826   1.715   3.395  11.911 -0.5259 -0.3538 -0.4636
  803MPD2    C311827   1.622   3.294  11.905 -0.1796  0.0018  0.1625
  803MPD2    C411828   1.572   3.255  11.780  0.5269 -0.4951  0.0015
  803MPD2    C511829   1.625   3.313  11.666 -0.1464  0.2123  0.3875
  803MPD2     H11830   1.750   3.436  12.005  3.2401  1.3891 -2.6482
  803MPD2    H111831   1.492   3.182  11.772 -0.6330  0.9948 -1.9495
  803MPD2    H211832   1.768   3.445  11.579  1.9403 -1.0150  0.4301
  803MPD2    H311833   1.595   3.276  11.569 -0.5160  1.2131  0.1246
  803MPD2     N11834   1.582   3.230  12.023 -0.3610 -0.5210  0.1985
  803MPD2    H511835   1.496   3.178  12.009 -0.2645 -0.4350 -0.6618
  803MPD2    N111836   1.863   3.554  11.815 -0.4574  0.1559  0.3131
  803MPD2    H711837   1.879   3.588  11.909 -0.6072 -0.7217  0.6596
  804MPD2     C11838   1.111   4.367  17.012 -0.1093 -0.0178 -0.1937
  804MPD2    C111839   1.097   4.326  17.136  0.0008  0.0457  0.4647
  804MPD2    C211840   1.143   4.402  17.242 -1.3043 -0.1157 -0.1994
  804MPD2    C311841   1.210   4.522  17.216 -0.0646  0.1055  0.5426
  804MPD2    C411842   1.208   4.572  17.085  0.2962 -0.0334  0.3206
  804MPD2    C511843   1.162   4.493  16.986  0.4296  0.2510  0.1947
  804MPD2     H11844   1.144   4.360  17.342 -0.6699  1.4316  0.4432
  804MPD2    H111845   1.249   4.668  17.053  0.3514 -0.4351 -0.8058
  804MPD2    H211846   1.081   4.312  16.923  1.5002  0.9860 -1.3699
  804MPD2    H311847   1.190   4.525  16.886  0.1564 -0.8681 -0.2360
  804MPD2     N11848   1.279   4.584  17.321  0.1376 -0.4876  0.5060
  804MPD2    H511849   1.274   4.531  17.408  1.2297 -0.1561  0.7644
  804MPD2    N111850   1.047   4.199  17.170  0.2239  0.4250  0.1090
  804MPD2    H711851   1.018   4.184  17.266  0.7875  1.7603  0.4686
  805MPD2     C11852   0.471   2.329  15.394  0.3587 -1.5033  0.4078
  805MPD2    C111853   0.376   2.387  15.464 -0.1527 -0.4442  0.4491
  805MPD2    C211854   0.404   2.469  15.572  0.2085 -0.0011 -0.5098
  805MPD2    C311855   0.538   2.491  15.613 -0.1804 -0.7237  0.4561
  805MPD2    C411856   0.635   2.429  15.540 -0.1920  0.0970 -0.3181
  805MPD2    C511857   0.600   2.343  15.433  0.1203  1.1051 -0.0918
  805MPD2     H11858   0.327   2.524  15.625  0.5963  0.3923 -0.3551
  805MPD2    H111859   0.741   2.428  15.561 -0.1232  0.8613 -0.6166
  805MPD2    H211860   0.451   2.261  15.312 -1.5894 -1.0910  0.5361
  805MPD2    H311861   0.681   2.280  15.397 -0.2607  0.4815  0.1498
  805MPD2     N11862   0.568   2.561  15.731  0.2104  0.0256  0.1702
  805MPD2    H511863   0.485   2.599  15.775 -1.2752  1.0216 -3.5164
  805MPD2    N111864   0.242   2.365  15.434 -0.6843  0.0637  0.4797
  805MPD2    H711865   0.182   2.403  15.507 -3.6582 -0.3829 -1.7134
  806MPD2     C11866   0.383   1.950  17.658  0.2655 -0.2912 -0.4652
  806MPD2    C111867   0.473   2.011   0.061 -0.2562  0.0525 -1.1924
  806MPD2    C211868   0.562   2.098   0.007  0.2695  0.5856 -0.4785
  806MPD2    C311869   0.548   2.142  17.555 -0.4792  0.1996  0.1822
  806MPD2    C411870   0.458   2.076  17.473  0.1733 -0.4128 -0.8214
  806MPD2    C511871   0.378   1.986  17.525  0.2814  0.2704  0.0644
  806MPD2     H11872   0.642   2.149   0.060  2.1697 -2.6436 -0.1651
  806MPD2    H111873   0.436   2.110  17.372 -0.3711  1.6559 -0.0093
  806MPD2    H211874   0.318   1.870   0.018 -0.3345  0.1147 -0.6490
  806MPD2    H311875   0.303   1.935  17.466  1.5626 -0.9211 -0.5289
  806MPD2     N11876   0.645   2.236  17.514 -0.4380  0.0997  0.6959
  806MPD2    H511877   0.723   2.245  17.579  0.9245 -1.1243 -0.7702
  806MPD2    N111878   0.479   1.961   0.195  0.4329 -0.1620 -0.1019
  806MPD2    H711879   0.401   1.898   0.213 -0.0461  0.8295  1.2261
  807MPD2     C11880   0.659   1.397   0.745  0.1710  0.2983 -0.4437
  807MPD2    C111881   0.549   1.468   0.779  0.4039 -0.2695  0.0007
  807MPD2    C211882   0.484   1.411   0.885 -0.1807  0.1240  0.0407
  807MPD2    C311883   0.529   1.305   0.962 -0.4145  0.0563  0.1227
  807MPD2    C411884   0.645   1.239   0.925  0.5725  0.2229 -0.2675
  807MPD2    C511885   0.716   1.302   0.824  0.5022 -0.1148  0.5508
  807MPD2     H11886   0.387   1.454   0.906  0.8438  2.6192 -0.3173
  807MPD2    H111887   0.701   1.162   0.976  0.4592  0.2066 -0.1676
  807MPD2    H211888   0.728   1.429   0.668  0.2360 -0.2222 -0.6034
  807MPD2    H311889   0.799   1.248   0.779 -0.8449 -2.6698  1.1198
  807MPD2     N11890   0.467   1.270   1.086  0.7656  0.5608  0.6983
  807MPD2    H511891   0.395   1.332   1.123  0.5198  0.5965  0.1653
  807MPD2    N111892   0.505   1.579   0.711 -0.1808 -0.2037 -0.5407
  807MPD2    H711893   0.437   1.632   0.764  0.4038 -1.3453  1.3290
  808MPD2     C11894   1.893   2.421   9.861  0.7433  0.3115  0.8998
  808MPD2    C111895   1.840   2.506   9.770  0.1756  0.3848 -0.0508
  808MPD2    C211896   1.904   2.618   9.726  0.8050 -0.3871 -0.5373
  808MPD2    C311897   2.037   2.634   9.762 -0.1520  0.4754 -0.0718
  808MPD2    C411898   2.092   2.547   9.858  0.1644 -0.4472  0.7389
  808MPD2    C511899   2.020   2.443   9.911 -0.2976 -0.5904  0.2326
  808MPD2     H11900   1.861   2.685   9.653 -0.3912 -1.7265 -1.0492
  808MPD2    H111901   2.193   2.559   9.896  1.0379  0.1472 -1.7690
  808MPD2    H211902   1.846   2.333   9.903 -0.0738  0.4598  0.3017
  808MPD2    H311903   2.070   2.373   9.976 -0.3045 -1.0202 -0.2235
  808MPD2     N11904   2.114   2.748   9.727 -0.1880  0.4125  0.1791
  808MPD2    H511905   2.203   2.771   9.769 -0.7265  1.7380  0.5981
  808MPD2    N111906   1.708   2.490   9.728  0.0357  0.5930 -1.0714
  808MPD2    H711907   1.674   2.548   9.651 -0.6354  0.8594 -0.5754
  809MPD2     C11908   2.207   3.428   8.930  0.2135  0.4307 -0.0551
  809MPD2    C111909   2.326   3.427   9.001  0.2297 -0.5896 -0.2424
  809MPD2    C211910   2.335   3.343   9.109 -0.1074  0.6765  0.1556
  809MPD2    C311911   2.229   3.255   9.141 -0.0418 -0.2575  0.1808
  809MPD2    C411912   2.124   3.234   9.050 -0.0385 -0.0198 -0.2483
  809MPD2    C511913   2.109   3.327   8.954 -0.8093 -1.2484  0.7577
  809MPD2     H11914   2.421   3.343   9.175  0.7470  1.3381 -0.9347
  809MPD2    H111915   2.039   3.169   9.064 -1.0116  1.3261  0.0580
  809MPD2    H211916   2.181   3.497   8.851 -0.4946 -2.0407 -1.9692
  809MPD2    H311917   2.020   3.319   8.893  1.2375 -1.8808 -2.1433
  809MPD2     N11918   2.223   3.173   9.263 -0.5770  0.0314  0.1611
  809MPD2    H511919   2.141   3.118   9.283 -0.6669 -0.2409 -0.9449
  809MPD2    N111920   2.435   3.515   8.984  0.4897 -0.3039  0.4433
  809MPD2    H711921   2.502   3.518   9.060  1.2943 -1.4349 -0.2359
  810MPD2     C11922   1.321   2.355  10.508 -0.4885  0.0056  0.8155
  810MPD2    C111923   1.254   2.384  10.393  0.2129  0.0010 -0.3435
  810MPD2    C211924   1.323   2.450  10.291  0.1083 -0.7998 -0.0454
  810MPD2    C311925   1.458   2.484  10.308 -0.1619  0.7694 -0.0485
  810MPD2    C411926   1.528   2.448  10.422  0.1896  0.3290 -0.8823
  810MPD2    C511927   1.456   2.377  10.515  1.1539  0.3443  0.1971
  810MPD2     H11928   1.273   2.466  10.196  0.0604 -1.5586 -0.1468
  810MPD2    H111929   1.632   2.468  10.442 -0.7419  2.3135  1.8941
  810MPD2    H211930   1.271   2.294  10.583 -0.2144 -1.1929  0.0294
  810MPD2    H311931   1.497   2.341  10.609 -1.5780 -0.9813  0.8994
  810MPD2     N11932   1.533   2.564  10.216  0.2202 -0.1034  0.4183
  810MPD2    H511933   1.630   2.582  10.239  0.7026 -2.4719  0.2443
  810MPD2    N111934   1.117   2.349  10.382 -0.0135  0.1322 -0.0128
  810MPD2    H711935   1.090   2.272  10.443  0.0371  1.1779  1.3020
  811MPD2     C11936   0.409   2.538   9.953  0.3899  0.5531 -0.5075
  811MPD2    C111937   0.516   2.582  10.031  0.5626  0.1875  0.7626
  811MPD2    C211938   0.533   2.716  10.050  0.7073 -0.1738  0.1173
  811MPD2    C311939   0.433   2.803  10.004 -0.2112 -0.0815  0.1999
  811MPD2    C411940   0.324   2.761   9.932 -0.1474 -1.1535  0.1107
  811MPD2    C511941   0.316   2.625   9.907 -0.4033  0.8198  0.6309
  811MPD2     H11942   0.612   2.758  10.111  1.7268  0.9171 -1.9437
  811MPD2    H111943   0.250   2.819   9.878  1.6821 -0.2026 -1.3654
  811MPD2    H211944   0.401   2.433   9.927 -0.2104  0.8861 -1.7130
  811MPD2    H311945   0.236   2.596   9.841  0.2915  0.5631 -0.1010
  811MPD2     N11946   0.456   2.942  10.021  0.1984 -0.3177 -0.0122
  811MPD2    H511947   0.543   2.963  10.068 -0.2140 -0.0890  0.6454
  811MPD2    N111948   0.613   2.490  10.077  0.5229  0.5274 -0.1236
  811MPD2    H711949   0.701   2.530  10.106  0.1395  0.4688  1.1141
  812MPD2     C11950   4.168   3.112  12.278  0.4006  0.0846  0.1326
  812MPD2    C111951   4.295   3.169  12.295  0.0629 -0.5962 -0.0108
  812MPD2    C211952   4.394   3.092  12.342  0.1054 -0.0750 -0.8828
  812MPD2    C311953   4.375   2.959  12.366 -0.4635 -0.4761  0.5321
  812MPD2    C411954   4.255   2.893  12.323 -0.3667 -0.0801  0.0368
  812MPD2    C511955   4.148   2.974  12.279 -0.2038  0.2653 -0.4724
  812MPD2     H11956   4.495   3.127  12.354 -0.1585  0.8901 -1.4741
  812MPD2    H111957   4.238   2.787  12.335 -0.7545  0.1379  1.3729
  812MPD2    H211958   4.086   3.182  12.261  0.2816  0.4579  2.2105
  812MPD2    H311959   4.051   2.935  12.249  0.7286 -1.9120 -0.6562
  812MPD2     N11960   4.478   2.893  12.432  0.2971  0.7996 -0.5184
  812MPD2    H511961   4.544   2.942  12.491 -0.6946  0.1232  1.1648
  812MPD2    N111962   4.319   3.309  12.281 -0.0312 -0.5075 -0.5257
  812MPD2    H711963   4.241   3.369  12.256  0.2387 -0.0242 -0.2169
  813MPD2     C11964   3.411   0.306  12.654  0.1015 -0.2526  0.4068
  813MPD2    C111965   3.427   0.446  12.664  0.8088 -0.6255  0.5804
  813MPD2    C211966   3.409   0.505  12.787  0.2566  0.4494 -0.2919
  813MPD2    C311967   3.379   0.432  12.899  0.2245 -0.0144 -0.5868
  813MPD2    C411968   3.371   0.300  12.887 -0.0419  0.6851  0.0172
  813MPD2    C511969   3.398   0.235  12.770  0.5155  0.3001 -0.4207
  813MPD2     H11970   3.418   0.613  12.795  0.0163  0.7370 -3.8753
  813MPD2    H111971   3.345   0.241  12.975 -0.0242 -1.3020 -1.3083
  813MPD2    H211972   3.418   0.253  12.560 -1.2182  1.3847 -0.6354
  813MPD2    H311973   3.367   0.131  12.771 -3.5381  1.5023  0.0270
  813MPD2     N11974   3.354   0.507  13.019 -0.3417 -0.4126  0.0331
  813MPD2    H511975   3.382   0.604  13.012 -1.9220  0.0600  0.3025
  813MPD2    N111976   3.467   0.509  12.541  0.2352  0.0629 -0.0530
  813MPD2    H711977   3.501   0.452  12.463 -0.3383 -0.5561  0.1505
  814MPD2     C11978   3.704   1.854  12.249 -0.0246  0.0962 -0.0558
  814MPD2    C111979   3.719   1.901  12.118 -0.0843  0.5066 -0.7414
  814MPD2    C211980   3.787   2.017  12.093  0.3401 -0.0457  0.6143
  814MPD2    C311981   3.841   2.085  12.203  1.2210 -0.3299  0.4827
  814MPD2    C411982   3.834   2.028  12.329  0.1829  0.0822  1.0491
  814MPD2    C511983   3.765   1.915  12.352 -0.3571 -0.8573  0.2399
  814MPD2     H11984   3.788   2.046  11.989  1.3268  1.4410  1.0345
  814MPD2    H111985   3.882   2.078  12.412 -1.9047  1.1721  1.6027
  814MPD2    H211986   3.661   1.758  12.274 -0.4369  0.1159 -0.6900
  814MPD2    H311987   3.764   1.869  12.450  0.0848 -1.1660  0.0957
  814MPD2     N11988   3.909   2.204  12.187 -0.0269  0.1250 -0.5747
  814MPD2    H511989   3.951   2.248  12.268  2.5122 -1.3384 -1.0897
  814MPD2    N111990   3.665   1.845  12.002  0.4191  0.4661 -0.5230
  814MPD2    H711991   3.700   1.878  11.912  0.2055  0.7459 -0.5047
  815MPD2     C11992   4.207   4.650  11.788  0.2713  0.1375  1.0952
  815MPD2    C111993   4.199   4.549  11.698  0.5604  0.4682  0.1132
  815MPD2    C211994   4.117   4.441  11.720  0.0763  0.3042  0.0742
  815MPD2    C311995   4.058   4.419  11.840  0.4233  0.6704 -1.2173
  815MPD2    C411996   4.059   4.523  11.934  0.1384  0.3060  1.5233
  815MPD2    C511997   4.139   4.636  11.902  0.7686 -0.4961 -0.2080
  815MPD2     H11998   4.107   4.367  11.642  1.6471 -0.1229  0.2866
  815MPD2    H111999   4.007   4.525  12.029 -1.1914  0.0376  0.8005
  815MPD2    H212000   4.258   0.028  11.783  3.0204 -1.3092  1.7554
  815MPD2    H312001   4.145   4.718  11.973  0.9752 -0.6721 -0.0240
  815MPD2     N12002   3.959   4.313  11.842  0.4384  0.2086  0.1432
  815MPD2    H512003   3.924   4.271  11.757 -0.1174 -1.2097  1.0687
  815MPD2    N112004   4.271   4.562  11.577  0.5135  0.3800  0.6783
  815MPD2    H712005   4.291   4.477  11.524 -2.8761  0.0912 -0.1029
  816MPD2     C12006   4.616   4.215  17.290 -0.4302 -0.3477  0.3079
  816MPD2    C112007   4.516   4.144  17.229 -0.9394 -0.0695  0.6913
  816MPD2    C212008   4.549   4.068  17.115  0.0209 -0.1792  0.0406
  816MPD2    C312009   4.673   4.067  17.058 -0.8464  0.2973  0.3532
  816MPD2    C412010   0.055   4.144  17.127 -0.5879  0.5533 -0.3573
  816MPD2    C512011   0.020   4.218  17.232 -0.8288 -0.6750  0.0820
  816MPD2     H12012   4.469   4.014  17.065 -0.0342 -0.9693  0.9804
  816MPD2    H112013   0.156   4.155  17.090 -0.4996  0.3964 -0.1594
  816MPD2    H212014   4.597   4.256  17.389  1.6833  1.0544  0.1179
  816MPD2    H312015   0.103   4.269  17.280 -0.2282  0.3377 -2.0165
  816MPD2     N12016   4.697   3.989  16.940  0.3720 -0.5674  0.2307
  816MPD2    H512017   4.633   3.917  16.909 -0.5450 -0.2522  1.4004
  816MPD2    N112018   4.388   4.168  17.281 -0.4474  0.0609 -0.6476
  816MPD2    H712019   4.384   4.247  17.344  0.6162 -1.9970  1.9913
  817MPD2     C12020   4.095   0.468  10.248  0.6195  0.1501 -0.5212
  817MPD2    C112021   4.148   0.492  10.121 -0.6221  0.7436 -0.4926
  817MPD2    C212022   4.150   0.620  10.072  0.1055  0.1127 -0.4685
  817MPD2    C312023   4.082   0.714  10.137  0.2835  0.1716 -0.0026
  817MPD2    C412024   4.028   0.691  10.260 -0.0918 -0.5233 -0.8737
  817MPD2    C512025   4.040   0.566  10.315  0.5741  0.3604  0.1959
  817MPD2     H12026   4.193   0.638   9.974  0.2583 -1.9875 -0.7933
  817MPD2    H112027   3.994   0.771  10.325 -2.1907 -2.9675  1.0073
  817MPD2    H212028   4.105   0.367  10.288  1.3194  0.2938 -0.3326
  817MPD2    H312029   3.991   0.548  10.411 -2.1023 -1.8768 -1.5904
  817MPD2     N12030   4.087   0.847  10.092 -0.1507  0.0205 -0.0038
  817MPD2    H512031   4.145   0.866  10.011 -1.2120  0.4590 -0.6612
  817MPD2    N112032   4.179   0.386  10.033  0.1310 -0.3645 -0.1609
  817MPD2    H712033   4.206   0.403   9.937 -1.3411  3.0448  0.0399
  818MPD2     C12034   3.312   1.098  10.182 -0.1868 -0.6678 -0.2745
  818MPD2    C112035   3.212   1.003  10.207 -0.2713  0.5400  0.7564
  818MPD2    C212036   3.241   0.872  10.189 -0.0073 -0.8388 -0.7964
  818MPD2    C312037   3.358   0.835  10.127  0.4933  0.1996  1.0419
  818MPD2    C412038   3.459   0.928  10.103 -0.2012 -0.1491 -0.3320
  818MPD2    C512039   3.437   1.057  10.140  0.0444  0.0363  0.2872
  818MPD2     H12040   3.159   0.807  10.217  1.0615 -1.8497 -0.0460
  818MPD2    H112041   3.555   0.898  10.063 -0.6309 -1.3108 -0.4895
  818MPD2    H212042   3.295   1.203  10.204 -1.7300 -0.7611 -0.9830
  818MPD2    H312043   3.514   1.131  10.119  1.6885 -1.9231 -0.6023
  818MPD2     N12044   3.374   0.708  10.072  0.0264 -0.3834 -0.6864
  818MPD2    H512045   3.463   0.695  10.026  1.8341  0.6384  2.5667
  818MPD2    N112046   3.086   1.026  10.256 -0.5086  0.7209  0.3694
  818MPD2    H712047   3.022   0.948  10.267  0.4192 -0.2591 -1.0640
  819MPD2     C12048   0.945   3.008  15.803 -0.0531  0.5373  0.9284
  819MPD2    C112049   0.964   2.888  15.728  0.5762  0.3855  0.2275
  819MPD2    C212050   1.051   2.789  15.777  0.6187  0.4178 -1.0915
  819MPD2    C312051   1.102   2.798  15.905 -0.1342 -0.6037  0.4348
  819MPD2    C412052   1.078   2.916  15.981 -0.1828 -0.2246 -0.0947
  819MPD2    C512053   1.001   3.012  15.928  0.6102  0.1831  0.6845
  819MPD2     H12054   1.054   2.699  15.716 -0.0650  0.2685 -0.9098
  819MPD2    H112055   1.121   2.940  16.078 -0.4153 -1.0585  0.2141
  819MPD2    H212056   0.887   3.094  15.772  0.0126 -0.2730 -1.4469
  819MPD2    H312057   1.000   3.108  15.977 -1.7032  1.3093 -1.6133
  819MPD2     N12058   1.179   2.691  15.952 -0.6459 -0.2996 -0.6440
  819MPD2    H512059   1.202   2.614  15.891  1.2065 -0.6797  0.5186
  819MPD2    N112060   0.904   2.882  15.603 -0.5245  0.4024 -0.1717
  819MPD2    H712061   0.840   2.958  15.583 -0.7578 -0.3005 -2.1755
  820MPD2     C12062   0.046   2.748  15.608 -0.2453  0.4336 -0.1212
  820MPD2    C112063   0.091   2.702  15.486 -0.4399 -0.0006 -0.1215
  820MPD2    C212064   0.219   2.740  15.443 -0.2854  0.3265  0.0473
  820MPD2    C312065   0.310   2.816  15.507 -0.3802 -0.0623 -0.6468
  820MPD2    C412066   0.261   2.862  15.628  0.4245 -0.2458 -0.6014
  820MPD2    C512067   0.137   2.834  15.675  0.5489  0.3821  0.6325
  820MPD2     H12068   0.244   2.707  15.343 -2.1844 -2.5664  0.5127
  820MPD2    H112069   0.331   2.915  15.693  1.1018  1.6574 -2.8835
  820MPD2    H212070   4.665   2.718  15.641 -0.0589 -0.6070 -0.5126
  820MPD2    H312071   0.101   2.872  15.770  1.0898  0.5822  0.7601
  820MPD2     N12072   0.434   2.850  15.460  0.9861  0.4435  0.7538
  820MPD2    H512073   0.490   2.917  15.511  0.2277  3.1869 -2.0443
  820MPD2    N112074   0.025   2.614  15.403 -0.0569 -0.1330  0.1415
  820MPD2    H712075   0.074   2.579  15.321  2.7690  0.2791  1.6553
  821MPD2     C12076   1.354   3.890  13.096  0.0746  0.3094  0.4600
  821MPD2    C112077   1.465   3.915  13.179  0.5396  0.5714  0.4317
  821MPD2    C212078   1.574   3.980  13.128  0.0553 -0.5329 -0.1775
  821MPD2    C312079   1.567   4.047  13.012  0.2466  0.5981  0.7325
  821MPD2    C412080   1.451   4.041  12.934 -0.1807 -0.1353 -0.0591
  821MPD2    C512081   1.355   3.958  12.979  0.4642 -0.2058 -0.1122
  821MPD2     H12082   1.662   3.988  13.191  0.3273 -2.4790 -0.3028
  821MPD2    H112083   1.459   4.088  12.837 -1.8946 -2.8432 -1.5007
  821MPD2    H212084   1.271   3.826  13.123 -0.0034  0.0038 -0.4894
  821MPD2    H312085   1.262   3.950  12.924 -0.1350 -0.2809  0.9352
  821MPD2     N12086   1.664   4.138  12.964  0.4694  0.3857  0.0344
  821MPD2    H512087   1.641   4.192  12.881 -1.7918 -2.1481 -0.9605
  821MPD2    N112088   1.478   3.858  13.305 -0.2437 -0.3214  0.3439
  821MPD2    H712089   1.564   3.875  13.357 -0.2994 -1.5329  0.8434
  822MPD2     C12090   1.878   4.058  15.694 -0.2940 -0.6416  0.2620
  822MPD2    C112091   1.812   3.979  15.782  0.2487  0.2253  0.0700
  822MPD2    C212092   1.702   4.033  15.848 -0.5139  0.0770 -0.0655
  822MPD2    C312093   1.671   4.169  15.844  0.6324 -0.1272  0.4071
  822MPD2    C412094   1.736   4.246  15.755  0.2468  0.1598  0.0673
  822MPD2    C512095   1.827   4.184  15.672 -0.3943  0.4774  0.0363
  822MPD2     H12096   1.651   3.972  15.922 -0.4785 -0.6374 -0.6250
  822MPD2    H112097   1.709   4.350  15.742  0.6272 -0.0577 -2.4256
  822MPD2    H212098   1.960   4.031  15.628 -0.7693 -0.4061 -0.4273
  822MPD2    H312099   1.874   4.240  15.592  2.5238 -1.1444  0.5903
  822MPD2     N12100   1.581   4.223  15.939 -0.4571 -0.3060 -0.5514
  822MPD2    H512101   1.557   4.163  16.017 -0.3290 -0.6670 -0.7887
  822MPD2    N112102   1.857   3.855  15.818  0.1970  0.0753 -0.0614
  822MPD2    H712103   1.796   3.803  15.881 -1.8800 -0.9550 -2.9384
  823MPD2     C12104   1.396   4.336  16.688  1.2542 -0.4448  0.1902
  823MPD2    C112105   1.381   4.248  16.581  0.0787  0.0760 -0.7377
  823MPD2    C212106   1.379   4.112  16.609  0.5053  0.5143  0.2830
  823MPD2    C312107   1.379   4.070  16.748 -0.7054  1.2285 -1.2911
  823MPD2    C412108   1.393   4.163  16.847  0.5302  0.3739  0.1601
  823MPD2    C512109   1.403   4.298  16.823 -0.1206  0.3827  0.1936
  823MPD2     H12110   1.369   4.047  16.523  2.0399 -0.2308  0.6759
  823MPD2    H112111   1.401   4.135  16.952  0.4414  0.5531  0.2135
  823MPD2    H212112   1.391   4.443  16.671  0.9899 -0.3788  0.6499
  823MPD2    H312113   1.403   4.369  16.905 -1.0900  0.9255 -0.2854
  823MPD2     N12114   1.376   3.933  16.781  0.6823 -0.3139  0.8267
  823MPD2    H512115   1.382   3.915  16.880 -1.0329 -1.0412  0.7947
  823MPD2    N112116   1.354   4.304  16.450 -0.1565  0.4308  0.0077
  823MPD2    H712117   1.381   4.401  16.439 -1.1966  0.7575  0.2864
  824MPD2     C12118   2.394   3.185  16.110  0.1642 -0.1038 -0.5075
  824MPD2    C112119   2.348   3.223  15.989  0.2330 -0.2859 -0.4252
  824MPD2    C212120   2.396   3.162  15.870 -0.1363 -0.0858  0.6164
  824MPD2    C312121   2.474   3.049  15.876 -0.2675 -0.5761  0.0076
  824MPD2    C412122   2.529   3.024  16.001 -0.4974  0.1541  0.6858
  824MPD2    C512123   2.503   3.100  16.110 -0.0828 -0.6325  0.5534
  824MPD2     H12124   2.358   3.188  15.772 -1.0365 -0.7537  0.7892
  824MPD2    H112125   2.595   2.940  16.019 -0.7912 -0.5938 -1.7728
  824MPD2    H212126   2.353   3.222  16.204  0.5371 -0.0600 -0.3620
  824MPD2    H312127   2.550   3.072  16.204 -2.0178 -2.7477  0.8881
  824MPD2     N12128   2.509   2.972  15.763  0.1253  0.0148  0.1834
  824MPD2    H512129   2.488   3.009  15.671 -0.0239  0.1366  0.2676
  824MPD2    N112130   2.244   3.320  16.001 -0.0596  0.2757 -1.0986
  824MPD2    H712131   2.214   3.328  16.097 -0.6894 -0.5485 -1.2206
  825MPD2     C12132   3.007   2.890  15.042  0.4727 -0.0434  0.1680
  825MPD2    C112133   2.928   2.971  15.119  0.3377  0.2631  0.1266
  825MPD2    C212134   2.909   3.105  15.084 -0.1666  0.3419 -0.1527
  825MPD2    C312135   2.966   3.160  14.971  0.7431 -0.6275  0.0987
  825MPD2    C412136   3.032   3.077  14.889  0.3430 -0.1636  1.0516
  825MPD2    C512137   3.054   2.942  14.921 -0.2701 -0.2914 -0.0275
  825MPD2     H12138   2.839   3.166  15.140 -0.5430 -0.8281  0.6357
  825MPD2    H112139   3.078   3.115  14.799  0.3185  0.8171  1.4496
  825MPD2    H212140   3.032   2.787  15.065 -0.6004 -0.2044  0.6305
  825MPD2    H312141   3.123   2.873  14.875 -2.5016 -1.6534 -1.3710
  825MPD2     N12142   2.965   3.293  14.929 -0.0014 -0.3261 -0.9563
  825MPD2    H512143   3.021   3.312  14.847  0.1080 -0.8262 -1.0020
  825MPD2    N112144   2.862   2.904  15.224 -0.4064 -0.0363  0.1646
  825MPD2    H712145   2.871   2.803  15.223 -0.7657 -0.0698  0.1199
  826MPD2     C12146   2.318   3.788  14.246 -0.3523 -0.0337  0.3269
  826MPD2    C112147   2.321   3.801  14.109  0.1086 -0.2118  0.4864
  826MPD2    C212148   2.208   3.857  14.048  0.1556 -0.1527 -0.1009
  826MPD2    C312149   2.102   3.900  14.124  0.5410 -0.2048  0.1092
  826MPD2    C412150   2.098   3.884  14.262 -0.3587 -0.4674  0.2480
  826MPD2    C512151   2.215   3.838  14.321 -0.0295 -0.6189 -0.4088
  826MPD2     H12152   2.203   3.866  13.940 -0.2350  0.3037 -0.0437
  826MPD2    H112153   2.009   3.899  14.321 -0.8055  0.3755 -0.6229
  826MPD2    H212154   2.399   3.742  14.300  0.0082  0.9047  0.5914
  826MPD2    H312155   2.219   3.827  14.429 -0.9560 -2.6274 -0.5731
  826MPD2     N12156   1.976   3.936  14.061  0.0710  0.2777  0.7550
  826MPD2    H512157   1.905   3.968  14.125 -1.2179 -2.5140  0.7353
  826MPD2    N112158   2.439   3.770  14.040  0.0470  0.5440 -0.3780
  826MPD2    H712159   2.517   3.730  14.091  0.8757  1.0802 -1.2418
  827MPD2     C12160   3.252   4.050   9.881 -0.7043  0.9628 -0.3906
  827MPD2    C112161   3.298   3.924   9.920 -0.0720  0.4169 -0.0080
  827MPD2    C212162   3.271   3.815   9.847 -0.1387 -0.2183 -0.5112
  827MPD2    C312163   3.191   3.827   9.733 -0.4030  0.3869 -0.1703
  827MPD2    C412164   3.149   3.951   9.681 -0.1161  0.4357  0.9214
  827MPD2    C512165   3.176   4.056   9.765 -0.0373 -0.6617 -0.0896
  827MPD2     H12166   3.316   3.718   9.865  0.9395  0.2741 -0.5919
  827MPD2    H112167   3.080   3.960   9.598  2.7740 -1.2146 -1.6403
  827MPD2    H212168   3.279   4.139   9.936  0.7533  0.4289 -0.2403
  827MPD2    H312169   3.155   4.159   9.738  0.5296 -1.0568 -2.0624
  827MPD2     N12170   3.157   3.707   9.668  0.7662  0.2087  0.8163
  827MPD2    H512171   3.174   3.617   9.712  2.6191  0.2385  0.1741
  827MPD2    N112172   3.362   3.910  10.043 -0.2704 -0.1073  0.0604
  827MPD2    H712173   3.390   4.002  10.074  0.1891 -0.2159 -0.0298
  828MPD2     C12174   1.934   4.525  12.106  0.8679  0.1362 -0.4219
  828MPD2    C112175   1.846   4.453  12.025 -0.1497  0.3395 -0.2139
  828MPD2    C212176   1.889   4.393  11.911 -0.3938 -0.4831 -0.5901
  828MPD2    C312177   2.024   4.415  11.873  0.3796  0.0651 -0.0876
  828MPD2    C412178   2.107   4.487  11.953  0.2754  0.3884 -0.0909
  828MPD2    C512179   2.064   4.539  12.066  0.3537 -0.3474  0.0281
  828MPD2     H12180   1.818   4.335  11.854 -0.0892 -0.0543 -1.4002
  828MPD2    H112181   2.208   4.507  11.921  0.5660  0.5307  0.9089
  828MPD2    H212182   1.902   4.569  12.199  1.0333  0.1863 -0.3883
  828MPD2    H312183   2.137   4.595  12.123 -1.0555  1.0982  0.3987
  828MPD2     N12184   2.081   4.370  11.755 -0.5900 -0.4232 -0.2223
  828MPD2    H512185   2.178   4.388  11.734 -1.1800  0.4644 -2.1697
  828MPD2    N112186   1.713   4.443  12.059  0.3448  0.2832 -0.0289
  828MPD2    H712187   1.645   4.402  11.996  0.0518 -0.4280  0.7477
  829MPD2     C12188   1.063   4.453  11.501  0.6490  0.2841 -0.1846
  829MPD2    C112189   0.993   4.478  11.617 -0.5637 -0.1042  0.1928
  829MPD2    C212190   1.058   4.481  11.736  0.2881  0.5104 -0.2201
  829MPD2    C312191   1.199   4.458  11.746  0.0744 -0.2157  0.1990
  829MPD2    C412192   1.264   4.424  11.632 -0.4553  0.4791  1.3891
  829MPD2    C512193   1.195   4.433  11.504  0.0584  0.0402  0.2173
  829MPD2     H12194   1.000   4.501  11.826  0.3079  0.2599 -0.1514
  829MPD2    H112195   1.372   4.411  11.630 -0.4091  0.8636  1.4833
  829MPD2    H212196   1.005   4.462  11.411 -1.5172 -0.8419  1.1160
  829MPD2    H312197   1.256   4.428  11.415 -1.5227 -2.0918 -0.7394
  829MPD2     N12198   1.269   4.465  11.872 -0.2214 -0.6894 -0.0138
  829MPD2    H512199   1.367   4.443  11.859 -0.5864 -1.4643 -1.4531
  829MPD2    N112200   0.854   4.507  11.609  0.4841 -0.2049  0.0756
  829MPD2    H712201   0.812   4.492  11.518  1.3732  0.4534 -0.4477
  830MPD2     C12202   1.840   2.238  16.044 -0.5400  0.1837  0.5950
  830MPD2    C112203   1.775   2.306  15.942 -0.3297 -0.0045 -0.5607
  830MPD2    C212204   1.848   2.374  15.846 -0.3795  0.1093 -1.2197
  830MPD2    C312205   1.986   2.377  15.845 -0.0071 -0.3178 -0.0122
  830MPD2    C412206   2.044   2.314  15.956 -0.0860 -0.2658 -1.0275
  830MPD2    C512207   1.979   2.233  16.040 -0.1406 -0.4008  0.3545
  830MPD2     H12208   1.797   2.425  15.766 -4.2053 -2.9296 -0.7162
  830MPD2    H112209   2.152   2.313  15.968 -0.6601 -0.9961  3.9747
  830MPD2    H212210   1.785   2.178  16.115 -2.8619  0.6178 -0.8432
  830MPD2    H312211   2.030   2.183  16.121  2.2008  1.0166 -0.2523
  830MPD2     N12212   2.070   2.452  15.759 -0.5794 -1.0789  0.0354
  830MPD2    H512213   2.167   2.456  15.790 -1.1629 -0.0086  1.6893
  830MPD2    N112214   1.636   2.313  15.959 -0.3341  0.8842 -0.1975
  830MPD2    H712215   1.606   2.253  16.035  2.2284  0.3367  0.4114
  831MPD2     C12216   1.947   4.064  16.462 -0.0839 -0.7082  0.5491
  831MPD2    C112217   1.928   4.033  16.330  0.8693  0.2402 -0.5931
  831MPD2    C212218   1.805   3.980  16.288 -0.5017  0.2117 -0.2335
  831MPD2    C312219   1.698   3.965  16.379 -0.4191 -0.6602  0.6010
  831MPD2    C412220   1.719   4.000  16.511 -1.0028 -0.0564  0.4433
  831MPD2    C512221   1.841   4.050  16.552  0.6295  1.0664 -0.2476
  831MPD2     H12222   1.792   3.940  16.188  1.1251  1.1748 -0.8464
  831MPD2    H112223   1.632   4.000  16.577  0.6790  0.8516  2.6609
  831MPD2    H212224   2.042   4.097  16.503  0.3997 -1.2374 -0.1622
  831MPD2    H312225   1.852   4.090  16.652 -1.9888  1.6468 -0.1797
  831MPD2     N12226   1.576   3.912  16.332  0.3195 -0.2673  0.6311
  831MPD2    H512227   1.506   3.874  16.395  0.3155 -0.3592  0.5718
  831MPD2    N112228   2.027   4.053  16.241  0.1990 -1.2965 -0.5992
  831MPD2    H712229   2.126   4.056  16.267  0.2138  1.5404 -0.9714
  832MPD2     C12230   0.034   0.375  17.168  0.1126  0.1554  0.4499
  832MPD2    C112231   0.044   0.471  17.068 -0.3060  0.4895  0.2093
  832MPD2    C212232   4.653   0.503  16.997 -0.6514 -0.3376 -0.6278
  832MPD2    C312233   4.533   0.441  17.038  0.6644  0.5318  0.1848
  832MPD2    C412234   4.523   0.353  17.140  0.1806  0.5815  0.0350
  832MPD2    C512235   4.633   0.332  17.214 -0.7150  0.0293  0.4165
  832MPD2     H12236   4.648   0.565  16.909 -0.8909 -2.4042 -2.0745
  832MPD2    H112237   4.430   0.316  17.181 -0.3051  1.9282  0.1271
  832MPD2    H212238   0.121   0.342  17.224  1.0517  0.1450 -0.9961
  832MPD2    H312239   4.630   0.279  17.309  2.3121 -2.3312 -0.8440
  832MPD2     N12240   4.410   0.453  16.961  0.6296 -0.3437  0.1663
  832MPD2    H512241   4.341   0.379  16.967  0.8899 -0.6016  0.0074
  832MPD2    N112242   0.172   0.510  17.026  0.0215 -0.4817 -0.2707
  832MPD2    H712243   0.256   0.479  17.074 -0.1755  0.2566  0.5492
  833MPD2     C12244   1.889   2.063  12.735 -0.4309  0.0599  0.1936
  833MPD2    C112245   1.931   2.160  12.648  0.5577  0.0992 -0.5205
  833MPD2    C212246   2.010   2.122  12.544 -0.2671 -0.2529  0.1469
  833MPD2    C312247   2.044   1.995  12.525 -0.4337  0.8600  0.2684
  833MPD2    C412248   1.992   1.907  12.610  0.4945  0.6982  0.2635
  833MPD2    C512249   1.915   1.932  12.715 -0.1522  0.0407 -0.2441
  833MPD2     H12250   2.040   2.195  12.469 -0.3545  1.1071  1.4485
  833MPD2    H112251   2.008   1.804  12.580  0.1581  1.1219 -1.4170
  833MPD2    H212252   1.830   2.091  12.822 -0.1340 -0.2225  0.4902
  833MPD2    H312253   1.886   1.851  12.781 -0.5302 -0.5237 -1.1114
  833MPD2     N12254   2.122   1.955  12.417 -0.4040 -0.4963 -0.6011
  833MPD2    H512255   2.154   1.858  12.417  0.4010 -0.2105  1.8434
  833MPD2    N112256   1.888   2.294  12.675  0.4837  0.2838  0.0311
  833MPD2    H712257   1.823   2.310  12.751 -1.3377  0.8213 -1.6153
  834MPD2     C12258   1.827   1.501  11.610 -0.2799  0.1432  0.1364
  834MPD2    C112259   1.945   1.545  11.553 -0.2776  0.4676 -0.5218
  834MPD2    C212260   2.021   1.634  11.624  0.0393 -0.7767 -0.8243
  834MPD2    C312261   1.987   1.666  11.758 -0.0422 -0.7210 -0.2379
  834MPD2    C412262   1.879   1.615  11.817 -0.7120  0.3310  0.2640
  834MPD2    C512263   1.794   1.535  11.740  0.8034 -0.5159  0.5787
  834MPD2     H12264   2.108   1.676  11.574 -0.9284 -1.0985 -2.7624
  834MPD2    H112265   1.847   1.635  11.918  1.2818 -0.1755  0.9973
  834MPD2    H212266   1.766   1.424  11.564  0.9153 -0.9553  0.3785
  834MPD2    H312267   1.707   1.482  11.777 -0.7278  0.9831 -0.9184
  834MPD2     N12268   2.079   1.743  11.843  0.7010 -0.2209  0.0227
  834MPD2    H512269   2.162   1.778  11.797  1.9786 -2.8741  0.3022
  834MPD2    N112270   1.986   1.487  11.429  0.0893  0.2761 -0.1555
  834MPD2    H712271   1.945   1.400  11.397  0.4492 -0.6019  1.7791
  835MPD2     C12272   2.740   3.953  11.174 -0.0972  0.7694  0.4813
  835MPD2    C112273   2.727   4.087  11.157  0.6255 -0.0865  0.6482
  835MPD2    C212274   2.792   4.173  11.246 -0.3183  0.6403  0.0289
  835MPD2    C312275   2.841   4.127  11.369 -0.5760 -0.5265  0.0304
  835MPD2    C412276   2.835   3.985  11.387 -0.0581 -0.7671  1.3411
  835MPD2    C512277   2.796   3.899  11.289  0.7906 -0.0812  0.3673
  835MPD2     H12278   2.791   4.280  11.228  1.5481  0.2506 -2.4936
  835MPD2    H112279   2.878   3.953  11.482  1.1865  2.1194  1.7235
  835MPD2    H212280   2.705   3.882  11.099  0.0129  1.3324 -0.1068
  835MPD2    H312281   2.808   3.791  11.295 -0.9939 -0.2216  1.4951
  835MPD2     N12282   2.881   4.208  11.476  0.5589 -0.5540 -0.6883
  835MPD2    H512283   2.893   4.168  11.568 -0.3920  0.3113 -0.1835
  835MPD2    N112284   2.645   4.146  11.056 -0.1264  0.2144  0.0730
  835MPD2    H712285   2.621   4.243  11.073  0.4990  0.6212 -1.3445
  836MPD2     C12286   2.301   4.563  11.503 -0.3473 -1.5695 -0.5940
  836MPD2    C112287   2.371   4.616  11.614  0.1865 -0.6859  0.1076
  836MPD2    C212288   2.308   4.704  11.708 -0.2743  0.5357  0.7498
  836MPD2    C312289   2.174   0.031  11.684  0.5256  0.5376 -0.3762
  836MPD2    C412290   2.113   4.709  11.570 -0.4363  0.1252 -0.5505
  836MPD2    C512291   2.174   4.630  11.479  0.2892  0.2134 -0.1352
  836MPD2     H12292   2.363   0.028  11.791 -1.5509 -1.4123  2.5786
  836MPD2    H112293   2.015   0.025  11.540  0.3723  3.9205  1.1969
  836MPD2    H212294   2.346   4.496  11.431 -1.1485 -1.8614 -0.8238
  836MPD2    H312295   2.111   4.614  11.392  3.0112  3.1120 -2.6252
  836MPD2     N12296   2.100   0.104  11.779 -0.8183 -0.6157  0.8386
  836MPD2    H512297   2.003   0.117  11.752  0.2557  0.7126 -2.4024
  836MPD2    N112298   2.497   4.562  11.633 -0.1286  0.0995 -0.3017
  836MPD2    H712299   2.541   4.523  11.550  0.7094  0.8891 -0.2390
  837MPD2     C12300   0.854   3.584  10.308 -0.4142 -0.0355  0.1692
  837MPD2    C112301   0.719   3.592  10.329 -0.2238 -0.1465  0.4877
  837MPD2    C212302   0.667   3.696  10.398 -0.5178  0.0260  0.2853
  837MPD2    C312303   0.740   3.811  10.406  0.3221  0.5748  0.1174
  837MPD2    C412304   0.878   3.812  10.392  0.3868 -0.2623 -0.5619
  837MPD2    C512305   0.926   3.699  10.328 -0.1206 -0.2383  0.2584
  837MPD2     H12306   0.560   3.703  10.415 -0.1026  0.0928  2.9451
  837MPD2    H112307   0.939   3.901  10.391  1.5598 -1.0773 -0.8664
  837MPD2    H212308   0.905   3.504  10.255  0.0586  0.6103 -0.3476
  837MPD2    H312309   1.031   3.711  10.304 -0.3559  0.1342 -0.5746
  837MPD2     N12310   0.663   3.928  10.425 -0.8621 -0.4964 -0.0445
  837MPD2    H512311   0.562   3.918  10.427 -0.8841  0.0291  1.9358
  837MPD2    N112312   0.630   3.492  10.295  0.1276  0.4190  0.8643
  837MPD2    H712313   0.533   3.517  10.314 -1.3274 -3.1854 -1.6726
  838MPD2     C12314   3.615   2.905  11.795 -0.7638 -0.4844 -0.4133
  838MPD2    C112315   3.590   2.772  11.785 -0.0158 -0.2988  0.3648
  838MPD2    C212316   3.468   2.725  11.826  0.1338 -0.7719  0.4459
  838MPD2    C312317   3.368   2.815  11.864  0.0272  0.3607  0.1959
  838MPD2    C412318   3.393   2.947  11.877  0.7589 -0.2308  0.0749
  838MPD2    C512319   3.520   2.990  11.839 -0.3032 -0.0016 -0.5904
  838MPD2     H12320   3.446   2.619  11.818 -0.6586 -0.6724  1.4960
  838MPD2    H112321   3.319   3.020  11.909  0.0572 -0.3281 -1.3604
  838MPD2    H212322   3.718   2.937  11.779 -1.3282  1.6226  0.1334
  838MPD2    H312323   3.537   3.096  11.848  0.1716 -0.2422  1.3201
  838MPD2     N12324   3.250   2.755  11.887 -0.7302  0.2625  0.1792
  838MPD2    H512325   3.248   2.656  11.861 -1.1727  0.4329 -0.4377
  838MPD2    N112326   3.683   2.680  11.727  0.3437  0.4878 -0.5486
  838MPD2    H712327   3.656   2.583  11.728  1.2593  0.2346 -0.7664
  839MPD2     C12328   3.382   1.920  11.703 -0.0557  0.9513 -0.2032
  839MPD2    C112329   3.420   1.941  11.582 -0.5338  0.4949 -0.2806
  839MPD2    C212330   3.518   2.035  11.541 -0.7044 -0.6176  0.6627
  839MPD2    C312331   3.568   2.116  11.640  1.0856 -0.4422 -0.5738
  839MPD2    C412332   3.526   2.099  11.771  0.4565 -0.5308 -0.6629
  839MPD2    C512333   3.433   1.999  11.805 -0.2262 -0.7845  0.7155
  839MPD2     H12334   3.552   2.037  11.438  0.8538 -2.6588  1.1286
  839MPD2    H112335   3.566   2.157  11.852  1.4228 -0.0040 -1.5216
  839MPD2    H212336   3.311   1.843  11.731  0.2370  0.3919 -0.9928
  839MPD2    H312337   3.387   1.999  11.903  1.9257  1.2557  1.7295
  839MPD2     N12338   3.658   2.219  11.612  0.3112 -0.1286 -0.3180
  839MPD2    H512339   3.660   2.288  11.686 -1.1797  0.6327 -0.9712
  839MPD2    N112340   3.368   1.857  11.485  0.0181 -0.1470 -0.5744
  839MPD2    H712341   3.428   1.847  11.404 -1.7310 -0.4721 -1.8281
  840MPD2     C12342   3.843   4.232  10.109  0.3705  0.1508  0.4096
  840MPD2    C112343   3.814   4.211  10.240  1.0630 -0.7231 -0.2320
  840MPD2    C212344   3.860   4.298  10.336 -0.0631  0.0710 -0.5460
  840MPD2    C312345   3.927   4.417  10.312 -0.4950  0.5815 -0.8651
  840MPD2    C412346   3.954   4.443  10.181 -0.6466  0.2314 -0.6350
  840MPD2    C512347   3.923   4.348  10.086  0.3924 -0.4974 -0.7234
  840MPD2     H12348   3.852   4.279  10.443 -1.7028  0.5040 -0.5991
  840MPD2    H112349   4.000   4.537  10.150 -1.8749  0.9899 -0.1485
  840MPD2    H212350   3.822   4.164  10.028 -1.2943  2.3096 -0.9846
  840MPD2    H312351   3.948   4.364   9.982  0.2426  0.2278 -0.6473
  840MPD2     N12352   3.973   4.503  10.410 -0.1405 -0.3281  0.0452
  840MPD2    H512353   4.025   4.584  10.377  0.4330 -0.2126  1.2247
  840MPD2    N112354   3.737   4.099  10.267  0.0203  0.1742 -0.1884
  840MPD2    H712355   3.689   4.053  10.191 -0.5456  0.8805 -0.2687
  841MPD2     C12356   3.467   4.380  14.691 -0.0269 -0.3912 -0.9202
  841MPD2    C112357   3.429   4.343  14.564 -0.1628 -0.1032  0.2240
  841MPD2    C212358   3.370   4.441  14.474  0.2677 -0.8293  0.4308
  841MPD2    C312359   3.364   4.577  14.516 -0.1863  0.5906 -0.3899
  841MPD2    C412360   3.399   4.610  14.643  0.3107 -0.4566  0.0145
  841MPD2    C512361   3.446   4.513  14.723  0.2350  0.0662  0.0368
  841MPD2     H12362   3.342   4.411  14.374 -0.8447  0.4443  0.3677
  841MPD2    H112363   3.393   4.709  14.687 -0.7187 -0.7960  0.6375
  841MPD2    H212364   3.496   4.306  14.764 -0.8200  0.6215  0.4186
  841MPD2    H312365   3.465   4.529  14.829  0.9200 -1.1084  0.0870
  841MPD2     N12366   3.317   4.669  14.417 -0.2510 -0.0188  0.1302
  841MPD2    H512367   3.268   4.627  14.339 -0.6485  1.1326 -0.2526
  841MPD2    N112368   3.437   4.216  14.517 -0.1485  0.6040 -0.3629
  841MPD2    H712369   3.384   4.211  14.430 -0.1039  0.9694 -0.4105
  842MPD2     C12370   3.627   0.622  16.492  0.0606 -0.9124 -0.0798
  842MPD2    C112371   3.518   0.706  16.476  0.6381  0.2922 -0.8070
  842MPD2    C212372   3.413   0.706  16.567 -0.1001 -0.6467  0.0634
  842MPD2    C312373   3.417   0.615  16.673  0.8618  0.1171  0.5224
  842MPD2    C412374   3.509   0.520  16.677 -0.5856 -0.0905 -0.6592
  842MPD2    C512375   3.625   0.529  16.595 -0.3308 -0.3575 -0.3151
  842MPD2     H12376   3.350   0.794  16.573  1.0004  0.2316 -1.2000
  842MPD2    H112377   3.517   0.443  16.752  1.5145  2.7195  2.0086
  842MPD2    H212378   3.712   0.629  16.426 -0.7846 -0.2384 -1.0921
  842MPD2    H312379   3.704   0.455  16.590  0.4695  0.4685  0.0245
  842MPD2     N12380   3.318   0.612  16.772  0.0005  0.1912 -0.4337
  842MPD2    H512381   3.315   0.533  16.835 -1.1255  0.3378 -0.3039
  842MPD2    N112382   3.509   0.786  16.362 -0.2834  1.0920 -0.3703
  842MPD2    H712383   3.583   0.781  16.293  1.1165  1.4871  1.0927
  843MPD2     C12384   1.168   1.151   1.229 -0.5242  0.1666  0.4478
  843MPD2    C112385   1.301   1.137   1.239  0.2871  0.6557 -0.6091
  843MPD2    C212386   1.388   1.222   1.171 -0.1961  0.1490 -0.4867
  843MPD2    C312387   1.334   1.319   1.084  0.6458 -0.0804 -0.4205
  843MPD2    C412388   1.198   1.328   1.073  0.2448 -0.5312  0.6391
  843MPD2    C512389   1.116   1.248   1.142 -0.1616  0.0298 -0.2711
  843MPD2     H12390   1.495   1.209   1.178 -0.0960  0.9103 -0.5265
  843MPD2    H112391   1.157   1.401   1.004 -0.5777 -0.0628  1.6176
  843MPD2    H212392   1.098   1.084   1.278 -1.5178  1.3980  0.7028
  843MPD2    H312393   1.009   1.265   1.136 -0.0623  1.0734  0.8549
  843MPD2     N12394   1.414   1.405   1.011 -0.0718  0.6296 -0.1695
  843MPD2    H512395   1.368   1.487   0.973  0.5928  1.2820  0.4553
  843MPD2    N112396   1.359   1.045   1.328  0.2128 -0.1145 -0.2693
  843MPD2    H712397   1.290   0.977   1.358 -0.8686  0.3630 -1.6787
  844MPD2     C12398   4.178   4.486  16.475  0.0687 -0.4253 -0.6804
  844MPD2    C112399   4.227   4.577  16.382 -1.1313  0.2953 -0.0808
  844MPD2    C212400   4.283   4.697  16.430 -0.0359  0.3443 -0.3185
  844MPD2    C312401   4.294   0.004  16.564  0.2807 -0.1494 -0.1223
  844MPD2    C412402   4.243   4.633  16.654 -0.3021  0.0287 -0.0330
  844MPD2    C512403   4.178   4.521  16.611  0.1250 -0.2187  0.5259
  844MPD2     H12404   4.330   0.057  16.371  1.1148 -0.8688 -1.0156
  844MPD2    H112405   4.242   4.660  16.759  2.4561 -0.0808  0.0043
  844MPD2    H212406   4.127   4.393  16.454  1.4307 -1.1689 -0.7357
  844MPD2    H312407   4.131   4.451  16.680 -0.0127 -0.4687  0.1810
  844MPD2     N12408   4.358   0.123  16.616  0.5763  0.1569 -0.7121
  844MPD2    H512409   4.373   0.133  16.715  0.0303 -1.0920 -0.4972
  844MPD2    N112410   4.234   4.550  16.245  0.4497  0.6369 -0.0335
  844MPD2    H712411   4.266   4.614  16.173 -0.3680  0.5339 -0.4786
  845MPD2     C12412   0.078   1.134  16.572  0.0491 -0.6234  0.4213
  845MPD2    C112413   0.138   1.066  16.675  0.1160  0.2645  0.2676
  845MPD2    C212414   0.097   0.931  16.689 -0.8270 -0.0431  0.8191
  845MPD2    C312415   4.716   0.874  16.606  0.3278  0.2125 -0.4903
  845MPD2    C412416   4.659   0.955  16.511 -0.1736 -0.3034  0.1458
  845MPD2    C512417   4.697   1.084  16.488 -0.3745  0.3160 -0.1647
  845MPD2     H12418   0.139   0.880  16.775  2.0827  1.8627  0.5312
  845MPD2    H112419   4.575   0.915  16.456 -0.6040 -1.0648  1.3675
  845MPD2    H212420   0.099   1.239  16.556  0.0265 -0.7478 -0.4602
  845MPD2    H312421   4.648   1.153  16.420 -1.0441  0.3521  0.3455
  845MPD2     N12422   4.684   0.740  16.636  0.5519  0.3112 -0.0913
  845MPD2    H512423   0.013   0.695  16.714  0.8642 -0.8925 -0.9909
  845MPD2    N112424   0.213   1.141  16.762 -0.5094 -0.0509 -0.6400
  845MPD2    H712425   0.227   1.240  16.749  0.3201 -0.0497  0.2974
  846MPD2     C12426   1.554   1.801  13.864  0.0779 -0.0797  0.0793
  846MPD2    C112427   1.428   1.831  13.916  0.5561  0.1735 -0.0993
  846MPD2    C212428   1.389   1.797  14.042  0.5123 -0.3631 -0.1307
  846MPD2    C312429   1.484   1.738  14.128  0.1718 -0.2206 -0.0368
  846MPD2    C412430   1.611   1.713  14.073 -0.1180 -0.0728 -0.0107
  846MPD2    C512431   1.643   1.739  13.946  0.0855  0.3910  0.2948
  846MPD2     H12432   1.295   1.831  14.083  0.9152  1.2979 -0.5576
  846MPD2    H112433   1.694   1.695  14.139 -0.3711 -1.5002 -0.0679
  846MPD2    H212434   1.589   1.838  13.769  0.0215  1.3309  0.6098
  846MPD2    H312435   1.748   1.731  13.920 -0.1060 -1.4982  0.1157
  846MPD2     N12436   1.458   1.739  14.264 -0.3646  0.2462  0.2812
  846MPD2    H512437   1.364   1.766  14.291 -0.6648 -1.4381  0.9271
  846MPD2    N112438   1.333   1.911  13.843  0.7585  0.6567 -0.0879
  846MPD2    H712439   1.245   1.920  13.893  1.3658 -0.7474  1.2600
  847MPD2     C12440   1.538   2.457  14.667 -0.3808 -0.1851 -0.3021
  847MPD2    C112441   1.626   2.560  14.692 -0.3768 -0.0492 -0.3867
  847MPD2    C212442   1.763   2.525  14.703 -0.3052  0.3729  0.2849
  847MPD2    C312443   1.807   2.393  14.685 -0.4490  0.7354  0.2033
  847MPD2    C412444   1.719   2.294  14.652 -0.4869 -0.0451 -1.3996
  847MPD2    C512445   1.589   2.330  14.649 -0.1699  0.2769 -0.1943
  847MPD2     H12446   1.841   2.599  14.719 -0.3585  0.1458  1.5600
  847MPD2    H112447   1.740   2.193  14.618  1.1662  0.1534 -0.9743
  847MPD2    H212448   1.432   2.479  14.661 -1.0315 -2.4566  2.8493
  847MPD2    H312449   1.512   2.264  14.610 -2.3862  2.9444 -0.3470
  847MPD2     N12450   1.946   2.374  14.716  0.1954 -0.3972  0.3811
  847MPD2    H512451   2.000   2.458  14.737 -3.4712  2.1958 -0.6362
  847MPD2    N112452   1.592   2.691  14.727  0.6357  0.7299  0.1768
  847MPD2    H712453   1.676   2.747  14.736  1.0817 -0.2517  2.1008
  848MPD2     C12454   4.174   0.680  16.189  0.6111 -0.0444 -0.2421
  848MPD2    C112455   4.211   0.761  16.299  0.8509 -0.0427 -0.1174
  848MPD2    C212456   4.279   0.881  16.281 -0.5160 -0.2187 -0.1724
  848MPD2    C312457   4.304   0.920  16.151 -0.4419  0.4241 -0.0516
  848MPD2    C412458   4.278   0.839  16.044  0.9682  0.6621 -0.3433
  848MPD2    C512459   4.216   0.719  16.070  0.0642  0.5141 -0.0451
  848MPD2     H12460   4.310   0.939  16.367  0.5557 -0.1448 -0.6022
  848MPD2    H112461   4.311   0.867  15.945  3.6545  0.8576  0.6102
  848MPD2    H212462   4.136   0.579  16.195 -1.2428  0.6599 -0.1293
  848MPD2    H312463   4.224   0.652  15.985  1.5938 -1.1856  1.4326
  848MPD2     N12464   4.371   1.038  16.122  0.2322 -0.0871  0.2818
  848MPD2    H512465   4.405   1.044  16.026  0.2731 -0.3404  0.2813
  848MPD2    N112466   4.197   0.718  16.431 -0.3605  0.1284 -0.1847
  848MPD2    H712467   4.258   0.761  16.500  1.0455 -1.5718 -0.3435
  849MPD2     C12468   3.813   1.130  13.443  0.5930 -0.4204  0.0983
  849MPD2    C112469   3.880   1.009  13.460 -0.4119  0.1110 -0.1757
  849MPD2    C212470   3.814   0.917  13.541  0.1490 -0.0084 -0.9596
  849MPD2    C312471   3.699   0.945  13.619 -0.4109  0.4657 -0.4502
  849MPD2    C412472   3.636   1.066  13.596  0.0667 -0.5975  0.5615
  849MPD2    C512473   3.694   1.156  13.507  0.3507  0.1961  0.5950
  849MPD2     H12474   3.860   0.819  13.552 -1.5823 -0.6794  0.3504
  849MPD2    H112475   3.545   1.094  13.647 -0.2197 -0.3689 -0.0804
  849MPD2    H212476   3.862   1.202  13.378 -0.7425 -0.0637 -0.5088
  849MPD2    H312477   3.646   1.251  13.487 -0.5135 -0.0464  1.5124
  849MPD2     N12478   3.643   0.842  13.706  0.1282 -0.5140 -0.4840
  849MPD2    H512479   3.581   0.876  13.779 -1.4513 -1.8594 -1.2036
  849MPD2    N112480   3.998   0.985  13.385 -0.2015 -0.3797  0.3038
  849MPD2    H712481   4.025   1.059  13.322 -0.3728 -0.1744  0.4694
  850MPD2     C12482   1.764   3.391  14.832  0.2485 -0.1126  0.5282
  850MPD2    C112483   1.800   3.400  14.964  0.1241  0.0692  0.2724
  850MPD2    C212484   1.934   3.387  14.991 -0.6130  1.1943 -0.2842
  850MPD2    C312485   2.030   3.383  14.897  0.0402 -0.1633  0.2285
  850MPD2    C412486   1.993   3.383  14.765 -0.0798  0.4121 -0.3307
  850MPD2    C512487   1.861   3.377  14.732 -0.8726  0.3306  0.3640
  850MPD2     H12488   1.965   3.393  15.095 -2.4511 -1.6538  0.4209
  850MPD2    H112489   2.061   3.358  14.685  1.0877  1.8981  0.2155
  850MPD2    H212490   1.659   3.401  14.807  0.3470 -3.7984 -1.3194
  850MPD2    H312491   1.840   3.380  14.626 -0.0315 -1.0208  0.1595
  850MPD2     N12492   2.170   3.390  14.927  0.2227 -0.1813  0.7336
  850MPD2    H512493   2.235   3.403  14.850  1.1631 -0.0058  1.5599
  850MPD2    N112494   1.710   3.420  15.073  0.2879 -0.7014 -0.1708
  850MPD2    H712495   1.742   3.442  15.167 -2.1405  2.7048 -0.1510
  851MPD2     C12496   1.770   3.295  15.811  1.1498  0.3501 -0.3798
  851MPD2    C112497   1.748   3.235  15.683 -0.2839  0.2152 -1.0253
  851MPD2    C212498   1.833   3.136  15.634 -0.4127  0.3382  0.0057
  851MPD2    C312499   1.934   3.082  15.717  0.1341 -0.1015 -0.0359
  851MPD2    C412500   1.947   3.139  15.846  0.2715  0.1636  0.2451
  851MPD2    C512501   1.869   3.242  15.886  0.3801 -0.1181 -0.4161
  851MPD2     H12502   1.837   3.114  15.528 -0.1415 -1.9278  0.4940
  851MPD2    H112503   2.037   3.128  15.906  0.3152  0.9375  0.3203
  851MPD2    H212504   1.711   3.380  15.841  0.7481  0.2089 -0.7637
  851MPD2    H312505   1.892   3.284  15.983 -0.4259  3.2170 -1.6572
  851MPD2     N12506   2.018   2.988  15.662 -0.1284  0.1982  0.0831
  851MPD2    H512507   1.998   2.964  15.565 -1.8472 -1.7048  0.8956
  851MPD2    N112508   1.655   3.295  15.596  0.1086  0.0386  0.4884
  851MPD2    H712509   1.630   3.391  15.616 -1.1522 -0.3666  0.8298
  852MPD2     C12510   1.556   0.653   9.565 -0.6684  0.1333  0.6104
  852MPD2    C112511   1.542   0.741   9.667 -0.4243 -0.0818 -0.6418
  852MPD2    C212512   1.638   0.836   9.689  0.2224  0.7487 -0.0341
  852MPD2    C312513   1.740   0.856   9.597  0.4859 -0.0307  0.7233
  852MPD2    C412514   1.750   0.764   9.494  0.2245 -0.0362  0.3271
  852MPD2    C512515   1.664   0.654   9.487 -0.1884 -0.0707  0.4017
  852MPD2     H12516   1.625   0.911   9.766 -2.5722  0.3385 -0.0863
  852MPD2    H112517   1.823   0.766   9.414 -1.6913 -0.5160 -1.4295
  852MPD2    H212518   1.483   0.579   9.536 -2.7638  2.4083  0.0738
  852MPD2    H312519   1.676   0.583   9.406 -1.7212  1.1513 -0.9105
  852MPD2     N12520   1.833   0.970   9.611 -0.9455  0.1888  0.0018
  852MPD2    H512521   1.837   1.021   9.699 -0.8547 -0.1738  0.2104
  852MPD2    N112522   1.436   0.742   9.755  0.2102 -0.1692 -0.3599
  852MPD2    H712523   1.433   0.825   9.813  0.4228 -0.0155 -0.5684
  853MPD2     C12524   3.164   0.905  12.380  0.1192 -0.5071 -0.0324
  853MPD2    C112525   3.195   1.026  12.333 -0.7256 -0.0323  0.1374
  853MPD2    C212526   3.224   1.041  12.197  0.0987 -0.2318  0.0900
  853MPD2    C312527   3.212   0.940  12.111 -0.3573 -0.2855 -0.0285
  853MPD2    C412528   3.179   0.815  12.157 -0.8671 -0.0975 -0.2016
  853MPD2    C512529   3.159   0.804  12.289  0.0371 -0.1776 -0.5371
  853MPD2     H12530   3.254   1.138  12.160  3.2800 -0.7971  1.1763
  853MPD2    H112531   3.190   0.733  12.087  0.5447  0.7250 -0.9548
  853MPD2    H212532   3.149   0.882  12.485  0.2531 -3.4582 -0.6383
  853MPD2    H312533   3.154   0.704  12.333  0.0626  0.6995  1.4725
  853MPD2     N12534   3.249   0.954  11.976  0.8626 -0.1584 -0.1464
  853MPD2    H512535   3.210   0.881  11.917 -0.2385 -0.1265  0.5549
  853MPD2    N112536   3.217   1.129  12.426 -0.4790  0.0756  0.0245
  853MPD2    H712537   3.211   1.102  12.524  0.0456 -1.6582 -0.4218
  854MPD2     C12538   0.069   0.657  12.615 -0.9548 -0.3868  0.5807
  854MPD2    C112539   0.163   0.758  12.602  0.4065  0.0419  0.9702
  854MPD2    C212540   0.291   0.720  12.583 -0.2617 -0.2392 -0.7238
  854MPD2    C312541   0.330   0.588  12.583 -0.3801  0.4424  0.4571
  854MPD2    C412542   0.239   0.485  12.595 -0.1282 -0.0876 -0.7034
  854MPD2    C512543   0.105   0.526  12.605 -0.5200 -0.0506 -0.1568
  854MPD2     H12544   0.363   0.796  12.556 -0.2838 -0.3367 -1.0553
  854MPD2    H112545   0.267   0.381  12.594 -1.1712 -0.3724  0.0290
  854MPD2    H212546   4.682   0.680  12.630 -0.9872 -1.7049  2.3072
  854MPD2    H312547   0.035   0.443  12.603  1.2775 -1.6539  2.9214
  854MPD2     N12548   0.463   0.549  12.578 -0.3701 -0.5227 -0.0095
  854MPD2    H512549   0.475   0.448  12.573  3.1339 -0.0799  0.0429
  854MPD2    N112550   0.116   0.891  12.608  0.7764  0.1048  0.4744
  854MPD2    H712551   0.024   0.912  12.646 -0.0358  0.1477 -1.5037
  855MPD2     C12552   1.296   0.835  13.054  0.1986 -0.0884 -0.3836
  855MPD2    C112553   1.169   0.793  13.094 -0.7335  0.0152 -0.2026
  855MPD2    C212554   1.080   0.728  13.007 -0.7777 -1.0976 -0.0957
  855MPD2    C312555   1.118   0.714  12.872 -0.1558 -0.2545  0.7866
  855MPD2    C412556   1.251   0.741  12.836  0.1162 -0.3663 -0.2572
  855MPD2    C512557   1.329   0.801  12.928 -0.4079 -0.2479  0.1141
  855MPD2     H12558   0.990   0.693  13.056 -1.6465  0.2027 -0.7609
  855MPD2    H112559   1.291   0.713  12.739  0.0183 -4.6556  0.9288
  855MPD2    H212560   1.360   0.897  13.117  0.0940  0.1698 -0.5295
  855MPD2    H312561   1.429   0.820  12.893  0.4334 -0.7359  2.2399
  855MPD2     N12562   1.027   0.654  12.783  0.3215 -0.5732 -0.1080
  855MPD2    H512563   0.938   0.621  12.820 -1.9496  4.7569 -0.8403
  855MPD2    N112564   1.104   0.825  13.215  0.6430  0.6296 -0.4631
  855MPD2    H712565   1.009   0.791  13.227  0.9506  0.7887  2.2849
  856MPD2     C12566   2.213   2.155  13.949  0.1148 -0.3910  0.4412
  856MPD2    C112567   2.263   2.200  14.068  0.3280 -0.1333 -0.4785
  856MPD2    C212568   2.182   2.286  14.143 -0.3871  0.7370 -0.2906
  856MPD2    C312569   2.053   2.328  14.100  0.0546  0.1418 -0.1023
  856MPD2    C412570   2.010   2.279  13.982  0.4146  0.0720  0.4207
  856MPD2    C512571   2.089   2.194  13.905  0.0561  0.8090  0.2453
  856MPD2     H12572   2.218   2.316  14.241 -1.4694 -2.7701  1.1713
  856MPD2    H112573   1.924   2.319  13.929  1.5653  1.5307 -0.3223
  856MPD2    H212574   2.276   2.090  13.890 -0.3361  3.0199 -3.7940
  856MPD2    H312575   2.073   2.177  13.799 -0.3400 -1.1514  0.6273
  856MPD2     N12576   1.973   2.402  14.187 -0.4844 -0.3497 -0.3010
  856MPD2    H512577   1.878   2.419  14.154 -0.2555 -1.2992 -1.4143
  856MPD2    N112578   2.389   2.156  14.118  0.2060  0.4540 -0.1614
  856MPD2    H712579   2.418   2.167  14.215 -1.1531  0.6382  0.2229
  857MPD2     C12580   4.437   3.570  13.303  0.6313  0.0487 -0.3447
  857MPD2    C112581   4.542   3.624  13.236  0.5795  0.2325  0.1102
  857MPD2    C212582   4.612   3.724  13.294 -0.4917 -0.3359 -0.5703
  857MPD2    C312583   4.590   3.767  13.419  0.1225 -0.0042 -0.0548
  857MPD2    C412584   4.490   3.700  13.492 -0.7543 -0.0481  0.3476
  857MPD2    C512585   4.405   3.615  13.424  0.4752 -0.5991 -0.3080
  857MPD2     H12586   4.698   3.764  13.241 -0.3508  1.4258  1.0017
  857MPD2    H112587   4.458   3.731  13.591 -0.4216  2.1998 -0.2583
  857MPD2    H212588   4.375   3.495  13.255  0.3154  1.0474 -1.4854
  857MPD2    H312589   4.325   3.563  13.475 -1.2493  1.0362 -1.3767
  857MPD2     N12590   4.655   3.880  13.467  0.2182  0.8759  0.1371
  857MPD2    H512591   0.011   3.920  13.410  0.2429  1.0511  0.2912
  857MPD2    N112592   4.564   3.573  13.106  0.3441 -0.2146  0.0791
  857MPD2    H712593   4.485   3.522  13.067  0.8690 -0.8956 -0.0890
  858MPD2     C12594   4.609   2.862  16.660 -0.1143 -0.2986  0.7146
  858MPD2    C112595   0.018   2.866  16.618  0.1879  0.3046 -0.3151
  858MPD2    C212596   0.105   2.959  16.674  0.3639  0.1554 -0.0633
  858MPD2    C312597   0.065   3.039  16.777 -0.1693 -0.7741  0.2274
  858MPD2    C412598   4.654   3.026  16.828 -0.4228 -0.3369  0.3979
  858MPD2    C512599   4.566   2.948  16.758  0.5964  0.6180 -0.0576
  858MPD2     H12600   0.202   2.974  16.630  1.2303 -1.1726  1.3839
  858MPD2    H112601   4.627   3.080  16.918  2.1070 -0.4096  1.2030
  858MPD2    H212602   4.536   2.795  16.616 -1.0922  0.4575  1.1629
  858MPD2    H312603   4.464   2.944  16.792  0.5767  1.0752 -0.0679
  858MPD2     N12604   0.152   3.105  16.864  0.2692  0.1004  0.1665
  858MPD2    H512605   0.111   3.156  16.941 -2.3582 -0.6927 -0.7144
  858MPD2    N112606   0.049   2.788  16.501 -0.0328 -0.2414  0.5137
  858MPD2    H712607   4.695   2.728  16.463  0.1917 -0.9990  1.2629
  859MPD2     C12608   3.285   0.296  15.146  0.1929 -0.4866  0.6938
  859MPD2    C112609   3.372   0.358  15.061  0.5701 -0.3493  0.6619
  859MPD2    C212610   3.462   0.278  14.984  0.4635 -0.8029  0.1560
  859MPD2    C312611   3.458   0.140  14.989 -0.2115  0.5538  0.3868
  859MPD2    C412612   3.357   0.086  15.068 -0.1290  0.3183  1.2706
  859MPD2    C512613   3.269   0.165  15.144  0.3618  0.6417  0.4347
  859MPD2     H12614   3.540   0.323  14.924  1.2327  0.6969  2.2964
  859MPD2    H112615   3.357   4.696  15.076  0.5911  0.1698 -0.7068
  859MPD2    H212616   3.219   0.352  15.211  0.0160  0.3588 -0.2239
  859MPD2    H312617   3.190   0.118  15.201 -0.0482  0.5287 -0.2325
  859MPD2     N12618   3.554   0.054  14.934  0.2634  0.1108 -0.0876
  859MPD2    H512619   3.576   4.682  14.977  1.4677  0.2471 -0.4136
  859MPD2    N112620   3.381   0.495  15.073 -0.2193 -0.9346 -0.7138
  859MPD2    H712621   3.312   0.543  15.131 -1.5089 -2.8837 -0.6542
  860MPD2     C12622   1.780   1.073  11.553  0.0445 -0.0242 -0.2771
  860MPD2    C112623   1.746   1.150  11.662  0.2885 -0.6743 -0.3672
  860MPD2    C212624   1.606   1.182  11.679 -0.3469 -0.5001 -1.2023
  860MPD2    C312625   1.507   1.119  11.606  0.3374  0.0026  0.4465
  860MPD2    C412626   1.543   1.038  11.502 -0.2539  0.4163 -0.1610
  860MPD2    C512627   1.679   1.024  11.474  0.0347  0.1124 -0.4722
  860MPD2     H12628   1.573   1.249  11.757  2.6185  0.2321 -0.5896
  860MPD2    H112629   1.465   0.977  11.456  2.2202 -1.2275 -2.1499
  860MPD2    H212630   1.883   1.050  11.526  0.0364  0.5320 -0.7799
  860MPD2    H312631   1.710   0.951  11.400  0.9864 -0.3570  0.3901
  860MPD2     N12632   1.373   1.141  11.634 -0.0204  0.4971 -0.7576
  860MPD2    H512633   1.308   1.077  11.590  0.9732 -0.3092 -1.0640
  860MPD2    N112634   1.840   1.204  11.748 -0.9197  0.0409  0.2032
  860MPD2    H712635   1.806   1.259  11.827 -0.4852 -0.6899  0.9009
  861MPD2     C12636   4.511   3.449  10.946  0.4671  0.2864  0.6202
  861MPD2    C112637   4.547   3.586  10.968  0.1875 -0.0722 -1.1131
  861MPD2    C212638   4.495   3.682  10.891  0.1760  0.3293 -0.2183
  861MPD2    C312639   4.392   3.655  10.803  0.7012  0.1888 -0.0094
  861MPD2    C412640   4.365   3.521  10.772 -0.1997 -0.7555  0.0274
  861MPD2    C512641   4.424   3.421  10.841  0.3324 -0.2543  0.5367
  861MPD2     H12642   4.510   3.785  10.922 -0.7035  0.8255 -1.4491
  861MPD2    H112643   4.289   3.487  10.703  0.7026 -1.8984 -0.4049
  861MPD2    H212644   4.536   3.368  11.014 -0.2598 -0.5177 -0.0743
  861MPD2    H312645   4.395   3.319  10.820 -2.3697  0.5552  0.3089
  861MPD2     N12646   4.307   3.754  10.738  0.1813 -0.3392 -0.3868
  861MPD2    H512647   4.255   3.726  10.655  0.8141 -2.1893 -0.1611
  861MPD2    N112648   4.644   3.624  11.063  0.1413 -0.5898 -0.3084
  861MPD2    H712649   4.658   3.724  11.073 -0.3182 -0.4447 -1.1187
  862MPD2     C12650   4.156   3.970  10.053 -0.1411 -0.1937 -0.4489
  862MPD2    C112651   4.215   3.894  10.153 -0.1260  0.2448 -0.6350
  862MPD2    C212652   4.266   3.770  10.113  0.0443 -0.7276 -0.6748
  862MPD2    C312653   4.259   3.723   9.985  0.0599  0.8276 -0.1606
  862MPD2    C412654   4.194   3.790   9.887  0.2750  0.7859 -0.0750
  862MPD2    C512655   4.143   3.916   9.926 -0.4280 -0.1175 -0.5456
  862MPD2     H12656   4.324   3.718  10.188 -1.1400 -3.0238 -1.3478
  862MPD2    H112657   4.176   3.759   9.785 -0.1019  0.9555 -0.0627
  862MPD2    H212658   4.112   4.069  10.063  1.4773  0.4990 -0.1743
  862MPD2    H312659   4.085   3.977   9.858 -1.7583  0.4751  1.1166
  862MPD2     N12660   4.322   3.608   9.936  0.4193 -0.2025  1.0817
  862MPD2    H512661   4.322   3.593   9.836  1.1015 -1.1812  1.2335
  862MPD2    N112662   4.215   3.935  10.283  0.1271  0.1604 -0.4964
  862MPD2    H712663   4.236   3.861  10.350 -0.5235 -2.0729 -2.7816
  863MPD2     C12664   3.821   1.937  16.692  0.1120  0.3058  0.0206
  863MPD2    C112665   3.719   1.911  16.787  0.5595 -0.1984 -0.0674
  863MPD2    C212666   3.756   1.847  16.902  0.7288  0.5619 -0.2024
  863MPD2    C312667   3.886   1.824  16.927 -0.2354  0.0602 -0.4583
  863MPD2    C412668   3.983   1.843  16.836 -0.2259 -0.4958 -0.3871
  863MPD2    C512669   3.949   1.901  16.720 -0.3271 -0.6203  0.3118
  863MPD2     H12670   3.685   1.808  16.974  0.2641  1.8665  0.0609
  863MPD2    H112671   4.087   1.837  16.866 -0.9603 -0.6701  2.0874
  863MPD2    H212672   3.802   1.984  16.596 -1.7572  0.4448  0.4626
  863MPD2    H312673   4.036   1.914  16.656 -2.3307  0.9578 -2.0459
  863MPD2     N12674   3.930   1.784  17.061  0.2284  0.6589  0.3879
  863MPD2    H512675   4.029   1.797  17.083  0.4104 -1.3373  0.6897
  863MPD2    N112676   3.582   1.940  16.754 -0.4583 -0.0937  0.2975
  863MPD2    H712677   3.563   1.984  16.665  2.0781 -0.9836 -0.7047
  864MPD2     C12678   3.873   3.185  17.051 -0.2025  0.1624 -0.4712
  864MPD2    C112679   3.913   3.149  16.923  0.0426 -0.2554  0.3539
  864MPD2    C212680   4.021   3.200  16.859  0.9153  0.2167 -0.0203
  864MPD2    C312681   4.093   3.294  16.923  0.0372 -0.0089 -0.3069
  864MPD2    C412682   4.052   3.351  17.039  0.1056  0.1417  0.0055
  864MPD2    C512683   3.945   3.294  17.107  0.2020  0.5064  0.2501
  864MPD2     H12684   4.054   3.166  16.762 -1.3440 -0.9403 -0.3860
  864MPD2    H112685   4.104   3.433  17.088  0.6903 -0.3604  0.2169
  864MPD2    H212686   3.795   3.134  17.106  2.0462 -1.6083  1.0700
  864MPD2    H312687   3.925   3.317  17.211  0.6207  1.4484  0.1244
  864MPD2     N12688   4.213   3.344  16.870  1.0245 -0.0634  0.5387
  864MPD2    H512689   4.250   3.428  16.913  1.3386  0.4407 -0.6941
  864MPD2    N112690   3.836   3.049  16.869 -0.5223 -0.3613  0.1307
  864MPD2    H712691   3.776   3.002  16.935  2.3173 -2.3375  1.3167
  865MPD2     C12692   4.092   3.580  16.439  0.3121  0.6164 -0.0912
  865MPD2    C112693   4.228   3.568  16.416  0.1749  0.2984  1.2447
  865MPD2    C212694   4.316   3.633  16.500 -0.4827  0.2326  0.4920
  865MPD2    C312695   4.275   3.708  16.608 -0.8007 -0.4676 -0.0427
  865MPD2    C412696   4.138   3.738  16.622  0.3786  0.3136 -0.1528
  865MPD2    C512697   4.051   3.668  16.538  0.1318 -0.7621  0.2126
  865MPD2     H12698   4.419   3.614  16.473 -0.3268 -0.7803  1.7821
  865MPD2    H112699   4.106   3.803  16.702 -1.7072 -0.1511 -0.6102
  865MPD2    H212700   4.021   3.529  16.374  0.6777  1.3476 -1.0587
  865MPD2    H312701   3.945   3.687  16.548  0.2121 -0.1460 -0.1057
  865MPD2     N12702   4.363   3.765  16.705  0.5762  0.2606  0.2715
  865MPD2    H512703   4.325   3.834  16.769  1.1771 -0.1458  1.0589
  865MPD2    N112704   4.274   3.483  16.309 -0.0715 -0.5501 -0.5060
  865MPD2    H712705   4.205   3.428  16.258 -1.5495  0.6897  0.1517
  866MPD2     C12706   0.609   4.348  11.140  0.1045 -0.2646 -0.1522
  866MPD2    C112707   0.557   4.272  11.041  1.0156 -0.1029 -0.0433
  866MPD2    C212708   0.421   4.274  11.011 -0.0052 -0.0822 -0.0346
  866MPD2    C312709   0.334   4.340  11.096 -0.3559 -0.5260 -0.1396
  866MPD2    C412710   0.387   4.406  11.206 -1.1144 -0.2505 -0.1632
  866MPD2    C512711   0.525   4.414  11.224 -0.3400 -0.5183  0.0583
  866MPD2     H12712   0.377   4.224  10.926  0.7282 -2.7529  1.1596
  866MPD2    H112713   0.325   4.467  11.270  0.4530 -0.3336  1.4488
  866MPD2    H212714   0.715   4.372  11.141  0.0637 -0.1061  0.3541
  866MPD2    H312715   0.567   4.478  11.301  0.2797  0.3140 -0.9698
  866MPD2     N12716   0.193   4.366  11.070  0.0989  0.1736 -0.6123
  866MPD2    H512717   0.142   4.409  11.147  0.2359  0.1840 -0.5271
  866MPD2    N112718   0.650   4.188  10.969  0.2083 -0.1106  0.1546
  866MPD2    H712719   0.745   4.179  11.004  1.2662  2.5550 -2.0129
  867MPD2     C12720   2.716   3.379  16.164  0.0589 -0.4098  0.0694
  867MPD2    C112721   2.717   3.368  16.298  0.4649  0.5450  0.6751
  867MPD2    C212722   2.680   3.482  16.377 -0.2611 -0.3759  0.3101
  867MPD2    C312723   2.645   3.597  16.312 -0.8726  0.9929  0.0812
  867MPD2    C412724   2.644   3.603  16.179  0.4626 -0.5071 -0.4462
  867MPD2    C512725   2.677   3.491  16.103 -0.2331 -0.3229  0.0194
  867MPD2     H12726   2.693   3.476  16.485  2.7729 -0.8442 -0.0751
  867MPD2    H112727   2.620   3.689  16.118 -1.5888 -0.6875  0.1055
  867MPD2    H212728   2.748   3.294  16.105 -0.6187 -1.0258  0.5800
  867MPD2    H312729   2.678   3.497  15.995 -0.2567 -1.4973 -0.0432
  867MPD2     N12730   2.625   3.724  16.369 -0.2211  0.1058 -0.1133
  867MPD2    H512731   2.613   3.805  16.309 -0.5738  0.0018 -0.1787
  867MPD2    N112732   2.754   3.246  16.347  0.0053 -0.0017 -0.7522
  867MPD2    H712733   2.790   3.178  16.281  0.6765  1.9862 -2.4128
  868MPD2     C12734   4.601   2.442  12.782  0.5481  0.5456  0.3768
  868MPD2    C112735   4.655   2.414  12.908 -0.0864 -0.4266 -0.1557
  868MPD2    C212736   4.572   2.388  13.017 -1.0316  0.4205 -0.3644
  868MPD2    C312737   4.438   2.374  12.990 -0.3449  0.0735  0.1640
  868MPD2    C412738   4.381   2.402  12.863 -0.2290  0.5037  0.0147
  868MPD2    C512739   4.469   2.434  12.762  0.3451 -0.2667 -0.4036
  868MPD2     H12740   4.608   2.374  13.119  1.6192  0.3133 -1.3167
  868MPD2    H112741   4.273   2.408  12.857 -0.3531 -2.3038 -0.5607
  868MPD2    H212742   4.669   2.450  12.698  0.6128 -1.3804  0.2265
  868MPD2    H312743   4.427   2.448  12.663 -0.6815 -0.5179 -0.0054
  868MPD2     N12744   4.354   2.332  13.101  0.3431 -0.4642 -0.1049
  868MPD2    H512745   4.390   2.329  13.196  3.2900 -0.8191 -1.2461
  868MPD2    N112746   0.076   2.395  12.925  0.0016  0.2705 -0.5400
  868MPD2    H712747   0.134   2.386  12.842  1.2194  1.9503  0.1307
  869MPD2     C12748   0.581   4.212   1.911 -0.1461  0.4149 -0.0594
  869MPD2    C112749   0.715   4.226   1.868 -0.2163  0.4394 -0.3418
  869MPD2    C212750   0.759   4.331   1.789 -0.0856 -0.7078 -0.1608
  869MPD2    C312751   0.674   4.438   1.769 -0.4789 -0.5235  0.0535
  869MPD2    C412752   0.549   4.431   1.822  0.6806  0.1441  0.1527
  869MPD2    C512753   0.503   4.320   1.888 -0.6701  0.2062 -0.0910
  869MPD2     H12754   0.862   4.346   1.759 -0.1985 -0.9418 -0.6602
  869MPD2    H112755   0.476   4.502   1.787  2.0967  1.5633  0.0785
  869MPD2    H212756   0.541   4.124   1.961 -0.8905 -0.2292 -1.7654
  869MPD2    H312757   0.399   4.318   1.918 -0.8699  1.9079 -0.6598
  869MPD2     N12758   0.706   4.555   1.688  0.0379  0.0216  0.3292
  869MPD2    H512759   0.640   4.632   1.690 -2.3920 -2.1072  1.0670
  869MPD2    N112760   0.790   4.109   1.893 -0.5632  0.3100  0.3262
  869MPD2    H712761   0.746   4.029   1.937  1.6758 -0.0987  1.8212
  870MPD2     C12762   4.515   3.404   1.734 -0.1322  0.9149 -0.3543
  870MPD2    C112763   4.642   3.432   1.680 -0.2289  0.2635  0.2854
  870MPD2    C212764   4.657   3.526   1.587 -0.3829  0.8436 -0.5109
  870MPD2    C312765   4.550   3.598   1.536  0.2322 -0.3041 -0.6478
  870MPD2    C412766   4.427   3.560   1.580  0.2569 -0.5602 -0.4406
  870MPD2    C512767   4.405   3.470   1.689  0.1524 -0.2067  0.5377
  870MPD2     H12768   0.038   3.568   1.568  0.7041 -1.3125  0.3918
  870MPD2    H112769   4.337   3.612   1.549  1.2034  0.3780 -1.6109
  870MPD2    H212770   4.509   3.343   1.823  0.1004 -0.2692 -1.1548
  870MPD2    H312771   4.308   3.452   1.734  0.2632 -0.0597  0.8334
  870MPD2     N12772   4.566   3.696   1.436  0.2403 -0.3059 -0.3357
  870MPD2    H512773   4.657   3.712   1.394  0.6748 -2.1541 -0.0905
  870MPD2    N112774   0.028   3.361   1.732 -0.3494  0.0326 -0.3106
  870MPD2    H712775   0.005   3.281   1.791 -1.3374  1.1016  0.7578
  871MPD2     C12776   1.583   3.337  16.321 -0.2019 -0.5035 -0.0232
  871MPD2    C112777   1.586   3.310  16.455 -0.4369  0.1884 -0.4209
  871MPD2    C212778   1.661   3.198  16.503 -0.4783  0.5634  0.4902
  871MPD2    C312779   1.745   3.134  16.415 -0.1746  0.1836 -0.8651
  871MPD2    C412780   1.755   3.180  16.282 -0.0801  0.2119 -0.1013
  871MPD2    C512781   1.672   3.273  16.238  0.4156  0.8414 -0.2842
  871MPD2     H12782   1.666   3.172  16.608 -0.7301  0.4706  0.4782
  871MPD2    H112783   1.815   3.135  16.204  3.1612 -0.5606  2.8330
  871MPD2    H212784   1.527   3.419  16.278  2.6949  2.2187  1.4178
  871MPD2    H312785   1.657   3.296  16.133  0.5837  0.4724 -0.3878
  871MPD2     N12786   1.817   3.019  16.463  0.1443  0.1812  0.5302
  871MPD2    H512787   1.815   2.991  16.561  2.0647  0.5419  0.6656
  871MPD2    N112788   1.508   3.390  16.547 -0.4398 -0.1424  0.5606
  871MPD2    H712789   1.441   3.455  16.506  0.6859  1.2525  0.9180
  872MPD2     C12790   2.328   1.369  13.729 -0.0371 -0.0537 -0.2319
  872MPD2    C112791   2.244   1.474  13.748 -0.5386  0.0316  0.2680
  872MPD2    C212792   2.173   1.473  13.868  0.1806 -0.7987 -0.2267
  872MPD2    C312793   2.198   1.375  13.963  0.2636  0.1475 -0.3772
  872MPD2    C412794   2.291   1.277  13.937  0.3955  0.1467  0.0973
  872MPD2    C512795   2.347   1.270  13.817 -0.1699  0.4892 -0.4516
  872MPD2     H12796   2.098   1.549  13.890  0.8516  0.1385 -1.1352
  872MPD2    H112797   2.333   1.208  14.009  0.7282  1.0289  0.7575
  872MPD2    H212798   2.374   1.353  13.633  1.7619 -0.2886  0.6589
  872MPD2    H312799   2.418   1.191  13.798  0.2356  0.3257  1.6982
  872MPD2     N12800   2.131   1.361  14.089 -0.2594  0.1856 -0.4163
  872MPD2    H512801   2.162   1.281  14.143 -1.0671  1.3629  1.7759
  872MPD2    N112802   2.225   1.578  13.648 -0.0438 -0.2433  0.3613
  872MPD2    H712803   2.177   1.664  13.675  4.4949  1.8910  1.7157
  873MPD2     C12804   3.842   1.422   0.588 -0.3613 -0.3442 -0.1760
  873MPD2    C112805   3.978   1.435   0.619 -0.5194 -0.2385 -0.3410
  873MPD2    C212806   4.069   1.355   0.559  0.7029 -0.5846  0.5143
  873MPD2    C312807   4.032   1.269   0.449 -0.6399  0.0438 -0.2725
  873MPD2    C412808   3.904   1.285   0.399  0.7606  0.1583  0.3845
  873MPD2    C512809   3.810   1.352   0.472  0.4988 -0.0066 -0.1331
  873MPD2     H12810   4.166   1.340   0.605  1.0515 -0.5783 -0.2109
  873MPD2    H112811   3.868   1.213   0.326 -1.4792 -0.9813  2.5761
  873MPD2    H212812   3.754   1.455   0.642 -0.8131 -0.4944 -0.8201
  873MPD2    H312813   3.708   1.336   0.439  0.0937  1.4370  0.4200
  873MPD2     N12814   4.121   1.183   0.375  0.0050  0.8855 -0.1109
  873MPD2    H512815   4.079   1.143   0.291 -2.2384  0.9447  0.9804
  873MPD2    N112816   4.005   1.522   0.720  0.6768  0.1877  0.2319
  873MPD2    H712817   3.923   1.571   0.755 -0.4521 -0.6847 -1.1710
  874MPD2     C12818   3.745   1.388  15.792 -0.0276  0.1102  0.3089
  874MPD2    C112819   3.770   1.301  15.897  0.0802 -0.2710 -0.5650
  874MPD2    C212820   3.897   1.307  15.955 -0.6006  0.0167 -0.2198
  874MPD2    C312821   4.000   1.382  15.894  0.4000 -0.6507 -0.3650
  874MPD2    C412822   3.973   1.454  15.783 -0.6396 -0.0850 -0.1506
  874MPD2    C512823   3.849   1.457  15.732 -0.4411 -0.1815 -0.5047
  874MPD2     H12824   3.922   1.252  16.045 -0.7893  1.1462  0.5185
  874MPD2    H112825   4.049   1.520  15.741 -1.2355 -0.0043 -1.1061
  874MPD2    H212826   3.644   1.407  15.758  0.0167 -1.7334 -0.8634
  874MPD2    H312827   3.829   1.515  15.643 -1.2910 -0.2647 -0.3669
  874MPD2     N12828   4.134   1.382  15.956  0.0664  0.1758 -0.1820
  874MPD2    H512829   4.141   1.325  16.040 -2.7192 -0.6675 -0.5253
  874MPD2    N112830   3.665   1.225  15.950 -0.7831  0.0753 -0.3769
  874MPD2    H712831   3.576   1.230  15.902 -0.3649  2.5938 -0.8752
  875MPD2     C12832   0.008   4.246  14.677  0.0628  0.1889  0.6357
  875MPD2    C112833   4.674   4.364  14.621  0.4287  0.4413  0.6390
  875MPD2    C212834   4.678   4.481  14.697 -0.8759  0.0812  1.0010
  875MPD2    C312835   0.009   4.484  14.828  0.2624 -0.6595  0.0705
  875MPD2    C412836   0.049   4.363  14.883  0.0013 -0.6643  1.0093
  875MPD2    C512837   0.054   4.251  14.809  0.6172  0.0569  0.7858
  875MPD2     H12838   4.650   4.576  14.653  2.3414  0.0432 -1.1083
  875MPD2    H112839   0.089   4.341  14.982 -1.3787 -2.0681  1.2444
  875MPD2    H212840   0.024   4.159  14.615  0.1756 -0.2327  1.2601
  875MPD2    H312841   0.088   4.157  14.851  1.2538  0.5779  1.4477
  875MPD2     N12842   0.031   4.605  14.901  0.3114  0.0609 -0.0898
  875MPD2    H512843   0.068   4.597  14.995  0.4956 -0.3068 -0.1946
  875MPD2    N112844   4.617   4.370  14.488 -0.1811 -0.4649  0.2745
  875MPD2    H712845   4.597   4.461  14.449 -1.4737 -1.4126 -1.2866
  876MPD2     C12846   3.511   0.828  15.840 -1.0425 -0.2440  0.0099
  876MPD2    C112847   3.639   0.819  15.800 -0.6092 -0.5135 -0.3679
  876MPD2    C212848   3.697   0.692  15.797  0.4159  0.1764 -0.3749
  876MPD2    C312849   3.634   0.582  15.843 -0.4266  0.1672 -0.1252
  876MPD2    C412850   3.508   0.594  15.890 -0.1030  0.8659  0.2320
  876MPD2    C512851   3.440   0.714  15.881 -0.0245 -0.2437  0.4948
  876MPD2     H12852   3.797   0.680  15.756  0.0384  0.7544 -1.4666
  876MPD2    H112853   3.456   0.510  15.934  0.2856  0.7863  0.5387
  876MPD2    H212854   3.454   0.921  15.834 -0.9528 -0.1836  0.0975
  876MPD2    H312855   3.340   0.729  15.920 -0.3181 -2.5934  0.6753
  876MPD2     N12856   3.699   0.455  15.834 -0.3744 -0.2720 -0.9564
  876MPD2    H512857   3.784   0.443  15.780 -0.0789 -0.0555 -0.5339
  876MPD2    N112858   3.702   0.934  15.743 -0.4138 -0.3611  0.6583
  876MPD2    H712859   3.648   1.017  15.721  2.3862  1.5745  1.1812
  877MPD2     C12860   3.607   1.315  15.115  0.3501 -0.1687 -0.2509
  877MPD2    C112861   3.745   1.308  15.123  0.4548  0.3388 -0.2098
  877MPD2    C212862   3.816   1.311  15.004  0.2909 -0.7842  0.4111
  877MPD2    C312863   3.756   1.330  14.880  0.6952 -0.0933 -0.3863
  877MPD2    C412864   3.621   1.350  14.877  0.5841  0.1095  0.3418
  877MPD2    C512865   3.551   1.336  14.991  0.2361  0.2242  0.1725
  877MPD2     H12866   3.921   1.285  15.011  0.5361 -0.1009 -0.7549
  877MPD2    H112867   3.557   1.365  14.791  0.1977 -0.2194  0.5746
  877MPD2    H212868   3.539   1.297  15.197 -0.5811  1.4595 -0.6605
  877MPD2    H312869   3.444   1.345  14.977  0.5230  2.2473 -0.6307
  877MPD2     N12870   3.827   1.355  14.763  0.0735 -0.2111 -0.6593
  877MPD2    H512871   3.772   1.380  14.681 -1.2372 -1.4560 -0.1625
  877MPD2    N112872   3.806   1.276  15.246 -0.5562  0.3031  0.1603
  877MPD2    H712873   3.907   1.273  15.251 -0.5730 -0.9164 -0.1216
  878MPD2     C12874   4.055   0.389  12.625  0.1786  0.0398  0.0353
  878MPD2    C112875   4.025   0.520  12.631 -0.0453  0.1542  0.1021
  878MPD2    C212876   4.062   0.598  12.738  0.0835 -0.4361 -0.3708
  878MPD2    C312877   4.148   0.546  12.825  0.3036  0.4141 -0.2550
  878MPD2    C412878   4.204   0.423  12.806 -0.7187  0.2617  0.3872
  878MPD2    C512879   4.151   0.340  12.712 -0.5014 -0.3475  0.3333
  878MPD2     H12880   4.024   0.699  12.747  1.7030 -0.1858  3.6711
  878MPD2    H112881   4.269   0.379  12.881  1.9259  0.6238 -1.6892
  878MPD2    H212882   4.017   0.330  12.542  1.3296  0.8121 -1.0237
  878MPD2    H312883   4.183   0.237  12.712  0.6222 -0.0006  1.4221
  878MPD2     N12884   4.203   0.613  12.940 -0.0850 -0.1913  0.2393
  878MPD2    H512885   4.278   0.562  12.985 -0.7375  1.0555  2.7006
  878MPD2    N112886   3.929   0.573  12.535 -0.5458  0.0683 -0.8290
  878MPD2    H712887   3.885   0.504  12.474 -1.6076  1.9950 -2.2544
  879MPD2     C12888   4.300   1.458  17.061 -0.5316 -0.4280  0.5437
  879MPD2    C112889   4.180   1.415  17.117  0.1226 -0.0230  0.5139
  879MPD2    C212890   4.069   1.439  17.044 -0.6959  0.3776  0.6866
  879MPD2    C312891   4.069   1.498  16.923  0.4523 -0.3453 -0.0387
  879MPD2    C412892   4.190   1.532  16.867  0.1967 -0.3705 -0.6157
  879MPD2    C512893   4.302   1.528  16.946  0.0736 -0.2932 -0.4195
  879MPD2     H12894   3.974   1.412  17.088 -0.2897 -2.0994  0.0198
  879MPD2    H112895   4.185   1.587  16.774  0.3883 -1.3444 -1.2109
  879MPD2    H212896   4.394   1.462  17.115  0.0083 -0.6114 -0.3858
  879MPD2    H312897   4.392   1.568  16.901  1.2559 -1.1944  1.1108
  879MPD2     N12898   3.953   1.525  16.844  0.3013 -0.1394 -0.2958
  879MPD2    H512899   3.970   1.573  16.757 -2.1448  1.2931 -0.0107
  879MPD2    N112900   4.182   1.354  17.249  0.0561  0.5650 -0.4428
  879MPD2    H712901   4.266   1.353  17.305 -1.2502  0.0603  1.5213
  880MPD2     C12902   0.131   3.117   0.567 -0.1552 -0.1754  0.2895
  880MPD2    C112903   0.262   3.130   0.529  0.7426  0.1438  0.0025
  880MPD2    C212904   0.352   3.026   0.526  0.5059 -0.5470 -0.5259
  880MPD2    C312905   0.308   2.896   0.552  0.2807 -0.1043  0.5793
  880MPD2    C412906   0.177   2.884   0.594  0.3344  0.3702 -0.0268
  880MPD2    C512907   0.092   2.992   0.604 -0.0156  0.2032 -0.3297
  880MPD2     H12908   0.452   3.045   0.488  1.1007 -2.3851  0.1223
  880MPD2    H112909   0.131   2.786   0.598 -0.9761  0.9211 -1.6692
  880MPD2    H212910   0.064   3.200   0.580 -0.8194 -0.9648  1.8274
  880MPD2    H312911   4.714   2.972   0.651 -0.9717  1.1702 -1.8363
  880MPD2     N12912   0.400   2.788   0.545  0.6711 -0.2758 -0.2764
  880MPD2    H512913   0.499   2.810   0.543  1.0066 -1.9554 -1.6665
  880MPD2    N112914   0.302   3.266   0.513  0.5392  0.0481  1.0431
  880MPD2    H712915   0.229   3.333   0.537  1.3414  0.5341  2.1078
  881MPD2     C12916   0.563   4.103  17.564  0.4535 -0.0492  0.5373
  881MPD2    C112917   0.617   3.981  17.557 -0.2851  0.5880 -0.2711
  881MPD2    C212918   0.598   3.892  17.660  0.1724  0.0303  0.0472
  881MPD2    C312919   0.520   3.919   0.097 -0.4274 -0.0833  0.7699
  881MPD2    C412920   0.463   4.044   0.096 -0.1093  1.0399  0.2725
  881MPD2    C512921   0.490   4.138  17.673 -0.6387  0.4710  0.2818
  881MPD2     H12922   0.654   3.799  17.658  0.1776  0.0054  1.4401
  881MPD2    H112923   0.401   4.077   0.178  1.4066  1.1726  1.3625
  881MPD2    H212924   0.588   4.187  17.501 -0.2083  0.2527  0.6721
  881MPD2    H312925   0.453   4.240  17.675 -1.6008  0.1455 -0.3573
  881MPD2     N12926   0.490   3.830   0.198  0.3164 -0.0667  0.6128
  881MPD2    H512927   0.409   3.860   0.251 -0.8559  1.2010 -1.9189
  881MPD2    N112928   0.710   3.961  17.458  0.2509  0.2870  0.4372
  881MPD2    H712929   0.727   4.045  17.404 -2.3101  0.0231 -0.7480
  882MPD2     C12930   3.811   1.338  13.930  0.1329 -0.4031  0.4441
  882MPD2    C112931   3.762   1.356  14.061  0.4397  0.6332 -0.7955
  882MPD2    C212932   3.630   1.374  14.079 -0.6748  0.1882 -0.5864
  882MPD2    C312933   3.541   1.366  13.975 -0.4849 -0.7471 -0.8338
  882MPD2    C412934   3.595   1.353  13.849  0.6381 -0.4195 -0.3469
  882MPD2    C512935   3.728   1.343  13.819 -0.1913 -0.2509 -0.5768
  882MPD2     H12936   3.597   1.395  14.180 -1.0302  0.2802 -0.7207
  882MPD2    H112937   3.522   1.333  13.772 -1.2361 -0.1405  1.3665
  882MPD2    H212938   3.914   1.312  13.909  0.4492  0.0481  1.4380
  882MPD2    H312939   3.760   1.325  13.717  0.7548  0.1789 -0.3530
  882MPD2     N12940   3.398   1.378  13.984 -0.8305  0.1722 -0.8893
  882MPD2    H512941   3.350   1.399  13.897  0.4912 -0.3316 -1.7379
  882MPD2    N112942   3.853   1.350  14.165 -0.1838 -0.6774 -1.2308
  882MPD2    H712943   3.950   1.333  14.139  1.2621  2.0967  2.2515
  883MPD2     C12944   1.348   1.531  16.698 -0.7736  0.4823  0.4813
  883MPD2    C112945   1.407   1.427  16.631  0.1580  0.1285 -0.1337
  883MPD2    C212946   1.463   1.321  16.702  0.4323  0.6236 -0.2463
  883MPD2    C312947   1.480   1.337  16.838 -0.3807 -0.4910  0.4699
  883MPD2    C412948   1.435   1.451  16.897 -0.2785  0.2830  0.0236
  883MPD2    C512949   1.367   1.546  16.836 -0.7585 -0.3988 -0.2273
  883MPD2     H12950   1.497   1.228  16.658 -0.2952  0.2794 -0.0923
  883MPD2    H112951   1.462   1.481  16.998 -0.6390  0.4021  0.0843
  883MPD2    H212952   1.310   1.617  16.645  1.0019  0.3970 -0.9205
  883MPD2    H312953   1.321   1.632  16.884  0.6796  1.0005 -1.3573
  883MPD2     N12954   1.556   1.237  16.902 -0.0560  0.4746  0.1985
  883MPD2    H512955   1.572   1.160  16.837 -0.9568  0.5215 -0.0725
  883MPD2    N112956   1.406   1.415  16.494  0.4297 -0.3334  0.2139
  883MPD2    H712957   1.427   1.321  16.460 -0.6937  0.3411 -2.3725
  884MPD2     C12958   2.969   1.813  15.063  0.3282 -0.1651 -0.6750
  884MPD2    C112959   2.972   1.952  15.067 -0.0194  0.2108 -0.4450
  884MPD2    C212960   2.881   2.011  15.155  0.1635  0.7102 -0.4260
  884MPD2    C312961   2.786   1.942  15.224  0.5246  0.0268 -0.2415
  884MPD2    C412962   2.782   1.807  15.206  0.3220 -0.1041 -0.3640
  884MPD2    C512963   2.877   1.742  15.132 -0.0687 -0.6811  0.3392
  884MPD2     H12964   2.898   2.118  15.167 -0.2611  1.1708 -3.9193
  884MPD2    H112965   2.700   1.751  15.250  1.2924  0.6434  2.3828
  884MPD2    H212966   3.039   1.752  15.007 -0.8977 -0.8906 -1.4104
  884MPD2    H312967   2.871   1.637  15.105  0.7863 -0.8268  0.7322
  884MPD2     N12968   2.687   2.008  15.299  0.1980 -0.3671 -0.5549
  884MPD2    H512969   2.668   2.108  15.295 -2.0576 -0.7652  0.2976
  884MPD2    N112970   3.080   2.033  15.027 -0.0408  0.3018  0.6316
  884MPD2    H712971   3.090   2.127  15.065 -1.3617  0.2634  1.0999
  885MPD2     C12972   1.703   2.387   0.259  0.0389  0.3149 -0.1670
  885MPD2    C112973   1.622   2.277   0.271 -0.4836  0.0380  0.1459
  885MPD2    C212974   1.554   2.225   0.166 -0.0637  0.0427 -0.4277
  885MPD2    C312975   1.563   2.280   0.037  0.4587  0.1854  0.1540
  885MPD2    C412976   1.649   2.394   0.020  0.2574  0.4261 -1.0250
  885MPD2    C512977   1.716   2.439   0.133  0.0742 -0.3078 -0.3197
  885MPD2     H12978   1.495   2.135   0.183  2.8994 -2.0014 -0.9578
  885MPD2    H112979   1.668   2.424  17.593 -0.3564  0.5997 -1.0892
  885MPD2    H212980   1.763   2.415   0.345 -1.2145 -1.0610  1.1553
  885MPD2    H312981   1.798   2.509   0.121 -0.5472  1.0538  3.0940
  885MPD2     N12982   1.483   2.222  17.607 -0.3388  0.1449  0.0741
  885MPD2    H512983   1.415   2.154  17.639  1.8023 -1.8874  0.3016
  885MPD2    N112984   1.608   2.223   0.400 -0.8952  0.8458 -0.6986
  885MPD2    H712985   1.685   2.241   0.464 -2.4119  0.1716  1.3223
  886MPD2     C12986   2.504   0.541  15.900 -0.0340  0.3846  0.4683
  886MPD2    C112987   2.557   0.536  15.771 -0.2304 -0.0537 -0.8690
  886MPD2    C212988   2.541   0.645  15.686  0.0612  0.1584  0.4309
  886MPD2    C312989   2.469   0.755  15.720 -0.4201 -0.0197 -1.0871
  886MPD2    C412990   2.427   0.769  15.851 -0.2122 -0.0230  0.1090
  886MPD2    C512991   2.448   0.660  15.936 -0.2208  0.0469 -0.1882
  886MPD2     H12992   2.589   0.652  15.589  0.5688  0.2392  0.6885
  886MPD2    H112993   2.383   0.861  15.890  2.1779  0.2491  2.1707
  886MPD2    H212994   2.510   0.455  15.966 -0.2863 -0.0365 -0.0504
  886MPD2    H312995   2.416   0.684  16.037  0.4416  1.2792 -0.2695
  886MPD2     N12996   2.466   0.861  15.622  0.0912 -0.1767  0.9736
  886MPD2    H512997   2.522   0.851  15.538  1.1206 -0.9985  1.7479
  886MPD2    N112998   2.618   0.420  15.714  0.8394  0.2345  0.4380
  886MPD2    H712999   2.642   0.431  15.616  0.6197 -1.9412  0.1201
  887MPD2     C13000   3.276   0.472  15.492  0.5528  0.2710  0.0197
  887MPD2    C113001   3.145   0.508  15.523 -0.0927  0.0301  0.2599
  887MPD2    C213002   3.112   0.636  15.538 -0.0175 -0.0510  0.6227
  887MPD2    C313003   3.201   0.742  15.530  0.3662  0.5602 -0.4848
  887MPD2    C413004   3.334   0.713  15.509  0.1510  0.1970  0.5787
  887MPD2    C513005   3.368   0.579  15.487 -0.0309 -0.7113  0.1543
  887MPD2     H13006   3.006   0.656  15.546 -0.2654 -1.0572 -0.0664
  887MPD2    H113007   3.423   0.775  15.500  0.3080 -0.5021 -2.5817
  887MPD2    H213008   3.305   0.369  15.473  2.7396  1.0760 -0.9380
  887MPD2    H313009   3.467   0.548  15.454  0.0735 -1.1262  0.8605
  887MPD2     N13010   3.151   0.863  15.564  0.0964 -0.0903  0.0230
  887MPD2    H513011   3.050   0.867  15.579  0.3283  0.0176  1.5513
  887MPD2    N113012   3.044   0.409  15.548 -0.0234 -0.3288 -0.7790
  887MPD2    H713013   2.955   0.449  15.576 -0.0191 -1.8178  1.3160
  888MPD2     C13014   4.703   0.767  14.557 -0.1014  0.3802 -0.3519
  888MPD2    C113015   4.701   0.722  14.684  0.3927  0.2835  0.2844
  888MPD2    C213016   0.088   0.758  14.762  0.0877  0.2416  0.0178
  888MPD2    C313017   0.187   0.840  14.718  0.6932 -0.5367 -0.4993
  888MPD2    C413018   0.179   0.894  14.588 -0.4122  0.4338 -0.4801
  888MPD2    C513019   0.077   0.864  14.512 -0.1584 -0.0292 -0.2516
  888MPD2     H13020   0.101   0.714  14.860 -0.0519 -1.6069 -0.7791
  888MPD2    H113021   0.265   0.937  14.538  0.6772  0.1138  1.1123
  888MPD2    H213022   4.617   0.750  14.492  0.0610 -0.4877 -0.3395
  888MPD2    H313023   0.063   0.912  14.416 -1.0167 -0.7436 -0.4919
  888MPD2     N13024   0.297   0.866  14.804 -0.0630 -0.0696  0.2636
  888MPD2    H513025   0.290   0.829  14.898 -2.1348 -1.6924 -0.5224
  888MPD2    N113026   4.595   0.638  14.731 -0.0490 -0.3461 -0.3056
  888MPD2    H713027   4.606   0.594  14.822 -0.2790 -0.9868 -0.5889
  889MPD2     C13028   4.672   4.612  13.927  0.7471  0.4354 -1.1636
  889MPD2    C113029   4.707   4.634  13.796  0.2503  0.0488  0.2883
  889MPD2    C213030   4.688   0.040  13.741 -0.1848 -0.1951 -0.4746
  889MPD2    C313031   4.658   0.150  13.823  0.6158  0.4745  0.1419
  889MPD2    C413032   4.612   0.119  13.948  0.1507 -0.4028  1.0263
  889MPD2    C513033   4.631   4.713  14.009 -0.3191  0.2410 -0.1786
  889MPD2     H13034   0.005   0.059  13.641  1.0108  2.9332  0.5224
  889MPD2    H113035   4.570   0.195  14.012  0.9388 -0.4278  1.5729
  889MPD2    H213036   4.658   4.511  13.963 -1.6232  0.5675 -1.7002
  889MPD2    H313037   4.616   4.699  14.115  1.0664 -1.8461 -0.2702
  889MPD2     N13038   4.642   0.278  13.758 -0.4583  0.2442 -0.1592
  889MPD2    H513039   4.655   0.275  13.657 -2.2335 -1.3765 -0.3466
  889MPD2    N113040   0.001   4.526  13.708  0.2896 -0.0092 -0.4117
  889MPD2    H713041   0.013   4.549  13.609 -1.0892 -0.3718 -0.6525
  890MPD2     C13042   3.884   1.764  14.354 -0.2134 -0.3054  0.3584
  890MPD2    C113043   3.997   1.806  14.421 -0.6391  0.1677  0.4804
  890MPD2    C213044   4.003   1.765  14.561 -0.1693 -0.2869  0.2928
  890MPD2    C313045   3.887   1.721  14.625 -0.2966 -0.0482 -0.0030
  890MPD2    C413046   3.774   1.693  14.552 -0.1452  0.5868  0.2587
  890MPD2    C513047   3.777   1.724  14.419 -0.0549  0.2099  0.1379
  890MPD2     H13048   4.089   1.796  14.620 -0.8729 -0.2699  1.2901
  890MPD2    H113049   3.684   1.647  14.589 -1.6378  1.2288 -2.6084
  890MPD2    H213050   3.867   1.790  14.250 -0.5045 -1.3526  0.1379
  890MPD2    H313051   3.688   1.686  14.369  0.2660  0.5403 -0.6694
  890MPD2     N13052   3.888   1.699  14.769 -0.2909 -0.1915  0.0470
  890MPD2    H513053   3.973   1.719  14.820 -0.0909  2.5459 -1.4001
  890MPD2    N113054   4.093   1.884  14.352  0.5487  0.3791 -0.0340
  890MPD2    H713055   4.055   1.910  14.261 -0.0533  0.8083  0.3461
  891MPD2     C13056   2.020   0.494  16.561  0.9537 -0.3189 -0.5051
  891MPD2    C113057   1.952   0.484  16.680 -0.9573 -0.8336 -0.0085
  891MPD2    C213058   2.024   0.442  16.796  0.4196 -0.4821  0.2537
  891MPD2    C313059   2.157   0.401  16.789 -0.6824 -0.2925 -0.1252
  891MPD2    C413060   2.215   0.396  16.661  0.8223 -1.0042 -0.3332
  891MPD2    C513061   2.146   0.438  16.551 -0.4268 -0.9557 -0.8981
  891MPD2     H13062   1.971   0.438  16.890 -2.3895 -0.7384 -1.3341
  891MPD2    H113063   2.312   0.351  16.642 -0.1921 -2.2574 -2.4721
  891MPD2    H213064   1.975   0.521  16.466 -1.4683 -1.6511  0.2873
  891MPD2    H313065   2.197   0.405  16.460 -0.0314 -2.4126 -0.1536
  891MPD2     N13066   2.225   0.376  16.907 -0.1557 -0.2504  0.5435
  891MPD2    H513067   2.173   0.374  16.995  2.1841 -1.9164  1.8763
  891MPD2    N113068   1.814   0.531  16.668  0.0729  0.3948  0.4493
  891MPD2    H713069   1.783   0.559  16.575 -0.2170 -1.0535  0.1051
  892MPD2     C13070   2.933   1.438  14.875 -0.1094 -0.3586  0.2096
  892MPD2    C113071   2.831   1.477  14.789 -0.3886 -0.7042  0.5353
  892MPD2    C213072   2.856   1.486  14.656 -0.7117 -0.0916 -0.1503
  892MPD2    C313073   2.980   1.444  14.613 -0.6776 -0.1820 -0.7924
  892MPD2    C413074   3.071   1.404  14.707  0.1334 -0.0324 -0.4377
  892MPD2    C513075   3.054   1.406  14.839  0.4907 -0.2871  0.4452
  892MPD2     H13076   2.784   1.521  14.583  1.3665  1.8602 -1.2559
  892MPD2    H113077   3.164   1.353  14.683  1.3490  2.4496 -1.0672
  892MPD2    H213078   2.913   1.435  14.982  2.6361 -1.9132  0.6815
  892MPD2    H313079   3.141   1.377  14.897  0.5677 -0.3916  0.2781
  892MPD2     N13080   3.016   1.431  14.476  0.1586  0.7732  0.4921
  892MPD2    H513081   3.106   1.388  14.455 -0.1914  0.5511 -0.5887
  892MPD2    N113082   2.708   1.516  14.840  0.2239  0.5548  0.5823
  892MPD2    H713083   2.642   1.557  14.775  0.8104 -0.0361 -0.3799
  893MPD2     C13084   4.509   3.181   2.204  1.1580 -0.7351 -0.2929
  893MPD2    C113085   4.446   3.306   2.190 -0.0719  0.3516 -0.4695
  893MPD2    C213086   4.312   3.320   2.222  0.7421  0.2875 -0.1357
  893MPD2    C313087   4.234   3.207   2.255  0.3111 -0.7046  0.1131
  893MPD2    C413088   4.297   3.084   2.263  0.0571 -0.3861 -0.2425
  893MPD2    C513089   4.433   3.072   2.235  0.5995 -0.2319 -0.7904
  893MPD2     H13090   4.268   3.417   2.204  0.6182  0.4240  0.9239
  893MPD2    H113091   4.250   2.989   2.286 -0.2812 -0.1480  0.0278
  893MPD2    H213092   4.617   3.177   2.193  1.2884  1.3671  0.1237
  893MPD2    H313093   4.487   2.978   2.232 -3.0398 -2.3324 -0.2937
  893MPD2     N13094   4.099   3.210   2.265  0.1562  0.3338 -0.2834
  893MPD2    H513095   4.056   3.119   2.281  1.2855  0.1963  1.9680
  893MPD2    N113096   4.526   3.406   2.144 -0.0331 -0.0165  0.1413
  893MPD2    H713097   4.621   3.379   2.120 -0.1222 -0.6666  0.5041
  894MPD2     C13098   2.717   2.796   0.789  0.3563 -1.1315 -0.0358
  894MPD2    C113099   2.747   2.828   0.920  0.4935  0.6819  0.5878
  894MPD2    C213100   2.781   2.961   0.951  0.4575  0.0073 -0.4315
  894MPD2    C313101   2.774   3.057   0.849  0.4255  0.8274 -0.2048
  894MPD2    C413102   2.741   3.017   0.721  0.0985 -0.3841 -0.4337
  894MPD2    C513103   2.720   2.886   0.691  0.4726  0.0310  0.3648
  894MPD2     H13104   2.787   2.994   1.054 -3.7397  2.5852 -0.9830
  894MPD2    H113105   2.741   3.084   0.636 -1.2682 -0.3172 -0.3668
  894MPD2    H213106   2.702   2.691   0.765  1.1326 -0.9122 -1.4385
  894MPD2    H313107   2.688   2.849   0.594  0.4096  2.0589 -0.3859
  894MPD2     N13108   2.802   3.193   0.887 -0.6211 -0.0744 -0.0299
  894MPD2    H513109   2.832   3.211   0.982 -1.2036  1.1118 -0.0666
  894MPD2    N113110   2.747   2.726   1.019 -0.2998  0.2556  0.5764
  894MPD2    H713111   2.706   2.635   1.000 -0.0801 -0.2571  2.5758
  895MPD2     C13112   2.061   0.998  14.096 -0.1051  0.0070 -0.9478
  895MPD2    C113113   2.040   1.006  13.962 -0.1247  0.5766  0.6995
  895MPD2    C213114   2.129   0.949  13.873 -0.2141  0.2333 -0.5282
  895MPD2    C313115   2.248   0.897  13.912 -0.2674 -0.1065 -0.0904
  895MPD2    C413116   2.263   0.879  14.051  0.3505  0.4932  0.0190
  895MPD2    C513117   2.170   0.931  14.138 -0.7473  0.7701 -0.2492
  895MPD2     H13118   2.114   0.956  13.766  0.8104  0.5590 -0.6501
  895MPD2    H113119   2.357   0.845  14.092  0.5477 -0.3439 -1.1223
  895MPD2    H213120   1.994   1.048  14.166 -0.5805 -1.4345 -0.3902
  895MPD2    H313121   2.176   0.922  14.246 -0.1955 -1.3830 -0.4561
  895MPD2     N13122   2.337   0.857  13.811  0.3351  0.4716 -0.2390
  895MPD2    H513123   2.302   0.858  13.716 -1.2141  0.6055  0.3320
  895MPD2    N113124   1.931   1.082  13.902  0.5146 -0.0317  0.2290
  895MPD2    H713125   1.946   1.081  13.801 -1.8992  1.6724 -0.1604
  896MPD2     C13126   3.873   2.992   1.459 -0.3256  0.0242 -0.6435
  896MPD2    C113127   3.881   3.069   1.350  0.3760  0.2195 -0.3552
  896MPD2    C213128   3.788   3.172   1.326 -0.2323 -0.3370 -0.1742
  896MPD2    C313129   3.693   3.205   1.427  0.9614 -0.0428  0.3616
  896MPD2    C413130   3.701   3.131   1.544  0.0611  0.2276  0.4743
  896MPD2    C513131   3.781   3.018   1.553  0.1708  0.4652  0.1543
  896MPD2     H13132   3.790   3.241   1.243  0.0296  1.1626  1.0677
  896MPD2    H113133   3.647   3.161   1.634 -1.2458 -0.2343 -0.1486
  896MPD2    H213134   3.934   2.905   1.481 -0.8284 -0.2976 -0.4949
  896MPD2    H313135   3.767   2.953   1.638  1.3803  0.8707  0.6620
  896MPD2     N13136   3.601   3.306   1.415  0.0137  0.3657  0.5088
  896MPD2    H513137   3.610   3.372   1.339  1.6084 -1.1390 -0.6114
  896MPD2    N113138   3.988   3.036   1.259 -0.5542 -0.6361 -0.1848
  896MPD2    H713139   4.055   2.971   1.300 -0.8887 -0.6235  0.3838
  897MPD2     C13140   0.643   4.432  10.693  0.3986  0.2142  0.7896
  897MPD2    C113141   0.700   4.557  10.704  0.4504  0.0591  0.5086
  897MPD2    C213142   0.619   4.664  10.718 -0.2932 -0.8049  0.4658
  897MPD2    C313143   0.481   4.649  10.708 -0.1146 -0.0023  0.2557
  897MPD2    C413144   0.425   4.526  10.687  0.1598 -0.5976 -0.4732
  897MPD2    C513145   0.513   4.417  10.689  0.6458 -0.5768  0.1057
  897MPD2     H13146   0.661   0.045  10.728 -1.1301 -0.5261  1.2468
  897MPD2    H113147   0.318   4.509  10.676  0.0619 -0.6903  0.6278
  897MPD2    H213148   0.710   4.347  10.691  0.1054  0.0662 -2.3612
  897MPD2    H313149   0.476   4.315  10.691 -0.9290 -0.0029  0.7208
  897MPD2     N13150   0.404   0.047  10.711 -0.8062 -0.1221 -0.6982
  897MPD2    H513151   0.461   0.125  10.742 -0.6344 -0.3236 -0.5131
  897MPD2    N113152   0.844   4.571  10.700 -0.0903 -0.1037  0.3447
  897MPD2    H713153   0.892   4.486  10.673 -0.4515  0.3522 -1.8096
  898MPD2     C13154   2.330   1.194   0.063 -0.0373  0.3330 -0.0249
  898MPD2    C113155   2.371   1.157  17.612 -0.0854  0.3811 -0.1162
  898MPD2    C213156   2.328   1.236  17.510 -0.5788 -0.3585 -0.0543
  898MPD2    C313157   2.248   1.348  17.526 -1.2406  0.0486  0.7932
  898MPD2    C413158   2.202   1.384  17.649 -0.4722  0.7291  0.7146
  898MPD2    C513159   2.231   1.294   0.070  0.0619 -0.1657 -0.0456
  898MPD2     H13160   2.373   1.217  17.413 -0.8757 -0.6098 -0.1442
  898MPD2    H113161   2.124   1.456  17.672 -1.1221 -0.0700  0.9934
  898MPD2    H213162   2.368   1.149   0.154 -0.9705 -0.4440 -0.0165
  898MPD2    H313163   2.176   1.305   0.163  1.7912 -0.2078  0.9860
  898MPD2     N13164   2.206   1.420  17.414 -0.9109 -0.2021 -0.6643
  898MPD2    H513165   2.244   1.393  17.324 -2.0342 -2.4163 -0.4723
  898MPD2    N113166   2.471   1.056  17.585 -0.2481  0.1163 -0.0605
  898MPD2    H713167   2.503   1.055  17.489  0.2117 -0.3096  0.1016
  899MPD2     C13168   3.417   1.480  17.504 -0.1681 -0.2074 -0.5602
  899MPD2    C113169   3.486   1.581  17.569  0.3526 -0.2827 -0.1782
  899MPD2    C213170   3.418   1.649  17.667 -0.1045  0.4475 -0.3161
  899MPD2    C313171   3.289   1.617   0.022  0.5183 -0.2586  0.5282
  899MPD2    C413172   3.234   1.512  17.634  0.4242 -0.9303  0.3340
  899MPD2    C513173   3.293   1.443  17.540  0.3694  0.1088 -0.2531
  899MPD2     H13174   3.453   1.738   0.042 -2.9962  0.6230  1.3511
  899MPD2    H113175   3.137   1.479  17.670  0.5284 -0.3673  1.1387
  899MPD2    H213176   3.476   1.421  17.434 -0.4933 -0.4800 -0.6045
  899MPD2    H313177   3.237   1.360  17.499  0.5451 -0.4009  0.5361
  899MPD2     N13178   3.208   1.691   0.118 -0.5342  0.0397  0.4936
  899MPD2    H513179   3.111   1.664   0.131 -0.4301 -0.8202 -0.5510
  899MPD2    N113180   3.615   1.608  17.532  0.0317  0.0662  0.6649
  899MPD2    H713181   3.664   1.542  17.472 -0.2560  0.0377  0.4634
  900MPD2     C13182   3.323   3.559  12.459  0.2378 -0.2510 -0.1479
  900MPD2    C113183   3.246   3.447  12.447 -0.8027 -0.5094 -0.2946
  900MPD2    C213184   3.113   3.461  12.433  0.5227 -0.8797  0.0084
  900MPD2    C313185   3.049   3.586  12.437 -0.1306  0.6882 -0.6156
  900MPD2    C413186   3.129   3.696  12.441  0.7076  0.4458  0.3682
  900MPD2    C513187   3.265   3.683  12.461  0.8055 -0.1289 -0.5011
  900MPD2     H13188   3.054   3.372  12.416 -0.5455 -0.1374 -0.1387
  900MPD2    H113189   3.082   3.794  12.446 -0.7686 -0.2231 -0.5561
  900MPD2    H213190   3.428   3.559  12.483  0.2195  1.0813 -0.0905
  900MPD2    H313191   3.330   3.768  12.480  0.6852 -0.2417  0.3940
  900MPD2     N13192   2.910   3.583  12.427  0.1106  0.9436  0.2423
  900MPD2    H513193   2.861   3.494  12.426  3.9929 -1.1455 -0.3788
  900MPD2    N113194   3.311   3.322  12.472 -0.6692  0.5034  0.0697
  900MPD2    H713195   3.412   3.329  12.483 -0.7880  0.3465  1.2316
  901MPD2     C13196   3.410   2.302  12.883  0.0035 -0.0893  0.0029
  901MPD2    C113197   3.437   2.299  12.746  0.2942 -0.4761  1.0783
  901MPD2    C213198   3.439   2.421  12.674  0.2902 -0.2276 -0.2110
  901MPD2    C313199   3.404   2.540  12.740  0.1319 -0.3263  0.3650
  901MPD2    C413200   3.381   2.542  12.878 -0.3042  0.0504 -0.3920
  901MPD2    C513201   3.381   2.419  12.942 -0.0488  0.0404  0.1115
  901MPD2     H13202   3.467   2.435  12.570 -1.3630  0.5878 -0.5479
  901MPD2    H113203   3.353   2.632  12.932 -0.9392  0.7980 -1.9590
  901MPD2    H213204   3.393   2.205  12.930  1.0540 -0.6430 -0.7589
  901MPD2    H313205   3.372   2.429  13.050 -0.3917 -0.4028  0.1247
  901MPD2     N13206   3.401   2.655  12.660 -0.3423 -0.1730 -0.3688
  901MPD2    H513207   3.440   2.656  12.566  0.7364  0.4904  0.0919
  901MPD2    N113208   3.464   2.171  12.679  0.5974 -0.9833  0.0998
  901MPD2    H713209   3.480   2.096  12.745  1.8490  0.7961  1.8542
  902MPD2     C13210   2.066   1.636  13.154  0.2670  0.0327 -0.1065
  902MPD2    C113211   2.068   1.767  13.105  0.1924  0.1900  0.2423
  902MPD2    C213212   2.161   1.805  13.009  0.1707  0.2508 -0.2170
  902MPD2    C313213   2.256   1.716  12.966  0.0216 -0.0408  0.2966
  902MPD2    C413214   2.250   1.592  13.023 -0.0525  0.6753  0.1799
  902MPD2    C513215   2.158   1.549  13.115  0.6554  0.5024  0.4123
  902MPD2     H13216   2.173   1.909  12.980 -0.4536  0.5199  0.4975
  902MPD2    H113217   2.333   1.528  12.996 -0.0976  0.1370  1.3040
  902MPD2    H213218   1.995   1.599  13.228  0.8505  0.2884  0.5881
  902MPD2    H313219   2.159   1.449  13.156 -0.5397 -0.4002 -1.7329
  902MPD2     N13220   2.360   1.736  12.882  0.6429 -0.3669 -0.0745
  902MPD2    H513221   2.423   1.659  12.861 -1.4611 -1.5599 -2.0702
  902MPD2    N113222   1.979   1.855  13.164  0.1916 -0.4073 -0.2389
  902MPD2    H713223   1.919   1.823  13.239 -1.4079  3.0507 -0.0358
  903MPD2     C13224   2.659   1.852  12.031 -0.5370  0.1403  0.3876
  903MPD2    C113225   2.582   1.814  12.138 -0.3812  0.1256  0.0875
  903MPD2    C213226   2.479   1.733  12.106  0.1753 -0.5712 -0.4041
  903MPD2    C313227   2.467   1.666  11.986 -0.1446 -1.0736 -0.6215
  903MPD2    C413228   2.546   1.703  11.881 -0.2946 -0.0273  0.2260
  903MPD2    C513229   2.646   1.803  11.903  0.2611  0.1283 -0.2459
  903MPD2     H13230   2.422   1.701  12.193  0.1037  0.7439  0.0410
  903MPD2    H113231   2.540   1.654  11.784 -0.3326  1.8693 -0.7338
  903MPD2    H213232   2.746   1.916  12.042  0.9978 -1.8452 -0.2033
  903MPD2    H313233   2.712   1.842  11.826 -0.0162  0.4373 -0.3291
  903MPD2     N13234   2.381   1.556  11.978 -0.2868 -0.2677 -0.2774
  903MPD2    H513235   2.343   1.538  12.070 -0.6225  0.1998 -0.3231
  903MPD2    N113236   2.621   1.849  12.274  0.4428  0.0457 -0.0395
  903MPD2    H713237   2.712   1.889  12.293  0.0443  1.1209 -0.4395
  904MPD2     C13238   2.139   0.458  13.899 -0.3672 -0.1143 -0.8390
  904MPD2    C113239   2.128   0.323  13.929 -0.3480  0.3183 -0.8368
  904MPD2    C213240   2.242   0.256  13.974  0.3985  0.1959  0.4012
  904MPD2    C313241   2.359   0.317  13.997 -0.1066  0.2248 -0.1439
  904MPD2    C413242   2.362   0.456  13.967 -0.5021  0.2442  0.3866
  904MPD2    C513243   2.255   0.521  13.925 -0.9215 -0.8754  0.3751
  904MPD2     H13244   2.228   0.153  14.005  0.3509  0.0109 -0.2481
  904MPD2    H113245   2.448   0.520  13.982  0.7230 -1.1503 -0.6603
  904MPD2    H213246   2.059   0.517  13.858 -1.0260  0.9878  2.0617
  904MPD2    H313247   2.270   0.626  13.906 -0.5588 -0.4382  3.1318
  904MPD2     N13248   2.467   0.249  14.056  0.3298  0.3577 -0.0261
  904MPD2    H513249   2.448   0.152  14.081  0.6876  0.3548  0.2530
  904MPD2    N113250   2.010   0.236  13.905 -0.4608  0.6306  0.5887
  904MPD2    H713251   2.035   0.138  13.908  0.4439  0.8918  1.4900
  905MPD2     C13252   1.838   0.640  13.320  0.2354 -0.5653  0.2979
  905MPD2    C113253   1.878   0.687  13.441 -0.6010  0.4053 -0.5343
  905MPD2    C213254   2.007   0.740  13.447  0.1955 -0.1935  0.2753
  905MPD2    C313255   2.096   0.742  13.339  0.1891  1.0278 -0.6974
  905MPD2    C413256   2.045   0.694  13.221 -0.2198 -0.1893  0.5972
  905MPD2    C513257   1.915   0.645  13.207  0.4440 -0.7432 -0.6228
  905MPD2     H13258   2.049   0.749  13.547 -0.3835 -1.0247  0.5940
  905MPD2    H113259   2.118   0.686  13.142 -0.2261 -3.2433  0.9176
  905MPD2    H213260   1.744   0.588  13.303 -0.9727  1.5884  0.3134
  905MPD2    H313261   1.882   0.597  13.116  3.3061 -3.0682 -0.4281
  905MPD2     N13262   2.235   0.768  13.350 -0.2915  0.6116  0.0513
  905MPD2    H513263   2.291   0.725  13.277 -0.6145  0.0703  0.1200
  905MPD2    N113264   1.791   0.659  13.553  0.2641 -0.0189 -0.3837
  905MPD2    H713265   1.714   0.594  13.545  1.3456 -1.4364  0.7112
  906MPD2     C13266   3.996   4.664  11.264 -0.1677 -0.1578 -0.3074
  906MPD2    C113267   3.968   4.579  11.157  0.2190 -0.3420 -0.7171
  906MPD2    C213268   3.936   4.450  11.186 -0.7835 -0.4769  0.0471
  906MPD2    C313269   3.921   4.404  11.317 -0.1432 -0.3548  0.0483
  906MPD2    C413270   3.947   4.488  11.416  0.3920  0.4317 -0.0309
  906MPD2    C513271   3.987   4.619  11.394  0.1403  0.0414 -0.5888
  906MPD2     H13272   3.911   4.369  11.118 -0.6216  1.6264 -2.4897
  906MPD2    H113273   3.925   4.454  11.517 -0.1146  1.5706  0.2515
  906MPD2    H213274   4.019   0.052  11.255 -1.6969  0.2756  0.8061
  906MPD2    H313275   4.012   4.686  11.476  1.1882 -2.1050  0.8360
  906MPD2     N13276   3.872   4.272  11.327 -0.3414  0.3857  0.0809
  906MPD2    H513277   3.878   4.220  11.240 -2.0803  0.0159  0.1863
  906MPD2    N113278   3.984   4.616  11.022 -0.2329 -0.6553 -0.1901
  906MPD2    H713279   4.004   4.538  10.960 -0.3255 -0.3557 -0.5985
  907MPD2     C13280   3.119   3.958  15.393 -0.2048 -0.1687 -0.5828
  907MPD2    C113281   3.119   3.825  15.371 -0.3295 -0.2407  0.9542
  907MPD2    C213282   3.147   3.743  15.475 -0.1199  0.2465 -0.2080
  907MPD2    C313283   3.192   3.793  15.596  0.5527 -0.3465 -0.2911
  907MPD2    C413284   3.188   3.930  15.620 -0.2669  0.1806  0.2296
  907MPD2    C513285   3.151   4.004  15.514 -0.0345 -0.2060 -0.2262
  907MPD2     H13286   3.145   3.636  15.462 -2.7225  0.4172 -1.2334
  907MPD2    H113287   3.206   3.984  15.712 -0.5452  0.4820  0.1040
  907MPD2    H213288   3.096   4.032  15.318 -1.7125  0.5444  0.5644
  907MPD2    H313289   3.157   4.108  15.541 -0.1734  0.3237 -2.2567
  907MPD2     N13290   3.229   3.699  15.702 -0.5999  0.5309  0.8064
  907MPD2    H513291   3.238   3.605  15.665 -0.3441  1.4538 -1.4560
  907MPD2    N113292   3.084   3.755  15.246  0.5811  0.3628 -0.7862
  907MPD2    H713293   3.088   3.654  15.243 -1.0082  0.2953 -0.2711
  908MPD2     C13294   1.284   4.186  10.088  0.2390 -0.2108  0.0497
  908MPD2    C113295   1.175   4.159  10.169 -0.1168  0.0097 -0.3147
  908MPD2    C213296   1.161   4.231  10.284 -0.0315 -0.6095 -0.0913
  908MPD2    C313297   1.253   4.322  10.331  0.2868  0.3633  0.3587
  908MPD2    C413298   1.372   4.337  10.257 -0.2579 -0.4935  0.1072
  908MPD2    C513299   1.383   4.270  10.140 -0.1210 -0.9157 -0.0534
  908MPD2     H13300   1.068   4.225  10.339 -0.7362  3.4139 -0.8383
  908MPD2    H113301   1.458   4.398  10.283 -2.1859  2.2472  0.0843
  908MPD2    H213302   1.298   4.155   9.985  3.0483 -0.2365  0.4537
  908MPD2    H313303   1.467   4.296  10.077 -0.2375  0.4026  0.3282
  908MPD2     N13304   1.223   4.395  10.456 -0.3323  0.1966 -0.0948
  908MPD2    H513305   1.133   4.374  10.497 -0.9197  3.6525  0.4094
  908MPD2    N113306   1.069   4.087  10.120  0.3811 -0.0508  0.7614
  908MPD2    H713307   0.985   4.101  10.175 -1.7136  0.6260 -2.6093
  909MPD2     C13308   0.943   2.673  11.805 -0.5532 -0.0071  0.0376
  909MPD2    C113309   0.922   2.801  11.750 -0.6524  0.6093 -0.6022
  909MPD2    C213310   0.849   2.897  11.817  0.0571  0.1810 -0.2313
  909MPD2    C313311   0.797   2.868  11.944  0.2234 -0.3347  0.6406
  909MPD2    C413312   0.810   2.743  12.000 -0.1597 -0.0047 -0.0225
  909MPD2    C513313   0.887   2.646  11.927  0.3304  0.3655 -0.0580
  909MPD2     H13314   0.833   2.992  11.766  2.0184  1.1935  1.0535
  909MPD2    H113315   0.783   2.718  12.102 -1.8802  1.2489 -0.1771
  909MPD2    H213316   0.992   2.590  11.756 -0.5099  2.7914 -4.6201
  909MPD2    H313317   0.908   2.545  11.961 -1.7341 -0.3279 -0.8711
  909MPD2     N13318   0.730   2.972  12.008  0.1079  0.5269 -0.7063
  909MPD2    H513319   0.713   3.058  11.957 -2.6016 -0.4720 -1.4772
  909MPD2    N113320   0.962   2.825  11.615  0.1625 -0.1917 -0.1567
  909MPD2    H713321   0.935   2.906  11.560 -2.6786 -0.4989  0.7743
  910MPD2     C13322   2.527   4.310  15.966  0.3382 -0.1041 -0.1412
  910MPD2    C113323   2.626   4.266  15.879  0.1343 -0.1848 -0.5776
  910MPD2    C213324   2.645   4.329  15.756 -0.3067  0.0948  0.5266
  910MPD2    C313325   2.560   4.438  15.722  0.0966 -0.3371 -0.1032
  910MPD2    C413326   2.464   4.484  15.821  0.1955 -0.0833  0.1492
  910MPD2    C513327   2.445   4.414  15.937 -0.5908 -1.1754 -0.9043
  910MPD2     H13328   2.718   4.293  15.684 -0.6900 -1.3285  0.8494
  910MPD2    H113329   2.385   4.557  15.807 -1.0123 -0.6514  3.8896
  910MPD2    H213330   2.494   4.243  16.045  0.2240  1.3595  1.0600
  910MPD2    H313331   2.362   4.442  16.002  0.4783 -2.0622  0.8634
  910MPD2     N13332   2.565   4.503  15.600  0.4000  0.0407  0.0543
  910MPD2    H513333   2.498   4.579  15.597  2.8293  2.2134  0.5623
  910MPD2    N113334   2.720   4.164  15.915  0.4606 -0.2810 -0.3491
  910MPD2    H713335   2.780   4.124  15.843  1.0030 -0.0015 -0.0465
  911MPD2     C13336   0.205   4.681  16.428  1.1085  0.6124  0.1577
  911MPD2    C113337   0.277   0.067  16.373 -0.1379  0.0318 -0.2014
  911MPD2    C213338   0.216   0.183  16.344  0.4312  0.7414 -0.0360
  911MPD2    C313339   0.078   0.205  16.371 -0.4042  1.0026  1.2615
  911MPD2    C413340   4.716   0.101  16.418  0.0470 -0.0601 -0.3979
  911MPD2    C513341   0.066   4.706  16.443  0.1677 -0.0439 -0.9931
  911MPD2     H13342   0.273   0.268  16.307 -2.9680  3.6119  1.3138
  911MPD2    H113343   4.608   0.087  16.419 -0.3336  2.9419  0.9972
  911MPD2    H213344   0.246   4.581  16.440 -1.3537 -0.0526  3.0043
  911MPD2    H313345   0.014   4.618  16.479  3.7949 -2.0324 -0.6079
  911MPD2     N13346   0.006   0.325  16.323 -0.2270  0.3849 -0.1496
  911MPD2    H513347   4.626   0.302  16.311 -0.7413  1.8787  1.2380
  911MPD2    N113348   0.419   0.049  16.362  0.1718 -0.1608  0.0222
  911MPD2    H713349   0.449   4.683  16.411  1.5523  2.3917  3.4892
  912MPD2     C13350   4.436   0.344  15.634 -0.6591  0.4717 -0.3947
  912MPD2    C113351   4.424   0.335  15.773  1.2955 -0.8616  0.1927
  912MPD2    C213352   4.386   0.209  15.820 -0.3441 -0.5797 -0.0621
  912MPD2    C313353   4.365   0.098  15.742 -0.2545  0.6971 -0.1273
  912MPD2    C413354   4.372   0.107  15.606  0.3122  0.6861  0.0979
  912MPD2    C513355   4.412   0.228  15.559 -0.2937  0.9139 -0.0057
  912MPD2     H13356   4.389   0.188  15.927  0.2763 -0.2531 -0.0145
  912MPD2    H113357   4.353   0.032  15.530 -1.4133  0.6257  0.6167
  912MPD2    H213358   4.472   0.433  15.584  2.3303  1.9110  4.3680
  912MPD2    H313359   4.418   0.234  15.451  0.7271 -0.6570 -0.0214
  912MPD2     N13360   4.335   4.696  15.816  0.2932  0.7634 -0.4249
  912MPD2    H513361   4.329   4.700  15.918 -0.2149 -2.0650 -0.3477
  912MPD2    N113362   4.460   0.446  15.851  0.1454 -0.4478 -0.6064
  912MPD2    H713363   4.508   0.524  15.808 -0.2251 -1.2711 -2.4816
  913MPD2     C13364   0.694   1.591  10.799  0.1169  0.1017 -0.9963
  913MPD2    C113365   0.775   1.478  10.770  0.0187 -0.0387  0.5415
  913MPD2    C213366   0.832   1.466  10.645  0.7364  0.1765  0.0799
  913MPD2    C313367   0.803   1.562  10.550 -0.1776  0.1051 -0.5157
  913MPD2    C413368   0.717   1.665  10.576 -0.0363 -0.1958  0.0515
  913MPD2    C513369   0.663   1.679  10.705 -0.1537 -0.2307  0.8895
  913MPD2     H13370   0.897   1.388  10.609  0.3054 -0.4082  0.5654
  913MPD2    H113371   0.701   1.740  10.500 -2.2726  0.2168  0.9286
  913MPD2    H213372   0.662   1.602  10.902  3.0614  1.2503 -0.2090
  913MPD2    H313373   0.600   1.763  10.732  1.3965  0.7533  1.5281
  913MPD2     N13374   0.860   1.564  10.423 -0.5160  0.1249  0.1607
  913MPD2    H513375   0.830   1.638  10.360 -2.3420 -0.7553 -0.0060
  913MPD2    N113376   0.793   1.382  10.874 -0.0338  0.2172  1.0618
  913MPD2    H713377   0.751   1.409  10.963  0.4823 -2.0761  1.9929
  914MPD2     C13378   2.974   2.014  11.892  0.1715  0.0620  0.2341
  914MPD2    C113379   3.045   2.115  11.954 -0.0343  1.0283 -0.1280
  914MPD2    C213380   3.138   2.079  12.056  0.4216  0.5087  0.2938
  914MPD2    C313381   3.159   1.948  12.090  0.2397  0.3849 -0.0303
  914MPD2    C413382   3.087   1.848  12.029 -0.0445  0.1540  0.2609
  914MPD2    C513383   3.006   1.887  11.920 -0.2526  0.6020 -0.1649
  914MPD2     H13384   3.184   2.154  12.120 -3.0519  3.2054 -0.3447
  914MPD2    H113385   3.098   1.741  12.038  0.0890  0.0468 -1.1115
  914MPD2    H213386   2.905   2.032  11.811  0.3885 -1.0067 -0.1869
  914MPD2    H313387   2.950   1.808  11.871 -1.3691  0.9096  0.6138
  914MPD2     N13388   3.252   1.935  12.191  0.2688 -0.2469  0.3044
  914MPD2    H513389   3.289   2.023  12.227  0.0431 -0.2010  0.4182
  914MPD2    N113390   3.010   2.246  11.926  0.4257 -0.1926  0.1173
  914MPD2    H713391   2.922   2.262  11.878 -0.4792 -2.4215  1.0211
  915MPD2     C13392   1.450   1.984  15.548  0.1482 -0.6784 -0.2040
  915MPD2    C113393   1.339   1.915  15.571 -0.7645  0.5476  0.3923
  915MPD2    C213394   1.308   1.862  15.695  0.7890 -0.0999  0.2747
  915MPD2    C313395   1.384   1.905  15.804 -0.4923  0.0354  0.4718
  915MPD2    C413396   1.490   1.987  15.777  0.4052 -0.0066 -0.0147
  915MPD2    C513397   1.534   2.008  15.648 -0.8995  0.3117 -0.6482
  915MPD2     H13398   1.213   1.811  15.701  0.3826  0.8593  1.8308
  915MPD2    H113399   1.540   2.028  15.864  1.0587  1.7133 -1.2020
  915MPD2    H213400   1.489   2.018  15.453 -0.0646  3.0596  1.0532
  915MPD2    H313401   1.624   2.064  15.623  0.0086  0.1327  2.2048
  915MPD2     N13402   1.328   1.872  15.931 -0.0327  0.3001 -0.4770
  915MPD2    H513403   1.241   1.819  15.934 -1.4897  2.8020  1.0427
  915MPD2    N113404   1.252   1.887  15.458 -0.6114 -0.4788  0.0896
  915MPD2    H713405   1.286   1.915  15.366  1.1463  0.8380  1.1409
  916MPD2     C13406   4.115   0.303  15.368 -0.4540  0.6975  0.3804
  916MPD2    C113407   4.082   0.191  15.437  0.6175  0.1150 -0.4248
  916MPD2    C213408   4.099   0.066  15.375  0.2843 -0.0280 -0.2352
  916MPD2    C313409   4.156   0.051  15.252  0.2839 -0.4551  0.3824
  916MPD2    C413410   4.195   0.170  15.189 -0.1190  0.5050  0.5540
  916MPD2    C513411   4.174   0.293  15.245  0.3125  0.0726  0.0045
  916MPD2     H13412   4.062   4.695  15.425 -2.3839  1.4209  0.3891
  916MPD2    H113413   4.235   0.168  15.088  0.2374 -0.5193  0.7109
  916MPD2    H213414   4.107   0.400  15.415 -1.4822  1.0282 -0.4776
  916MPD2    H313415   4.202   0.387  15.198  3.7219 -1.0268 -0.1823
  916MPD2     N13416   4.175   4.641  15.198  0.6621 -0.1102  0.1532
  916MPD2    H513417   4.135   4.561  15.246 -2.3796  1.2342 -0.1310
  916MPD2    N113418   4.023   0.202  15.566  0.1210 -0.7963 -0.0464
  916MPD2    H713419   3.995   0.293  15.602 -0.6465 -0.1237 -2.2841
  917MPD2     C13420   4.543   2.262  10.903 -0.0403  0.0470 -0.0029
  917MPD2    C113421   4.564   2.354  11.005 -0.1030 -0.3484  1.1397
  917MPD2    C213422   4.661   2.456  10.989  0.0887  0.3151  0.2137
  917MPD2    C313423   0.019   2.460  10.870 -0.9523  0.1005  0.3081
  917MPD2    C413424   0.015   2.356  10.781 -0.1709  0.7475 -0.1386
  917MPD2    C513425   4.636   2.260  10.797 -0.2215  0.3115 -0.8022
  917MPD2     H13426   4.677   2.540  11.056  0.6750  0.8727 -0.6229
  917MPD2    H113427   0.075   2.345  10.692 -2.1624 -0.3254 -1.3663
  917MPD2    H213428   4.469   2.184  10.910  0.5903 -0.6674 -1.3720
  917MPD2    H313429   4.621   2.173  10.734  1.8680 -1.6021  1.3080
  917MPD2     N13430   0.122   2.555  10.842  0.0834  0.0186  0.8762
  917MPD2    H513431   0.180   2.534  10.761 -1.3089  0.4330 -0.2160
  917MPD2    N113432   4.495   2.338  11.128  0.1517  0.0603 -0.2518
  917MPD2    H713433   4.421   2.268  11.133 -0.4371  0.5864 -1.5333
  918MPD2     C13434   0.082   2.841  11.906 -1.0157  0.1289  0.1000
  918MPD2    C113435   0.147   2.740  11.836  0.5487 -0.3031  0.2902
  918MPD2    C213436   0.072   2.668  11.746  0.0432  0.1008  0.1333
  918MPD2    C313437   4.649   2.674  11.752  0.2982 -0.5933 -0.9096
  918MPD2    C413438   4.590   2.776  11.816  0.6523  0.3331  0.2766
  918MPD2    C513439   4.667   2.856  11.893 -0.1221  0.1799 -0.2247
  918MPD2     H13440   0.123   2.587  11.695  2.0818  1.5132 -0.0697
  918MPD2    H113441   4.483   2.794  11.812  0.6516  0.0873 -0.7549
  918MPD2    H213442   0.141   2.905  11.971 -0.8835  0.4373 -0.3252
  918MPD2    H313443   4.616   2.940  11.939 -1.5390  0.1966 -1.8269
  918MPD2     N13444   4.582   2.591  11.668  0.1216 -0.0390 -0.8957
  918MPD2    H513445   4.642   2.551  11.596  0.3004  0.9540 -1.2918
  918MPD2    N113446   0.281   2.699  11.842 -0.1928 -0.3180 -0.3440
  918MPD2    H713447   0.311   2.624  11.780  0.9525  1.4561 -1.9378
  919MPD2     C13448   0.331   1.525  11.657  0.2315  0.2935 -0.4731
  919MPD2    C113449   0.314   1.394  11.619 -0.1505  0.5586  0.5169
  919MPD2    C213450   0.321   1.356  11.487  0.0994  0.7404 -0.3762
  919MPD2    C313451   0.349   1.456  11.393  0.3496  0.4592 -0.5791
  919MPD2    C413452   0.365   1.593  11.429 -0.3290  0.1318 -0.5440
  919MPD2    C513453   0.338   1.622  11.562 -0.0011  0.8534 -0.5564
  919MPD2     H13454   0.306   1.251  11.468 -1.7898  0.1040  4.5298
  919MPD2    H113455   0.396   1.670  11.360  3.1475 -0.8540 -0.1330
  919MPD2    H213456   0.321   1.553  11.762  0.5403 -0.6767 -0.1795
  919MPD2    H313457   0.341   1.724  11.601  1.4204  0.5302  0.1782
  919MPD2     N13458   0.368   1.426  11.260 -0.2060  0.1493 -0.7876
  919MPD2    H513459   0.388   1.503  11.197 -0.0139  2.3129  1.8790
  919MPD2    N113460   0.295   1.287  11.709  0.2510  0.0799 -0.3712
  919MPD2    H713461   0.290   1.195  11.666  0.2559 -0.5682  1.0257
  920MPD2     C13462   0.075   1.868  10.481  0.1850 -0.3955 -0.1264
  920MPD2    C113463   0.029   1.739  10.465 -0.2079 -0.6588 -1.1333
  920MPD2    C213464   0.085   1.646  10.546  0.3363  0.2831  0.7130
  920MPD2    C313465   0.193   1.670  10.629 -0.0469  0.6548 -0.6170
  920MPD2    C413466   0.227   1.800  10.656 -0.8734 -0.2128  0.2122
  920MPD2    C513467   0.157   1.895  10.585 -0.4601  0.0657  0.2259
  920MPD2     H13468   0.053   1.544  10.534  0.6009  0.5027 -1.9646
  920MPD2    H113469   0.306   1.836  10.721  0.3449 -0.6081 -1.0489
  920MPD2    H213470   0.038   1.952  10.423  3.2419  0.2772 -1.0796
  920MPD2    H313471   0.175   1.999  10.609 -2.2933  0.2517  0.8177
  920MPD2     N13472   0.248   1.561  10.698 -0.6543 -0.2088  0.3201
  920MPD2    H513473   0.226   1.471  10.658  1.4596 -1.0425  1.0497
  920MPD2    N113474   4.642   1.708  10.380  0.2471 -0.7588 -0.0717
  920MPD2    H713475   4.606   1.614  10.372  0.8698 -1.0786  0.9939
  921MPD2     C13476   1.108   0.193  16.933 -1.0504 -0.3739  0.1324
  921MPD2    C113477   1.123   0.249  16.807 -0.2605  0.2276 -0.3826
  921MPD2    C213478   1.032   0.202  16.719 -0.1359 -0.0826 -0.8026
  921MPD2    C313479   0.940   0.098  16.737  0.1232  0.8041 -0.2240
  921MPD2    C413480   0.933   0.044  16.860  0.1108  0.0844 -0.0129
  921MPD2    C513481   1.013   0.096  16.957 -0.5624 -0.0723 -0.1015
  921MPD2     H13482   1.037   0.237  16.616 -2.7124 -1.5304 -1.4088
  921MPD2    H113483   0.872   4.677  16.889 -0.1165  0.3193  0.1962
  921MPD2    H213484   1.175   0.217  17.015 -0.5967 -3.0525  0.5431
  921MPD2    H313485   1.011   0.042  17.051 -3.1401  0.0957 -0.0706
  921MPD2     N13486   0.868   0.033  16.631  0.1119  0.2705 -0.4104
  921MPD2    H513487   0.795   4.687  16.661 -1.4111  1.8180 -0.8019
  921MPD2    N113488   1.236   0.326  16.781  0.4290  0.2140  0.0020
  921MPD2    H713489   1.305   0.333  16.856  0.5485 -1.1256  0.0124
  922MPD2     C13490   2.164   3.108  17.235 -0.3356  0.3533  0.1796
  922MPD2    C113491   2.042   3.168  17.217 -0.7608  0.4461 -0.4580
  922MPD2    C213492   1.926   3.110  17.272  0.4841 -0.5454 -0.2353
  922MPD2    C313493   1.934   2.990  17.336 -0.0418 -0.1044 -0.2178
  922MPD2    C413494   2.054   2.927  17.351  0.4227 -0.2869  0.0508
  922MPD2    C513495   2.168   2.985  17.297  0.1693 -0.5478  0.3871
  922MPD2     H13496   1.833   3.162  17.253  0.1451 -0.7899  0.7182
  922MPD2    H113497   2.066   2.827  17.393 -0.1379 -1.6545 -3.0216
  922MPD2    H213498   2.260   3.148  17.205 -0.2429 -0.2750 -0.3756
  922MPD2    H313499   2.257   2.926  17.316 -0.1310 -0.1098  3.1387
  922MPD2     N13500   1.812   2.942  17.395  0.0730 -0.6001 -0.1406
  922MPD2    H513501   1.729   2.995  17.368 -0.1733 -0.8049  0.2195
  922MPD2    N113502   2.024   3.289  17.158  0.4235 -0.3306  0.0230
  922MPD2    H713503   1.934   3.332  17.180  0.8864  0.5612  0.1814
  923MPD2     C13504   3.483   0.021   8.734 -0.6659  0.6985  0.1168
  923MPD2    C113505   3.390   0.009   8.839  0.8564 -0.3466 -0.1383
  923MPD2    C213506   3.430   4.664   8.954 -1.0543 -0.1976  0.1183
  923MPD2    C313507   3.561   4.614   8.972 -0.2262  0.5497  0.4325
  923MPD2    C413508   3.650   4.631   8.865 -0.1100 -0.1759  0.3801
  923MPD2    C513509   3.610   4.702   8.751  0.3158 -0.4003  0.2401
  923MPD2     H13510   3.357   4.636   9.030 -1.4602 -0.7391 -0.4709
  923MPD2    H113511   3.751   4.591   8.873  0.7888  1.8457 -0.9272
  923MPD2    H213512   3.455   0.074   8.643  1.3543  1.8124  0.1228
  923MPD2    H313513   3.679   4.709   8.667  0.4827 -0.8403  0.3396
  923MPD2     N13514   3.604   4.543   9.086 -0.0712 -0.3176  0.2093
  923MPD2    H513515   3.693   4.496   9.080 -0.2013 -0.5636  0.1921
  923MPD2    N113516   3.249   0.045   8.815 -0.0981 -0.2148  0.5204
  923MPD2    H713517   3.231   0.091   8.727 -0.4731 -1.1194  0.1246
  924MPD2     C13518   3.386   2.960  15.613  0.6467  0.3374  0.2185
  924MPD2    C113519   3.383   2.966  15.753  0.7509 -0.7634 -0.0021
  924MPD2    C213520   3.430   3.086  15.806 -0.7299  0.1412 -0.0921
  924MPD2    C313521   3.472   3.188  15.726  0.2197 -0.6036  0.3213
  924MPD2    C413522   3.479   3.176  15.585 -0.2375  0.7064 -0.1712
  924MPD2    C513523   3.438   3.058  15.533  0.0444  1.1076  0.2535
  924MPD2     H13524   3.423   3.106  15.913 -1.8312 -1.6424  0.1772
  924MPD2    H113525   3.522   3.259  15.531  2.0917  0.4431  1.2518
  924MPD2    H213526   3.350   2.873  15.559 -2.2884  0.5792  1.7880
  924MPD2    H313527   3.434   3.041  15.426  0.6602  0.0202  0.4029
  924MPD2     N13528   3.504   3.316  15.777 -0.0237 -0.7103  0.1522
  924MPD2    H513529   3.501   3.389  15.707 -0.0876  1.1747  2.1212
  924MPD2    N113530   3.313   2.876  15.828  0.2660  0.3116  0.2713
  924MPD2    H713531   3.266   2.802  15.776  0.9773 -0.0684  0.1766
  925MPD2     C13532   2.154   1.002  14.753 -0.3906 -0.3308 -0.5936
  925MPD2    C113533   2.029   1.048  14.747 -0.0445 -0.2534 -0.4815
  925MPD2    C213534   1.953   1.037  14.857  0.3661  0.0513 -0.3330
  925MPD2    C313535   1.989   0.979  14.976 -0.3316 -0.1298 -0.6082
  925MPD2    C413536   2.124   0.930  14.976 -0.3076  0.0069  0.2500
  925MPD2    C513537   2.204   0.952  14.865 -0.7554  0.2953 -0.0796
  925MPD2     H13538   1.854   1.080  14.849 -1.0843 -3.3127 -0.4740
  925MPD2    H113539   2.164   0.884  15.065  0.9774 -0.8073 -0.7513
  925MPD2    H213540   2.226   1.008  14.672  0.7109 -0.3153  0.3849
  925MPD2    H313541   2.311   0.934  14.871 -1.2701 -2.5046  0.6539
  925MPD2     N13542   1.916   0.973  15.091 -0.0175 -0.2162 -0.3386
  925MPD2    H513543   1.969   0.933  15.168  2.1566  1.0758 -1.1791
  925MPD2    N113544   1.979   1.126  14.637 -0.4381  0.0930 -0.1080
  925MPD2    H713545   1.887   1.169  14.645 -0.1775  1.2044 -3.2468
  926MPD2     C13546   1.003   4.503  13.529 -0.2388  0.1829  0.5509
  926MPD2    C113547   0.917   4.572  13.445  0.1842  0.3589 -0.2300
  926MPD2    C213548   0.961   4.589  13.317  0.2560  0.4181  0.3187
  926MPD2    C313549   1.089   4.555  13.269  0.1899 -0.0327 -0.3630
  926MPD2    C413550   1.167   4.487  13.354 -0.3481 -0.3879 -0.4394
  926MPD2    C513551   1.125   4.457  13.482  0.9608 -0.0650  0.0029
  926MPD2     H13552   0.886   4.631  13.251 -0.8063  0.8549  1.7770
  926MPD2    H113553   1.261   4.446  13.319 -0.3340  2.0277 -3.2194
  926MPD2    H213554   0.977   4.481  13.632 -0.4946 -0.3422  0.3723
  926MPD2    H313555   1.185   4.399  13.551  0.5633  2.1362  2.2142
  926MPD2     N13556   1.132   4.573  13.134 -0.2205  0.3518  0.0226
  926MPD2    H513557   1.223   4.534  13.113  0.2185  1.2967  0.1362
  926MPD2    N113558   0.783   4.606  13.476  0.5035  0.2796 -0.0274
  926MPD2    H713559   0.746   4.680  13.417  0.1183 -0.2011 -0.3895
  927MPD2     C13560   0.567   1.164  17.629 -0.5257  0.2604  0.2301
  927MPD2    C113561   0.524   1.292  17.635  1.6226  0.0619  0.0550
  927MPD2    C213562   0.573   1.377  17.536 -0.1173 -0.0913 -0.3131
  927MPD2    C313563   0.641   1.321  17.427  0.7011  0.6776 -0.0929
  927MPD2    C413564   0.687   1.190  17.428 -0.0951 -0.1044 -0.2466
  927MPD2    C513565   0.643   1.111  17.528 -0.3132  0.5603  0.0580
  927MPD2     H13566   0.543   1.480  17.521 -0.0278 -0.3808 -2.4987
  927MPD2    H113567   0.757   1.149  17.356 -0.8472  0.9638 -1.6066
  927MPD2    H213568   0.531   1.092   0.026  0.9956 -1.1054 -0.3715
  927MPD2    H313569   0.683   1.010  17.537 -1.7881  0.0412  0.6781
  927MPD2     N13570   0.670   1.411  17.326  0.1746 -0.2077 -0.0274
  927MPD2    H513571   0.642   1.507  17.346  1.8562  0.5408 -1.1945
  927MPD2    N113572   0.448   1.339   0.071 -0.2867 -0.3803 -0.2670
  927MPD2    H713573   0.403   1.264   0.123 -1.1803  0.7454  0.5811
  928MPD2     C13574   3.571   0.397   0.997  0.0790 -0.0511  0.7358
  928MPD2    C113575   3.681   0.474   0.997  0.6162 -0.6583  0.4941
  928MPD2    C213576   3.748   0.503   0.881  0.1641  0.9697  0.9322
  928MPD2    C313577   3.693   0.458   0.757  1.1261  0.5384  0.3186
  928MPD2    C413578   3.583   0.380   0.755  0.5214  0.7622  0.5802
  928MPD2    C513579   3.524   0.357   0.878  0.3867  0.5561  0.2675
  928MPD2     H13580   3.833   0.568   0.896  1.3916 -0.7813  1.4563
  928MPD2    H113581   3.531   0.340   0.669  0.9374 -0.0577  0.7099
  928MPD2    H213582   3.514   0.376   1.086  0.0660  0.3554  0.8212
  928MPD2    H313583   3.425   0.313   0.887 -0.3723  2.5302  1.5737
  928MPD2     N13584   3.744   0.502   0.628  0.2107 -0.0068 -0.0301
  928MPD2    H513585   3.686   0.479   0.547  1.3031  0.0477 -0.8188
  928MPD2    N113586   3.734   0.535   1.111 -0.7229 -0.4460  0.2849
  928MPD2    H713587   3.817   0.592   1.097 -1.6781  0.9342  0.1652
  929MPD2     C13588   3.696   0.076  10.467  0.7721  0.1726  0.1963
  929MPD2    C113589   3.624   0.003  10.371  0.1430  0.6282  0.2233
  929MPD2    C213590   3.584   0.067  10.255 -0.3492 -0.1544 -0.2513
  929MPD2    C313591   3.619   0.196  10.232 -0.4772  0.4268  0.1679
  929MPD2    C413592   3.699   0.262  10.322 -0.0334 -0.3439  1.1827
  929MPD2    C513593   3.737   0.206  10.439  0.5142  0.6766  0.2705
  929MPD2     H13594   3.538   0.012  10.174 -1.4202  0.1104  0.1738
  929MPD2    H113595   3.739   0.362  10.308  2.8777 -1.8685 -1.2529
  929MPD2    H213596   3.715   0.038  10.567 -1.5947 -2.0697 -0.2078
  929MPD2    H313597   3.783   0.269  10.513 -0.2025  0.1794  1.1420
  929MPD2     N13598   3.579   0.270  10.118 -0.4378  0.0752  0.4230
  929MPD2    H513599   3.608   0.367  10.112  0.6478 -0.3924 -1.8578
  929MPD2    N113600   3.584   4.590  10.414  0.3942 -0.1521 -0.8046
  929MPD2    H713601   3.617   4.556  10.504 -0.8480  0.3860 -0.1521
  930MPD2     C13602   0.378   2.740  14.251  0.1084 -0.2781  0.3096
  930MPD2    C113603   0.364   2.792  14.124  0.3544 -0.1402  0.1280
  930MPD2    C213604   0.281   2.732  14.034  0.3123  0.4950 -0.3494
  930MPD2    C313605   0.214   2.610  14.064  0.2744  0.8084 -0.2435
  930MPD2    C413606   0.237   2.557  14.187 -0.0580  0.2249 -1.1167
  930MPD2    C513607   0.320   2.618  14.280 -0.4737  0.2765  0.4799
  930MPD2     H13608   0.266   2.780  13.937  0.9662 -0.6985 -1.0411
  930MPD2    H113609   0.200   2.458  14.212 -0.9347  0.7372 -0.3755
  930MPD2    H213610   0.430   2.784  14.336 -0.8579  0.1211  0.6926
  930MPD2    H313611   0.339   2.570  14.376  0.1029  1.6818  1.0730
  930MPD2     N13612   0.145   2.539  13.964 -0.4552  0.5180  0.3021
  930MPD2    H513613   0.115   2.445  13.987  1.0904 -0.4099 -1.4728
  930MPD2    N113614   0.442   2.911  14.106  0.0788  0.2097 -0.0243
  930MPD2    H713615   0.510   2.930  14.179  0.7424  0.3176 -0.6674
  931MPD2     C13616   0.560   1.081   0.576  0.1523 -0.1402  0.0247
  931MPD2    C113617   0.449   1.154   0.616 -0.0882 -0.2094 -0.2417
  931MPD2    C213618   0.376   1.114   0.727  0.3723  0.1260 -0.5897
  931MPD2    C313619   0.406   1.005   0.803  0.1910 -0.0925 -0.3100
  931MPD2    C413620   0.513   0.933   0.752 -0.8005 -0.3367 -0.4353
  931MPD2    C513621   0.587   0.970   0.644 -0.2026  0.1569 -0.0431
  931MPD2     H13622   0.293   1.178   0.756 -0.1446 -1.0869  0.6030
  931MPD2    H113623   0.538   0.839   0.799  1.5165  0.0599 -0.8621
  931MPD2    H213624   0.616   1.114   0.489  1.4543 -1.7188  0.2812
  931MPD2    H313625   0.674   0.910   0.618 -0.4824  0.3121 -1.3108
  931MPD2     N13626   0.329   0.939   0.899  0.5577 -0.1531  1.0341
  931MPD2    H513627   0.374   0.861   0.944  1.1459 -0.6609 -0.4262
  931MPD2    N113628   0.418   1.270   0.538  0.0817 -0.1944 -0.4017
  931MPD2    H713629   0.484   1.294   0.465  0.0043  1.9764  0.2307
  932MPD2     C13630   2.243   0.797  11.425  0.3750  0.6850 -0.8254
  932MPD2    C113631   2.237   0.924  11.479  0.1062  0.6247 -0.4203
  932MPD2    C213632   2.271   0.945  11.613 -0.0150  0.6532  0.4143
  932MPD2    C313633   2.296   0.836  11.698 -0.4235 -0.2235 -0.0171
  932MPD2    C413634   2.300   0.706  11.643 -0.7245 -0.2653 -0.5938
  932MPD2    C513635   2.283   0.693  11.505 -0.0531  0.0361  0.0774
  932MPD2     H13636   2.269   1.046  11.651  1.2703 -0.4220  3.3034
  932MPD2    H113637   2.315   0.621  11.709  2.1252  0.5267 -0.2264
  932MPD2    H213638   2.212   0.773  11.324 -4.1672 -1.0015  0.9902
  932MPD2    H313639   2.276   0.589  11.475 -3.4824 -0.3261  2.1236
  932MPD2     N13640   2.325   0.841  11.834  0.6114 -0.1002 -0.4783
  932MPD2    H513641   2.314   0.751  11.878 -0.2755  0.5016  0.5251
  932MPD2    N113642   2.198   1.042  11.406 -0.0231  0.5665  0.1715
  932MPD2    H713643   2.187   1.127  11.461  2.5345 -0.9151  3.0070
  933MPD2     C13644   3.827   1.179   1.726  0.0558 -0.4314 -0.0631
  933MPD2    C113645   3.743   1.133   1.631 -0.8127  0.1345 -0.1629
  933MPD2    C213646   3.630   1.207   1.599  0.3218  0.0232 -0.4647
  933MPD2    C313647   3.603   1.328   1.661  0.0770 -0.1465 -0.0383
  933MPD2    C413648   3.693   1.376   1.756  0.0494  0.1736  0.2006
  933MPD2    C513649   3.807   1.301   1.789  0.6816 -0.5369  0.4575
  933MPD2     H13650   3.555   1.172   1.529  0.7127 -2.3645  0.2934
  933MPD2    H113651   3.679   1.479   1.788 -0.1722  1.4237 -3.9032
  933MPD2    H213652   3.902   1.115   1.770  0.8145  1.1394  0.9453
  933MPD2    H313653   3.887   1.332   1.856 -0.5846 -2.3211  2.7644
  933MPD2     N13654   3.504   1.416   1.614 -0.9521 -0.0963 -0.0518
  933MPD2    H513655   3.457   1.382   1.530  0.0733 -0.3041 -0.5415
  933MPD2    N113656   3.783   1.008   1.585 -0.5220 -0.1679  0.2468
  933MPD2    H713657   3.861   0.965   1.633  0.7588  1.3736 -0.4977
  934MPD2     C13658   3.862   3.325   1.899 -0.0865 -0.1873  0.3860
  934MPD2    C113659   3.877   3.189   1.885  0.2321  0.5053 -0.2311
  934MPD2    C213660   3.767   3.105   1.893 -0.0189  0.3855 -0.6321
  934MPD2    C313661   3.638   3.161   1.903  0.2084 -0.1226  0.1184
  934MPD2    C413662   3.623   3.295   1.916 -0.0234 -1.0265 -0.1267
  934MPD2    C513663   3.735   3.376   1.907 -0.8138  0.3773 -0.4394
  934MPD2     H13664   3.781   2.998   1.885 -1.2846  0.0259  1.8678
  934MPD2    H113665   3.527   3.346   1.924 -0.4078 -1.3457 -2.7148
  934MPD2    H213666   3.942   3.397   1.894  0.4210 -0.9155 -1.9106
  934MPD2    H313667   3.734   3.483   1.921 -0.3906  0.3792 -0.4255
  934MPD2     N13668   3.516   3.095   1.883 -0.2009  0.3043  0.1894
  934MPD2    H513669   3.437   3.156   1.903 -0.5865 -0.9720  2.6002
  934MPD2    N113670   4.009   3.130   1.871  0.8251  0.1436  0.6943
  934MPD2    H713671   4.019   3.030   1.856  1.0086  0.3121 -0.2821
  935MPD2     C13672   3.921   2.522   1.459  1.0356 -0.3933  0.3214
  935MPD2    C113673   3.808   2.492   1.383  0.3457  0.7621  0.8573
  935MPD2    C213674   3.690   2.555   1.425  0.0268  0.0021  0.4308
  935MPD2    C313675   3.683   2.643   1.538  0.4528 -0.3180  0.7998
  935MPD2    C413676   3.802   2.655   1.614  0.2650 -0.1690 -0.0701
  935MPD2    C513677   3.912   2.601   1.571 -0.5209  0.6854 -0.7714
  935MPD2     H13678   3.601   2.540   1.365  0.3697 -0.1484 -0.0337
  935MPD2    H113679   3.806   2.714   1.705  0.0727 -0.6798  0.2688
  935MPD2    H213680   4.018   2.476   1.444  1.2252  0.4090 -0.8687
  935MPD2    H313681   3.999   2.626   1.630 -0.3190  0.4928 -0.9842
  935MPD2     N13682   3.568   2.714   1.583 -0.2308 -0.1049 -0.4595
  935MPD2    H513683   3.578   2.764   1.670  1.5601  1.6149 -1.6391
  935MPD2    N113684   3.800   2.409   1.268  0.9064  0.5410 -0.4655
  935MPD2    H713685   3.712   2.420   1.219  2.0272 -0.4165 -2.6436
  936MPD2     C13686   3.187   4.582  12.403 -0.1187 -0.5764 -0.2989
  936MPD2    C113687   3.225   4.583  12.534  0.4098  0.4135  0.1930
  936MPD2    C213688   3.340   4.655  12.567  0.1674  0.1237  0.0902
  936MPD2    C313689   3.425   4.713  12.474 -0.5429  0.0849 -0.1485
  936MPD2    C413690   3.385   4.710  12.342 -0.2195 -0.0753  0.4719
  936MPD2    C513691   3.262   4.648  12.309 -0.4104 -0.3526 -0.5194
  936MPD2     H13692   3.379   4.647  12.668  1.8068 -1.5075 -0.6607
  936MPD2    H113693   3.447   0.035  12.264  2.1245 -0.1265  2.3042
  936MPD2    H213694   3.099   4.527  12.370 -1.1609 -0.2181  1.9296
  936MPD2    H313695   3.219   4.648  12.210  3.1864 -1.2918 -2.0938
  936MPD2     N13696   3.544   0.043  12.521  0.6343 -0.2170 -0.7530
  936MPD2    H513697   3.554   0.040  12.622  1.2445  0.7780 -0.7891
  936MPD2    N113698   3.149   4.539  12.646 -0.1553  0.0447  0.2291
  936MPD2    H713699   3.200   4.553  12.733  0.3379  0.2130 -0.0848
  937MPD2     C13700   0.514   0.591  11.726  0.2593 -0.0031  0.1571
  937MPD2    C113701   0.498   0.715  11.671  0.2252  0.3458 -0.1458
  937MPD2    C213702   0.591   0.774  11.593  0.1187  0.0137 -0.0854
  937MPD2    C313703   0.691   0.704  11.541 -0.4358  0.4464 -0.9042
  937MPD2    C413704   0.701   0.576  11.576 -0.6559  0.4580  0.6472
  937MPD2    C513705   0.620   0.521  11.670  0.4664  0.2959 -0.0989
  937MPD2     H13706   0.587   0.880  11.574  1.2441  0.0328 -0.1953
  937MPD2    H113707   0.775   0.509  11.533  0.8707  1.3444  1.8968
  937MPD2    H213708   0.446   0.552  11.801 -0.2427 -1.5197 -1.0663
  937MPD2    H313709   0.645   0.426  11.716  0.3069 -0.3203 -1.3045
  937MPD2     N13710   0.780   0.768  11.457  0.4668 -0.0996  0.4378
  937MPD2    H513711   0.757   0.865  11.436  0.6764 -0.1717 -0.1081
  937MPD2    N113712   0.409   0.810  11.734 -0.7129  0.5506 -0.5004
  937MPD2    H713713   0.417   0.899  11.686 -0.6279  0.3901 -0.7831
  938MPD2     C13714   2.789   2.425   0.913 -0.4396  0.6985 -0.3241
  938MPD2    C113715   2.918   2.447   0.958 -0.3356 -0.2065  0.4038
  938MPD2    C213716   2.956   2.399   1.090  0.6251 -0.5197 -0.1737
  938MPD2    C313717   2.873   2.302   1.152  0.1327  0.0211 -1.0827
  938MPD2    C413718   2.743   2.281   1.100  0.0575 -0.8428  0.0528
  938MPD2    C513719   2.709   2.337   0.986  0.2970 -0.1374  0.1889
  938MPD2     H13720   3.056   2.413   1.129  0.5496 -0.3760 -0.0300
  938MPD2    H113721   2.674   2.209   1.143 -2.5897  0.4115 -2.1267
  938MPD2    H213722   2.744   2.487   0.836  1.0711 -0.0860 -1.8494
  938MPD2    H313723   2.608   2.324   0.950  0.1209  1.1323  0.2176
  938MPD2     N13724   2.913   2.222   1.262  0.0534 -0.5333 -0.0655
  938MPD2    H513725   2.853   2.149   1.299 -1.2477  0.5877  0.0551
  938MPD2    N113726   3.006   2.538   0.886  0.0944 -0.1915 -0.2850
  938MPD2    H713727   3.083   2.577   0.939  0.4566 -1.9909  0.5305
  939MPD2     C13728   3.839   3.143   0.761  0.2424  1.0476 -0.7724
  939MPD2    C113729   3.900   3.264   0.727 -0.2054  0.6747  0.0743
  939MPD2    C213730   3.941   3.289   0.596 -0.1763  0.5710 -0.0033
  939MPD2    C313731   3.946   3.185   0.508 -0.8762  0.4489  0.3971
  939MPD2    C413732   3.887   3.063   0.544  0.4371 -0.2488 -0.6450
  939MPD2    C513733   3.829   3.048   0.668  0.4107  0.7404 -0.1579
  939MPD2     H13734   3.971   3.390   0.572 -1.1369  1.1711  1.3091
  939MPD2    H113735   3.881   2.981   0.474 -0.8617 -0.6106 -0.1037
  939MPD2    H213736   3.814   3.128   0.865 -1.3798  0.3133 -1.2741
  939MPD2    H313737   3.773   2.957   0.683  0.5911  0.0205 -3.9495
  939MPD2     N13738   4.022   3.212   0.395 -0.0706 -0.6438  0.1817
  939MPD2    H513739   4.061   3.305   0.383  1.2146 -1.4852 -2.2604
  939MPD2    N113740   3.906   3.363   0.824  0.0261 -0.2580 -0.4418
  939MPD2    H713741   3.854   3.349   0.909  2.2303 -2.3973  0.5423
  940MPD2     C13742   4.251   4.513  13.175 -1.0506  0.3595  0.1438
  940MPD2    C113743   4.179   4.396  13.171 -0.4325  0.0803  0.8724
  940MPD2    C213744   4.186   4.324  13.048 -0.2474  0.3536 -0.0158
  940MPD2    C313745   4.266   4.348  12.937 -0.5719  0.1538 -0.5661
  940MPD2    C413746   4.351   4.460  12.952  0.0076  0.6410 -0.4631
  940MPD2    C513747   4.339   4.530  13.073 -0.1138 -0.5346 -0.7957
  940MPD2     H13748   4.133   4.230  13.042 -0.5282  0.3538  2.3908
  940MPD2    H113749   4.415   4.491  12.870  1.8638  0.7837  1.0281
  940MPD2    H213750   4.255   4.573  13.265  0.1734 -0.0567  0.3740
  940MPD2    H313751   4.410   4.612  13.084 -1.0983  0.2573 -0.3884
  940MPD2     N13752   4.257   4.279  12.817 -0.0990  0.3314 -0.1463
  940MPD2    H513753   4.314   4.312  12.739  1.6895 -2.8894 -0.1868
  940MPD2    N113754   4.084   4.358  13.271 -0.0798  0.4281 -0.2289
  940MPD2    H713755   4.059   4.259  13.271  0.3915  0.3022 -3.6733
  941MPD2     C13756   2.546   2.845   9.369  0.4328  0.1830  0.3330
  941MPD2    C113757   2.616   2.789   9.474 -0.4402 -0.1051 -0.8605
  941MPD2    C213758   2.564   2.687   9.546 -0.4348  0.1246  0.2289
  941MPD2    C313759   2.436   2.647   9.531 -0.0439 -0.1972  0.0406
  941MPD2    C413760   2.364   2.699   9.428 -0.3006 -0.2211  0.1047
  941MPD2    C513761   2.422   2.792   9.350 -0.3507 -0.1381  0.3473
  941MPD2     H13762   2.630   2.654   9.626 -1.5202 -2.6326  0.0025
  941MPD2    H113763   2.258   2.679   9.414 -0.2512 -1.3154  1.3090
  941MPD2    H213764   2.584   2.932   9.317  0.3616  0.3590  0.5779
  941MPD2    H313765   2.350   2.836   9.281 -0.5781 -1.4249 -0.2420
  941MPD2     N13766   2.381   2.542   9.603  0.4835 -0.4788  0.1334
  941MPD2    H513767   2.282   2.525   9.588 -0.4564  5.1542 -0.0585
  941MPD2    N113768   2.751   2.819   9.505  0.5126  0.6694  0.5884
  941MPD2    H713769   2.794   2.753   9.569  0.0162  1.2391  1.5085
  942MPD2     C13770   2.437   3.865   9.464  0.3883 -0.4776  0.4612
  942MPD2    C113771   2.420   3.853   9.325 -0.1600 -0.1342 -0.4322
  942MPD2    C213772   2.478   3.939   9.240  0.4595  0.9386  0.8724
  942MPD2    C313773   2.575   4.030   9.287 -0.3089 -0.7647 -0.2609
  942MPD2    C413774   2.606   4.031   9.423 -1.1153  0.4766  0.2365
  942MPD2    C513775   2.526   3.957   9.513 -0.0028  0.2411 -0.3246
  942MPD2     H13776   2.456   3.943   9.134 -1.4711  0.7817  1.2683
  942MPD2    H113777   2.676   4.102   9.464 -2.4862  2.0134 -0.0713
  942MPD2    H213778   2.386   3.801   9.536 -2.3123 -0.3881 -1.4094
  942MPD2    H313779   2.543   3.977   9.618  1.0761 -0.8489 -0.2849
  942MPD2     N13780   2.661   4.108   9.207 -0.1529  0.6756 -0.5440
  942MPD2    H513781   2.739   4.151   9.256 -2.1649  1.7808  1.7106
  942MPD2    N113782   2.332   3.756   9.278  0.4094  0.3930  0.1181
  942MPD2    H713783   2.302   3.771   9.182 -1.9841 -2.3160  0.4359
  943MPD2     C13784   1.102   2.682   9.156 -0.2669  0.0003 -1.0518
  943MPD2    C113785   1.066   2.559   9.210 -0.5496 -0.1685 -0.0341
  943MPD2    C213786   0.930   2.523   9.218  0.3347  0.2654 -0.2647
  943MPD2    C313787   0.821   2.608   9.177 -0.0310  0.5192 -0.2174
  943MPD2    C413788   0.863   2.737   9.131  0.6330 -0.7936 -0.1041
  943MPD2    C513789   0.996   2.769   9.135 -0.2190 -0.2192  0.0779
  943MPD2     H13790   0.911   2.419   9.241 -2.0229  0.9305  0.7138
  943MPD2    H113791   0.798   2.818   9.099 -0.3994 -1.7740 -0.4505
  943MPD2    H213792   1.202   2.723   9.154 -0.0282 -0.7026 -3.2158
  943MPD2    H313793   1.005   2.869   9.094 -1.4226 -0.8350 -1.6768
  943MPD2     N13794   0.686   2.567   9.161  0.3005  0.3366 -0.0854
  943MPD2    H513795   0.617   2.640   9.145  0.0425  0.1162  0.0209
  943MPD2    N113796   1.167   2.470   9.255  0.2006 -0.6194  0.3121
  943MPD2    H713797   1.262   2.485   9.223  0.2635 -0.1347  0.7097
  944MPD2     C13798   1.532   1.413  11.276 -0.1430 -0.5958  0.0315
  944MPD2    C113799   1.583   1.508  11.195  0.3056  0.6121 -0.2874
  944MPD2    C213800   1.521   1.631  11.183  0.8021 -0.2164 -0.4370
  944MPD2    C313801   1.406   1.669  11.253 -0.6265 -0.2958  0.4556
  944MPD2    C413802   1.358   1.566  11.336  0.3511  0.0693  0.1022
  944MPD2    C513803   1.425   1.446  11.351 -0.0566 -1.1912  0.1803
  944MPD2     H13804   1.571   1.705  11.122 -1.5681  0.3850 -1.6837
  944MPD2    H113805   1.263   1.579  11.387 -0.7841 -1.3711 -1.6315
  944MPD2    H213806   1.564   1.309  11.282 -0.1976 -0.4890  2.2625
  944MPD2    H313807   1.376   1.367  11.407  0.7815 -1.4896  0.4873
  944MPD2     N13808   1.333   1.791  11.230 -0.6540  0.1739  0.7111
  944MPD2    H513809   1.368   1.850  11.155 -0.0009 -0.3049  0.6424
  944MPD2    N113810   1.681   1.459  11.106 -0.0716 -0.1675  0.1664
  944MPD2    H713811   1.732   1.379  11.141 -2.4512 -1.5726  0.4302
    1TCq1    O113812   3.216   2.831  14.321  0.0668  0.3000 -0.3943
    1TCq1    C113813   3.291   2.849  14.434  0.2543 -0.6898  0.6284
    1TCq1    O213814   3.247   2.865  14.546  0.4663 -0.7427 -0.1688
    1TCq1    C213815   3.403   2.924  14.387  0.1524  0.7626  0.4633
    1TCq1    C313816   3.510   2.860  14.333 -0.2850  0.6177  0.1444
    1TCq1    C413817   3.628   2.923  14.328  0.2186 -0.0725  0.1067
    1TCq1    C513818   3.638   3.052  14.367 -0.1934  0.0406  0.1808
    1TCq1    C613819   3.531   3.116  14.429  0.4465  0.3710 -0.2088
    1TCq1    C713820   3.419   3.052  14.449  0.4627 -0.6493 -0.5378
    1TCq1    C813821   3.542   3.252  14.486  0.3742  0.1868  0.3872
    1TCq1    O413822   3.439   3.294  14.531  0.1197  0.5023 -0.1354
    1TCq1    C913823   3.748   2.850  14.302 -0.0354  0.0434  0.4731
    1TCq1    O513824   3.728   2.740  14.238 -0.1419  0.3975  1.6854
    1TCq1    O613825   3.859   2.912  14.313 -0.3851  0.1736 -0.6871
    1TCq1    H113826   3.258   2.818  14.233  1.1106 -0.7715  0.2550
    1TCq1    H213827   3.508   2.755  14.308 -1.0092  0.3407  1.3273
    1TCq1    H313828   3.735   3.101  14.362  0.5475 -1.5693 -1.1080
    1TCq1    H413829   3.348   3.085  14.524  1.8036  0.3159  0.3030
    2MPD2     C13830   3.756   3.707  14.614 -0.7387  0.1088  0.4377
    2MPD2    C113831   3.816   3.650  14.502 -0.8866 -0.4913 -0.5288
    2MPD2    C213832   3.789   3.522  14.463  0.5467 -0.4266  0.1193
    2MPD2    C313833   3.693   3.448  14.529 -0.6046 -0.3390 -0.2270
    2MPD2    C413834   3.635   3.500  14.644 -0.3995  0.4697  0.0848
    2MPD2    C513835   3.663   3.633  14.678 -0.1583  0.2855 -0.4235
    2MPD2     H13836   3.835   3.484  14.372 -1.6343  1.1603 -1.6421
    2MPD2    H113837   3.556   3.447  14.694 -1.1460  0.1375 -1.4368
    2MPD2    H213838   3.788   3.807  14.640  0.3644 -0.4842  1.3679
    2MPD2    H313839   3.610   3.669  14.765  0.9362  1.4676 -0.2466
    2MPD2     N13840   3.662   3.319  14.465  0.3516  0.2548  0.0498
    2MPD2    H513841   3.735   3.282  14.405  0.5143  0.0483  0.3698
    2MPD2    N113842   3.896   3.729  14.415 -0.5109 -0.2665 -0.0075
    2MPD2    H713843   3.913   3.822  14.451 -1.5269  0.1257 -0.5367
    3TMC2    C113844   4.014   3.806  14.232  0.4848  1.3921  0.8166
    3TMC2    C213845   4.101   3.866  14.318  0.0935  0.2672 -0.8799
    3TMC2    C313846   4.149   3.992  14.285  0.0949 -0.1751  0.0731
    3TMC2    C413847   3.976   3.866  14.115 -0.1349 -0.8644  0.8193
    3TMC2    C513848   4.032   3.993  14.083  0.4719 -0.1535  0.2135
    3TMC2    C613849   4.115   4.054  14.166  0.2180 -0.0313  0.1331
    3TMC2     C13850   3.926   3.707  14.283  0.3389 -0.0289 -0.0345
    3TMC2     O13851   3.865   3.631  14.204  0.1940 -0.7632 -0.0169
    3TMC2     H13852   4.142   3.814  14.404 -1.2579 -0.0757 -0.4548
    3TMC2    H113853   3.898   3.822  14.054  0.2889  1.6007 -1.5059
    3TMC2    H213854   4.157   4.151  14.142  0.7022 -0.2902 -0.0706
    3TMC2    C713855   3.952   4.082  14.006 -0.3963 -0.3220  0.3469
    3TMC2    C813856   4.211   4.070  14.387  0.4457 -0.3127 -0.5944
    3TMC2    O113857   3.835   4.097  14.045 -0.2662  0.4837  0.2957
    3TMC2    O213858   4.306   4.026  14.442  0.2083  0.0254  0.1467
    3TMC2    O513859   4.196   4.207  14.364  0.5505 -0.2539  0.4982
    3TMC2    H513860   4.115   4.230  14.313 -1.6531 -0.6470  3.8294
    4MPD2     C13861   3.760   0.267  13.034 -0.0584  0.1897 -0.3449
    4MPD2    C113862   3.731   0.178  13.138 -0.8483 -0.0921 -0.2623
    4MPD2    C213863   3.833   0.132  13.215 -0.2364 -0.6093 -0.3341
    4MPD2    C313864   3.962   0.183  13.201  0.2833 -0.2905 -0.7090
    4MPD2    C413865   3.989   0.284  13.110  0.4543  0.1929 -0.7293
    4MPD2    C513866   3.883   0.325  13.025 -0.8116  0.1244 -0.9074
    4MPD2     H13867   3.819   0.050  13.285  1.3304  0.0924  0.7969
    4MPD2    H113868   4.091   0.318  13.095  2.1401 -3.9406  1.1504
    4MPD2    H213869   3.684   0.287  12.959 -1.0676  0.8187  0.8433
    4MPD2    H313870   3.908   0.381  12.936 -0.6258  0.1515 -0.8382
    4MPD2     N13871   4.064   0.127  13.284 -0.0372  0.4233 -0.2435
    4MPD2    H513872   4.033   0.047  13.339 -0.2425  0.0954 -0.8354
    4MPD2    N113873   3.606   0.121  13.140  0.1329 -0.4434  0.2395
    4MPD2    H713874   3.541   0.150  13.067  1.2933  0.8905 -0.2623
    5TCq2    C113875   4.198   0.159  13.272  0.0313 -0.1952  0.5386
    5TCq2    O213876   4.261   0.215  13.183 -0.0671  0.4519 -0.1937
    5TCq2    C213877   4.273   0.092  13.373 -0.0510  0.8741  0.3975
    5TCq2    C313878   4.409   0.085  13.350  0.2042 -0.6163 -0.2414
    5TCq2    C413879   4.489   4.712  13.418  0.5036 -0.6362 -0.1801
    5TCq2    C513880   4.436   4.631  13.510  0.1280 -0.2980 -0.1654
    5TCq2    C613881   4.300   4.643  13.544 -0.3951 -0.7066  0.0396
    5TCq2    C713882   4.222   0.015  13.484  0.0853  0.7666  0.0251
    5TCq2    C813883   4.234   4.538  13.623  0.1763 -0.0202  0.6899
    5TCq2    O413884   4.295   4.437  13.640  0.1309 -0.0168 -0.1775
    5TCq2    C913885   4.624   4.696  13.366 -0.3283  0.2622  1.4132
    5TCq2    O513886   4.699   4.624  13.435  0.5657  0.2220 -0.9632
    5TCq2    O613887   4.671   0.060  13.284 -0.0307 -0.4927 -0.0759
    5TCq2    H213888   4.469   0.130  13.272 -2.9836  2.9984 -0.5725
    5TCq2    H313889   4.493   4.554  13.563 -2.3138 -1.5913  0.5766
    5TCq2    H413890   4.114   0.015  13.497  0.0733  2.5286 -0.1503
    6MPD1     C13891   2.216   1.213  12.518 -0.1406  0.2121 -0.3529
    6MPD1    C113892   2.328   1.257  12.591 -0.3631  0.1561  0.6424
    6MPD1    C213893   2.423   1.168  12.636 -0.5308  0.4987  0.3881
    6MPD1    C313894   2.399   1.030  12.624  1.1225  0.3499 -0.4491
    6MPD1    C413895   2.283   0.988  12.557  0.0514 -0.5619  0.0336
    6MPD1    C513896   2.203   1.082  12.499  0.6488  0.0292 -0.3211
    6MPD1     H13897   2.515   1.207  12.678 -0.2073  2.3038 -1.9730
    6MPD1    H113898   2.248   0.886  12.546  0.2811 -0.6533  0.1631
    6MPD1    H213899   2.138   1.277  12.478  0.9099  2.6684  1.5064
    6MPD1    H313900   2.115   1.041  12.451  0.6866 -0.1865 -0.2030
    6MPD1     N13901   2.483   0.932  12.678  0.2283  0.0319  0.2542
    6MPD1    H513902   2.458   0.836  12.658 -0.2722  0.3581 -0.6822
    6MPD1    N113903   2.351   1.391  12.600  0.3120  0.2287 -0.4288
    6MPD1    H613904   2.399   1.409  12.689  0.9392 -0.2347 -0.6697
    6MPD1    H713905   2.262   1.439  12.606  0.7923  1.1731 -0.9053
    7MPD2     C13906   2.884   0.582  13.383 -0.7983  0.4290  0.6583
    7MPD2    C113907   2.914   0.548  13.253  0.1770 -0.0889 -0.0223
    7MPD2    C213908   2.987   0.434  13.231 -0.3875  0.1414  0.0424
    7MPD2    C313909   3.031   0.363  13.336 -0.1730  0.4364 -0.2044
    7MPD2    C413910   3.014   0.400  13.464  0.8398  1.1456 -0.1649
    7MPD2    C513911   2.938   0.511  13.486  0.7817  0.1337  0.7707
    7MPD2     H13912   2.999   0.401  13.128 -2.4650  1.8880 -0.7675
    7MPD2    H113913   3.042   0.343  13.552  0.8180 -1.7972 -2.0695
    7MPD2    H213914   2.809   0.658  13.400 -2.6042 -1.0914 -0.4682
    7MPD2    H313915   2.916   0.535  13.590 -3.2819 -2.5956  0.5774
    7MPD2     N13916   3.078   0.228  13.305 -0.8781  0.1538 -0.0700
    7MPD2    H513917   3.095   0.209  13.206 -2.0580 -0.7642 -0.0852
    7MPD2    N113918   2.878   0.618  13.137  0.2945 -0.2040  0.3950
    7MPD2    H713919   2.928   0.588  13.054 -0.1215  2.2777 -0.7431
    8TMC3    C113920   3.210   0.033  13.319 -0.5471  0.2780  0.4771
    8TMC3    C213921   3.344   0.019  13.334 -0.1172 -0.1720 -0.1964
    8TMC3    C313922   3.422   4.709  13.220 -0.0381 -0.8646  0.1545
    8TMC3    C413923   3.146   0.023  13.200 -0.1625 -0.0891 -0.0484
    8TMC3    C513924   3.227   4.703  13.091 -0.0234 -0.9843  0.5535
    8TMC3    C613925   3.361   4.692  13.101  0.3670  0.3283  0.7528
    8TMC3     C13926   3.150   0.144  13.391 -1.0803 -0.5748 -0.1948
    8TMC3     O13927   3.192   0.173  13.505  0.0082 -0.2913 -0.8319
    8TMC3     H13928   3.390   0.040  13.430 -0.7093  0.9459 -0.1571
    8TMC3    H113929   3.039   0.015  13.190 -0.1478 -0.5972  0.2078
    8TMC3    H213930   3.413   4.688  13.006  0.5122  1.3621  0.7827
    8TMC3    C713931   3.190   0.012  12.955  0.3812  0.1399  0.3472
    8TMC3    C813932   3.557   0.038  13.238  0.5677  0.5901 -0.3430
    8TMC3    O113933   3.244   4.656  12.870 -0.4247  0.5095 -0.1278
    8TMC3    O213934   3.616   0.002  13.343 -0.3685  0.1711  0.0168
    9TMC3    C113935   2.652   0.843  12.810 -0.2633  0.4255  0.0215
    9TMC3    C213936   2.655   0.733  12.731 -0.4627  0.1474 -0.4796
    9TMC3    C313937   2.669   0.612  12.792  0.3896 -0.8932  0.4714
    9TMC3    C413938   2.686   0.844  12.937  0.3935 -0.4318  0.3219
    9TMC3    C513939   2.723   0.723  12.993 -0.0202  0.0469 -0.0638
    9TMC3    C613940   2.706   0.608  12.926  0.0706  0.3285 -0.2177
    9TMC3     C13941   2.592   0.962  12.756  0.0502  0.0691 -0.1464
    9TMC3     O13942   2.634   1.067  12.794  0.0501 -0.1265  1.0852
    9TMC3     H13943   2.634   0.738  12.625 -0.8715 -0.6403 -0.4379
    9TMC3    H113944   2.697   0.938  12.990  1.8992 -2.0272  2.8441
    9TMC3    H213945   2.722   0.520  12.987  2.9716  0.4436 -0.8041
    9TMC3    C713946   2.779   0.717  13.134  0.0497  0.6387 -0.1220
    9TMC3    C813947   2.691   0.487  12.713  0.3735 -0.0435 -0.1560
    9TMC3    O113948   2.737   0.788  13.225  0.3932 -0.0407 -0.0097
    9TMC3    O213949   2.683   0.486  12.590  0.3717 -0.3267 -0.2461
   10MPD2     C13950   3.061   0.125  12.710 -0.2397 -0.3917  0.1226
   10MPD2    C113951   3.005   0.137  12.839  0.4733 -0.1582 -0.2874
   10MPD2    C213952   2.900   0.222  12.858 -0.4086 -0.3414 -0.5016
   10MPD2    C313953   2.848   0.297  12.748 -0.5251  0.2066 -0.2099
   10MPD2    C413954   2.899   0.283  12.623 -0.0314 -0.3400 -0.1005
   10MPD2    C513955   3.004   0.195  12.602  0.7463 -0.1761  0.2607
   10MPD2     H13956   2.859   0.236  12.957  1.4756 -1.4081  0.4164
   10MPD2    H113957   2.860   0.337  12.538 -2.4120 -0.9697  0.5984
   10MPD2    H213958   3.154   0.072  12.694 -0.0225  0.7454 -2.4360
   10MPD2    H313959   3.058   0.185  12.508  1.2746 -0.9833  0.6502
   10MPD2     N13960   2.747   0.392  12.795 -0.6419  0.3945 -0.1390
   10MPD2    H513961   2.729   0.401  12.894 -1.0052 -4.5065  0.2761
   10MPD2    N113962   3.072   0.085  12.956 -0.7333 -0.1177 -0.1523
   10MPD2    H713963   3.027   0.087  13.047 -1.5938 -0.2578 -0.5734
   11MPD2     C13964   3.855   4.338  13.890 -0.5748  0.4919  0.1441
   11MPD2    C113965   3.980   4.283  13.863 -0.1246  0.2690  0.8267
   11MPD2    C213966   4.069   4.354  13.789 -0.7399  0.5400  0.3005
   11MPD2    C313967   4.035   4.485  13.750  0.2364  0.1184 -0.9541
   11MPD2    C413968   3.926   4.544  13.796 -0.2933  0.5716 -0.0410
   11MPD2    C513969   3.831   4.467  13.863  0.0116  0.2198 -0.3589
   11MPD2     H13970   4.166   4.306  13.776 -0.9712  0.8523 -2.4848
   11MPD2    H113971   3.895   4.648  13.786 -2.1299 -0.1822 -2.0359
   11MPD2    H213972   3.783   4.279  13.945  0.1350 -0.5864 -0.1027
   11MPD2    H313973   3.738   4.508  13.900 -0.8006  0.2752 -2.4534
   11MPD2     N13974   4.122   4.577  13.681  0.3862  0.8424  0.0527
   11MPD2    H513975   4.078   4.667  13.666 -0.2515  0.3048 -1.4076
   11MPD2    N113976   4.029   4.163  13.925  0.0179  0.4118  0.2943
   11MPD2    H713977   4.123   4.137  13.900 -1.4268 -2.8736 -1.6270
    1MPD1     C13978   1.113   0.200   0.245 -0.0801 -0.8616  0.1657
    1MPD1    C113979   1.238   0.263   0.265  0.6291  0.1210  0.0560
    1MPD1    C213980   1.306   0.300   0.149 -0.0584  0.6069 -0.1446
    1MPD1    C313981   1.245   0.301   0.022  0.0470  0.5670 -0.0338
    1MPD1    C413982   1.120   0.242   0.012  0.0057  0.7162  0.1561
    1MPD1    C513983   1.058   0.192   0.119 -0.4773 -0.2071  0.1218
    1MPD1     H13984   1.407   0.340   0.156 -0.5091  1.8631 -0.7912
    1MPD1    H113985   1.076   0.217  17.591 -0.0459  1.4951 -0.0225
    1MPD1    H213986   1.067   0.151   0.330 -2.5916 -0.9457 -1.2690
    1MPD1    H313987   0.961   0.145   0.110  0.1659 -1.6814  0.8762
    1MPD1     N13988   1.313   0.329  17.573  0.2877  0.0481 -0.5940
    1MPD1    H513989   1.262   0.294  17.492 -0.8799  2.0194 -0.7083
    1MPD1    N113990   1.305   0.252   0.387 -0.2824  0.1290  0.2601
    1MPD1    H613991   1.378   0.323   0.388  0.4193 -0.5682 -0.5984
    1MPD1    H713992   1.236   0.265   0.460 -0.9087 -0.1244 -0.2843
    2MPD1     C13993   2.219   0.805  17.331 -0.1974 -0.4221 -0.1720
    2MPD1    C113994   2.134   0.837  17.432 -0.6584  0.1101  0.2423
    2MPD1    C213995   2.012   0.774  17.433 -0.2241 -0.0854 -0.5511
    2MPD1    C313996   1.975   0.689  17.334  0.4088  0.4140  0.3538
    2MPD1    C413997   2.050   0.680  17.218  0.5593 -0.5486 -0.3389
    2MPD1    C513998   2.175   0.738  17.221  1.0274 -0.2069  0.1659
    2MPD1     H13999   1.947   0.771  17.519 -0.7694  0.0452 -0.9567
    2MPD1    H114000   2.014   0.634  17.127  0.8580 -1.7788  0.1626
    2MPD1    H214001   2.318   0.849  17.333  0.4997 -1.9110 -1.8317
    2MPD1    H314002   2.242   0.736  17.136 -1.1756 -0.0938 -1.5819
    2MPD1     N14003   1.853   0.614  17.348  0.3922 -0.0435 -0.0504
    2MPD1    H514004   1.803   0.632  17.434 -2.2869 -1.5373 -1.2952
    2MPD1    N114005   2.173   0.905  17.543 -0.7749 -0.5150 -0.3231
    2MPD1    H614006   2.100   0.949  17.598 -0.0987  3.0572 -2.2982
    2MPD1    H714007   2.249   0.971  17.533 -0.7026 -0.8064 -1.6095
    3TMC3    C114008   1.661   0.511  17.288 -0.3547  0.7209  0.1116
    3TMC3    C214009   1.573   0.524  17.187 -0.2614  0.1599  0.0705
    3TMC3    C314010   1.448   0.476  17.204 -0.5748  0.0988  0.3557
    3TMC3    C414011   1.613   0.477  17.415  0.1732 -0.1831 -0.1286
    3TMC3    C514012   1.481   0.436  17.431 -0.1514 -0.0416 -0.2176
    3TMC3    C614013   1.395   0.436  17.322 -0.1475  0.5535  0.6658
    3TMC3     C14014   1.801   0.532  17.255  0.2078  0.1884  0.2149
    3TMC3     O14015   1.832   0.496  17.145  0.4597 -0.0603  0.4574
    3TMC3     H14016   1.607   0.531  17.084 -0.1043  0.7726  0.1687
    3TMC3    H114017   1.679   0.455  17.497  1.2342 -1.1544 -1.2396
    3TMC3    H214018   1.290   0.410  17.329  0.0210 -0.4510 -0.6683
    3TMC3    C714019   1.429   0.407  17.566  0.2233 -0.3859  0.2846
    3TMC3    C814020   1.341   0.501  17.110  0.4917  0.1587  0.0923
    3TMC3    O114021   1.502   0.442  17.656  1.0321  0.2689 -0.0532
    3TMC3    O214022   1.240   0.432  17.118 -0.0265 -0.6826  0.7932
    4MPD1     C14023   1.121   0.819  16.772  0.1387  0.6641  0.2545
    4MPD1    C114024   1.254   0.855  16.788 -0.1747  0.0396 -0.3348
    4MPD1    C214025   1.334   0.785  16.877  0.2204  0.2899  0.1876
    4MPD1    C314026   1.283   0.673  16.947  0.2551  0.1599  0.1491
    4MPD1    C414027   1.147   0.640  16.928  0.2643 -0.5771  0.3620
    4MPD1    C514028   1.069   0.709  16.835  0.0969 -0.1038 -0.0732
    4MPD1     H14029   1.430   0.827  16.905 -0.3111  1.3394  0.4294
    4MPD1    H114030   1.088   0.564  16.977  1.4155  0.2148  2.9864
    4MPD1    H214031   1.055   0.879  16.710 -0.0503  0.9468  0.7268
    4MPD1    H314032   0.963   0.684  16.830  0.6415 -2.0921 -1.9703
    4MPD1     N14033   1.368   0.613  17.040 -0.2615  0.2560  0.4930
    4MPD1    H514034   1.445   0.678  17.057  1.7637 -1.9526 -0.1960
    4MPD1    N114035   1.291   0.975  16.729 -0.1770  0.2415  0.3425
    4MPD1    H614036   1.391   0.997  16.725 -0.4037  1.5892  2.0892
    4MPD1    H714037   1.249   0.988  16.637 -0.7005 -1.7224  0.3119
    1TCq1    O114038   2.799   0.296  12.192 -0.2373  0.0645  0.0582
    1TCq1    C114039   2.833   0.427  12.206 -0.6600  0.3165  0.6527
    1TCq1    O214040   2.945   0.459  12.240  0.3106 -0.1840 -0.0856
    1TCq1    C214041   2.752   0.498  12.112  0.8209  0.4481  0.0055
    1TCq1    C314042   2.622   0.470  12.113 -0.0964  0.2880  0.1028
    1TCq1    C414043   2.537   0.542  12.034 -0.0680 -0.7086 -0.6007
    1TCq1    C514044   2.593   0.601  11.922 -1.0864 -0.1529  0.1888
    1TCq1    C614045   2.729   0.622  11.918 -0.3042 -0.5524  0.1043
    1TCq1    C714046   2.809   0.584  12.021 -0.2962 -1.3184  0.5382
    1TCq1    C814047   2.792   0.686  11.812 -0.3081 -0.6678  0.0963
    1TCq1    O414048   2.911   0.678  11.805  0.1232 -0.3684 -0.1931
    1TCq1    C914049   2.399   0.504  12.022 -0.7246  0.2336  0.1957
    1TCq1    O514050   2.363   0.409  12.090 -0.6197  0.4320 -0.1704
    1TCq1    O614051   2.335   0.564  11.937 -0.1221 -0.2258 -0.3930
    1TCq1    H114052   2.728   0.294  12.124 -0.8262  0.7033  0.6501
    1TCq1    H214053   2.574   0.425  12.200 -1.5744 -0.0158 -0.8785
    1TCq1    H314054   2.523   0.626  11.843 -2.1412  0.6765  1.3741
    1TCq1    H414055   2.913   0.611  12.033 -0.2969 -1.2874  0.4741
    2MPD1     C14056   2.790   0.857  11.335  0.3345 -0.2454 -0.6340
    2MPD1    C114057   2.669   0.885  11.392 -0.5952 -0.3996  0.1905
    2MPD1    C214058   2.645   0.836  11.516  0.0672  0.1571  0.9684
    2MPD1    C314059   2.743   0.788  11.592  0.1469 -0.3710  0.2075
    2MPD1    C414060   2.865   0.766  11.535 -0.2219 -0.3666 -0.8217
    2MPD1    C514061   2.882   0.794  11.403  0.0662  0.3907  0.4811
    2MPD1     H14062   2.547   0.845  11.561  0.0165 -0.6472  1.0176
    2MPD1    H114063   2.948   0.724  11.590 -1.5298 -2.8978 -0.7764
    2MPD1    H214064   2.822   0.883  11.235  1.9346 -1.2215 -0.3607
    2MPD1    H314065   2.979   0.794  11.354 -1.0878 -1.7282 -1.7807
    2MPD1     N14066   2.710   0.747  11.721  0.0959  0.0396 -0.9707
    2MPD1    H514067   2.614   0.768  11.748  0.5899  0.3323  0.5883
    2MPD1    N114068   2.569   0.947  11.309 -0.1058  0.5500 -0.3941
    2MPD1    H614069   2.606   1.033  11.269  2.7278 -1.2476 -1.6120
    2MPD1    H714070   2.489   0.974  11.365  1.1958  1.5028  0.9772
    1TCq1    O114071   3.838   1.290   9.155 -0.0144 -0.4999  0.1960
    1TCq1    C114072   3.711   1.282   9.195 -0.2530 -0.0403  0.2970
    1TCq1    O214073   3.662   1.195   9.266 -0.2360  0.3400 -0.1011
    1TCq1    C214074   3.636   1.376   9.113 -0.7327  0.7436  0.2191
    1TCq1    C314075   3.705   1.491   9.073 -0.6686  0.2861 -0.4234
    1TCq1    C414076   3.628   1.589   9.022  0.0154  0.3079 -0.2862
    1TCq1    C514077   3.500   1.555   8.972  0.4668 -0.8275 -0.6491
    1TCq1    C614078   3.434   1.440   9.011  0.2523 -0.7898 -0.4017
    1TCq1    C714079   3.501   1.346   9.085  0.0844 -0.3787  0.1250
    1TCq1    C814080   3.291   1.420   8.981 -0.0734 -0.3515 -0.2488
    1TCq1    O414081   3.257   1.302   8.962 -0.0750 -0.3272  0.6829
    1TCq1    C914082   3.689   1.709   8.965  0.2657 -0.5393  0.5236
    1TCq1    O514083   3.618   1.791   8.902 -0.3566 -0.2236 -0.4104
    1TCq1    O614084   3.816   1.712   8.969  0.1599  0.5071 -1.0433
    1TCq1    H114085   3.848   1.341   9.072  1.3137 -1.8252 -0.4691
    1TCq1    H214086   3.807   1.520   9.094 -0.7289  1.5072 -1.8598
    1TCq1    H314087   3.466   1.625   8.896 -0.2074 -1.2641 -0.7437
    1TCq1    H414088   3.455   1.252   9.112  1.9700 -2.0637 -2.4990
    2MPD1     C14089   2.807   1.592   8.939 -0.5584  0.2621 -0.5155
    2MPD1    C114090   2.886   1.701   8.951  0.5943  0.2184 -0.2199
    2MPD1    C214091   3.019   1.675   8.958 -0.4626  0.3137  0.3063
    2MPD1    C314092   3.076   1.551   8.967 -0.0894  0.7482 -0.3318
    2MPD1    C414093   2.987   1.444   8.959 -0.0091 -0.6267 -0.2900
    2MPD1    C514094   2.854   1.470   8.950  0.3483 -0.4392  0.4082
    2MPD1     H14095   3.088   1.758   8.954 -0.8455  0.6679  1.1723
    2MPD1    H114096   3.013   1.339   8.946  1.7469 -0.3503  0.9220
    2MPD1    H214097   2.699   1.595   8.929 -0.7446 -2.5062  0.6907
    2MPD1    H314098   2.794   1.382   8.931  1.6686 -1.2165 -0.1777
    2MPD1     N14099   3.217   1.536   8.981  1.0036 -0.3752 -0.4700
    2MPD1    H514100   3.265   1.624   8.993  0.6292 -0.4835  1.8629
    2MPD1    N114101   2.834   1.830   8.924  0.0869  0.3568  0.4765
    2MPD1    H614102   2.896   1.901   8.963  2.3530 -0.4702 -1.6448
    2MPD1    H714103   2.746   1.838   8.974  0.7271 -0.4908  1.7295
    1MPD1     C14104   3.648   0.602  12.068 -0.6204 -0.0803  0.6755
    1MPD1    C114105   3.593   0.726  12.045 -0.2317 -0.2195  0.2839
    1MPD1    C214106   3.685   0.831  12.052 -0.2498 -0.3406  1.0489
    1MPD1    C314107   3.819   0.809  12.077 -0.4321  0.0879  0.1805
    1MPD1    C414108   3.863   0.687  12.108  0.6454 -0.2274 -0.0679
    1MPD1    C514109   3.777   0.584  12.088  0.0261  0.6025  0.2402
    1MPD1     H14110   3.648   0.932  12.038  0.9727 -0.0958 -0.4229
    1MPD1    H114111   3.963   0.654  12.134  0.3060 -0.6817  0.6759
    1MPD1    H214112   3.580   0.519  12.055  1.1607 -1.1690 -1.6696
    1MPD1    H314113   3.814   0.482  12.101  0.2133  0.8435  1.6319
    1MPD1     N14114   3.915   0.915  12.067 -0.0017  0.5471 -0.1439
    1MPD1    H514115   3.864   1.001  12.047 -1.5061 -1.0558 -3.0672
    1MPD1    N114116   3.460   0.745  12.009 -0.3031  0.7198  0.3402
    1MPD1    H614117   3.421   0.835  12.037 -1.7721  0.2153 -0.0910
    1MPD1    H714118   3.402   0.662  12.021 -0.0842  0.4141 -0.7393
    2MPD1     C14119   3.624   1.140  11.680 -0.0561  0.1671  0.1240
    2MPD1    C114120   3.590   1.108  11.550  0.0244 -0.5159  0.6338
    2MPD1    C214121   3.629   0.983  11.499  0.6676  0.7684  0.9493
    2MPD1    C314122   3.684   0.886  11.580  0.1887 -0.0954 -0.0769
    2MPD1    C414123   3.709   0.922  11.705 -0.5874 -0.0084 -0.4155
    2MPD1    C514124   3.685   1.049  11.753 -0.0075 -0.2752  0.5772
    2MPD1     H14125   3.621   0.965  11.393 -1.4513  1.1849  1.0325
    2MPD1    H114126   3.763   0.854  11.770  1.9706  2.5341  0.1578
    2MPD1    H214127   3.582   1.230  11.723 -0.5127  0.1235 -0.2297
    2MPD1    H314128   3.722   1.077  11.851  1.7882  2.1726 -0.8047
    2MPD1     N14129   3.731   0.760  11.539  0.1350  0.3692 -0.3415
    2MPD1    H514130   3.780   0.707  11.611 -1.8510 -0.8749  0.0783
    2MPD1    N114131   3.541   1.213  11.461 -0.1603 -0.2989 -0.6554
    2MPD1    H614132   3.476   1.279  11.502  1.5168  0.3008  1.0596
    2MPD1    H714133   3.482   1.166  11.393  1.4774 -1.6218 -1.1654
    3MPD1     C14134   3.438   4.520  11.106 -0.6833 -0.0365 -0.1953
    3MPD1    C114135   3.514   4.501  11.218  0.3823  0.5266  0.6938
    3MPD1    C214136   3.595   4.607  11.265 -0.3337 -0.1378 -0.1521
    3MPD1    C314137   3.578   0.015  11.212 -0.2508  0.4068 -0.4940
    3MPD1    C414138   3.481   0.039  11.121  0.4979 -0.3355  0.7048
    3MPD1    C514139   3.408   4.650  11.069 -0.2021 -0.2288 -0.3384
    3MPD1     H14140   3.665   4.580  11.343 -0.0749  0.4889 -0.1709
    3MPD1    H114141   3.453   0.138  11.088 -0.3901 -0.8152  0.0186
    3MPD1    H214142   3.380   4.445  11.053  0.5032  1.2364 -3.2741
    3MPD1    H314143   3.341   4.663  10.985  0.1269  2.0950 -0.2372
    3MPD1     N14144   3.662   0.120  11.260 -0.0342  0.7160  0.1614
    3MPD1    H514145   3.720   0.089  11.337 -1.0970  1.9187  1.4313
    3MPD1    N114146   3.554   4.373  11.253 -0.4864 -0.2456  0.1683
    3MPD1    H614147   3.476   4.312  11.230 -0.0766  0.2934 -2.6917
    3MPD1    H714148   3.573   4.361  11.352 -1.0344  2.1376  0.5499
    4MPD2     C14149   4.222   1.281  11.489  0.5073  0.2569  0.1832
    4MPD2    C114150   4.309   1.238  11.583 -0.2790  0.5916 -0.6389
    4MPD2    C214151   4.433   1.183  11.553 -0.6860 -0.6319 -0.2524
    4MPD2    C314152   4.470   1.181  11.420 -0.7930 -0.1264  0.8772
    4MPD2    C414153   4.388   1.238  11.323 -0.0467  0.7402  0.4841
    4MPD2    C514154   4.267   1.279  11.360 -0.0182 -0.0405 -0.0168
    4MPD2     H14155   4.493   1.139  11.632  2.5057  5.3474  0.7192
    4MPD2    H114156   4.407   1.245  11.216 -0.5435 -1.1565  0.2813
    4MPD2    H214157   4.121   1.311  11.512  0.0740  0.4890 -1.9750
    4MPD2    H314158   4.202   1.319  11.284  1.0519  1.2600 -0.2478
    4MPD2     N14159   4.584   1.104  11.386 -0.5640  0.2478 -0.0234
    4MPD2    H514160   4.621   1.041  11.456  1.5152  0.6656 -0.7530
    4MPD2    N114161   4.277   1.238  11.722  0.4924  0.2932 -0.2559
    4MPD2    H714162   4.351   1.206  11.783 -1.1765 -0.0348  1.6224
    5TMC3    C114163   4.156   1.217  11.918  0.4347 -0.5523 -1.3087
    5TMC3    C214164   4.070   1.128  11.968  0.1965 -0.0829  0.3692
    5TMC3    C314165   4.118   1.040  12.066 -0.6182  0.3384 -0.2836
    5TMC3    C414166   4.280   1.242  11.967 -0.3207  0.6929  0.1474
    5TMC3    C514167   4.323   1.152  12.067  0.4193  0.0887 -1.0097
    5TMC3    C614168   4.235   1.063  12.129 -0.1599 -0.0232  0.8543
    5TMC3     C14169   4.149   1.238  11.777 -0.0376  0.5416 -1.0496
    5TMC3     O14170   4.043   1.235  11.718  0.4574  0.0793 -0.1096
    5TMC3     H14171   3.970   1.111  11.929  0.3164  0.7691 -0.3130
    5TMC3    H114172   4.342   1.322  11.928  0.4683 -0.5527 -1.1312
    5TMC3    H214173   4.262   0.993  12.208  0.6774 -1.5737 -0.7924
    5TMC3    C714174   4.427   1.079  11.987 -0.4565 -0.5188  0.1889
    5TMC3    C814175   4.045   0.913  12.102  0.1834 -0.1484  0.4492
    5TMC3    O114176   4.478   1.143  11.897  0.0301 -0.2127 -0.4205
    5TMC3    O214177   4.127   0.827  12.123 -0.4658 -0.0554 -0.2861
    6TMC3    C114178   3.772   0.566  11.415  0.0915 -0.3744  0.4562
    6TMC3    C214179   3.694   0.479  11.339 -1.0498 -0.0255 -0.1845
    6TMC3    C314180   3.728   0.351  11.315 -0.6551  0.6923  0.6195
    6TMC3    C414181   3.890   0.523  11.473 -0.0507 -0.1033 -0.5030
    6TMC3    C514182   3.932   0.401  11.429  0.8270 -0.5145 -0.2021
    6TMC3    C614183   3.853   0.312  11.355 -0.8794 -1.3416  0.0565
    6TMC3     C14184   3.716   0.700  11.415  0.3160  0.8863  0.4548
    6TMC3     O14185   3.630   0.727  11.327  0.2168 -0.1932  0.4947
    6TMC3     H14186   3.601   0.512  11.295 -0.0323  0.4617 -1.9827
    6TMC3    H114187   3.965   0.593  11.505 -2.6403  2.7874 -0.7275
    6TMC3    H214188   3.889   0.223  11.305 -1.8009 -1.2541 -0.7648
    6TMC3    C714189   4.073   0.410  11.387  0.2607 -0.4235 -1.0360
    6TMC3    C814190   3.645   0.259  11.233  0.1608 -0.3059 -0.0940
    6TMC3    O114191   4.152   0.465  11.462 -0.3627  0.0736 -0.0973
    6TMC3    O214192   3.585   0.309  11.137 -0.5656 -0.6837  0.0183
    7MPD2     C14193   4.605   0.624  11.837 -0.0260 -0.2244 -0.2039
    7MPD2    C114194   4.626   0.747  11.780  0.7953 -0.7303  0.1711
    7MPD2    C214195   4.572   0.856  11.841 -0.3331  0.3039 -0.5753
    7MPD2    C314196   4.486   0.842  11.950  0.1077  0.6483 -0.1109
    7MPD2    C414197   4.468   0.716  12.004 -0.3830  0.5437  0.4525
    7MPD2    C514198   4.521   0.611  11.940 -0.7392 -0.1570  0.5020
    7MPD2     H14199   4.581   0.950  11.789  0.7651  0.7259  0.3665
    7MPD2    H114200   4.404   0.690  12.087 -0.3876  0.9553  0.5786
    7MPD2    H214201   4.641   0.530  11.796 -0.4302 -0.6727  0.4725
    7MPD2    H314202   4.497   0.511  11.972 -0.0428 -0.6010 -0.3712
    7MPD2     N14203   4.419   0.944  12.016  0.4785  0.4343 -0.5463
    7MPD2    H514204   4.359   0.916  12.093  1.8029 -0.6268  0.1037
    7MPD2    N114205   0.000   0.751  11.668  0.5326  0.3303  0.8161
    7MPD2    H714206   0.047   0.664  11.643 -1.0443  0.0782 -1.2982
    8TMC3    C114207   0.070   0.837  11.453  0.2347  0.0126 -0.2232
    8TMC3    C214208   0.017   0.721  11.399  0.0217  0.5330  0.7900
    8TMC3    C314209   4.653   0.730  11.288 -0.0764  0.0339  0.2377
    8TMC3    C414210   0.064   0.955  11.387  0.3373  0.0153 -0.0639
    8TMC3    C514211   4.705   0.956  11.272  0.3821  0.4050 -0.9096
    8TMC3    C614212   4.637   0.843  11.223  0.2726 -0.3599 -0.0887
    8TMC3     C14213   0.032   0.861  11.588 -0.4544  0.1139  1.0166
    8TMC3     O14214   0.009   0.979  11.613 -0.0663  0.1424  0.2950
    8TMC3     H14215   0.040   0.623  11.439 -0.2595  0.8584  1.7554
    8TMC3    H114216   0.106   1.045  11.432  0.9394 -1.3975  2.1834
    8TMC3    H214217   4.562   0.858  11.146  0.7779 -0.7889 -0.6605
    8TMC3    C714218   4.620   1.069  11.257  0.5081 -0.0628  0.0444
    8TMC3    C814219   4.556   0.628  11.275  0.1716  0.2915  0.0763
    8TMC3    O114220   4.574   1.095  11.148  0.0358  0.2082 -0.5946
    8TMC3    O214221   4.531   0.573  11.381 -0.0005  0.2615  0.4312
    9MPD2     C14222   4.428   0.421  11.009 -0.3245  0.4927 -0.5882
    9MPD2    C114223   4.432   0.490  11.126 -0.6859  0.4403 -0.5280
    9MPD2    C214224   4.321   0.469  11.207 -0.6616 -0.6336 -0.3762
    9MPD2    C314225   4.218   0.379  11.178 -0.1836 -0.5459 -0.3542
    9MPD2    C414226   4.212   0.309  11.057  0.2568 -0.3311  0.6450
    9MPD2    C514227   4.323   0.334  10.976  0.5675  0.9251  0.0586
    9MPD2     H14228   4.320   0.538  11.291 -3.0864 -1.9033  0.6152
    9MPD2    H114229   4.119   0.264  11.024  0.3188  0.0191 -0.0031
    9MPD2    H214230   4.500   0.443  10.931  1.0643 -0.7210  0.3460
    9MPD2    H314231   4.318   0.290  10.877  0.7918  0.9518  0.0358
    9MPD2     N14232   4.101   0.362  11.263 -0.1258 -0.1014 -0.1740
    9MPD2    H514233   4.027   0.324  11.205 -0.1657  1.1387 -0.9549
    9MPD2    N114234   4.535   0.583  11.152  0.2704  0.3380 -0.3210
    9MPD2    H714235   4.590   0.619  11.075 -1.0048  2.1983 -0.3619
    1MPD1     C14236   4.330   4.151  16.655 -0.0021 -0.8239  0.6144
    1MPD1    C114237   4.205   4.183  16.712  0.1031  0.0938 -0.7236
    1MPD1    C214238   4.096   4.139  16.647  0.0144  0.1237 -0.5445
    1MPD1    C314239   4.100   4.084  16.518 -0.3199  0.9441  0.1936
    1MPD1    C414240   4.219   4.069  16.464  0.2324 -0.7821 -0.4999
    1MPD1    C514241   4.333   4.112  16.526 -0.2064 -0.7711  0.4016
    1MPD1     H14242   4.003   4.146  16.703 -0.3818 -0.5219 -1.1126
    1MPD1    H114243   4.228   4.029  16.364 -0.8682  0.6910 -1.1921
    1MPD1    H214244   4.423   4.179  16.703 -0.1169  1.5242 -0.5016
    1MPD1    H314245   4.434   4.088  16.496 -0.1578 -0.4455  0.3044
    1MPD1     N14246   3.986   4.038  16.452  0.0989 -0.5854 -0.5079
    1MPD1    H514247   4.005   4.008  16.357  1.9511  0.5562 -0.5057
    1MPD1    N114248   4.194   4.218  16.845 -0.1551 -0.5974  0.0214
    1MPD1    H614249   4.256   4.290  16.880  0.1049 -1.0257  0.4325
    1MPD1    H714250   4.103   4.249  16.878  0.3621 -1.4135  2.2424
    2MPD1     C14251   3.690   3.583  15.637  0.1804  1.0665  0.1735
    2MPD1    C114252   3.608   3.689  15.660 -0.4669 -0.7231  0.0942
    2MPD1    C214253   3.634   3.770  15.768 -0.5221  0.0810  0.2963
    2MPD1    C314254   3.735   3.738  15.860 -0.1259 -0.0401 -0.8343
    2MPD1    C414255   3.816   3.631  15.840 -0.3011  0.1684 -0.1923
    2MPD1    C514256   3.780   3.554  15.732 -0.4498  0.0724 -0.1445
    2MPD1     H14257   3.569   3.854  15.787  1.2644  0.8302  3.1080
    2MPD1    H114258   3.902   3.615  15.904  1.1275  2.0125 -1.6583
    2MPD1    H214259   3.671   3.514  15.555  0.8017 -0.4752  1.3089
    2MPD1    H314260   3.832   3.462  15.711 -1.1210  0.1410 -2.0732
    2MPD1     N14261   3.739   3.820  15.969 -0.1796  0.8999  0.1855
    2MPD1    H514262   3.661   3.884  15.986 -1.8905 -0.9228 -0.8614
    2MPD1    N114263   3.523   3.744  15.551  0.1484 -0.0506  0.1109
    2MPD1    H614264   3.485   3.670  15.492 -1.4537  0.4985  0.4645
    2MPD1    H714265   3.446   3.804  15.581  1.7107  1.1091  1.8065
    3TCq2    C114266   3.823   3.804  16.082 -0.5342 -0.3757 -0.2193
    3TCq2    O214267   3.932   3.746  16.093  0.0439  0.0749 -0.3549
    3TCq2    C214268   3.758   3.860  16.199  0.5119  0.2228  0.2383
    3TCq2    C314269   3.624   3.884  16.207  0.6118  0.4421  0.1956
    3TCq2    C414270   3.559   3.928  16.325 -0.1011  0.3517  0.2489
    3TCq2    C514271   3.641   3.969  16.429  0.0234  0.7663  0.1584
    3TCq2    C614272   3.771   3.945  16.419  0.6555  0.6842 -0.8321
    3TCq2    C714273   3.828   3.879  16.313 -0.3831  0.3755 -0.1041
    3TCq2    C814274   3.856   4.024  16.511  0.8223 -0.1825 -0.5150
    3TCq2    O414275   3.811   4.064  16.614  0.6188  0.4187  0.1135
    3TCq2    C914276   3.412   3.934  16.327  1.2488 -0.0795 -0.1699
    3TCq2    O514277   3.359   3.961  16.441 -0.7044  0.5733  0.2727
    3TCq2    O614278   3.345   3.934  16.217  0.5323  0.3452 -1.0651
    3TCq2    H214279   3.555   3.847  16.132  0.2499  0.2953  0.5999
    3TCq2    H314280   3.590   4.014  16.513  0.2512 -2.4589  2.0106
    3TCq2    H414281   3.930   3.844  16.326 -0.5474  0.4748  1.4073
    1TCq1    O114282   2.953   3.947  13.063  0.4514  0.2713  0.0556
    1TCq1    C114283   2.923   3.955  13.190 -0.1707  0.1936 -0.1586
    1TCq1    O214284   2.839   4.015  13.249  0.3521 -0.3215 -0.3291
    1TCq1    C214285   3.008   3.864  13.262 -0.6887  0.3151  0.0676
    1TCq1    C314286   2.980   3.872  13.396 -0.2545  0.4366 -0.2921
    1TCq1    C414287   3.024   3.771  13.476 -0.2764 -0.7857  0.4031
    1TCq1    C514288   3.091   3.665  13.424  0.2828 -0.8150  0.1641
    1TCq1    C614289   3.100   3.648  13.287  0.3457 -0.3129  0.0253
    1TCq1    C714290   3.065   3.753  13.201  0.0831 -0.6576  0.1024
    1TCq1    C814291   3.178   3.541  13.230 -0.0315  0.2561  0.0048
    1TCq1    O414292   3.232   3.557  13.121 -0.3658 -0.3363 -0.3650
    1TCq1    C914293   3.014   3.783  13.623  0.1926 -0.3777  0.1685
    1TCq1    O514294   3.076   3.702  13.695  0.5744 -0.0805  0.1181
    1TCq1    O614295   2.936   3.877  13.660 -0.0032 -0.6144  0.4560
    1TCq1    H114296   3.040   3.908  13.040  0.2863  0.1556 -0.3743
    1TCq1    H214297   2.932   3.963  13.428 -0.2429  0.2871  0.1532
    1TCq1    H314298   3.147   3.596  13.487  1.0902 -1.1119 -0.8579
    1TCq1    H414299   3.045   3.721  13.100 -0.7338  0.4734 -0.0892
    2MPD2     C14300   3.342   3.289  13.185 -0.2230  0.1754 -0.0959
    2MPD2    C114301   3.277   3.325  13.303  0.3554 -0.2858  0.2018
    2MPD2    C214302   3.298   3.255  13.420 -0.3957  0.4816  0.0151
    2MPD2    C314303   3.388   3.152  13.421 -0.0858 -0.2725  0.8149
    2MPD2    C414304   3.453   3.115  13.306  0.0919 -0.0506 -0.0151
    2MPD2    C514305   3.428   3.184  13.188 -0.0462  0.2202  0.0938
    2MPD2     H14306   3.243   3.282  13.509 -0.0656  0.7537  0.1371
    2MPD2    H114307   3.525   3.034  13.303 -0.6798 -0.6851 -1.4757
    2MPD2    H214308   3.316   3.340  13.093 -0.0921 -0.2509 -0.3672
    2MPD2    H314309   3.477   3.156  13.095 -1.1309  0.0692 -0.4309
    2MPD2     N14310   3.420   3.090  13.541  0.1134  0.8950  0.7908
    2MPD2    H514311   3.363   3.123  13.619  0.2933 -1.2745  1.8521
    2MPD2    N114312   3.197   3.437  13.317  0.3316 -0.2422  0.0989
    2MPD2    H714313   3.143   3.438  13.403 -0.5334  3.1956 -0.4771
    3TCq1    O114314   3.789   2.737  13.988 -0.1728 -0.1361 -0.2423
    3TCq1    C114315   3.798   2.862  13.945 -0.1776  0.2690  0.7648
    3TCq1    O214316   3.895   2.909  13.889  0.5056 -0.0195 -0.4831
    3TCq1    C214317   3.659   2.893  13.909  0.4088  0.5149  0.1906
    3TCq1    C314318   3.549   2.846  13.977  0.0297 -0.0198  0.2184
    3TCq1    C414319   3.426   2.848  13.917 -0.3774 -0.1314 -0.1510
    3TCq1    C514320   3.418   2.908  13.789  0.5161  0.2797  0.2362
    3TCq1    C614321   3.531   2.966  13.720  0.8601 -0.0976  0.0755
    3TCq1    C714322   3.652   2.945  13.780 -1.1311 -0.2801 -0.5626
    3TCq1    C814323   3.520   3.000  13.573 -0.4478  0.1208  0.3459
    3TCq1    O414324   3.611   2.960  13.502  0.3734  0.5386 -0.2696
    3TCq1    C914325   3.305   2.812  13.979  0.7259  1.5507  0.3149
    3TCq1    O514326   3.208   2.835  13.908  0.1362 -0.0617 -0.0605
    3TCq1    O614327   3.316   2.782  14.100  0.2179 -0.6617  0.8048
    3TCq1    H114328   3.745   2.738  14.076 -0.8304 -2.4037 -0.5649
    3TCq1    H214329   3.561   2.810  14.079  0.4099 -0.4790  0.0085
    3TCq1    H314330   3.322   2.923  13.741  0.7488  1.3228  0.0936
    3TCq1    H414331   3.741   2.977  13.728 -0.5615 -1.4775 -0.3393
    1MPD2     C14332   2.802   0.041  14.485 -0.9437  0.5018 -0.1543
    1MPD2    C114333   2.728   0.007  14.596 -0.1194 -0.1915 -0.2695
    1MPD2    C214334   2.779   4.620  14.677 -0.6295  0.1949  0.4003
    1MPD2    C314335   2.895   4.553  14.648 -0.3592 -0.2999 -0.2530
    1MPD2    C414336   2.968   4.591  14.531 -0.3952  0.3125 -0.0221
    1MPD2    C514337   2.922   4.696  14.456 -0.8633 -0.0193  1.0434
    1MPD2     H14338   2.721   4.584  14.762  0.3327  2.5654  2.0421
    1MPD2    H114339   3.070   4.557  14.516 -0.0641  1.7503 -1.0880
    1MPD2    H214340   2.763   0.119  14.420 -2.3860 -0.2257 -0.1719
    1MPD2    H314341   2.991   0.004  14.377 -1.6260  0.7413  0.6319
    1MPD2     N14342   2.933   4.451  14.736  0.5311  0.5398 -0.6612
    1MPD2    H514343   2.874   4.440  14.818 -0.6605 -1.5657 -1.8101
    1MPD2    N114344   2.604   0.070  14.628 -0.5168  0.1551 -0.0291
    1MPD2    H714345   2.553   0.126  14.561  0.3024 -0.8253 -1.4686
    2TMC3    C114346   2.412   0.110  14.774 -0.2134  0.1573 -0.1592
    2TMC3    C214347   2.365   0.103  14.904  0.2801 -0.1164 -0.2379
    2TMC3    C314348   2.230   0.073  14.928  0.6343 -1.1523  0.3938
    2TMC3    C414349   2.324   0.099  14.669  0.5454 -0.1592 -0.5282
    2TMC3    C514350   2.194   0.099  14.695  0.7942 -0.7708  0.3472
    2TMC3    C614351   2.134   0.083  14.817  1.5130 -0.3586  0.8532
    2TMC3     C14352   2.551   0.069  14.758 -0.1208 -0.3377 -0.3099
    2TMC3     O14353   2.590   0.021  14.867 -1.2124 -0.5483 -0.4731
    2TMC3     H14354   2.423   0.130  14.991 -0.1663 -0.9044  0.2995
    2TMC3    H114355   2.358   0.120  14.568 -0.1351  0.5029 -0.6190
    2TMC3    H214356   2.027   0.084  14.832  1.3065 -1.0899 -0.5591
    2TMC3    C714357   2.114   0.133  14.581  0.1553  0.2383 -0.2212
    2TMC3    C814358   2.215   4.673  15.015  0.1005  0.6128  0.1782
    2TMC3    O114359   2.141   0.079  14.477 -0.1011 -0.1384 -0.4014
    2TMC3    O214360   2.102   4.626  15.034 -0.6027  0.0085  0.2214
    3TCq1    O114361   1.455   0.575  14.987 -0.3768 -0.4074 -0.4431
    3TCq1    C114362   1.329   0.611  14.943  0.5544 -0.7188 -0.1425
    3TCq1    O214363   1.228   0.553  14.971  0.2105 -0.0434  0.0996
    3TCq1    C214364   1.349   0.671  14.816 -0.2807  0.2909 -0.6466
    3TCq1    C314365   1.253   0.760  14.777  0.2664  0.9724  0.0296
    3TCq1    C414366   1.271   0.821  14.661  0.4600  0.5182 -0.3190
    3TCq1    C514367   1.378   0.793  14.586 -0.0124  0.2078  0.5503
    3TCq1    C614368   1.483   0.706  14.622 -0.2360  0.1636 -0.1181
    3TCq1    C714369   1.464   0.640  14.742 -0.0984 -1.1666 -0.3093
    3TCq1    C814370   1.564   0.629  14.527 -0.2206 -0.2064  0.3682
    3TCq1    O414371   1.512   0.625  14.415  0.2349 -0.1336  0.1134
    3TCq1    C914372   1.168   0.906  14.602 -0.3395 -0.2885  0.0166
    3TCq1    O514373   1.179   0.938  14.486  0.2595  0.4301  0.1166
    3TCq1    O614374   1.083   0.950  14.679  0.0529  0.1765  0.4667
    3TCq1    H114375   1.524   0.644  14.971 -0.2286 -0.7377 -1.2197
    3TCq1    H214376   1.163   0.793  14.827  0.3701  0.5719  0.4826
    3TCq1    H314377   1.396   0.828  14.485 -1.7142  0.8405  0.4734
    3TCq1    H414378   1.528   0.561  14.778  0.6574 -1.5499 -2.4786
    4MPD2     C14379   1.718   0.416  14.398  0.0829  0.4638 -0.0248
    4MPD2    C114380   1.755   0.472  14.518  0.2790 -0.6563  0.5506
    4MPD2    C214381   1.863   0.414  14.580 -0.8475  0.1223  0.1845
    4MPD2    C314382   1.923   0.295  14.534  0.1893  0.6374 -0.0187
    4MPD2    C414383   1.889   0.246  14.412 -0.0507  0.2147  0.9055
    4MPD2    C514384   1.783   0.308  14.348  0.1178  0.2010 -0.5021
    4MPD2     H14385   1.891   0.458  14.675  2.7968 -1.1615 -0.2915
    4MPD2    H114386   1.928   0.157  14.365  0.0980 -0.5830  2.5478
    4MPD2    H214387   1.632   0.458  14.346  0.5248 -0.0831 -1.2007
    4MPD2    H314388   1.737   0.264  14.260 -0.0045 -1.6338  0.4723
    4MPD2     N14389   2.026   0.239  14.613 -0.2575 -0.2942 -0.0359
    4MPD2    H514390   2.020   0.283  14.704  0.8501 -1.1142  0.4415
    4MPD2    N114391   1.669   0.569  14.583 -0.1084  0.4202 -0.0412
    4MPD2    H714392   1.681   0.568  14.684 -0.5390  1.9086  0.0229
    5TMC2    C114393   2.901   4.257  15.023  0.2916  0.5328 -0.7584
    5TMC2    C214394   3.001   4.292  15.107 -0.2621  0.0884  1.2618
    5TMC2    C314395   3.125   4.304  15.049 -0.0010 -0.5154 -0.3728
    5TMC2    C414396   2.925   4.241  14.891 -0.5404  1.0036  0.0528
    5TMC2    C514397   3.044   4.269  14.836 -0.5260 -0.0308 -0.1074
    5TMC2    C614398   3.155   4.297  14.915  0.4192  0.0229  0.4499
    5TMC2     C14399   2.779   4.338  15.026  1.0086  0.3063 -0.5234
    5TMC2     O14400   2.743   4.393  14.925  0.2804 -0.0147 -0.4266
    5TMC2     H14401   2.974   4.326  15.207  1.1023  1.3569  1.1893
    5TMC2    H114402   2.847   4.205  14.824  0.4177  0.3787 -0.7293
    5TMC2    H214403   3.253   4.336  14.886  0.3556 -0.0613  0.1159
    5TMC2    C714404   3.027   4.353  14.719 -0.8864 -0.1324 -0.3148
    5TMC2    C814405   3.236   4.355  15.135 -0.0115  0.4321 -0.4876
    5TMC2    O114406   3.122   4.344  14.641 -0.2126 -0.3580  0.7925
    5TMC2    O214407   3.346   4.304  15.133  0.0557 -0.7567 -0.1400
    5TMC2    O514408   3.215   4.487  15.165 -0.2844 -0.5460 -0.3713
    5TMC2    H514409   3.123   4.518  15.152 -0.3147 -0.5978 -0.2739
    6MPD2     C14410   2.302   4.421  15.189 -0.0187  0.3629 -0.3680
    6MPD2    C114411   2.384   4.492  15.096 -0.4230  0.4699  0.3318
    6MPD2    C214412   2.520   4.460  15.079 -0.6680 -0.8659  1.1014
    6MPD2    C314413   2.566   4.348  15.144  0.4618 -0.0560 -0.0856
    6MPD2    C414414   2.484   4.269  15.227 -0.1759 -0.0324  0.1714
    6MPD2    C514415   2.351   4.307  15.248 -0.6116  0.2497  0.1339
    6MPD2     H14416   2.582   4.527  15.022  0.7610 -0.6537  2.8865
    6MPD2    H114417   2.528   4.182  15.273 -0.3635 -0.6502 -0.8045
    6MPD2    H214418   2.198   4.449  15.197 -0.4828 -1.3910 -0.2964
    6MPD2    H314419   2.294   4.247  15.317  0.4744 -0.6049  0.2947
    6MPD2     N14420   2.706   4.316  15.141  0.1138  0.3928  0.4749
    6MPD2    H514421   2.738   4.232  15.189 -0.0799 -0.0786 -0.2246
    6MPD2    N114422   2.343   4.617  15.033  0.8092 -0.6736  0.3551
    6MPD2    H714423   2.410   4.663  14.973  0.8685  0.6648  1.4587
  945NH4     N114424   1.610   3.887   7.933  0.4910  0.3977  0.1826
  945NH4     H214425   1.637   3.858   8.029 -1.1026 -0.0052  0.5212
  945NH4     H314426   1.658   3.977   7.916 -1.0704  1.2004  0.0692
  945NH4     H414427   1.507   3.903   7.925  0.1897 -1.3696  0.3715
  945NH4     H514428   1.644   3.815   7.866  1.0774  0.9338 -0.0870
  946SOD     NA14429   3.392   2.841   0.211  0.4566 -0.5933 -0.4518
  947SOD     NA14430   0.309   4.555   9.103  0.5794 -0.0868  0.0280
  948SOD     NA14431   1.934   2.473  10.376 -0.0630 -0.4279  0.8722
  949SOD     NA14432   3.325   3.323  14.296 -0.5696  0.1426 -0.3463
  950SOD     NA14433   3.682   3.702  15.323  0.1371 -0.6835  0.0803
  951SOD     NA14434   2.205   2.499   9.049  0.0809 -0.3922  0.2276
  952SOD     NA14435   0.190   1.623   1.337 -0.0607  0.2179  0.1010
  953SOD     NA14436   0.684   2.087   9.628  0.0978  0.0852  0.3177
  954SOD     NA14437   3.176   2.772  10.142  0.1073 -0.3932 -0.8423
  955SOD     NA14438   1.455   1.526   9.110 -0.0283 -0.1639  0.2725
  956SOD     NA14439   2.172   3.977  15.059 -0.1134 -0.2083  0.4248
  957SOD     NA14440   1.581   3.818   1.957  0.1849  0.0876  0.0474
  958SOD     NA14441   1.826   1.166  15.772  0.0043  0.5801  0.0947
  959SOD     NA14442   0.133   2.164   9.968  0.3929 -0.2608  0.1855
  960SOD     NA14443   2.292   0.369  12.295  0.2346 -0.4412  0.5028
  961SOD     NA14444   3.231   2.597   0.195 -0.3530  0.0411  0.3653
  962SOD     NA14445   4.552   2.817  14.342  0.3975 -0.5403  0.1278
  963SOD     NA14446   3.976   4.346  15.461  0.3166 -0.1132 -0.4292
  964SOD     NA14447   3.014   3.069  12.971  0.1469 -0.1700  0.0711
  965SOD     NA14448   2.340   4.492   0.165 -0.6050 -0.2363 -0.4364
  966SOD     NA14449   4.405   2.269   0.885 -0.1290  0.1929  0.3574
  967SOD     NA14450   2.680   1.539  13.291  0.0358 -0.2693  0.1552
  968SOD     NA14451   1.953   2.790  10.430 -0.0642 -0.6528 -0.4639
  969SOD     NA14452   0.435   2.547  12.463 -0.3813  0.1988 -0.3834
  970SOD     NA14453   0.159   1.574   1.705 -0.3881  0.0039 -0.3831
  971SOD     NA14454   0.696   3.039  12.955 -0.2125 -0.5181  0.2227
  972SOD     NA14455   3.795   4.213  15.195 -0.3884  0.0094  0.2214
  973SOD     NA14456   2.237   3.983  12.207  0.2742  0.3531  0.0133
  974SOD     NA14457   0.102   3.089  11.609 -0.6112 -0.0048 -0.3516
  975SOD     NA14458   1.294   2.547  11.597  0.1221 -0.4562  0.1843
  976SOD     NA14459   3.029   3.083  12.096 -0.0447 -0.0317  0.1109
  977SOD     NA14460   3.265   3.420  14.628 -0.6207  0.3003  0.6623
  978SOD     NA14461   2.827   2.779  13.011  0.0259  0.1680  0.4988
  979SOD     NA14462   4.171   3.873   1.556 -0.2651  0.3777  0.0114
  980SOD     NA14463   1.821   4.362  10.517 -0.1194 -0.3822 -0.1873
  981SOD     NA14464   1.430   0.331   9.704  0.3934 -0.1295  0.0370
  982SOD     NA14465   3.882   4.486   2.543 -0.4078  0.0211 -0.1829
  983SOD     NA14466   3.860   2.877   3.321  0.0658  0.0455  0.0032
  984SOD     NA14467   2.203   0.036  14.257  0.0328 -0.1603 -0.4690
  985SOD     NA14468   1.625   1.894  10.581 -0.0986  0.1108 -0.1410
  986SOD     NA14469   0.691   2.719  16.751 -0.5297 -0.0447 -0.4763
  987SOD     NA14470   3.056   1.671   5.639 -0.2442 -0.3515  0.4269
  988SOD     NA14471   4.321   0.139  10.307 -0.2075  0.0315  0.6212
  989SOD     NA14472   3.098   2.219   2.923  0.1686 -0.4177  0.1847
  990SOD     NA14473   2.598   0.871  10.953  0.3237  0.1008  0.3900
  991SOD     NA14474   4.646   1.538  11.833  0.0141  0.2504  0.7764
  992SOD     NA14475   1.591   2.612  15.648  0.2555 -0.0404 -0.3688
  993SOD     NA14476   3.115   3.546  14.364 -0.1830  0.6671  0.0733
  994SOD     NA14477   0.524   4.010  13.707 -0.1503  0.2220  0.1789
  995SOD     NA14478   3.526   2.991  10.178 -0.0963  0.2483 -0.5499
  996SOD     NA14479   1.342   1.782  11.803  0.4543  0.2572  0.0569
  997SOD     NA14480   4.628   3.207   1.236  0.2742  0.1275  0.0487
  998SOD     NA14481   1.858   3.866  13.040  0.5830 -0.1491 -0.1831
  999SOD     NA14482   2.572   3.996  12.108 -0.4523 -0.3702 -0.5530
 1000SOD     NA14483   2.669   4.712  16.713 -0.4547  0.0779  0.4102
 1001SOD     NA14484   1.021   1.076  14.422  0.0568  0.5475  1.1750
 1002SOD     NA14485   1.309   0.504   6.793  0.3893  0.5605  0.3068
 1003SOD     NA14486   3.303   0.610   8.833 -0.2938  0.3548 -0.2946
 1004SOD     NA14487   4.301   3.869  14.628 -0.1475 -0.0841  0.0079
 1005SOD     NA14488   3.095   0.837  16.501 -0.0241  0.1227  0.3840
 1006SOD     NA14489   2.421   0.221  11.992  0.0658 -0.1939 -0.4421
 1007SOD     NA14490   1.677   3.326  10.021  0.3784  0.3884  0.3425
 1008SOD     NA14491   0.531   1.335   3.251  0.1210 -0.4054 -0.1716
 1009SOD     NA14492   3.777   4.085  10.955 -0.2533  0.1027  0.1586
 1010SOD     NA14493   3.216   3.874   0.978  0.1522  0.6422 -0.1770
 1011SOL     OW14494   3.948   4.298  15.950  0.2362 -0.7373  0.0693
 1011SOL    HW114495   3.980   4.384  15.980  0.3369 -1.1099  1.0248
 1011SOL    HW214496   3.933   4.314  15.857  2.0749  1.7041  0.1710
 1012SOL     OW14497   3.332   2.411   0.292 -0.3697  0.2354 -0.5994
 1012SOL    HW114498   3.393   2.345   0.258 -0.3914  0.1739 -0.5168
 1012SOL    HW214499   3.312   2.383   0.381  1.0719 -1.3652 -0.7800
 1013SOL     OW14500   1.917   1.215   2.021 -0.3710  0.1692  0.1920
 1013SOL    HW114501   1.969   1.143   2.057  0.5145 -0.2592 -1.9748
 1013SOL    HW214502   1.873   1.176   1.946 -0.7341 -0.9115  0.9661
 1014SOL     OW14503   2.921   3.558   4.963  0.2142 -0.0631  0.1537
 1014SOL    HW114504   2.977   3.487   4.932 -0.5822 -0.5544 -0.1849
 1014SOL    HW214505   2.908   3.541   5.056 -0.9226  3.1883  0.5971
 1015SOL     OW14506   0.640   3.914   0.818  0.1843 -0.6850 -0.3821
 1015SOL    HW114507   0.724   3.872   0.799  0.0951 -1.2116  0.4017
 1015SOL    HW214508   0.601   3.851   0.878  0.5721 -2.7989 -2.3371
 1016SOL     OW14509   1.043   0.840   9.194 -0.0443  0.5482 -0.0654
 1016SOL    HW114510   1.040   0.925   9.238  1.2034  2.0178 -2.8628
 1016SOL    HW214511   1.034   0.775   9.265 -3.2820  1.8982  0.7313
 1017SOL     OW14512   4.484   4.364  17.535 -0.4745  0.1671 -0.5110
 1017SOL    HW114513   4.456   4.360  17.626  0.1040  0.1641 -0.3334
 1017SOL    HW214514   4.540   4.442  17.539 -0.4391  0.0783  0.5469
 1018SOL     OW14515   0.531   0.509  15.157  0.2609 -0.0707 -0.4359
 1018SOL    HW114516   0.591   0.454  15.106  0.3647  1.4780 -1.9903
 1018SOL    HW214517   0.541   0.480  15.247  1.4403 -0.2947 -0.6370
 1019SOL     OW14518   0.146   4.340   4.797 -0.2989 -0.1621 -0.0227
 1019SOL    HW114519   0.187   4.256   4.817  1.9653  1.2287  1.1845
 1019SOL    HW214520   0.095   4.314   4.720 -0.2327 -0.1075 -0.0851
 1020SOL     OW14521   0.939   2.162   2.771 -0.1622  0.1406  0.7866
 1020SOL    HW114522   0.962   2.143   2.680  1.0019  0.0234  1.1097
 1020SOL    HW214523   1.024   2.148   2.812  1.7875 -0.7330 -3.6462
 1021SOL     OW14524   4.296   1.802   4.445  0.0354  0.1309 -0.2440
 1021SOL    HW114525   4.235   1.734   4.416  1.2370  0.4919 -3.6594
 1021SOL    HW214526   4.308   1.855   4.366  1.2889  0.0461 -0.1003
 1022SOL     OW14527   4.058   3.536   7.820  0.2171 -0.3560 -0.4251
 1022SOL    HW114528   4.017   3.601   7.877 -1.1892 -0.3857 -1.3997
 1022SOL    HW214529   4.084   3.472   7.886 -3.3750 -1.7172 -0.3233
 1023SOL     OW14530   1.644   1.407   6.461  0.2221  0.0874  0.5382
 1023SOL    HW114531   1.583   1.397   6.535 -1.3137 -3.6478 -1.2252
 1023SOL    HW214532   1.590   1.460   6.403  1.5875  0.5436 -0.3179
 1024SOL     OW14533   1.461   4.357   2.272 -0.2218 -0.0450 -0.2297
 1024SOL    HW114534   1.421   4.384   2.354 -1.3646  0.5635 -0.9906
 1024SOL    HW214535   1.527   4.293   2.299  1.3433  1.3415 -0.8784
 1025SOL     OW14536   1.867   0.461   5.089 -0.3853 -0.1152  0.1770
 1025SOL    HW114537   1.865   0.474   4.994 -1.1304  0.9445  0.3413
 1025SOL    HW214538   1.781   0.421   5.099 -0.1386 -0.9616 -1.1880
 1026SOL     OW14539   3.269   2.115   2.447  0.9121 -0.3614  0.0701
 1026SOL    HW114540   3.299   2.082   2.363  0.9840  0.1386 -0.1011
 1026SOL    HW214541   3.275   2.211   2.447  0.1024 -0.3141 -1.2661
 1027SOL     OW14542   0.203   2.400   5.168  0.7009 -0.2094  0.8870
 1027SOL    HW114543   0.259   2.382   5.093 -2.6506 -2.3045 -1.1629
 1027SOL    HW214544   0.129   2.453   5.140  0.5243  0.1838  2.1004
 1028SOL     OW14545   4.132   2.687  14.501  0.2222 -0.3767  0.0332
 1028SOL    HW114546   4.083   2.757  14.543  0.7463  0.5483 -0.8948
 1028SOL    HW214547   4.069   2.656  14.435 -1.5892  1.4089  0.9447
 1029SOL     OW14548   1.039   2.742   4.996 -0.0205  0.7994  0.1071
 1029SOL    HW114549   0.952   2.705   4.978  1.2074 -2.3758  0.7590
 1029SOL    HW214550   1.011   2.829   5.024 -2.0162  0.6590 -1.4145
 1030SOL     OW14551   1.135   1.645   9.598 -0.2540 -0.1122  0.3051
 1030SOL    HW114552   1.118   1.667   9.689  3.3212  0.9068  0.7515
 1030SOL    HW214553   1.121   1.551   9.605  2.3331 -0.4873  0.6477
 1031SOL     OW14554   4.240   2.308   3.527 -0.0453  0.0258 -0.6480
 1031SOL    HW114555   4.161   2.257   3.542  0.8044 -1.3691 -0.9519
 1031SOL    HW214556   4.295   2.244   3.481 -2.4317 -2.5192  0.0944
 1032SOL     OW14557   4.319   4.449  11.208 -0.8482 -0.1737 -0.0143
 1032SOL    HW114558   4.356   4.413  11.289 -2.1165 -0.8329  0.2650
 1032SOL    HW214559   4.259   4.377  11.189 -2.3952  0.9159  0.7663
 1033SOL     OW14560   1.650   0.024   4.449  0.6499  0.4527  0.0428
 1033SOL    HW114561   1.605   4.667   4.487  2.7291 -0.0462  1.4971
 1033SOL    HW214562   1.577   0.083   4.427  1.2647  1.1046 -0.2417
 1034SOL     OW14563   0.865   3.266  11.819  0.3431 -0.0618 -0.0001
 1034SOL    HW114564   0.869   3.346  11.871 -0.3091  1.1231 -1.7904
 1034SOL    HW214565   0.956   3.246  11.798  0.4678  1.5936 -0.9997
 1035SOL     OW14566   1.394   1.178  15.172  0.1468 -0.0594 -0.5951
 1035SOL    HW114567   1.417   1.174  15.080 -2.3102  0.0102 -1.2115
 1035SOL    HW214568   1.299   1.180  15.164  0.2047 -0.6176 -1.4100
 1036SOL     OW14569   3.863   0.850   7.813 -0.2018  0.6852  0.3677
 1036SOL    HW114570   3.806   0.889   7.746  0.0211  0.6644  0.1657
 1036SOL    HW214571   3.837   0.758   7.815  0.2881  0.5538  0.6162
 1037SOL     OW14572   2.427   0.582   0.322  0.0267  0.2985 -0.5805
 1037SOL    HW114573   2.406   0.675   0.323 -0.1452  0.2487  0.7528
 1037SOL    HW214574   2.430   0.562   0.416  0.9830  2.9978 -0.0255
 1038SOL     OW14575   2.018   1.924   2.382  0.3347 -0.1969  0.6178
 1038SOL    HW114576   1.971   1.916   2.466  1.4899  1.2756  1.4018
 1038SOL    HW214577   2.106   1.900   2.411 -0.2296 -0.5389  2.0614
 1039SOL     OW14578   3.982   2.577   2.840 -0.0516  0.0828 -0.4799
 1039SOL    HW114579   3.935   2.498   2.814  1.0351 -0.2532 -1.4200
 1039SOL    HW214580   4.054   2.527   2.878  0.2838  1.7095  1.0090
 1040SOL     OW14581   4.120   3.581   1.951 -0.4675 -0.3179 -0.4354
 1040SOL    HW114582   4.134   3.486   1.954 -1.5097 -0.4388  0.4551
 1040SOL    HW214583   4.209   3.607   1.973 -0.4806  1.1733 -2.1409
 1041SOL     OW14584   1.313   4.323   8.486  0.2326  0.2582 -0.4754
 1041SOL    HW114585   1.400   4.333   8.524 -1.0825  0.4896  2.4761
 1041SOL    HW214586   1.269   4.280   8.559 -0.4423  0.1059 -0.9738
 1042SOL     OW14587   4.027   0.853   5.914 -0.9670 -0.4190 -0.1423
 1042SOL    HW114588   3.946   0.826   5.957 -0.8602 -2.2210 -1.0726
 1042SOL    HW214589   4.003   0.871   5.823 -0.4262 -1.8645 -0.5748
 1043SOL     OW14590   2.683   3.251   1.293  0.8887  0.9834 -0.3379
 1043SOL    HW114591   2.606   3.196   1.303  3.1732 -1.6331  2.5999
 1043SOL    HW214592   2.756   3.190   1.298 -1.3474 -1.5109  2.1269
 1044SOL     OW14593   0.891   4.333   3.042  0.1077  0.0276 -0.2652
 1044SOL    HW114594   0.863   4.322   2.951  2.2365  1.0027 -1.0432
 1044SOL    HW214595   0.836   4.273   3.092  0.6667  0.5466  0.9746
 1045SOL     OW14596   3.185   3.111   4.226  0.2151  0.2671  0.7000
 1045SOL    HW114597   3.218   3.102   4.136 -4.6811 -0.7472 -0.9802
 1045SOL    HW214598   3.092   3.129   4.211 -0.0785 -1.0335  0.9363
 1046SOL     OW14599   2.738   1.599  15.640  0.2506  0.1001  0.5557
 1046SOL    HW114600   2.816   1.547  15.616 -0.4423  0.1177 -1.7097
 1046SOL    HW214601   2.678   1.568  15.572  0.0516 -1.8980  1.6340
 1047SOL     OW14602   1.037   2.772   3.086  0.0189  0.4242 -0.1280
 1047SOL    HW114603   0.980   2.762   3.010  0.5990  1.0811 -0.6512
 1047SOL    HW214604   1.116   2.732   3.049 -1.3777 -0.6906 -1.8942
 1048SOL     OW14605   1.826   2.396   4.244  0.0512 -0.2539  0.2194
 1048SOL    HW114606   1.800   2.488   4.239  3.3885  0.7749  1.6895
 1048SOL    HW214607   1.858   2.384   4.333  3.2469 -1.5235 -1.0645
 1049SOL     OW14608   4.373   2.595   4.526 -0.1564 -0.1369 -0.7508
 1049SOL    HW114609   4.458   2.553   4.518 -0.5376 -1.1610  0.6319
 1049SOL    HW214610   4.317   2.518   4.518  1.5627 -1.2156 -2.4186
 1050SOL     OW14611   0.179   1.169  16.187 -0.1736  0.0447  0.0608
 1050SOL    HW114612   0.210   1.250  16.145  1.2307 -0.4003  0.2421
 1050SOL    HW214613   0.101   1.151  16.135 -0.9333  2.0255  0.4844
 1051SOL     OW14614   1.576   4.682  10.278  0.3278 -0.4513 -0.0574
 1051SOL    HW114615   1.634   4.618  10.237  1.3381 -0.1634  0.9053
 1051SOL    HW214616   1.568   4.634  10.361  1.3198 -0.1563  0.2148
 1052SOL     OW14617   1.649   0.538   2.194 -0.0792 -0.4632  0.0488
 1052SOL    HW114618   1.658   0.458   2.247  1.5534  0.2115  0.7816
 1052SOL    HW214619   1.738   0.548   2.160 -0.8374 -0.9702 -2.0778
 1053SOL     OW14620   2.909   1.745  13.965  0.4344  0.0168  0.4383
 1053SOL    HW114621   3.001   1.735  13.992  0.4947  0.1694  0.2842
 1053SOL    HW214622   2.858   1.720  14.042  0.5585  0.5177  0.6782
 1054SOL     OW14623   3.548   2.167   2.158  0.0982 -0.7323 -0.1788
 1054SOL    HW114624   3.544   2.083   2.204 -0.3987 -0.2122  0.7085
 1054SOL    HW214625   3.634   2.195   2.190  0.0765 -0.7174 -0.1337
 1055SOL     OW14626   0.159   2.381  10.063 -0.0051  0.7321 -0.4935
 1055SOL    HW114627   0.216   2.403  10.136 -2.1039  0.3394  1.2867
 1055SOL    HW214628   0.125   2.465  10.030 -0.6877  0.3072 -0.8746
 1056SOL     OW14629   0.996   1.783   7.208 -0.9006 -0.1408  0.1818
 1056SOL    HW114630   0.901   1.782   7.209 -0.9259  2.4689 -0.1902
 1056SOL    HW214631   1.011   1.785   7.113  0.0269 -0.1934  0.3247
 1057SOL     OW14632   2.713   2.604   2.194 -1.2464 -0.0771 -0.5776
 1057SOL    HW114633   2.761   2.617   2.276  0.1072 -0.3976 -1.3291
 1057SOL    HW214634   2.774   2.653   2.140 -0.7516 -1.3612 -1.1751
 1058SOL     OW14635   1.216   4.065  12.479  0.6156  0.4043  0.1738
 1058SOL    HW114636   1.260   4.132  12.532 -1.3616 -0.2921  2.6946
 1058SOL    HW214637   1.249   3.984  12.519  1.3507  0.2011 -0.8160
 1059SOL     OW14638   0.941   0.367  11.267 -0.2068 -0.2304  0.1052
 1059SOL    HW114639   0.932   0.441  11.327 -1.6136 -0.4494  0.1682
 1059SOL    HW214640   0.972   0.302  11.330  0.9846  1.1484  0.9598
 1060SOL     OW14641   2.701   1.494   1.786  0.5212  0.1012  0.5056
 1060SOL    HW114642   2.724   1.524   1.874  1.4652 -1.7564  0.8985
 1060SOL    HW214643   2.646   1.416   1.793  0.5524  0.0351  0.0526
 1061SOL     OW14644   3.201   2.235   3.927  0.3333 -0.6077  0.2154
 1061SOL    HW114645   3.191   2.154   3.876  1.5694 -2.0356  2.2590
 1061SOL    HW214646   3.221   2.187   4.008 -0.3782  3.3250  2.6777
 1062SOL     OW14647   2.999   1.654  10.945 -0.0272  0.1058 -0.2360
 1062SOL    HW114648   3.006   1.739  10.990 -2.4768  0.5545 -0.6984
 1062SOL    HW214649   3.028   1.682  10.858 -1.5258 -0.5783 -0.9329
 1063SOL     OW14650   2.097   4.583  17.094  0.0190  0.3856  0.6637
 1063SOL    HW114651   2.041   4.660  17.101  0.2146  0.6708 -0.7724
 1063SOL    HW214652   2.091   4.548  17.182  0.5147 -0.8155  0.2245
 1064SOL     OW14653   2.361   2.156   8.875  0.2941  0.1849 -0.2227
 1064SOL    HW114654   2.346   2.062   8.878 -0.6049  0.2991 -1.2493
 1064SOL    HW214655   2.341   2.181   8.784  0.9332  0.5785 -0.2544
 1065SOL     OW14656   4.246   1.543   5.347  0.2953  0.3900  0.3604
 1065SOL    HW114657   4.260   1.631   5.381  1.2861 -0.1504  1.3561
 1065SOL    HW214658   4.230   1.495   5.429  0.4789 -0.6977 -0.2445
 1066SOL     OW14659   0.342   0.476   4.328 -0.1264 -0.6874 -0.3086
 1066SOL    HW114660   0.367   0.390   4.362  1.3672 -0.1224  0.0329
 1066SOL    HW214661   0.270   0.445   4.272 -0.3350 -0.7177 -0.0244
 1067SOL     OW14662   3.568   3.830   1.287  0.2949 -0.1118 -0.0154
 1067SOL    HW114663   3.560   3.756   1.227 -1.1538 -0.8026  1.0453
 1067SOL    HW214664   3.590   3.783   1.367 -0.3634 -1.1916 -0.4727
 1068SOL     OW14665   1.457   4.307   1.531 -0.1292 -0.0916 -0.2409
 1068SOL    HW114666   1.408   4.232   1.565 -0.2640 -1.1543 -2.7835
 1068SOL    HW214667   1.424   4.320   1.442 -0.2152  0.5391 -0.1204
 1069SOL     OW14668   1.610   2.815   9.587  0.0207 -0.4652 -0.4825
 1069SOL    HW114669   1.584   2.886   9.645  2.2281  1.6699 -2.0928
 1069SOL    HW214670   1.527   2.809   9.540 -0.2090 -0.8814 -0.0207
 1070SOL     OW14671   1.286   4.382   9.628 -0.0831  0.1164 -0.3374
 1070SOL    HW114672   1.323   4.320   9.691 -0.4022 -0.2912 -0.5462
 1070SOL    HW214673   1.287   4.324   9.552 -1.0328 -0.7198  0.2883
 1071SOL     OW14674   4.160   2.911   3.984  0.1268  0.1194  0.7302
 1071SOL    HW114675   4.234   2.942   4.036 -0.5952 -0.1245  1.9074
 1071SOL    HW214676   4.110   2.993   3.976 -0.4220 -0.4122 -1.1751
 1072SOL     OW14677   4.173   0.758   8.022 -0.3169  0.0185 -0.1277
 1072SOL    HW114678   4.231   0.833   8.033  0.0985 -0.3487  0.1835
 1072SOL    HW214679   4.089   0.765   8.067 -0.9867 -0.8621 -1.2238
 1073SOL     OW14680   2.919   2.749  10.833  0.2733 -0.3970 -0.2492
 1073SOL    HW114681   2.830   2.715  10.845  0.1226  0.7124  1.8336
 1073SOL    HW214682   2.903   2.842  10.812  0.7397  0.1550  1.8294
 1074SOL     OW14683   0.296   2.872   2.990  0.4616 -0.6834 -0.1805
 1074SOL    HW114684   0.288   2.820   3.070 -1.6498  0.6162  0.4761
 1074SOL    HW214685   0.226   2.833   2.939 -1.8412  1.8900  0.9485
 1075SOL     OW14686   1.670   0.163   5.712 -0.6203  0.2215 -0.4035
 1075SOL    HW114687   1.668   0.204   5.625 -0.3002  0.5451 -0.2579
 1075SOL    HW214688   1.741   0.099   5.705 -0.6665  0.2470 -1.1648
 1076SOL     OW14689   4.554   3.173  12.062  0.3989  0.0931  0.5890
 1076SOL    HW114690   4.605   3.124  12.127  0.7868 -2.2961 -1.5633
 1076SOL    HW214691   4.573   3.257  12.106  1.3630  0.8592 -1.3163
 1077SOL     OW14692   2.579   3.504   1.325  0.2410  0.9233  0.1363
 1077SOL    HW114693   2.587   3.499   1.421  0.6995 -0.4005  0.0213
 1077SOL    HW214694   2.638   3.430   1.309 -2.5113 -0.8671 -1.5863
 1078SOL     OW14695   2.691   0.779   7.313  0.2564  0.1604 -0.1492
 1078SOL    HW114696   2.623   0.776   7.380  1.1500  0.7986  0.7941
 1078SOL    HW214697   2.757   0.832   7.359 -0.4955  0.6767  0.3377
 1079SOL     OW14698   0.092   3.712   5.915  0.6463 -0.0931 -0.3637
 1079SOL    HW114699   0.172   3.675   5.879 -0.8689 -1.2251 -2.5731
 1079SOL    HW214700   0.121   3.750   5.998 -2.9724 -0.3678  1.0336
 1080SOL     OW14701   1.487   3.785   6.557 -0.1115 -0.4570  0.0606
 1080SOL    HW114702   1.420   3.830   6.505 -0.7264 -1.4571 -0.0026
 1080SOL    HW214703   1.470   3.805   6.649  0.4096  0.8091 -0.1150
 1081SOL     OW14704   2.095   0.546   2.858  0.0700 -0.8275  0.1287
 1081SOL    HW114705   2.035   0.612   2.823  0.7458 -1.9546 -3.1772
 1081SOL    HW214706   2.033   0.495   2.909 -0.4050  2.0083  2.3613
 1082SOL     OW14707   4.418   2.808  13.521  0.4094  0.5024 -0.2638
 1082SOL    HW114708   4.323   2.823  13.521  0.1287 -1.2261 -1.3669
 1082SOL    HW214709   4.430   2.774  13.610 -1.5084  0.5007  0.0019
 1083SOL     OW14710   3.198   0.761  10.832 -0.1361 -0.1047  0.0844
 1083SOL    HW114711   3.164   0.842  10.869 -1.1781 -1.3278  1.7964
 1083SOL    HW214712   3.257   0.802  10.768 -1.9845  1.9982 -0.2919
 1084SOL     OW14713   2.272   2.556  10.510 -0.1708 -0.2681  0.0793
 1084SOL    HW114714   2.184   2.546  10.546 -0.2413 -1.0770 -0.3261
 1084SOL    HW214715   2.318   2.489  10.560 -0.3192 -1.1982 -1.0255
 1085SOL     OW14716   0.661   1.018   8.780  0.3212 -0.3906  0.1011
 1085SOL    HW114717   0.589   1.073   8.750  0.3417  0.8747  2.3464
 1085SOL    HW214718   0.656   1.048   8.871  0.6428 -0.8612  0.2720
 1086SOL     OW14719   2.234   1.850   9.062 -0.2032 -0.1064  0.6539
 1086SOL    HW114720   2.168   1.919   9.055 -0.5949 -0.7040 -1.7755
 1086SOL    HW214721   2.204   1.801   9.138 -0.4127 -1.4660 -0.2904
 1087SOL     OW14722   2.527   0.177   3.216  0.0168  0.0304 -0.1976
 1087SOL    HW114723   2.567   0.229   3.147 -1.2619  0.4872 -0.5891
 1087SOL    HW214724   2.602   0.157   3.272  0.3871  0.6898 -0.4577
 1088SOL     OW14725   2.010   4.442   3.839  0.4513 -0.0614 -0.4872
 1088SOL    HW114726   1.991   4.505   3.909 -1.2904 -1.2184  0.0787
 1088SOL    HW214727   2.094   4.417   3.878  0.7559 -0.4278 -1.3747
 1089SOL     OW14728   3.423   1.724   2.521 -0.1073 -0.5824 -0.2316
 1089SOL    HW114729   3.348   1.733   2.463  0.2356 -1.1958 -0.7721
 1089SOL    HW214730   3.378   1.657   2.573 -0.9401 -0.8185 -1.2587
 1090SOL     OW14731   0.465   2.280   7.230  0.5708  0.4601  0.8133
 1090SOL    HW114732   0.547   2.261   7.277 -0.3397 -1.4261  1.6461
 1090SOL    HW214733   0.492   2.325   7.151  0.1143 -0.1776  0.2874
 1091SOL     OW14734   4.028   0.293   3.857 -0.3164 -0.3369 -0.4423
 1091SOL    HW114735   3.988   0.375   3.827 -1.1748 -0.5026  0.2368
 1091SOL    HW214736   4.045   0.239   3.780 -2.3968 -0.3408 -0.9074
 1092SOL     OW14737   3.039   4.386   5.504 -0.1852  0.1090  0.3265
 1092SOL    HW114738   3.025   4.369   5.598 -0.9733 -0.2953  0.1341
 1092SOL    HW214739   3.129   4.354   5.496  0.1478  0.5820  2.0683
 1093SOL     OW14740   3.655   1.481  13.430 -0.4075  0.4454  0.1950
 1093SOL    HW114741   3.622   1.570  13.420  0.5969  0.9658  1.5671
 1093SOL    HW214742   3.627   1.435  13.351 -0.1747 -2.0603  1.5832
 1094SOL     OW14743   0.986   3.630   7.383 -0.1410 -0.3510 -0.6449
 1094SOL    HW114744   0.933   3.604   7.458  0.0645 -0.4376 -0.5307
 1094SOL    HW214745   0.925   3.687   7.336  1.0629  0.0926 -1.6834
 1095SOL     OW14746   4.137   0.188   6.800  0.1120 -0.1681 -0.0136
 1095SOL    HW114747   4.194   0.124   6.843  0.5465  0.2375  0.0017
 1095SOL    HW214748   4.143   0.159   6.709  2.1897  0.3236 -0.0244
 1096SOL     OW14749   0.360   1.097   0.202 -0.3193  0.7229  0.2486
 1096SOL    HW114750   0.275   1.106   0.245  0.0147 -2.0419  1.5010
 1096SOL    HW214751   0.397   1.022   0.249  2.1468  1.4414 -0.5485
 1097SOL     OW14752   2.598   1.544   6.047 -0.2253 -0.4596  0.1729
 1097SOL    HW114753   2.678   1.539   5.995  0.4411  1.9919  0.9778
 1097SOL    HW214754   2.616   1.481   6.116  1.2687 -0.9818 -0.7092
 1098SOL     OW14755   3.530   3.934   8.180  0.0117 -0.0246 -0.2323
 1098SOL    HW114756   3.446   3.898   8.205  1.1614 -1.8138  1.0494
 1098SOL    HW214757   3.510   4.024   8.155 -0.9016  0.1116  1.0033
 1099SOL     OW14758   4.565   2.437   8.650 -0.3064  0.3549  0.2390
 1099SOL    HW114759   4.546   2.529   8.666 -1.7933  0.3662 -1.6844
 1099SOL    HW214760   4.485   2.389   8.669  0.0736 -0.3666 -0.0011
 1100SOL     OW14761   0.310   0.004   0.169 -0.6276 -0.2914 -0.0206
 1100SOL    HW114762   0.287   4.650   0.110 -0.9490 -0.6182  0.4983
 1100SOL    HW214763   0.232   0.011   0.224  0.5657 -1.8498  1.8556
 1101SOL     OW14764   4.198   2.323  15.354  0.0180  0.5721 -0.2357
 1101SOL    HW114765   4.123   2.342  15.297 -1.0988 -1.2269  0.6437
 1101SOL    HW214766   4.220   2.405  15.398  0.1545 -0.3099  1.3158
 1102SOL     OW14767   1.213   1.163   3.855  0.3771  0.4120  0.3639
 1102SOL    HW114768   1.145   1.120   3.906  1.0449 -1.3940 -0.2707
 1102SOL    HW214769   1.180   1.252   3.844 -1.4126 -0.3052  0.0489
 1103SOL     OW14770   2.381   4.215   4.421 -0.2703  0.3280  0.0163
 1103SOL    HW114771   2.378   4.310   4.434 -2.6244  0.4900 -1.6935
 1103SOL    HW214772   2.383   4.206   4.326  0.1521 -0.9009  0.1386
 1104SOL     OW14773   0.695   1.351   9.647 -0.1522 -0.2628 -0.2427
 1104SOL    HW114774   0.748   1.343   9.726 -0.8040 -4.1322 -0.2010
 1104SOL    HW214775   0.699   1.260   9.616  0.5954  0.2249 -1.6012
 1105SOL     OW14776   0.579   2.589  12.682 -0.0265  0.4374 -0.4687
 1105SOL    HW114777   0.641   2.568  12.752 -0.1438  1.0347 -0.1850
 1105SOL    HW214778   0.501   2.605  12.736  0.9577  2.1885  0.4116
 1106SOL     OW14779   0.668   1.651  12.800 -0.4160 -0.3151 -0.6294
 1106SOL    HW114780   0.670   1.697  12.883 -1.6952 -0.1524 -0.6906
 1106SOL    HW214781   0.754   1.685  12.775 -0.9105  2.1374  1.0808
 1107SOL     OW14782   4.327   1.770   0.297 -0.1052 -0.1113 -0.1866
 1107SOL    HW114783   4.415   1.753   0.264  1.0796 -0.1705  2.9712
 1107SOL    HW214784   4.313   1.702   0.363 -1.8107 -0.2892 -0.7377
 1108SOL     OW14785   0.229   3.229   6.088 -0.4138 -0.2880  0.0735
 1108SOL    HW114786   0.245   3.265   6.001 -1.3525 -1.4881 -0.5975
 1108SOL    HW214787   0.312   3.181   6.095 -0.5831 -0.4993  0.6295
 1109SOL     OW14788   0.728   2.466  10.645  0.1732  0.3352 -0.1076
 1109SOL    HW114789   0.815   2.428  10.635  0.5781  1.6678 -1.6311
 1109SOL    HW214790   0.697   2.482  10.556 -1.1277  2.3800  0.7075
 1110SOL     OW14791   0.939   3.108   3.947  0.0173 -0.3173 -0.2104
 1110SOL    HW114792   1.024   3.144   3.924  0.8384 -1.5843  0.7992
 1110SOL    HW214793   0.902   3.191   3.979 -0.0025 -1.2001  2.0655
 1111SOL     OW14794   1.625   4.153   2.389  0.3847  0.0830 -0.6034
 1111SOL    HW114795   1.603   4.160   2.481  1.5595 -3.1301 -0.0644
 1111SOL    HW214796   1.720   4.158   2.391  0.4049 -0.9213  1.1229
 1112SOL     OW14797   0.966   2.402   4.129 -0.4528  0.3943  0.2202
 1112SOL    HW114798   0.902   2.425   4.061  0.3243 -0.3451 -0.7487
 1112SOL    HW214799   0.993   2.487   4.164  0.0443 -0.6089  2.2156
 1113SOL     OW14800   2.405   2.603   3.523 -0.8503 -0.1918  0.1299
 1113SOL    HW114801   2.443   2.651   3.450 -1.2688 -0.7114 -0.4230
 1113SOL    HW214802   2.470   2.611   3.593 -1.7476  0.5850  0.8874
 1114SOL     OW14803   2.733   0.124   5.360 -0.1825 -0.0398  0.2407
 1114SOL    HW114804   2.710   0.215   5.341 -3.0262 -0.8209 -0.0119
 1114SOL    HW214805   2.805   0.109   5.300  0.4805  3.4978  0.1278
 1115SOL     OW14806   1.044   3.285   5.536  0.0056  0.3191  0.0495
 1115SOL    HW114807   0.986   3.252   5.604 -0.3103 -1.3765 -1.0439
 1115SOL    HW214808   1.080   3.364   5.577  0.1002  0.4311 -0.2520
 1116SOL     OW14809   4.026   2.767   0.380  0.1787 -0.4329  1.0109
 1116SOL    HW114810   4.097   2.725   0.331  0.0513  0.5354  0.0047
 1116SOL    HW214811   4.012   2.848   0.332 -0.1564 -1.5847 -0.8611
 1117SOL     OW14812   2.994   4.646  10.660  0.0764  0.1168 -0.4477
 1117SOL    HW114813   2.903   4.667  10.641 -0.8696 -1.1606  2.6560
 1117SOL    HW214814   3.015   4.693  10.740 -2.9134 -2.5433  1.9012
 1118SOL     OW14815   3.419   1.054   7.553  0.0790 -0.0502 -0.0505
 1118SOL    HW114816   3.460   1.075   7.469 -0.2775  0.0896 -0.1867
 1118SOL    HW214817   3.350   0.997   7.518  1.8971 -0.6755 -2.5948
 1119SOL     OW14818   4.496   4.689  17.241  0.1801 -0.4110  0.3292
 1119SOL    HW114819   4.443   4.657  17.314 -0.3825  0.5896  0.3582
 1119SOL    HW214820   4.587   4.691  17.272 -0.5230 -4.4385  2.6989
 1120SOL     OW14821   0.710   2.500   6.831  0.0903 -0.5259 -0.1742
 1120SOL    HW114822   0.749   2.515   6.745  0.8157  3.4465  0.8350
 1120SOL    HW214823   0.782   2.449   6.866  0.5031 -0.9157 -1.6092
 1121SOL     OW14824   3.611   2.266   6.338 -0.2582  0.2346 -0.5223
 1121SOL    HW114825   3.638   2.348   6.381 -0.3373 -0.4871  0.8984
 1121SOL    HW214826   3.678   2.265   6.270  2.0086 -0.0745  1.7322
 1122SOL     OW14827   1.684   3.675   5.798  0.3951  0.1712 -0.3934
 1122SOL    HW114828   1.609   3.724   5.763  1.7911  1.6938 -1.2810
 1122SOL    HW214829   1.697   3.614   5.726  0.0966  0.2320 -0.4983
 1123SOL     OW14830   0.562   3.104  11.680 -0.7416 -0.2625  0.5467
 1123SOL    HW114831   0.518   3.186  11.702  1.8170  1.3092 -0.2030
 1123SOL    HW214832   0.624   3.132  11.612 -2.1055  1.4729 -0.0131
 1124SOL     OW14833   1.774   0.738   6.205  0.1706 -0.3540  0.0140
 1124SOL    HW114834   1.701   0.772   6.256 -0.4146  0.3371 -1.2756
 1124SOL    HW214835   1.748   0.651   6.175 -1.8469  0.5990 -0.9715
 1125SOL     OW14836   2.113   4.644   5.842  0.3836  0.4721  0.1810
 1125SOL    HW114837   2.124   4.700   5.919 -2.3248  1.0257  0.1372
 1125SOL    HW214838   2.031   4.598   5.860  0.2215  0.8572  0.4177
 1126SOL     OW14839   0.560   0.579  11.218 -0.2665 -0.5315  0.2958
 1126SOL    HW114840   0.641   0.603  11.173  2.0047 -2.8245  3.2035
 1126SOL    HW214841   0.585   0.501  11.268  2.2565  0.6404  0.8581
 1127SOL     OW14842   3.918   0.271   4.736  0.4534  0.1896 -0.0787
 1127SOL    HW114843   3.914   0.197   4.797  0.6991  0.3469  0.1259
 1127SOL    HW214844   3.967   0.235   4.663  0.5529 -0.0469  0.1044
 1128SOL     OW14845   0.225   2.336   8.045  0.0492 -0.0398 -0.5111
 1128SOL    HW114846   0.174   2.270   7.999  1.0032 -1.3755  0.3697
 1128SOL    HW214847   0.234   2.287   8.126 -0.5928 -0.4075 -0.6607
 1129SOL     OW14848   3.394   2.918  12.977  0.1340  0.0465  0.2457
 1129SOL    HW114849   3.374   2.849  12.913  2.3543  1.9850 -2.5415
 1129SOL    HW214850   3.489   2.916  12.968 -0.0289  0.2695 -1.6082
 1130SOL     OW14851   1.863   1.700   4.658  0.9801  0.0984  0.9028
 1130SOL    HW114852   1.829   1.659   4.578 -1.0765 -1.4109  2.5543
 1130SOL    HW214853   1.809   1.661   4.727  0.1119 -1.6976 -0.7943
 1131SOL     OW14854   2.940   3.500   5.223  0.6320 -0.2168  0.1159
 1131SOL    HW114855   2.975   3.417   5.257  2.9723  0.1726 -1.3482
 1131SOL    HW214856   2.960   3.560   5.295 -1.2792  0.8879 -0.3112
 1132SOL     OW14857   2.936   0.200   5.589 -0.2042 -0.7900 -0.5180
 1132SOL    HW114858   2.911   0.242   5.671  0.4406 -0.2812 -0.5875
 1132SOL    HW214859   2.849   0.176   5.557 -0.7931  2.7787 -1.6883
 1133SOL     OW14860   2.177   1.677  12.436 -0.6904 -0.2854  0.1101
 1133SOL    HW114861   2.152   1.614  12.504  0.9942 -0.6837  0.3559
 1133SOL    HW214862   2.270   1.700  12.443 -0.8155  0.0927  0.5105
 1134SOL     OW14863   3.170   3.942  17.577  0.6628  0.5647  0.1662
 1134SOL    HW114864   3.261   3.937  17.548  1.1523 -0.1130  1.8010
 1134SOL    HW214865   3.144   3.856  17.542 -1.4744  0.8240  1.1446
 1135SOL     OW14866   3.156   1.899   5.597  0.0755  0.1786 -0.5915
 1135SOL    HW114867   3.238   1.862   5.563  0.4305 -0.9956  1.5459
 1135SOL    HW214868   3.182   1.957   5.669 -1.5135  0.3996 -0.1992
 1136SOL     OW14869   0.481   1.482   6.002 -0.5706  0.5093 -0.4761
 1136SOL    HW114870   0.390   1.498   6.027 -0.6781  1.0946 -1.2321
 1136SOL    HW214871   0.507   1.541   5.931  0.3213  0.4605 -0.1962
 1137SOL     OW14872   1.289   2.153   7.085  0.2971  0.4702  0.2628
 1137SOL    HW114873   1.348   2.090   7.042 -0.0395  0.2007  0.1947
 1137SOL    HW214874   1.294   2.121   7.175 -1.8748 -1.0025 -0.1419
 1138SOL     OW14875   2.263   3.817   2.780  0.3747 -0.7345 -0.5486
 1138SOL    HW114876   2.322   3.888   2.802  1.2575 -1.1204 -1.6542
 1138SOL    HW214877   2.286   3.798   2.689 -0.2238  2.6827 -1.4148
 1139SOL     OW14878   2.815   2.350   2.367 -0.3977 -0.6881 -0.0912
 1139SOL    HW114879   2.861   2.304   2.297  0.6533 -2.7783  1.9739
 1139SOL    HW214880   2.874   2.423   2.387 -1.9554  0.0974  1.6463
 1140SOL     OW14881   0.857   3.389   3.068  0.3982  0.3754  0.5114
 1140SOL    HW114882   0.848   3.477   3.032  0.8311  0.9160  1.7385
 1140SOL    HW214883   0.787   3.351   3.015  2.0033  0.4365 -1.6452
 1141SOL     OW14884   4.089   3.014   8.338 -0.2281  0.8321  0.3785
 1141SOL    HW114885   4.015   3.009   8.398  1.9543  2.4878  3.2116
 1141SOL    HW214886   4.060   3.091   8.289 -1.1205  0.9771  1.1481
 1142SOL     OW14887   0.885   1.983   0.337 -0.1005 -0.0543  0.2309
 1142SOL    HW114888   0.965   2.016   0.377  0.0339  0.5643 -0.5558
 1142SOL    HW214889   0.827   2.056   0.360  0.7420  0.6663  0.0540
 1143SOL     OW14890   3.789   3.376  16.139  0.5256 -0.6017  0.1631
 1143SOL    HW114891   3.699   3.373  16.105  1.7746  2.5873 -3.3405
 1143SOL    HW214892   3.776   3.381  16.234 -0.3299 -1.0172  0.0710
 1144SOL     OW14893   4.659   2.992  11.455 -0.3925  1.0816 -0.9299
 1144SOL    HW114894   4.687   3.033  11.373 -1.0332 -2.7581 -3.1238
 1144SOL    HW214895   4.702   2.906  11.457 -2.0610  0.2378 -1.4540
 1145SOL     OW14896   3.787   0.854  16.733  0.1182  0.1048  0.1249
 1145SOL    HW114897   3.836   0.890  16.807  1.9493  1.1047 -1.5365
 1145SOL    HW214898   3.730   0.794  16.779  0.8156 -0.0591  0.7855
 1146SOL     OW14899   3.915   3.689  14.925 -0.6198  0.1346 -0.2180
 1146SOL    HW114900   3.971   3.767  14.925  0.7342 -0.8395 -0.6303
 1146SOL    HW214901   3.977   3.623  14.895 -0.0196  0.5359  0.1394
 1147SOL     OW14902   2.933   2.018   6.513 -0.1991 -0.3227 -0.4996
 1147SOL    HW114903   2.867   1.990   6.450 -2.2670  0.9710  1.1054
 1147SOL    HW214904   2.971   2.098   6.476 -1.7228  0.8216  0.4013
 1148SOL     OW14905   2.622   0.093   3.883 -0.0160  0.3922 -0.1093
 1148SOL    HW114906   2.594   0.004   3.904  1.2105 -0.0689 -0.4151
 1148SOL    HW214907   2.541   0.140   3.901 -0.1227 -0.2634  1.1340
 1149SOL     OW14908   1.562   1.036  12.423  0.0941 -0.0948 -0.8310
 1149SOL    HW114909   1.632   1.062  12.363 -0.9022  0.6558 -1.6677
 1149SOL    HW214910   1.498   1.106  12.406 -3.1823 -2.2259  2.7503
 1150SOL     OW14911   1.388   3.003  13.177  0.0764 -0.6051  0.0861
 1150SOL    HW114912   1.430   3.004  13.091 -0.6010 -1.1359 -0.2464
 1150SOL    HW214913   1.356   3.093  13.171  1.8629 -0.0727 -1.6547
 1151SOL     OW14914   1.027   2.753   6.234  0.2859  0.1427  0.2824
 1151SOL    HW114915   0.951   2.772   6.180  0.4813  2.4957  0.8449
 1151SOL    HW214916   1.050   2.662   6.213  1.9058  0.2675  1.5249
 1152SOL     OW14917   2.915   3.315   3.379 -0.3271 -0.7280  0.3691
 1152SOL    HW114918   2.886   3.284   3.293  0.7882 -0.1490 -0.2177
 1152SOL    HW214919   2.973   3.389   3.361 -0.4993 -0.0934  2.3717
 1153SOL     OW14920   0.838   3.143   7.321  0.1371 -0.9139 -0.3291
 1153SOL    HW114921   0.747   3.118   7.306 -0.0620 -3.3560  5.0820
 1153SOL    HW214922   0.835   3.238   7.309 -0.8682 -1.0889 -1.4123
 1154SOL     OW14923   0.041   2.076  12.952  0.0035 -0.0175  0.3706
 1154SOL    HW114924   4.700   2.112  12.886  1.2143  1.5090  0.0981
 1154SOL    HW214925   0.107   2.036  12.894  0.6140  2.3558 -0.5570
 1155SOL     OW14926   0.808   0.378   5.941  0.0737  0.2508  0.6870
 1155SOL    HW114927   0.859   0.299   5.957  3.0415  1.7146 -1.5110
 1155SOL    HW214928   0.845   0.408   5.858  0.4491  0.7891  1.0501
 1156SOL     OW14929   4.643   3.965   5.099  0.0809 -0.1556  0.6356
 1156SOL    HW114930   0.010   3.944   5.061  0.6004 -0.2827  1.8457
 1156SOL    HW214931   4.672   4.039   5.152 -0.1233  0.1913  0.2577
 1157SOL     OW14932   1.754   2.947   8.393  0.0179 -0.0653  0.1161
 1157SOL    HW114933   1.746   2.874   8.331 -0.8289 -1.2569  1.6225
 1157SOL    HW214934   1.831   2.930   8.448  1.2167  0.4303 -1.3999
 1158SOL     OW14935   2.547   0.907   8.909 -0.4354 -0.2495 -0.3572
 1158SOL    HW114936   2.578   0.852   8.837  1.2060  1.5177 -0.9962
 1158SOL    HW214937   2.580   0.991   8.876  0.0698 -0.2397  0.1720
 1159SOL     OW14938   1.776   0.524   7.464  0.2428  0.3399 -0.0485
 1159SOL    HW114939   1.771   0.620   7.467  0.7119  0.3494  0.2781
 1159SOL    HW214940   1.694   0.497   7.505  0.1219 -0.8828 -1.1065
 1160SOL     OW14941   4.641   4.453   4.650 -0.0645 -0.3559  0.3091
 1160SOL    HW114942   4.623   4.364   4.678 -2.3323  0.0593  0.1654
 1160SOL    HW214943   4.694   4.438   4.572  0.5720  0.0797  0.6529
 1161SOL     OW14944   2.143   4.528   5.486  0.1790 -0.3644 -0.7193
 1161SOL    HW114945   2.200   4.487   5.552  0.5643  0.8465 -0.2999
 1161SOL    HW214946   2.143   4.615   5.527 -0.4331 -1.3685  1.4599
 1162SOL     OW14947   4.236   1.772  11.691 -0.6004 -0.1042  0.3103
 1162SOL    HW114948   4.210   1.775  11.599 -1.4074 -3.0258  0.4550
 1162SOL    HW214949   4.162   1.799  11.745 -0.4408 -1.7204  1.3246
 1163SOL     OW14950   2.414   2.772  12.193  0.2107  0.0982 -0.6906
 1163SOL    HW114951   2.473   2.709  12.236 -2.2921 -1.6119  0.1991
 1163SOL    HW214952   2.337   2.782  12.248  0.5093 -2.4280  0.2421
 1164SOL     OW14953   0.256   0.727   4.796 -0.5492 -0.1346 -0.1911
 1164SOL    HW114954   0.234   0.802   4.852 -1.1951  0.3296 -1.0722
 1164SOL    HW214955   0.196   0.732   4.722 -1.9082  0.1837  0.9294
 1165SOL     OW14956   4.227   1.837  17.080  0.2240 -0.1043 -0.1882
 1165SOL    HW114957   4.253   1.759  17.030 -2.5105 -1.0166 -0.2304
 1165SOL    HW214958   4.274   1.823  17.162 -0.9558  0.3342  0.5576
 1166SOL     OW14959   4.087   0.352   6.391  0.7194 -0.3533  0.1983
 1166SOL    HW114960   4.123   0.293   6.457 -0.4592 -2.2587 -0.8822
 1166SOL    HW214961   4.051   0.288   6.330  0.2289 -0.6493  0.8143
 1167SOL     OW14962   0.330   2.322   4.943 -0.0333  0.1114 -0.8949
 1167SOL    HW114963   0.289   2.245   4.905  1.3993 -1.4351  0.7181
 1167SOL    HW214964   0.392   2.349   4.876  1.0151 -2.6009 -0.9933
 1168SOL     OW14965   3.401   4.533   7.138  0.7145  0.4673  0.4840
 1168SOL    HW114966   3.434   4.552   7.050 -1.3556 -2.6551 -0.9496
 1168SOL    HW214967   3.307   4.544   7.124  0.4186 -2.3597  0.2257
 1169SOL     OW14968   0.856   0.299   3.175  0.4769  0.1109 -0.0425
 1169SOL    HW114969   0.820   0.379   3.138  1.7568  0.5945 -0.2346
 1169SOL    HW214970   0.944   0.296   3.136 -1.4782 -1.4051 -4.3276
 1170SOL     OW14971   4.153   1.754  14.890  0.3122  0.5634  0.2163
 1170SOL    HW114972   4.231   1.726  14.842  0.6900 -4.4812  3.7343
 1170SOL    HW214973   4.205   1.821  14.936  0.8114  1.2768 -1.3826
 1171SOL     OW14974   4.395   0.962  12.808 -1.1636 -0.3696  0.3688
 1171SOL    HW114975   4.309   0.924  12.788 -1.0602 -0.2609 -0.3045
 1171SOL    HW214976   4.366   1.053  12.800 -1.8112 -0.7711 -1.9865
 1172SOL     OW14977   0.645   3.401   5.731 -0.2301  0.0911  0.2871
 1172SOL    HW114978   0.728   3.445   5.751 -0.2585  0.2891 -0.0254
 1172SOL    HW214979   0.626   3.342   5.804  1.4795  2.2976  2.5189
 1173SOL     OW14980   3.382   2.488   0.902 -0.1716  0.5491  0.1535
 1173SOL    HW114981   3.333   2.428   0.845 -2.3107  0.9592  1.5620
 1173SOL    HW214982   3.315   2.547   0.936 -0.6698  0.3860 -0.5265
 1174SOL     OW14983   2.790   0.739   5.778  0.6108  0.2422 -0.4895
 1174SOL    HW114984   2.771   0.832   5.773 -0.4718  0.0437 -0.2940
 1174SOL    HW214985   2.713   0.697   5.817  0.5484  2.5078  1.8418
 1175SOL     OW14986   3.354   0.667   9.044  0.1365  0.0697  0.4180
 1175SOL    HW114987   3.432   0.713   9.072 -0.7186 -0.1363  3.1694
 1175SOL    HW214988   3.322   0.613   9.117 -1.7627 -0.5077 -0.8249
 1176SOL     OW14989   2.357   4.082   7.532  0.2160 -0.6354 -0.3619
 1176SOL    HW114990   2.322   4.015   7.590  1.4248 -1.9404 -1.1398
 1176SOL    HW214991   2.324   4.161   7.575  0.0006 -0.0054 -1.6725
 1177SOL     OW14992   0.698   3.783  15.525 -0.2955  0.3632 -0.1355
 1177SOL    HW114993   0.680   3.809  15.616 -0.2013 -2.5092  0.6889
 1177SOL    HW214994   0.719   3.867  15.483 -1.1824  0.9385  0.5612
 1178SOL     OW14995   2.441   3.543  13.017  0.1219 -0.5892 -0.5457
 1178SOL    HW114996   2.515   3.601  12.997 -2.6519  2.9724 -0.5875
 1178SOL    HW214997   2.375   3.573  12.955 -1.1529 -0.7487  0.7388
 1179SOL     OW14998   4.090   1.136   5.782  0.0794  0.2338 -0.0959
 1179SOL    HW114999   4.097   1.091   5.866 -1.5113  2.2155  1.1191
 1179SOL    HW215000   4.147   1.083   5.727 -0.9302  0.4995 -1.3918
 1180SOL     OW15001   2.936   2.313  14.964  1.0258 -0.3146  0.2451
 1180SOL    HW115002   2.845   2.292  14.942  1.1471 -0.4017 -0.1767
 1180SOL    HW215003   2.978   2.277  14.886 -0.2135  0.9323 -1.0066
 1181SOL     OW15004   0.907   3.081   2.577  0.0890  0.1997 -0.1360
 1181SOL    HW115005   0.888   3.005   2.522 -1.6800  0.5863 -0.0665
 1181SOL    HW215006   0.948   3.040   2.653  2.5535  1.9171 -0.5406
 1182SOL     OW15007   1.006   1.185  14.628 -0.3941  0.5827 -0.3550
 1182SOL    HW115008   1.047   1.105  14.662 -1.1584  0.7209  0.8794
 1182SOL    HW215009   0.933   1.196  14.689  0.6280  1.6968  0.6583
 1183SOL     OW15010   2.383   3.753   4.023 -0.4165  0.1461  0.5586
 1183SOL    HW115011   2.440   3.680   4.047  0.5481 -0.3444 -3.3043
 1183SOL    HW215012   2.296   3.714   4.023  0.0684 -0.9312 -1.5333
 1184SOL     OW15013   1.790   3.861   2.458  0.0197  0.3926  0.0514
 1184SOL    HW115014   1.843   3.809   2.399 -0.1748 -0.0064  0.2293
 1184SOL    HW215015   1.859   3.924   2.482  0.8194 -0.5960  0.3434
 1185SOL     OW15016   0.680   3.578  11.028  0.0689 -0.2536  0.3291
 1185SOL    HW115017   0.668   3.591  10.934 -0.0035  2.1771  0.6983
 1185SOL    HW215018   0.646   3.488  11.037  5.2805 -2.3818 -1.0353
 1186SOL     OW15019   0.416   0.223   7.395 -0.7812 -0.0601 -0.1603
 1186SOL    HW115020   0.405   0.136   7.434 -0.1106 -0.0740 -0.0179
 1186SOL    HW215021   0.331   0.267   7.390 -0.4883  0.5740  0.3616
 1187SOL     OW15022   1.113   4.646   1.930 -0.0594  0.6373  0.0658
 1187SOL    HW115023   1.045   4.695   1.977 -0.7538  1.3868 -1.7201
 1187SOL    HW215024   1.091   4.677   1.842 -1.1058 -1.1724 -0.3085
 1188SOL     OW15025   0.226   3.915  14.765  0.2193 -0.6389  0.0673
 1188SOL    HW115026   0.247   3.861  14.842  2.5635  1.5057  0.9357
 1188SOL    HW215027   0.287   3.987  14.779 -0.7097  0.7976 -3.2081
 1189SOL     OW15028   4.023   1.698   5.504  0.2820  0.0128  0.2454
 1189SOL    HW115029   3.976   1.657   5.578  0.7818 -2.1093 -0.6024
 1189SOL    HW215030   4.103   1.737   5.538  0.5316 -0.5506  0.3033
 1190SOL     OW15031   3.512   0.379  12.295 -0.3478 -0.5829 -0.4457
 1190SOL    HW115032   3.525   0.329  12.214 -1.8294 -1.3575 -0.2152
 1190SOL    HW215033   3.418   0.394  12.298  0.0790  1.8980 -0.1556
 1191SOL     OW15034   4.464   0.394  13.131  0.5264 -0.0392 -0.2383
 1191SOL    HW115035   4.469   0.425  13.221  1.0592  0.3109 -0.3874
 1191SOL    HW215036   4.415   0.313  13.145  0.8565 -0.3697 -0.9969
 1192SOL     OW15037   2.492   3.298   4.781  0.3580  0.3599 -0.0170
 1192SOL    HW115038   2.427   3.319   4.848  0.1937 -3.0441  0.9102
 1192SOL    HW215039   2.478   3.379   4.732  0.2038 -0.3075 -1.0733
 1193SOL     OW15040   3.438   1.037   7.817  0.5892  0.7995  0.3738
 1193SOL    HW115041   3.473   1.060   7.731 -1.8249  2.3695 -0.1925
 1193SOL    HW215042   3.512   1.057   7.874 -0.0360  0.6104  1.2417
 1194SOL     OW15043   2.658   3.440   3.003  0.0893  0.1581 -0.3555
 1194SOL    HW115044   2.568   3.427   2.972 -0.0280 -1.5757  0.6975
 1194SOL    HW215045   2.664   3.533   2.982 -0.2049  0.3471  0.4058
 1195SOL     OW15046   1.185   1.265   3.579  0.7289 -0.4429 -0.8094
 1195SOL    HW115047   1.227   1.195   3.629  1.7868  1.5618  1.1181
 1195SOL    HW215048   1.255   1.299   3.523  0.3625  0.3418 -0.8013
 1196SOL     OW15049   3.451   2.061   8.446 -0.1626  0.3617 -0.7525
 1196SOL    HW115050   3.474   2.152   8.431  0.9551  0.2093  0.0357
 1196SOL    HW215051   3.444   2.050   8.541  2.0691  0.0089 -0.6243
 1197SOL     OW15052   0.485   4.376  16.731 -0.2215  0.1086 -0.0433
 1197SOL    HW115053   0.457   4.288  16.759 -2.4099  0.8388  0.0560
 1197SOL    HW215054   0.399   4.412  16.711  0.0709  1.2390  0.6967
 1198SOL     OW15055   1.564   4.409   2.902  0.3994  0.2328  0.3489
 1198SOL    HW115056   1.580   4.428   2.994 -0.4473  2.1197  0.0971
 1198SOL    HW215057   1.590   4.317   2.904  1.8298  0.6933  3.3013
 1199SOL     OW15058   2.679   3.818  10.136  0.3977  0.1185 -0.1276
 1199SOL    HW115059   2.676   3.722  10.140  2.3681  0.1962  3.0985
 1199SOL    HW215060   2.682   3.828  10.041  0.8315 -0.8085 -0.2107
 1200SOL     OW15061   1.148   3.432   7.268  0.3627 -0.5325 -0.2379
 1200SOL    HW115062   1.070   3.466   7.312  0.8755  2.7373 -1.8532
 1200SOL    HW215063   1.218   3.478   7.314 -0.3338 -0.9934  1.2529
 1201SOL     OW15064   0.063   4.266   8.802 -0.3582 -0.3331 -0.1657
 1201SOL    HW115065   0.024   4.233   8.721 -0.6572 -0.5558  0.0716
 1201SOL    HW215066   0.087   4.357   8.789 -0.2050 -0.3096  0.2748
 1202SOL     OW15067   3.980   4.002  15.758 -0.6495 -0.0439  0.5326
 1202SOL    HW115068   4.035   3.981  15.833 -0.2351 -0.7440  0.0357
 1202SOL    HW215069   3.893   3.967  15.775 -0.3291  0.2314  2.7005
 1203SOL     OW15070   2.438   1.491   7.491  0.3477  0.2371 -0.2352
 1203SOL    HW115071   2.524   1.534   7.492  0.4993 -0.1121  2.6721
 1203SOL    HW215072   2.449   1.439   7.411  0.3933  0.1538 -0.1753
 1204SOL     OW15073   3.251   3.912   3.249 -0.2073 -0.3003  0.2114
 1204SOL    HW115074   3.206   3.947   3.172 -0.4151 -0.0160  0.4601
 1204SOL    HW215075   3.199   3.946   3.323  0.2716  1.1463 -0.1197
 1205SOL     OW15076   1.109   4.191   2.968 -0.0585  0.0748 -0.5880
 1205SOL    HW115077   1.036   4.241   3.003  0.5333  0.7946 -0.3866
 1205SOL    HW215078   1.096   4.184   2.873  0.4646 -1.1161 -0.5766
 1206SOL     OW15079   3.840   3.325   7.349  0.1429 -0.7203  0.0404
 1206SOL    HW115080   3.841   3.315   7.254  2.7513  2.7325 -0.2991
 1206SOL    HW215081   3.844   3.419   7.371 -0.0462 -0.3637 -1.4465
 1207SOL     OW15082   0.184   1.973  11.863 -0.6477 -0.3093  0.3330
 1207SOL    HW115083   0.134   1.946  11.786 -0.1070  0.8930 -0.4364
 1207SOL    HW215084   0.131   1.944  11.937 -2.3581  0.7339 -0.4837
 1208SOL     OW15085   2.603   4.560   6.153  0.2823 -0.6913  0.3186
 1208SOL    HW115086   2.616   4.644   6.109 -2.4073 -0.3997  0.0666
 1208SOL    HW215087   2.691   4.523   6.142  0.5049  0.0252 -0.2985
 1209SOL     OW15088   2.546   3.566   4.132  0.4265  0.8580 -0.0453
 1209SOL    HW115089   2.638   3.542   4.120  0.3915  2.0671 -2.6455
 1209SOL    HW215090   2.522   3.523   4.214 -0.0326  0.7608 -0.2295
 1210SOL     OW15091   0.200   4.411   1.696  0.1551 -0.4730 -0.4333
 1210SOL    HW115092   0.168   4.460   1.620  2.8058 -1.8263 -2.4050
 1210SOL    HW215093   0.286   4.383   1.664  0.9862  1.1971  0.3114
 1211SOL     OW15094   4.098   1.372   6.060  0.5004 -0.1395  0.5016
 1211SOL    HW115095   4.132   1.329   5.982 -1.4583 -0.5225 -0.1511
 1211SOL    HW215096   4.111   1.462   6.032  2.1280  0.5522  3.4753
 1212SOL     OW15097   2.245   3.523   5.742 -0.1877  0.4474 -0.1471
 1212SOL    HW115098   2.257   3.502   5.650 -0.0145 -0.1207  0.0075
 1212SOL    HW215099   2.184   3.456   5.772 -1.1687  0.3079 -2.4860
 1213SOL     OW15100   1.607   3.712  12.368 -0.4475  0.1283 -0.3950
 1213SOL    HW115101   1.694   3.750  12.376 -0.3636 -0.0979 -0.2407
 1213SOL    HW215102   1.638   3.622  12.368  0.3649  0.4184  0.8670
 1214SOL     OW15103   3.746   3.931   5.901  0.6505 -0.5092  0.4462
 1214SOL    HW115104   3.659   3.946   5.865  0.9601  1.8327  0.6269
 1214SOL    HW215105   3.767   3.855   5.848 -3.6073 -2.3132  1.3220
 1215SOL     OW15106   2.890   3.356  16.920  0.3591 -0.0490  0.0127
 1215SOL    HW115107   2.936   3.298  16.858 -2.2886 -1.4495 -0.6530
 1215SOL    HW215108   2.871   3.421  16.852  0.2279  1.0449  1.1175
 1216SOL     OW15109   1.876   1.332   0.102 -0.1048  0.2865  0.2398
 1216SOL    HW115110   1.789   1.312   0.068 -0.1659  1.0677 -0.0737
 1216SOL    HW215111   1.896   1.418   0.064 -2.3095  0.2959 -0.9411
 1217SOL     OW15112   1.529   4.146   6.993  0.1640 -0.3783 -0.0423
 1217SOL    HW115113   1.471   4.118   7.064 -0.8759  0.4264 -0.5737
 1217SOL    HW215114   1.538   4.237   7.023  0.9521 -0.2616 -0.6208
 1218SOL     OW15115   0.540   2.912  16.349  0.1822  0.2361  0.2528
 1218SOL    HW115116   0.467   2.962  16.385  1.5679  1.8335  0.7732
 1218SOL    HW215117   0.521   2.828  16.392 -2.1861  0.5146 -0.2093
 1219SOL     OW15118   1.624   4.577   8.410 -0.3049  0.1236  0.8365
 1219SOL    HW115119   1.595   4.497   8.454  0.6215 -0.0730  1.0967
 1219SOL    HW215120   1.637   4.544   8.321 -0.9958  1.8010  0.1048
 1220SOL     OW15121   0.176   3.336   3.930 -0.6657 -0.1471  0.1263
 1220SOL    HW115122   0.154   3.370   3.844  2.7004  1.5066 -0.0749
 1220SOL    HW215123   0.269   3.320   3.913 -1.0319 -2.2508  0.0122
 1221SOL     OW15124   2.359   2.384   5.950  0.3261  0.0438  0.2394
 1221SOL    HW115125   2.307   2.304   5.955  0.6429 -0.0724  1.5226
 1221SOL    HW215126   2.308   2.452   5.994 -0.2798  0.0793 -0.5046
 1222SOL     OW15127   1.696   4.674  15.796 -0.1222 -0.3500  0.1019
 1222SOL    HW115128   1.711   4.691  15.889  2.4317 -2.1176  0.0142
 1222SOL    HW215129   1.643   4.595  15.810  0.0826 -0.1118  2.2785
 1223SOL     OW15130   1.763   2.611   8.906  0.0556 -0.3466 -0.4541
 1223SOL    HW115131   1.808   2.668   8.969 -0.6136 -0.3224  0.0122
 1223SOL    HW215132   1.722   2.551   8.969 -1.7565  2.5618  1.1785
 1224SOL     OW15133   1.428   0.172   4.436  0.3336  0.2458  0.0874
 1224SOL    HW115134   1.403   0.264   4.435  1.1652  0.4760  0.9605
 1224SOL    HW215135   1.341   0.136   4.457 -0.4298  2.4311  0.7191
 1225SOL     OW15136   1.534   0.021   5.905  0.2885 -0.4163 -0.1478
 1225SOL    HW115137   1.477   4.669   5.873 -0.6172  0.5693 -0.6869
 1225SOL    HW215138   1.572   0.051   5.823 -3.3254 -1.7217 -2.3136
 1226SOL     OW15139   0.039   1.449   5.597 -0.6428  0.0638 -0.0855
 1226SOL    HW115140   4.706   1.435   5.518 -1.1230 -0.5817  0.3415
 1226SOL    HW215141   0.055   1.543   5.596  1.0366 -0.2470 -3.8734
 1227SOL     OW15142   3.532   2.067   4.742 -0.1387  0.7495  0.7135
 1227SOL    HW115143   3.515   2.044   4.833  0.6839  0.1098  0.7022
 1227SOL    HW215144   3.547   2.161   4.750 -2.1738  1.1499 -0.0325
 1228SOL     OW15145   3.068   1.233   0.367  0.1787  0.3242  0.5365
 1228SOL    HW115146   3.072   1.139   0.386 -1.7661  0.3062  0.8450
 1228SOL    HW215147   2.973   1.233   0.357  0.3740  1.3190 -1.2094
 1229SOL     OW15148   1.288   4.276   9.375 -0.6560 -0.5720 -0.2663
 1229SOL    HW115149   1.278   4.328   9.295 -0.8527 -2.0471 -1.1980
 1229SOL    HW215150   1.352   4.213   9.343 -0.3254 -1.1832  1.5937
 1230SOL     OW15151   1.856   0.520   4.455  0.1950  0.1192 -0.2794
 1230SOL    HW115152   1.894   0.437   4.487  0.3119  1.4161  2.9138
 1230SOL    HW215153   1.876   0.515   4.362  0.0992  2.3394 -0.4065
 1231SOL     OW15154   1.453   3.823   5.692  0.3110  0.0689 -0.0483
 1231SOL    HW115155   1.359   3.834   5.709  0.1210 -1.1219 -0.3392
 1231SOL    HW215156   1.486   3.902   5.735  0.0446  0.1443  0.0161
 1232SOL     OW15157   3.717   4.467  12.210  0.4385  0.3633 -0.1129
 1232SOL    HW115158   3.803   4.474  12.252 -0.1452  0.2229  1.0928
 1232SOL    HW215159   3.704   4.556  12.178 -0.4037  0.5721  0.8410
 1233SOL     OW15160   3.246   0.901  12.705  0.0763 -0.0085  0.2881
 1233SOL    HW115161   3.309   0.848  12.656  0.9072  0.2007  1.1265
 1233SOL    HW215162   3.302   0.955  12.761  0.5681  0.2605 -0.4665
 1234SOL     OW15163   3.741   4.384  17.391 -0.4263 -0.3460  0.1668
 1234SOL    HW115164   3.758   4.471  17.355  0.6519  0.3758  2.3802
 1234SOL    HW215165   3.646   4.374  17.395 -0.2712 -2.3933 -1.3313
 1235SOL     OW15166   3.828   3.394  16.674 -0.0671 -0.5177 -0.9283
 1235SOL    HW115167   3.808   3.358  16.761  0.7823 -0.2493 -0.6298
 1235SOL    HW215168   3.788   3.481  16.678 -0.9187 -0.9659  0.3604
 1236SOL     OW15169   0.290   4.494   1.417  0.5077  0.0692  0.0927
 1236SOL    HW115170   0.304   4.573   1.366  1.3069 -0.3227 -0.2897
 1236SOL    HW215171   0.199   4.510   1.444  0.8117  0.5793  0.8317
 1237SOL     OW15172   2.263   3.349   4.914  0.5588 -0.6204  0.0070
 1237SOL    HW115173   2.186   3.397   4.946  0.6927 -1.4768  1.6205
 1237SOL    HW215174   2.263   3.278   4.977  0.9978 -0.9230 -0.3377
 1238SOL     OW15175   3.971   2.710  10.768 -0.7889  0.1929  0.0813
 1238SOL    HW115176   4.050   2.676  10.810  0.3854  0.6517 -1.7349
 1238SOL    HW215177   4.016   2.741  10.690 -0.1953  2.5498  1.3525
 1239SOL     OW15178   4.260   1.802   6.740  0.3174  0.2141 -0.3300
 1239SOL    HW115179   4.229   1.735   6.679  0.3950 -1.2962  1.2980
 1239SOL    HW215180   4.226   1.876   6.689 -1.2850  0.6125  1.3300
 1240SOL     OW15181   3.076   0.498   6.169  0.1196 -0.1458  0.2172
 1240SOL    HW115182   3.059   0.582   6.128  1.3082 -1.2286 -2.5134
 1240SOL    HW215183   3.170   0.514   6.163  0.3234 -0.5933  2.1706
 1241SOL     OW15184   3.712   1.431   3.045 -0.6300  0.2057  0.5742
 1241SOL    HW115185   3.645   1.363   3.033 -1.5884  0.8809  2.1454
 1241SOL    HW215186   3.790   1.375   3.044 -1.6225 -1.1785 -0.4301
 1242SOL     OW15187   0.921   3.195   9.087  0.2466  0.0014  0.4598
 1242SOL    HW115188   0.930   3.202   8.992  0.3257  0.7527  0.5233
 1242SOL    HW215189   0.981   3.262   9.119  0.3627 -0.5542  1.4071
 1243SOL     OW15190   3.716   0.203   4.553  0.4173  0.4387 -0.4439
 1243SOL    HW115191   3.771   0.230   4.626 -0.4875 -1.3441  0.9027
 1243SOL    HW215192   3.769   0.214   4.474  1.4961  0.7170  0.3371
 1244SOL     OW15193   0.293   2.731   2.636  0.0112  0.0346  0.3356
 1244SOL    HW115194   0.364   2.795   2.631 -0.4263  0.3251 -1.9174
 1244SOL    HW215195   0.308   2.689   2.721 -3.0534 -0.5970  0.5537
 1245SOL     OW15196   2.652   2.252   3.540  0.0466  0.0473  0.1820
 1245SOL    HW115197   2.722   2.273   3.602 -1.6637 -0.9964  2.4443
 1245SOL    HW215198   2.650   2.159   3.564 -0.7563  0.3504  1.2741
 1246SOL     OW15199   1.690   2.174   5.776 -0.0183 -0.3933  0.0288
 1246SOL    HW115200   1.733   2.238   5.720 -0.1622 -0.2554  0.0757
 1246SOL    HW215201   1.755   2.104   5.775  0.4506  0.0781 -1.8427
 1247SOL     OW15202   0.400   2.207   3.522 -0.1131  0.5724 -0.3182
 1247SOL    HW115203   0.390   2.273   3.453 -2.1945 -0.1119 -0.6890
 1247SOL    HW215204   0.378   2.130   3.469 -0.9275  0.4744  0.1568
 1248SOL     OW15205   0.686   0.111   7.578  0.7568 -0.3539 -0.9995
 1248SOL    HW115206   0.715   0.027   7.615 -0.2998 -0.4782 -0.4550
 1248SOL    HW215207   0.623   0.081   7.513 -0.6364  0.2148  0.0906
 1249SOL     OW15208   0.997   0.334  17.183 -0.3202 -0.4072  0.8300
 1249SOL    HW115209   1.083   0.372  17.166 -0.1615 -1.1539 -0.0569
 1249SOL    HW215210   0.967   0.408  17.235 -2.3248  0.0106 -0.9052
 1250SOL     OW15211   0.762   3.849  12.965 -0.1521 -0.0931 -0.2196
 1250SOL    HW115212   0.764   3.901  13.045 -0.9060  0.2577 -0.4332
 1250SOL    HW215213   0.749   3.924  12.908 -0.4083 -1.1518 -1.5523
 1251SOL     OW15214   2.042   0.476   9.652 -0.1449  0.4061  0.5104
 1251SOL    HW115215   2.075   0.563   9.629  0.8990  0.2331  1.3853
 1251SOL    HW215216   2.087   0.468   9.736  0.2465  1.5427  0.4112
 1252SOL     OW15217   0.226   0.971   3.847  0.3197  0.2918  0.2003
 1252SOL    HW115218   0.178   0.953   3.766  0.2062  0.4115  0.2399
 1252SOL    HW215219   0.158   0.954   3.912 -0.0580 -2.6700 -0.9713
 1253SOL     OW15220   3.944   4.570   4.439 -0.0738 -0.1228 -0.0736
 1253SOL    HW115221   4.005   4.528   4.500 -0.5546 -0.0819  0.4427
 1253SOL    HW215222   3.873   4.591   4.499 -0.0871  0.0645 -0.1574
 1254SOL     OW15223   1.864   3.786  12.401 -0.0784  0.2791 -0.0126
 1254SOL    HW115224   1.943   3.735  12.387  0.7816  1.2919  1.1528
 1254SOL    HW215225   1.878   3.873  12.364  1.5086 -0.3009 -0.7480
 1255SOL     OW15226   3.707   3.760   1.588 -0.3158 -0.0357  0.0946
 1255SOL    HW115227   3.728   3.678   1.543  0.3860  0.5840 -0.7159
 1255SOL    HW215228   3.654   3.735   1.663  1.2730 -0.1503  1.1750
 1256SOL     OW15229   2.018   3.584  13.273  0.0039 -0.1607 -0.3782
 1256SOL    HW115230   1.929   3.600  13.243  0.2629  1.8359 -0.0816
 1256SOL    HW215231   2.073   3.621  13.204 -0.7578  2.3710  0.3489
 1257SOL     OW15232   2.719   0.767   9.734 -0.3882  0.1040  0.0179
 1257SOL    HW115233   2.727   0.758   9.639  1.4080  0.2522  0.1633
 1257SOL    HW215234   2.625   0.756   9.752 -0.9576  2.4761 -1.3802
 1258SOL     OW15235   2.957   2.641   6.889  0.1058  0.0822  0.3000
 1258SOL    HW115236   2.861   2.650   6.889  0.0703 -0.2857  0.0175
 1258SOL    HW215237   2.998   2.725   6.868  2.1672 -0.9701  0.1170
 1259SOL     OW15238   2.754   0.046   4.392 -0.1534  0.4552  0.3853
 1259SOL    HW115239   2.813   4.707   4.442 -0.1936  2.1076  2.3055
 1259SOL    HW215240   2.821   0.098   4.348 -0.3468  0.4704  0.1055
 1260SOL     OW15241   1.432   3.979  10.727 -0.1561  0.1368  0.0134
 1260SOL    HW115242   1.453   3.885  10.725  0.1483  0.2038 -0.0321
 1260SOL    HW215243   1.337   3.986  10.725 -0.0221  2.2780  1.1931
 1261SOL     OW15244   2.051   2.218   6.998 -0.3077 -0.4657 -0.3646
 1261SOL    HW115245   2.067   2.125   7.014 -1.3792 -0.4876  0.6255
 1261SOL    HW215246   1.988   2.222   7.070 -0.0421 -0.1161 -0.1577
 1262SOL     OW15247   1.097   3.674  11.334  0.1893  0.1233  0.0836
 1262SOL    HW115248   1.140   3.643  11.254 -1.2024  0.1493 -0.6828
 1262SOL    HW215249   1.020   3.617  11.340  0.1524 -0.1121 -2.4379
 1263SOL     OW15250   0.847   0.795  12.393  0.0033  0.5777 -0.7410
 1263SOL    HW115251   0.781   0.856  12.361 -0.6410 -1.0219 -2.4614
 1263SOL    HW215252   0.909   0.849  12.443  0.3587  1.4009 -2.0518
 1264SOL     OW15253   1.757   3.620   0.935  0.1584  0.1882  0.8607
 1264SOL    HW115254   1.781   3.568   1.012  0.3288 -0.1818  0.5536
 1264SOL    HW215255   1.690   3.680   0.969 -2.0571 -1.1721 -1.1000
 1265SOL     OW15256   1.834   4.481   7.720 -0.4583  0.4058  0.0812
 1265SOL    HW115257   1.863   4.393   7.746 -1.0825  0.1247 -0.1700
 1265SOL    HW215258   1.752   4.496   7.767 -1.3875 -1.6153 -0.8667
 1266SOL     OW15259   1.656   4.490   6.332 -0.6936  0.0247  0.0383
 1266SOL    HW115260   1.743   4.466   6.362 -0.7573 -0.3205 -0.0542
 1266SOL    HW215261   1.670   4.496   6.238  1.4471 -2.0562  0.2165
 1267SOL     OW15262   0.866   0.725   0.577 -0.4047  0.2528 -0.3059
 1267SOL    HW115263   0.884   0.662   0.507 -0.8728 -0.0535 -0.1557
 1267SOL    HW215264   0.884   0.666   0.650 -0.5361 -1.5771 -1.7431
 1268SOL     OW15265   0.905   0.437   5.711  0.0372  0.8101 -0.3104
 1268SOL    HW115266   0.917   0.427   5.616  0.2805  1.1329 -0.3113
 1268SOL    HW215267   0.993   0.459   5.743 -0.7544 -0.4484  2.7292
 1269SOL     OW15268   0.720   4.377   8.893  0.1088  0.0787 -0.2905
 1269SOL    HW115269   0.815   4.383   8.903 -0.0326  0.8539  0.5942
 1269SOL    HW215270   0.683   4.390   8.980  1.4831  1.3379  0.1174
 1270SOL     OW15271   0.763   0.401   9.125  0.3857  0.2219 -0.4291
 1270SOL    HW115272   0.834   0.355   9.081 -1.1667  0.1459 -2.8675
 1270SOL    HW215273   0.743   0.462   9.054  0.8831  0.2091 -0.5798
 1271SOL     OW15274   3.633   4.492   1.016 -0.3167 -0.1187  0.5789
 1271SOL    HW115275   3.670   4.490   0.927 -0.0937 -1.1973  0.6966
 1271SOL    HW215276   3.699   4.437   1.058  2.1171  2.2309 -0.1333
 1272SOL     OW15277   3.500   3.796   0.029  0.1910  0.2578  0.8575
 1272SOL    HW115278   3.528   3.867  17.645 -0.1296  1.1188  1.7310
 1272SOL    HW215279   3.486   3.728  17.639 -1.2902  2.4367 -1.1199
 1273SOL     OW15280   4.515   2.260  13.818  0.4002 -0.5306  0.4938
 1273SOL    HW115281   4.478   2.198  13.754 -1.3071  0.4521  0.5423
 1273SOL    HW215282   4.605   2.226  13.820  0.7546  0.4629  1.2104
 1274SOL     OW15283   1.114   4.673  11.223  0.5172  0.3176 -1.2065
 1274SOL    HW115284   1.022   4.646  11.226  1.0544 -1.3911 -0.4399
 1274SOL    HW215285   1.110   0.023  11.155 -1.7267  1.8439  0.4263
 1275SOL     OW15286   1.786   3.385   3.612  0.4526 -0.0116  0.6126
 1275SOL    HW115287   1.860   3.410   3.557 -0.3468 -0.6588 -0.7747
 1275SOL    HW215288   1.772   3.470   3.654 -3.4184 -1.5248  2.3431
 1276SOL     OW15289   2.787   3.018   4.891  0.0037  0.0884  0.0016
 1276SOL    HW115290   2.728   3.013   4.966 -2.5384  0.5008 -1.9852
 1276SOL    HW215291   2.783   2.930   4.855  0.6919  0.2308 -0.4407
 1277SOL     OW15292   2.550   1.884   8.423 -0.4828 -0.0225 -0.1692
 1277SOL    HW115293   2.621   1.834   8.464 -2.9012 -2.0155  1.5605
 1277SOL    HW215294   2.472   1.846   8.463 -1.2683  1.8374  0.0188
 1278SOL     OW15295   4.139   0.289   5.324 -0.4633 -0.0525 -0.1712
 1278SOL    HW115296   4.126   0.301   5.230 -1.4067  0.4004  0.0101
 1278SOL    HW215297   4.088   0.361   5.362  0.7646  1.7034 -1.8841
 1279SOL     OW15298   1.489   3.721  10.779 -0.2767  0.2897 -0.0836
 1279SOL    HW115299   1.493   3.659  10.707 -0.6999 -1.3755  1.3248
 1279SOL    HW215300   1.426   3.686  10.842  1.6531  0.5048  1.9467
 1280SOL     OW15301   1.371   4.603   3.551 -0.2598  0.2240 -0.4407
 1280SOL    HW115302   1.366   4.544   3.626  1.6335  0.2425 -0.2851
 1280SOL    HW215303   1.379   4.537   3.482 -1.3209 -0.2723 -0.0878
 1281SOL     OW15304   2.107   0.027   3.556 -0.1270 -0.0390  0.6125
 1281SOL    HW115305   2.159   4.680   3.605  0.0571 -1.2576 -1.1992
 1281SOL    HW215306   2.072   4.681   3.494  0.4903 -0.3730  0.6036
 1282SOL     OW15307   4.651   2.179   7.474 -0.6924 -0.2569 -0.6458
 1282SOL    HW115308   4.671   2.168   7.566  1.7905 -2.2080 -1.4438
 1282SOL    HW215309   0.023   2.187   7.445 -0.3905  1.5131  0.8297
 1283SOL     OW15310   0.637   4.155   4.491 -0.3011 -0.4238 -0.5930
 1283SOL    HW115311   0.641   4.147   4.586 -1.1161 -0.1607 -0.5381
 1283SOL    HW215312   0.543   4.155   4.474 -0.1696 -1.6094 -1.3384
 1284SOL     OW15313   3.866   3.347   7.072  0.2235  0.1230 -0.3193
 1284SOL    HW115314   3.786   3.389   7.043  0.1361 -0.9405 -1.5960
 1284SOL    HW215315   3.925   3.422   7.061 -0.1259  0.1241 -2.2481
 1285SOL     OW15316   2.054   2.680   7.598 -0.1204  0.0442  0.0996
 1285SOL    HW115317   1.976   2.642   7.556  0.2736 -0.1011 -0.5010
 1285SOL    HW215318   2.116   2.670   7.525  1.3710  2.8765  0.9906
 1286SOL     OW15319   1.640   3.180   8.417 -0.3239 -0.1145 -0.6803
 1286SOL    HW115320   1.573   3.123   8.455 -1.5863  1.7845 -0.0014
 1286SOL    HW215321   1.719   3.126   8.423 -1.1776 -1.3719 -0.7630
 1287SOL     OW15322   1.961   2.787   4.395  0.0767  0.6377  0.2924
 1287SOL    HW115323   2.004   2.863   4.357  0.1265 -0.1317 -1.2004
 1287SOL    HW215324   2.033   2.770   4.456  1.2966 -1.1127 -1.6206
 1288SOL     OW15325   0.542   1.571   3.319  0.5115 -0.0205  0.5765
 1288SOL    HW115326   0.553   1.665   3.303  0.1270 -0.0244  0.2839
 1288SOL    HW215327   0.561   1.578   3.412  1.6002 -1.1078  0.4348
 1289SOL     OW15328   4.674   3.776   3.207  0.4226 -0.0446  0.5580
 1289SOL    HW115329   4.585   3.809   3.199 -0.1819 -1.8915 -0.3294
 1289SOL    HW215330   4.671   3.720   3.285  0.5623 -0.7346  0.0726
 1290SOL     OW15331   2.414   4.258   4.760 -0.1918 -0.0670 -0.2014
 1290SOL    HW115332   2.414   4.165   4.786 -0.7614 -0.0036  0.0249
 1290SOL    HW215333   2.359   4.283   4.834 -0.7176  2.6717 -1.5407
 1291SOL     OW15334   1.814   1.943  15.973 -0.5292  0.1676  0.1436
 1291SOL    HW115335   1.833   1.984  16.057 -1.6930  0.1761  0.4018
 1291SOL    HW215336   1.872   1.981  15.907 -1.7000 -0.7578 -1.4284
 1292SOL     OW15337   0.262   2.924  14.787  0.1541  0.5265  0.0885
 1292SOL    HW115338   0.277   3.018  14.792  1.6979  0.3341 -0.9283
 1292SOL    HW215339   0.353   2.902  14.809 -0.5530 -1.5062  1.0154
 1293SOL     OW15340   2.861   4.638   1.124  0.1910  0.0516 -0.2137
 1293SOL    HW115341   2.910   4.713   1.158 -0.4385  0.0598  0.6812
 1293SOL    HW215342   2.770   4.654   1.150  0.1271 -1.9943  0.8214
 1294SOL     OW15343   2.303   2.057   2.715 -0.4472 -0.1361 -0.1793
 1294SOL    HW115344   2.389   2.039   2.677 -0.0383  0.0932  0.6352
 1294SOL    HW215345   2.315   2.011   2.798 -1.1992 -0.9303 -0.5230
 1295SOL     OW15346   2.795   0.149   8.038 -0.0723  0.0842  0.0119
 1295SOL    HW115347   2.813   0.242   8.022 -1.0240  0.7331  2.7583
 1295SOL    HW215348   2.735   0.128   7.966  1.5992 -1.4642 -0.9542
 1296SOL     OW15349   2.960   3.042   6.488  0.0261 -0.0576 -0.4189
 1296SOL    HW115350   2.870   3.013   6.475  0.2488 -1.4843  1.1124
 1296SOL    HW215351   2.982   3.077   6.402 -4.1221  2.7800 -0.3113
 1297SOL     OW15352   4.327   0.945   4.103 -0.8720  0.1531 -0.6134
 1297SOL    HW115353   4.272   1.023   4.113  0.2093  0.9091 -0.6160
 1297SOL    HW215354   4.374   0.969   4.023  1.6918  1.0547  1.1817
 1298SOL     OW15355   3.943   0.944  16.941 -0.1524  0.2355  0.1468
 1298SOL    HW115356   4.036   0.965  16.931 -0.1750 -0.9831 -2.5799
 1298SOL    HW215357   3.900   1.029  16.945  0.6454  0.5971  1.2873
 1299SOL     OW15358   1.739   4.577  10.495  0.9525 -0.1323  0.5782
 1299SOL    HW115359   1.746   4.644  10.563  1.5377 -0.9612  1.3484
 1299SOL    HW215360   1.798   4.597  10.422  1.2714  0.0789  0.8940
 1300SOL     OW15361   1.345   1.595  12.303 -0.0028  0.1140  0.4289
 1300SOL    HW115362   1.370   1.664  12.365 -0.6196 -1.0312  1.9513
 1300SOL    HW215363   1.423   1.540  12.300  0.8796  1.4333 -0.6284
 1301SOL     OW15364   3.394   4.616   5.303  0.3174  0.4022 -0.2338
 1301SOL    HW115365   3.390   4.699   5.255 -1.3366  0.3194 -0.2341
 1301SOL    HW215366   3.489   4.618   5.316  0.0787  2.0610  1.2547
 1302SOL     OW15367   0.627   4.132   6.129 -0.2851  0.0206  0.5709
 1302SOL    HW115368   0.681   4.080   6.189  1.0060  0.6698 -0.0187
 1302SOL    HW215369   0.619   4.059   6.067 -4.1394  0.1305  0.9368
 1303SOL     OW15370   4.269   1.455   5.667 -0.0682 -0.2344 -0.1604
 1303SOL    HW115371   4.301   1.420   5.750 -2.2683 -1.2779  0.2532
 1303SOL    HW215372   4.179   1.479   5.689  0.4183  0.9420  0.4859
 1304SOL     OW15373   1.398   2.134   4.954  0.4787 -0.4752  0.5128
 1304SOL    HW115374   1.462   2.130   4.882  2.2697 -1.3100  2.1336
 1304SOL    HW215375   1.434   2.064   5.010  0.5027  0.0011  1.0908
 1305SOL     OW15376   2.523   2.824   3.651 -0.5591  0.9091  0.2109
 1305SOL    HW115377   2.583   2.875   3.597  1.2879 -0.1561  1.2349
 1305SOL    HW215378   2.531   2.883   3.726 -1.3406 -0.5370  1.4386
 1306SOL     OW15379   0.938   1.803   3.966  0.1305 -0.3902 -0.2411
 1306SOL    HW115380   0.989   1.840   3.894  1.8352 -0.2065  1.0443
 1306SOL    HW215381   0.868   1.868   3.967  2.1484  1.7976 -1.9955
 1307SOL     OW15382   3.576   0.207  16.563  0.3700  0.1038  0.3718
 1307SOL    HW115383   3.601   0.239  16.476 -0.5439 -0.7418 -0.2019
 1307SOL    HW215384   3.561   0.116  16.537 -2.0965 -0.0788  2.3534
 1308SOL     OW15385   0.591   2.643   3.203 -0.0973 -0.2197  0.0967
 1308SOL    HW115386   0.648   2.585   3.254 -2.5812 -0.3097  2.7893
 1308SOL    HW215387   0.560   2.700   3.274  0.3395  1.7876 -1.3170
 1309SOL     OW15388   3.456   0.754   7.837  0.0755 -0.4108 -0.2198
 1309SOL    HW115389   3.448   0.850   7.831  0.6033 -0.4053 -0.8379
 1309SOL    HW215390   3.462   0.732   7.930  1.7412  2.9085  0.4627
 1310SOL     OW15391   4.049   2.996   3.316  0.0262  0.2857 -0.3879
 1310SOL    HW115392   4.032   3.089   3.333  1.4725  0.3097  0.9211
 1310SOL    HW215393   4.107   3.000   3.240 -0.7298 -0.2814 -0.9952
 1311SOL     OW15394   3.749   3.684  10.658  0.1546 -0.0631  0.2897
 1311SOL    HW115395   3.817   3.624  10.627 -0.5357 -1.3224  1.2339
 1311SOL    HW215396   3.695   3.635  10.720  2.9830 -3.1764  0.2753
 1312SOL     OW15397   4.703   2.479   2.509  0.8314 -0.0292 -0.0463
 1312SOL    HW115398   0.044   2.542   2.468  1.6057  1.2984  3.1811
 1312SOL    HW215399   4.617   2.510   2.481  0.4050  0.9992  2.4512
 1313SOL     OW15400   2.363   1.088   6.354 -0.3088  0.0116  0.2069
 1313SOL    HW115401   2.378   1.123   6.442 -0.0555 -0.7205  0.4504
 1313SOL    HW215402   2.270   1.108   6.339 -0.7132  0.6825  3.6127
 1314SOL     OW15403   0.044   1.558  11.629 -0.0205 -0.2587  0.2039
 1314SOL    HW115404   0.012   1.518  11.548 -2.6873 -0.1291  1.1789
 1314SOL    HW215405   0.133   1.526  11.618  0.9287  2.2018  0.7570
 1315SOL     OW15406   2.401   0.091   6.637  0.0636 -0.4739 -0.2697
 1315SOL    HW115407   2.443   0.004   6.636 -1.5100 -1.2407  0.7746
 1315SOL    HW215408   2.310   0.071   6.660  0.3847  0.1846  1.5789
 1316SOL     OW15409   0.596   0.790   7.217 -0.0167  0.1856  0.6278
 1316SOL    HW115410   0.527   0.825   7.161 -0.7184 -2.4349 -0.1148
 1316SOL    HW215411   0.639   0.875   7.225  1.1646 -0.3514 -0.0909
 1317SOL     OW15412   3.211   0.176   3.098  0.0654 -0.1194  0.4457
 1317SOL    HW115413   3.123   0.196   3.068 -0.1727  0.6056  1.6675
 1317SOL    HW215414   3.240   0.107   3.037 -1.7365  0.4700 -1.0737
 1318SOL     OW15415   3.977   2.040   5.135 -0.5648 -0.6959  0.4501
 1318SOL    HW115416   4.046   2.095   5.097  0.3006 -0.9099  1.7083
 1318SOL    HW215417   4.008   1.960   5.092  0.0726 -0.0636 -0.2681
 1319SOL     OW15418   0.955   2.787   9.732  0.3711 -0.1300 -0.7824
 1319SOL    HW115419   0.889   2.768   9.665  1.1308 -0.6224 -1.3884
 1319SOL    HW215420   1.038   2.779   9.686  1.2819  1.2238  0.6190
 1320SOL     OW15421   1.316   3.943   5.930 -0.1526  0.2874 -0.3921
 1320SOL    HW115422   1.356   3.864   5.966 -4.0176 -0.5696  2.0249
 1320SOL    HW215423   1.265   3.963   6.009  1.5336  2.6181  0.1177
 1321SOL     OW15424   2.367   3.960   8.053 -0.0780 -0.1437 -0.0153
 1321SOL    HW115425   2.425   4.030   8.024  1.6596 -2.3586 -1.9066
 1321SOL    HW215426   2.423   3.902   8.105 -1.3022 -0.9957  0.3538
 1322SOL     OW15427   0.742   0.150  14.845  0.4595 -0.4658 -0.8000
 1322SOL    HW115428   0.809   0.202  14.800  0.0879  1.8443  1.2841
 1322SOL    HW215429   0.803   0.083  14.875  2.2113  1.1088 -0.8016
 1323SOL     OW15430   1.785   2.567   2.374  0.3976  0.8589 -0.3871
 1323SOL    HW115431   1.750   2.564   2.463  0.6592 -1.3383 -0.3623
 1323SOL    HW215432   1.696   2.583   2.341  0.5270  1.3082 -0.5093
 1324SOL     OW15433   1.575   1.393   3.690  0.0963 -0.1928  0.4152
 1324SOL    HW115434   1.515   1.380   3.764 -0.5560  1.5077  0.1900
 1324SOL    HW215435   1.541   1.480   3.668 -0.8991 -0.6529  0.1718
 1325SOL     OW15436   4.421   2.771   9.919 -0.3215  0.2345  0.1213
 1325SOL    HW115437   4.358   2.719   9.870 -1.4126  0.9514  0.7756
 1325SOL    HW215438   4.433   2.846   9.860  0.3157  0.1868  0.1928
 1326SOL     OW15439   1.873   2.637   7.940 -0.3835 -0.1659 -0.1873
 1326SOL    HW115440   1.849   2.633   7.847  1.9073  2.0601 -0.8662
 1326SOL    HW215441   1.968   2.644   7.930 -0.3339 -1.1934 -0.4708
 1327SOL     OW15442   1.795   3.399  12.692 -0.4710  0.1413 -0.4091
 1327SOL    HW115443   1.749   3.469  12.738  0.8256  1.0512 -0.4852
 1327SOL    HW215444   1.800   3.334  12.762  0.8259  2.1393  1.3626
 1328SOL     OW15445   4.326   2.981  11.862  0.1449  0.0069  0.1584
 1328SOL    HW115446   4.387   2.966  11.935  1.2546 -0.8151 -0.9464
 1328SOL    HW215447   4.257   2.923  11.893  0.9556 -1.5959 -1.0607
 1329SOL     OW15448   4.373   2.964  11.568  0.1562 -0.1914 -0.5160
 1329SOL    HW115449   4.458   2.996  11.540 -0.4799  0.5305 -1.5913
 1329SOL    HW215450   4.393   2.959  11.662  3.0955  3.2562 -0.9644
 1330SOL     OW15451   4.716   4.515   1.176 -0.1763  0.3364  0.0425
 1330SOL    HW115452   4.635   4.473   1.206  0.9046 -0.9211  1.2013
 1330SOL    HW215453   0.052   4.437   1.192  0.9847  1.0094 -0.6565
 1331SOL     OW15454   1.482   0.030   5.436  0.1616 -0.0391 -0.1972
 1331SOL    HW115455   1.444   0.110   5.472 -1.8566 -0.3266 -1.6827
 1331SOL    HW215456   1.561   0.069   5.398 -0.2013 -0.1055 -1.0126
 1332SOL     OW15457   1.050   4.055   2.256 -0.5555  0.2346  0.1606
 1332SOL    HW115458   1.090   4.135   2.222  0.0919 -0.4707 -0.7369
 1332SOL    HW215459   1.096   4.061   2.340 -1.6530  1.0769  0.6963
 1333SOL     OW15460   4.634   2.790   2.584 -0.3773  1.1116  0.0793
 1333SOL    HW115461   4.682   2.845   2.523  0.1969 -0.5425 -0.9725
 1333SOL    HW215462   4.600   2.852   2.648  0.2439  0.7997  0.7122
 1334SOL     OW15463   2.054   4.012   1.879  0.4907 -0.0780 -0.1495
 1334SOL    HW115464   1.997   4.056   1.816 -2.6588 -3.1167  0.5673
 1334SOL    HW215465   2.135   4.062   1.872 -2.2133  4.4921  1.4225
 1335SOL     OW15466   2.162   2.022  16.283 -0.2336  0.4514 -0.5559
 1335SOL    HW115467   2.073   2.058  16.288 -0.3975 -0.7309  4.6140
 1335SOL    HW215468   2.139   1.938  16.242  1.2072  0.8975 -2.2823
 1336SOL     OW15469   1.505   3.024   9.729 -0.4015 -0.3577  0.1889
 1336SOL    HW115470   1.410   3.014   9.740  0.0012 -2.2338  1.8117
 1336SOL    HW215471   1.519   3.085   9.657 -1.8304 -0.3365 -0.0677
 1337SOL     OW15472   0.305   1.850   4.159  0.2440  0.1411 -0.3498
 1337SOL    HW115473   0.261   1.767   4.178 -0.9765  0.4965 -1.6656
 1337SOL    HW215474   0.335   1.818   4.074 -1.8843  0.5019 -1.2398
 1338SOL     OW15475   1.119   4.487  15.442  0.0763  0.0202 -0.4758
 1338SOL    HW115476   1.061   4.460  15.512 -0.2465 -0.8177 -1.0634
 1338SOL    HW215477   1.208   4.493  15.478 -0.2634 -1.3867  0.5870
 1339SOL     OW15478   1.376   3.692   7.518  0.3250  0.4066 -0.5862
 1339SOL    HW115479   1.470   3.678   7.505 -0.0623 -3.2813  0.5120
 1339SOL    HW215480   1.351   3.604   7.548  1.3401  0.8356  1.5482
 1340SOL     OW15481   1.591   4.618   2.210 -0.1577 -0.5172  0.2068
 1340SOL    HW115482   1.550   4.532   2.210  0.0748 -0.6302  0.3269
 1340SOL    HW215483   1.534   4.669   2.153 -1.7519  0.4692  2.6562
 1341SOL     OW15484   0.602   3.602   7.438  0.1072 -0.1118 -0.3179
 1341SOL    HW115485   0.623   3.690   7.407  1.8096  0.2257  1.7840
 1341SOL    HW215486   0.514   3.600   7.400 -0.7783 -0.0735  1.6920
 1342SOL     OW15487   3.177   0.281   7.163  0.0631  0.3764  0.5395
 1342SOL    HW115488   3.104   0.226   7.191 -0.8186  0.3455 -1.7644
 1342SOL    HW215489   3.132   0.361   7.135 -0.2558  0.3846  1.0735
 1343SOL     OW15490   0.245   2.866  10.311  0.8676  0.4716 -0.2583
 1343SOL    HW115491   0.199   2.896  10.389 -1.1447  0.0102 -1.2713
 1343SOL    HW215492   0.311   2.934  10.312  1.3795 -0.0519  1.8536
 1344SOL     OW15493   1.016   2.314   0.225 -0.2065 -0.1891  0.5767
 1344SOL    HW115494   0.972   2.398   0.211 -0.4568 -0.6565 -1.4537
 1344SOL    HW215495   0.973   2.271   0.152  0.2940 -0.6628  0.5657
 1345SOL     OW15496   4.568   4.437   9.756  0.4364  0.1921 -0.6476
 1345SOL    HW115497   4.498   4.373   9.746  0.7045 -0.1980 -0.0426
 1345SOL    HW215498   4.646   4.385   9.777  0.0312 -0.8426 -1.7567
 1346SOL     OW15499   0.480   0.231   1.936  0.6162 -0.2270  0.0616
 1346SOL    HW115500   0.472   0.221   2.031  2.7531  0.5863  0.3283
 1346SOL    HW215501   0.476   0.327   1.933  2.4023 -0.0931  1.9586
 1347SOL     OW15502   1.679   4.070  11.753 -0.5295 -0.9035 -0.2559
 1347SOL    HW115503   1.724   4.078  11.669 -0.2411  2.9864  0.2477
 1347SOL    HW215504   1.599   4.021  11.733 -0.5224 -0.6868 -0.8255
 1348SOL     OW15505   2.609   0.499   4.603  0.6112 -0.3281 -0.4451
 1348SOL    HW115506   2.679   0.452   4.559  0.9041  1.6615 -2.0971
 1348SOL    HW215507   2.545   0.435   4.635  1.9915 -1.8740 -0.7815
 1349SOL     OW15508   3.171   2.088   6.094 -0.7677 -0.6565 -0.1872
 1349SOL    HW115509   3.129   2.036   6.162 -1.0766  0.7987  0.7378
 1349SOL    HW215510   3.263   2.060   6.096 -1.0445 -1.5186  0.2780
 1350SOL     OW15511   0.416   1.263  14.082  0.4653 -0.0152  0.6654
 1350SOL    HW115512   0.328   1.285  14.053 -0.4484 -3.5225  0.7670
 1350SOL    HW215513   0.452   1.346  14.112 -0.3508 -0.0108  1.6104
 1351SOL     OW15514   3.152   2.057  13.646  0.7625 -0.0258  0.4271
 1351SOL    HW115515   3.084   1.996  13.672  0.7416 -0.5367 -0.8152
 1351SOL    HW215516   3.133   2.138  13.692  3.4165  0.4054  0.8059
 1352SOL     OW15517   2.852   0.378   0.492  0.0141  0.6447 -0.0433
 1352SOL    HW115518   2.824   0.405   0.404  0.0162  0.4341 -0.1066
 1352SOL    HW215519   2.845   0.462   0.538 -1.1609 -0.3371  1.5531
 1353SOL     OW15520   4.211   1.101  11.012 -0.5568 -0.4265 -0.3349
 1353SOL    HW115521   4.266   1.152  10.952  0.0460 -0.5942  0.0811
 1353SOL    HW215522   4.126   1.121  10.972  0.0964  2.8518 -0.0548
 1354SOL     OW15523   4.360   4.424   9.082 -0.3173 -0.2218 -0.0657
 1354SOL    HW115524   4.453   4.423   9.105  0.0980  2.5162 -1.6072
 1354SOL    HW215525   4.333   4.501   9.132  0.5107 -0.2988  0.5177
 1355SOL     OW15526   1.177   0.603   3.866  0.2312  0.1012  0.3300
 1355SOL    HW115527   1.212   0.536   3.807  2.4724  0.8272  0.8356
 1355SOL    HW215528   1.257   0.646   3.898 -0.4090  1.3282  0.2720
 1356SOL     OW15529   1.781   4.696  16.346 -0.7425 -0.4168 -0.1912
 1356SOL    HW115530   1.715   4.633  16.373 -0.3692 -0.6207  0.2362
 1356SOL    HW215531   1.794   0.017  16.432 -1.2229 -0.2692 -0.1835
 1357SOL     OW15532   0.918   3.242   5.797  0.2281  0.0250  0.5986
 1357SOL    HW115533   0.982   3.179   5.830 -1.0727 -1.9400 -0.6126
 1357SOL    HW215534   0.842   3.184   5.795 -1.4575  2.2008  1.5620
 1358SOL     OW15535   2.559   3.128   4.249 -0.5073  0.2681  0.2630
 1358SOL    HW115536   2.620   3.128   4.176 -1.5401 -2.0614 -0.6338
 1358SOL    HW215537   2.512   3.211   4.246  1.3986  1.2836 -0.9960
 1359SOL     OW15538   4.543   0.192   4.566  0.1672 -0.1364  0.4164
 1359SOL    HW115539   4.501   0.106   4.565  0.9337 -0.4977 -0.4599
 1359SOL    HW215540   4.633   0.164   4.548  0.2628  0.5627 -0.2070
 1360SOL     OW15541   1.137   0.199  17.377  0.1667 -0.1370 -0.1584
 1360SOL    HW115542   1.099   0.259  17.314 -0.6127 -0.6547 -0.1784
 1360SOL    HW215543   1.058   0.161  17.415 -0.2370  1.7780  0.9262
 1361SOL     OW15544   1.563   4.561  11.294  0.1459  0.1815  0.4378
 1361SOL    HW115545   1.527   4.507  11.224  1.1384 -0.8140  0.6830
 1361SOL    HW215546   1.491   4.618  11.321  0.8038  0.2460  2.1081
 1362SOL     OW15547   2.915   1.494   2.857 -0.5804 -0.5437 -0.0272
 1362SOL    HW115548   2.866   1.463   2.780  1.0842 -2.1026 -0.4572
 1362SOL    HW215549   2.842   1.507   2.917  2.5613  2.9058  3.0379
 1363SOL     OW15550   2.039   4.560  12.471  0.6371  0.6699 -0.3389
 1363SOL    HW115551   2.020   4.568  12.564 -0.6786 -0.2040 -0.5261
 1363SOL    HW215552   2.005   4.639  12.430 -0.5359  0.5655  0.4431
 1364SOL     OW15553   1.431   0.611   2.520  0.1190 -0.1976  0.4925
 1364SOL    HW115554   1.467   0.662   2.447  1.7088  0.8112  1.9930
 1364SOL    HW215555   1.423   0.524   2.480  0.3972 -0.1625  0.3563
 1365SOL     OW15556   1.284   3.356   1.705  0.3139 -0.9704  0.1910
 1365SOL    HW115557   1.279   3.269   1.744 -0.7097 -0.6716  0.7604
 1365SOL    HW215558   1.306   3.411   1.780 -1.8397  0.8204 -0.4719
 1366SOL     OW15559   1.196   2.764   9.985 -0.0153  0.4845  0.0182
 1366SOL    HW115560   1.237   2.679   9.996  1.8805  1.6331  1.8032
 1366SOL    HW215561   1.103   2.760  10.009  0.0044  0.4161  0.0805
 1367SOL     OW15562   4.178   2.544  15.771  0.2298  0.0194 -0.2067
 1367SOL    HW115563   4.132   2.527  15.853 -1.3573  1.3942 -0.8236
 1367SOL    HW215564   4.104   2.560  15.712  0.4783 -2.0114 -1.0750
 1368SOL     OW15565   3.904   2.945  11.310  0.0686  0.3308 -0.3056
 1368SOL    HW115566   3.991   2.956  11.351  1.3699  2.2574 -3.6060
 1368SOL    HW215567   3.929   2.912  11.224 -2.0348  0.5570 -0.9982
 1369SOL     OW15568   2.764   3.206   5.378  0.1812 -0.1416  0.0572
 1369SOL    HW115569   2.853   3.241   5.385  0.3734 -0.5736 -0.2029
 1369SOL    HW215570   2.763   3.145   5.452 -0.6229 -0.4129 -0.1768
 1370SOL     OW15571   2.232   2.387   3.307  0.1945  0.5421 -0.1204
 1370SOL    HW115572   2.298   2.403   3.375  0.0021 -1.9143  0.6300
 1370SOL    HW215573   2.250   2.294   3.293 -0.9704 -0.0390  2.2664
 1371SOL     OW15574   2.800   1.469   1.551  0.0286  0.2675  0.1341
 1371SOL    HW115575   2.772   1.494   1.639 -1.8834  0.7662 -0.6230
 1371SOL    HW215576   2.723   1.492   1.499 -0.8000  1.3578  1.8458
 1372SOL     OW15577   4.147   4.272   5.675 -0.5882  0.0529 -0.4421
 1372SOL    HW115578   4.117   4.193   5.720  1.8020 -0.3738  0.3762
 1372SOL    HW215579   4.062   4.315   5.663 -0.9364 -0.7265 -0.7114
 1373SOL     OW15580   2.038   2.712   5.721 -0.4314 -0.3859 -0.4881
 1373SOL    HW115581   1.970   2.712   5.788 -0.4705 -0.6801 -0.5255
 1373SOL    HW215582   2.020   2.635   5.667  1.3554  0.1535 -1.8498
 1374SOL     OW15583   3.036   4.650   5.816  0.1328  0.0877  0.2839
 1374SOL    HW115584   2.979   4.624   5.743 -0.2322 -1.3130  1.0465
 1374SOL    HW215585   3.114   4.674   5.767 -1.3230  0.3254 -1.9120
 1375SOL     OW15586   0.696   4.047   8.528  0.1627 -0.0712  0.2310
 1375SOL    HW115587   0.659   4.130   8.557  0.7263 -0.6800  2.6939
 1375SOL    HW215588   0.633   3.981   8.557  2.0884 -2.1771 -0.3806
 1376SOL     OW15589   2.000   3.411   4.977 -0.7523 -0.4799  0.0604
 1376SOL    HW115590   1.998   3.506   4.991  0.8123 -0.8008  2.4174
 1376SOL    HW215591   1.934   3.401   4.909 -2.1268  2.8899  0.8937
 1377SOL     OW15592   4.541   3.250  11.259  0.0390  0.0863  0.5075
 1377SOL    HW115593   4.591   3.327  11.231 -1.2903 -0.0824 -2.3558
 1377SOL    HW215594   4.454   3.287  11.267 -0.3498 -0.3512 -1.7254
 1378SOL     OW15595   0.726   4.185   4.805 -0.0750 -0.1631  0.4451
 1378SOL    HW115596   0.740   4.267   4.852 -1.0972 -0.0774  0.6028
 1378SOL    HW215597   0.811   4.179   4.762  0.6729  0.4908  1.8632
 1379SOL     OW15598   2.382   3.451  10.606 -0.5028  0.3469  0.2894
 1379SOL    HW115599   2.308   3.450  10.667 -0.6629  1.7469  0.1288
 1379SOL    HW215600   2.423   3.537  10.617 -0.4349  0.3991 -0.3562
 1380SOL     OW15601   1.839   3.617   6.035 -0.0359 -0.1288  0.1688
 1380SOL    HW115602   1.776   3.605   5.964  0.4531 -2.0263  0.0564
 1380SOL    HW215603   1.922   3.610   5.989 -0.5720 -1.1836 -0.6463
 1381SOL     OW15604   0.182   2.922   6.984 -0.8081 -0.0415  0.1054
 1381SOL    HW115605   0.163   2.853   7.048  0.5336 -1.1754 -0.7250
 1381SOL    HW215606   0.245   2.878   6.928 -2.4973 -1.3588 -0.7521
 1382SOL     OW15607   0.863   3.701   8.477  0.2885 -0.2455  0.1985
 1382SOL    HW115608   0.951   3.686   8.444  0.1766 -1.3336  0.3805
 1382SOL    HW215609   0.821   3.749   8.405  0.3139 -0.7100 -0.1258
 1383SOL     OW15610   2.456   2.349  12.981 -0.6543  0.6066 -0.0922
 1383SOL    HW115611   2.413   2.264  12.978 -1.8815  1.3159 -2.3684
 1383SOL    HW215612   2.388   2.415  12.989 -1.4849 -0.2573 -0.1182
 1384SOL     OW15613   2.854   2.181  13.633  0.4942 -0.5625 -0.3054
 1384SOL    HW115614   2.903   2.127  13.695  1.0979  0.0885 -0.2090
 1384SOL    HW215615   2.817   2.110  13.581 -2.5414 -0.3069  1.4989
 1385SOL     OW15616   2.243   3.729   5.204  0.4004 -0.3706  0.1778
 1385SOL    HW115617   2.235   3.778   5.286 -1.2146  2.0496 -1.4289
 1385SOL    HW215618   2.286   3.798   5.154  0.8230 -0.2057  0.7665
 1386SOL     OW15619   4.137   1.715   0.074  0.5975  0.8253  0.9662
 1386SOL    HW115620   4.200   1.736   0.144  3.1889  0.1593 -1.1500
 1386SOL    HW215621   4.105   1.635   0.117 -0.5167  0.2305 -0.9924
 1387SOL     OW15622   1.684   4.632   6.101 -0.2078 -0.3090 -0.9817
 1387SOL    HW115623   1.740   4.706   6.125  0.0252 -0.4353 -1.1448
 1387SOL    HW215624   1.645   4.666   6.020 -0.1327 -0.4817 -1.0876
 1388SOL     OW15625   3.549   1.438   6.415  0.4346  0.0941 -0.7581
 1388SOL    HW115626   3.553   1.431   6.320 -1.3306  2.4912 -0.9950
 1388SOL    HW215627   3.578   1.528   6.432  0.4516 -0.1640  0.5926
 1389SOL     OW15628   4.277   1.207  12.928 -0.3587 -0.2021 -0.6575
 1389SOL    HW115629   4.264   1.302  12.935  0.4200 -0.1167 -0.3605
 1389SOL    HW215630   4.345   1.197  12.994  0.0247 -0.2423 -1.0622
 1390SOL     OW15631   2.577   4.181   0.357 -0.5157  0.3128  0.1400
 1390SOL    HW115632   2.664   4.223   0.357 -0.4791  0.2339  0.7268
 1390SOL    HW215633   2.583   4.150   0.447  1.4343 -0.4479 -0.2452
 1391SOL     OW15634   2.153   2.144   2.221 -0.4851 -0.1167 -0.6278
 1391SOL    HW115635   2.092   2.112   2.289  0.5332  0.1629  0.4083
 1391SOL    HW215636   2.103   2.221   2.194  1.5171  1.1695 -0.5976
 1392SOL     OW15637   2.533   0.983   1.198 -0.0038  0.0245  0.5702
 1392SOL    HW115638   2.443   0.998   1.228 -1.0317 -1.7580 -1.5713
 1392SOL    HW215639   2.528   1.036   1.119  1.0376 -0.2321  0.3320
 1393SOL     OW15640   3.623   0.531   4.310 -0.1527 -0.2578  0.0799
 1393SOL    HW115641   3.610   0.620   4.343 -1.1496 -1.0823  1.8713
 1393SOL    HW215642   3.634   0.542   4.215 -1.0516  0.1309  0.0217
 1394SOL     OW15643   1.043   2.208   9.023 -0.1778  0.1623 -0.7165
 1394SOL    HW115644   1.089   2.276   8.975  0.6397  0.6763  0.7871
 1394SOL    HW215645   0.954   2.237   9.005  0.7182  3.3118 -0.0065
 1395SOL     OW15646   1.842   2.581   7.331 -0.3221 -0.2017 -0.3272
 1395SOL    HW115647   1.933   2.597   7.306 -0.5229 -0.6672 -1.3340
 1395SOL    HW215648   1.805   2.638   7.263 -0.2116 -0.2936 -0.4635
 1396SOL     OW15649   1.923   0.095  17.195 -0.2261 -0.1464 -0.7737
 1396SOL    HW115650   1.882   0.136  17.271  0.4311  1.4872 -1.3253
 1396SOL    HW215651   1.852   0.120  17.136  0.1276 -0.5414 -1.3560
 1397SOL     OW15652   0.114   3.281   2.030 -0.6680 -0.3936  0.1049
 1397SOL    HW115653   0.038   3.231   2.002 -1.5201  0.0265  1.6578
 1397SOL    HW215654   0.168   3.212   2.069 -1.4216  0.0694  1.9584
 1398SOL     OW15655   4.506   1.821   8.815  0.0895 -0.0880 -0.3563
 1398SOL    HW115656   4.455   1.825   8.734 -1.7404 -0.1370  0.7940
 1398SOL    HW215657   4.534   1.911   8.831 -2.1414  0.7077 -0.8879
 1399SOL     OW15658   0.944   0.422   7.061  0.1177 -0.1863 -0.2336
 1399SOL    HW115659   0.913   0.336   7.089 -0.7467  0.2614  0.1762
 1399SOL    HW215660   0.867   0.479   7.062  0.7916  0.7031  1.3129
 1400SOL     OW15661   2.187   4.332  12.727 -0.1131  0.3900 -0.0087
 1400SOL    HW115662   2.217   4.262  12.786 -0.7959 -0.9585 -1.2814
 1400SOL    HW215663   2.225   4.416  12.755  1.0778 -0.0489 -0.3320
 1401SOL     OW15664   0.668   3.145   0.600 -0.4227 -0.5027  0.0399
 1401SOL    HW115665   0.688   3.238   0.611 -1.9389 -0.1642 -0.0113
 1401SOL    HW215666   0.627   3.143   0.514 -0.3617 -0.7968  0.0176
 1402SOL     OW15667   3.561   2.270   4.304 -0.4134 -0.2718 -0.4532
 1402SOL    HW115668   3.635   2.282   4.363 -0.2419  0.0814 -0.7376
 1402SOL    HW215669   3.587   2.181   4.282  0.8945 -0.1043  0.4271
 1403SOL     OW15670   3.278   1.428  13.732 -0.6322  0.4468  0.4812
 1403SOL    HW115671   3.216   1.377  13.680 -0.0886  0.9752 -0.6782
 1403SOL    HW215672   3.262   1.516  13.698 -0.8078  0.9338  1.8253
 1404SOL     OW15673   3.044   2.621   6.349  0.7050  0.0495  0.4865
 1404SOL    HW115674   3.073   2.665   6.429 -0.1243 -0.9897  1.3587
 1404SOL    HW215675   3.075   2.674   6.276 -0.5135  0.9202  0.6009
 1405SOL     OW15676   2.964   2.602   1.925 -0.5619 -0.2795  0.4544
 1405SOL    HW115677   2.924   2.562   1.848  0.3681 -2.9591  1.3565
 1405SOL    HW215678   3.035   2.542   1.948 -0.9609 -0.3935  1.4099
 1406SOL     OW15679   2.839   4.050   7.984  0.1080  0.0736 -0.0836
 1406SOL    HW115680   2.898   4.019   7.916 -0.0730  1.2155 -0.7486
 1406SOL    HW215681   2.902   4.086   8.047  0.7393  1.1932 -1.3841
 1407SOL     OW15682   0.566   4.667   7.050 -0.5922  0.6233  0.2636
 1407SOL    HW115683   0.505   4.697   6.983  0.4806  2.4513  0.1019
 1407SOL    HW215684   0.647   4.711   7.026  0.0227 -0.1426  0.9229
 1408SOL     OW15685   0.160   4.113   6.146  0.0084 -0.2703 -0.5019
 1408SOL    HW115686   0.163   4.017   6.143 -0.3228 -0.3260  1.1257
 1408SOL    HW215687   0.160   4.133   6.052  0.6838  1.3594 -0.1555
 1409SOL     OW15688   0.479   0.379   0.336 -0.3892  0.0624 -0.7567
 1409SOL    HW115689   0.493   0.336   0.252 -1.2713  1.2580 -1.5183
 1409SOL    HW215690   0.567   0.385   0.374 -1.1551  0.2837  0.9883
 1410SOL     OW15691   1.727   0.705  11.562  0.5088  0.8294 -0.0429
 1410SOL    HW115692   1.674   0.762  11.617 -0.6234 -1.3613  1.1364
 1410SOL    HW215693   1.657   0.663  11.512  0.2391  0.8404  0.3332
 1411SOL     OW15694   3.035   2.500   3.204  0.1670 -0.1186  0.0498
 1411SOL    HW115695   3.121   2.540   3.194  0.3508 -0.8558 -1.3399
 1411SOL    HW215696   3.025   2.470   3.294  0.1697  1.3319  0.5320
 1412SOL     OW15697   2.266   0.165   8.903 -0.6936 -0.1576  0.1709
 1412SOL    HW115698   2.279   0.116   8.984 -0.4938 -1.8307 -0.8746
 1412SOL    HW215699   2.185   0.212   8.923  0.4385  2.6608 -1.9096
 1413SOL     OW15700   2.104   1.737   5.378  0.1676 -0.1549  0.1061
 1413SOL    HW115701   2.042   1.788   5.431  0.7143  1.4599 -0.8157
 1413SOL    HW215702   2.189   1.756   5.416 -0.5293  2.3904  0.4274
 1414SOL     OW15703   0.116   1.281   7.462 -0.3546  0.1203  0.2856
 1414SOL    HW115704   0.081   1.291   7.374 -1.0775  0.3128  0.5942
 1414SOL    HW215705   0.141   1.371   7.484  0.6685  0.7337 -3.4703
 1415SOL     OW15706   3.921   3.755   5.528  0.1498  0.0300  0.9802
 1415SOL    HW115707   3.835   3.746   5.485  0.0840  0.2200  1.0713
 1415SOL    HW215708   3.886   3.731   5.613 -0.5864 -1.0315  0.3847
 1416SOL     OW15709   3.733   0.723  16.184 -0.5116 -0.1556  0.6700
 1416SOL    HW115710   3.796   0.788  16.152 -0.2696  0.0482  1.5839
 1416SOL    HW215711   3.730   0.663  16.110  0.7568 -0.1301  0.5963
 1417SOL     OW15712   3.375   1.227   9.645  0.2866  0.1249 -0.3800
 1417SOL    HW115713   3.406   1.184   9.724 -1.2334  0.4463  0.3834
 1417SOL    HW215714   3.279   1.221   9.644  0.3573 -0.7668 -1.7900
 1418SOL     OW15715   1.683   0.231   5.202  0.1358 -0.1235  0.2160
 1418SOL    HW115716   1.640   0.172   5.140  0.0888 -1.5670  1.6139
 1418SOL    HW215717   1.753   0.177   5.239 -0.1282 -0.0508  0.8253
 1419SOL     OW15718   4.586   0.670  15.677 -0.3755 -1.1190  0.4694
 1419SOL    HW115719   4.563   0.748  15.626  3.2343 -0.4501 -0.1057
 1419SOL    HW215720   4.647   0.705  15.741 -0.1007 -1.4568  0.3910
 1420SOL     OW15721   2.432   1.231   0.775  0.1574  0.7879 -0.4489
 1420SOL    HW115722   2.405   1.239   0.867  1.4067 -1.3053  0.1086
 1420SOL    HW215723   2.344   1.233   0.738 -0.1079  0.8944  0.1833
 1421SOL     OW15724   4.655   0.164   2.387  0.3312 -0.3251 -0.3614
 1421SOL    HW115725   4.703   0.228   2.334  1.9159 -2.0655 -1.0337
 1421SOL    HW215726   0.002   0.159   2.457 -3.1588  1.2700  2.9569
 1422SOL     OW15727   1.603   0.361   8.124  0.0937 -0.0575  0.0336
 1422SOL    HW115728   1.553   0.330   8.199 -0.1763  0.2658 -0.0113
 1422SOL    HW215729   1.547   0.434   8.096  0.7851  0.3402 -0.3185
 1423SOL     OW15730   4.267   3.733  12.985 -0.3386  0.4295 -0.1171
 1423SOL    HW115731   4.343   3.790  12.979  1.3235 -1.8684 -0.9838
 1423SOL    HW215732   4.225   3.773  13.062  0.5709 -0.5138  0.8756
 1424SOL     OW15733   4.132   3.364   3.167  0.5493  0.2284 -0.3204
 1424SOL    HW115734   4.192   3.438   3.155 -0.1171  0.5588 -1.5989
 1424SOL    HW215735   4.053   3.419   3.171 -0.6435 -1.5124 -0.0322
 1425SOL     OW15736   3.463   2.838   3.979  0.6297 -0.5109 -0.0802
 1425SOL    HW115737   3.507   2.921   3.998  0.3012 -0.9059  2.3886
 1425SOL    HW215738   3.417   2.821   4.061 -0.2331  1.0394 -0.2441
 1426SOL     OW15739   4.089   0.651  17.452  0.1760 -0.8309 -0.4781
 1426SOL    HW115740   4.017   0.689  17.401 -0.9717  1.1803  2.6647
 1426SOL    HW215741   4.050   0.640  17.539 -1.0966  2.2069 -0.6631
 1427SOL     OW15742   0.492   1.382   2.217  0.3276 -0.6737  0.6637
 1427SOL    HW115743   0.571   1.327   2.213  0.8512  0.1455 -0.4572
 1427SOL    HW215744   0.524   1.467   2.246  0.8260  0.4766 -3.2539
 1428SOL     OW15745   0.648   2.331  16.537  0.0625 -0.3292 -0.7716
 1428SOL    HW115746   0.596   2.254  16.516 -1.8702  0.6703  0.3913
 1428SOL    HW215747   0.733   2.291  16.555  1.3215  2.6680  0.0855
 1429SOL     OW15748   1.484   3.841   8.332  0.0400  0.0376  0.1327
 1429SOL    HW115749   1.398   3.883   8.330 -0.0408 -0.0401  1.6129
 1429SOL    HW215750   1.519   3.901   8.267  1.8032  1.1327  2.0865
 1430SOL     OW15751   0.531   3.644  16.966  0.1703  0.0330  0.3081
 1430SOL    HW115752   0.561   3.554  16.956 -0.6171 -0.3275  1.1703
 1430SOL    HW215753   0.440   3.633  16.936 -0.7865 -2.6645  4.1647
 1431SOL     OW15754   1.725   1.315   2.217 -0.3013  0.2819  0.0473
 1431SOL    HW115755   1.803   1.292   2.166 -0.7828  1.9232 -1.4424
 1431SOL    HW215756   1.658   1.311   2.149 -1.2846 -0.3654  1.0605
 1432SOL     OW15757   0.826   0.766   9.016  0.6730 -0.4910  0.7490
 1432SOL    HW115758   0.901   0.803   9.064  0.0016  0.1365  1.3242
 1432SOL    HW215759   0.757   0.797   9.075  2.0408  1.2360  1.4440
 1433SOL     OW15760   4.252   1.369  16.473  0.0368  0.1450  0.0981
 1433SOL    HW115761   4.290   1.308  16.535 -1.4427 -0.3807  0.4788
 1433SOL    HW215762   4.326   1.429  16.459 -0.5424  0.9911  0.6230
 1434SOL     OW15763   3.165   3.723  11.693 -0.0984 -0.3973  0.0061
 1434SOL    HW115764   3.113   3.708  11.615  0.7080  0.4328 -0.7033
 1434SOL    HW215765   3.181   3.633  11.720  1.1681 -0.6437 -1.5422
 1435SOL     OW15766   3.735   2.213  13.746  0.4807  0.4021 -0.1405
 1435SOL    HW115767   3.780   2.218  13.662  2.0543  2.0856  0.8133
 1435SOL    HW215768   3.715   2.120  13.736 -1.0892  0.6271  0.9105
 1436SOL     OW15769   3.162   2.155  15.493  0.3257  0.1607  0.8577
 1436SOL    HW115770   3.158   2.227  15.557 -1.4231  1.8441 -1.1399
 1436SOL    HW215771   3.163   2.085  15.559  0.4597 -0.0842  0.5924
 1437SOL     OW15772   2.356   3.077  11.772 -0.4655  0.4180  0.5467
 1437SOL    HW115773   2.304   3.085  11.852 -0.8742  1.4684  0.1731
 1437SOL    HW215774   2.329   3.157  11.728  0.8076  1.1115  1.0071
 1438SOL     OW15775   2.128   2.372   0.797  0.1007  0.3348  0.0120
 1438SOL    HW115776   2.129   2.378   0.893  1.1733  0.9737 -0.0401
 1438SOL    HW215777   2.137   2.463   0.768 -1.0105  0.1658 -0.8748
 1439SOL     OW15778   0.441   3.800   5.384  0.1296 -0.3571 -0.2203
 1439SOL    HW115779   0.351   3.773   5.399  0.5472 -1.2730  0.6114
 1439SOL    HW215780   0.440   3.868   5.452 -0.5580  0.3341 -0.9147
 1440SOL     OW15781   1.729   1.875   2.764 -0.1318 -0.3827  0.5377
 1440SOL    HW115782   1.719   1.934   2.689 -0.4591 -2.5129 -1.1041
 1440SOL    HW215783   1.684   1.797   2.733  0.3138 -0.8746  1.1115
 1441SOL     OW15784   2.503   1.401  13.270 -0.6427 -0.2760  0.2341
 1441SOL    HW115785   2.506   1.338  13.198 -0.9084  1.3106 -1.1668
 1441SOL    HW215786   2.421   1.379  13.314 -0.6472 -0.4480  0.1404
 1442SOL     OW15787   3.151   3.186  15.355 -0.5512 -0.1478  0.2731
 1442SOL    HW115788   3.128   3.116  15.415  0.2772  0.7611  1.6471
 1442SOL    HW215789   3.105   3.148  15.280 -0.9215  0.4992  0.1687
 1443SOL     OW15790   4.007   3.871  12.905 -0.4440  0.2809 -0.1294
 1443SOL    HW115791   4.007   3.966  12.913  2.0396  0.1929  0.9345
 1443SOL    HW215792   4.068   3.845  12.974  2.5322  0.5972 -2.6746
 1444SOL     OW15793   3.669   2.766   3.311 -0.1766  0.3166 -0.5340
 1444SOL    HW115794   3.619   2.766   3.229  0.4137 -2.5142 -0.8928
 1444SOL    HW215795   3.603   2.742   3.377  1.4832 -0.9959  0.6416
 1445SOL     OW15796   0.793   1.510   5.880  0.0354  0.0810  0.0362
 1445SOL    HW115797   0.754   1.556   5.805  0.3144 -1.5072 -1.0684
 1445SOL    HW215798   0.833   1.426   5.859 -0.9233 -0.7863  1.6584
 1446SOL     OW15799   1.245   0.231   9.815  0.0012  0.3472  0.2983
 1446SOL    HW115800   1.229   0.190   9.900 -0.1348 -0.0178  0.0984
 1446SOL    HW215801   1.158   0.250   9.781 -0.1551  1.2981  1.2384
 1447SOL     OW15802   0.929   1.126   9.344  0.6402 -0.0674  0.0850
 1447SOL    HW115803   0.900   1.157   9.258 -0.8639 -0.9954  0.2411
 1447SOL    HW215804   1.012   1.173   9.344 -0.3341  1.6881  2.0618
 1448SOL     OW15805   2.846   3.323   6.508 -0.0304  0.0084 -0.1736
 1448SOL    HW115806   2.846   3.231   6.532 -2.6620  0.6215  2.2155
 1448SOL    HW215807   2.932   3.342   6.546 -1.0408  0.2631  1.9520
 1449SOL     OW15808   3.564   3.051   2.810 -0.5713 -0.4044  0.0531
 1449SOL    HW115809   3.506   3.123   2.782  0.6013 -0.5551 -2.8031
 1449SOL    HW215810   3.491   2.990   2.821 -0.3205 -0.1957  2.7008
 1450SOL     OW15811   4.184   3.847   8.793 -0.1730  0.3111 -0.0565
 1450SOL    HW115812   4.106   3.885   8.754 -0.0293  2.1536  1.4807
 1450SOL    HW215813   4.149   3.763   8.823 -0.2640  0.9845  1.7050
 1451SOL     OW15814   2.203   0.747   3.005  0.0363 -0.4076  0.6625
 1451SOL    HW115815   2.269   0.786   2.947 -0.2928  0.4352  0.8510
 1451SOL    HW215816   2.166   0.677   2.951  0.4835 -1.2823  1.4939
 1452SOL     OW15817   2.652   4.642  16.497  0.3624  0.1549 -0.1409
 1452SOL    HW115818   2.662   4.675  16.407  1.8234 -0.4275 -0.1980
 1452SOL    HW215819   2.651   4.552  16.465  1.0386  0.2140 -0.3348
 1453SOL     OW15820   4.453   2.945   3.714  1.0287 -0.4808  0.0325
 1453SOL    HW115821   4.445   2.868   3.769  0.9707 -3.0166 -3.5183
 1453SOL    HW215822   4.394   2.915   3.645  0.8809  0.7757 -0.3813
 1454SOL     OW15823   3.892   2.009  14.113 -0.6699  0.1427  0.2819
 1454SOL    HW115824   3.959   2.070  14.082 -0.7580  0.7305  1.2172
 1454SOL    HW215825   3.891   1.941  14.046 -1.3858  0.1297  0.3076
 1455SOL     OW15826   1.554   0.810   8.422  0.0377 -0.6084 -0.4300
 1455SOL    HW115827   1.604   0.733   8.449 -0.9957 -0.9731  0.4236
 1455SOL    HW215828   1.620   0.847   8.362  0.4079  0.5736  0.6867
 1456SOL     OW15829   3.555   0.540   9.405 -0.0956 -1.5111  0.1404
 1456SOL    HW115830   3.626   0.499   9.355  0.2866 -0.7287  0.0296
 1456SOL    HW215831   3.508   0.587   9.336  0.7370 -0.4299  0.2982
 1457SOL     OW15832   3.177   2.936   7.225 -0.0060 -0.3709 -0.2490
 1457SOL    HW115833   3.252   2.983   7.262 -1.7078  2.4527 -0.3839
 1457SOL    HW215834   3.138   2.901   7.306  0.0783 -1.8191 -0.8324
 1458SOL     OW15835   1.038   2.296   5.923  0.2995 -0.2232 -0.3355
 1458SOL    HW115836   1.031   2.262   5.834 -0.3671  2.2732 -1.2340
 1458SOL    HW215837   0.949   2.322   5.944 -0.6083 -2.8491 -0.8651
 1459SOL     OW15838   1.562   0.578   0.208 -0.3200  0.3784  0.0333
 1459SOL    HW115839   1.556   0.521   0.131  2.5762  0.9256 -0.5699
 1459SOL    HW215840   1.548   0.514   0.278 -0.4140  0.1451 -0.1968
 1460SOL     OW15841   3.143   4.065   0.844 -0.5314  0.1067 -0.4041
 1460SOL    HW115842   3.073   4.005   0.816 -1.2967 -0.4999  2.7351
 1460SOL    HW215843   3.140   4.129   0.773 -1.5307  0.2413 -0.2461
 1461SOL     OW15844   4.399   0.113   6.247 -0.2471  0.8179 -0.1161
 1461SOL    HW115845   4.314   0.138   6.212  0.5843  1.5090 -1.6391
 1461SOL    HW215846   4.378   0.020   6.255  0.4053  0.6195 -0.6792
 1462SOL     OW15847   2.609   1.976   3.652  0.4716  0.6374 -0.1870
 1462SOL    HW115848   2.596   1.885   3.678 -0.8101  1.3521  1.6623
 1462SOL    HW215849   2.572   2.017   3.731  2.3192  1.3542  0.3154
 1463SOL     OW15850   2.171   4.359  13.972  0.0377  0.0605 -0.4511
 1463SOL    HW115851   2.098   4.417  13.996  0.7077  1.3996 -1.6261
 1463SOL    HW215852   2.217   4.343  14.054  0.0701 -1.9060 -0.8636
 1464SOL     OW15853   2.754   0.903   2.678  0.0983  0.3540  0.0267
 1464SOL    HW115854   2.789   0.988   2.650  0.9418 -0.6898 -2.1250
 1464SOL    HW215855   2.717   0.879   2.593 -2.2646  0.5309  1.0100
 1465SOL     OW15856   3.688   2.559  12.538 -0.3478  0.2505  0.5865
 1465SOL    HW115857   3.720   2.471  12.558  0.6608  0.5864  0.4386
 1465SOL    HW215858   3.674   2.552  12.444  0.4327 -1.2527  0.5792
 1466SOL     OW15859   1.972   1.053   7.985  0.0153 -0.3530 -0.4612
 1466SOL    HW115860   1.986   1.130   8.040 -0.3174 -1.3013  0.9697
 1466SOL    HW215861   1.931   1.079   7.903 -0.3267  0.1852 -0.1257
 1467SOL     OW15862   4.305   3.324   3.417  0.3521  0.1596  0.1653
 1467SOL    HW115863   4.294   3.419   3.420 -0.9805  0.0531 -1.2246
 1467SOL    HW215864   4.294   3.286   3.504 -1.3993 -1.7674 -0.8812
 1468SOL     OW15865   0.259   3.937   0.338  0.3606 -0.6611  0.4653
 1468SOL    HW115866   0.208   3.919   0.259 -0.7988  1.3275  0.7596
 1468SOL    HW215867   0.210   4.013   0.370 -0.3392 -1.4233  1.1860
 1469SOL     OW15868   0.179   3.949   5.515 -0.0109 -0.6088  0.0260
 1469SOL    HW115869   0.086   3.928   5.508  0.0427 -0.4490 -1.1105
 1469SOL    HW215870   0.205   3.911   5.599 -0.6127 -1.9120 -0.3854
 1470SOL     OW15871   3.393   1.694  16.218  0.3249  0.3132  0.4833
 1470SOL    HW115872   3.382   1.768  16.277  2.1869 -1.1380  2.6619
 1470SOL    HW215873   3.448   1.738  16.152 -1.1452 -1.4027 -1.8909
 1471SOL     OW15874   2.566   2.133  11.708 -0.6240 -0.4637  0.1866
 1471SOL    HW115875   2.484   2.171  11.675 -1.5582 -1.7190  1.1171
 1471SOL    HW215876   2.556   2.046  11.669 -1.0088 -0.1554 -0.4124
 1472SOL     OW15877   2.872   1.876  13.754 -0.6296  0.1581 -0.2312
 1472SOL    HW115878   2.888   1.828  13.836  1.4640  2.4997  0.7308
 1472SOL    HW215879   2.925   1.821  13.696 -2.2512 -0.7889 -0.8095
 1473SOL     OW15880   0.980   0.235  15.353 -0.2264 -0.3108 -0.4717
 1473SOL    HW115881   1.038   0.301  15.391  0.5854 -1.5695  0.4859
 1473SOL    HW215882   1.001   0.236  15.259 -2.4254  1.8301 -0.9580
 1474SOL     OW15883   4.619   2.070   8.949 -0.3321  0.3456  0.5376
 1474SOL    HW115884   4.675   2.148   8.946 -0.8090  0.7021  0.9474
 1474SOL    HW215885   4.536   2.108   8.921  0.8330  2.7999  0.4387
 1475SOL     OW15886   3.989   1.184   3.304 -0.1321  0.0110 -0.1580
 1475SOL    HW115887   3.956   1.272   3.319 -0.7648 -0.6109  2.1594
 1475SOL    HW215888   3.965   1.136   3.384  0.7453  1.3954  0.9340
 1476SOL     OW15889   3.082   4.457   2.607 -0.5280  0.5765 -0.0766
 1476SOL    HW115890   3.020   4.455   2.681 -0.7498  0.2362 -0.2743
 1476SOL    HW215891   3.027   4.496   2.539 -0.3502  0.4799 -0.2752
 1477SOL     OW15892   0.154   1.638   4.247  0.7569  0.5649 -0.6148
 1477SOL    HW115893   0.068   1.601   4.264  0.0940  1.5300 -1.9124
 1477SOL    HW215894   0.184   1.607   4.162  0.1831  0.0086 -0.6073
 1478SOL     OW15895   0.334   3.802   5.702  0.1450 -0.0399 -0.1528
 1478SOL    HW115896   0.423   3.824   5.731  0.2175 -0.7556  0.1724
 1478SOL    HW215897   0.345   3.711   5.676 -1.3328 -0.1796 -0.2698
 1479SOL     OW15898   3.363   3.913  17.047  0.1628 -0.6849 -0.4569
 1479SOL    HW115899   3.303   3.854  17.092  0.8041  0.1733  1.4990
 1479SOL    HW215900   3.313   3.993  17.062  3.1543  1.2892 -0.9452
 1480SOL     OW15901   3.996   1.039   0.657  0.2101  0.6700  0.0188
 1480SOL    HW115902   4.014   1.075   0.745  2.3946 -0.0454 -0.1510
 1480SOL    HW215903   4.035   1.110   0.605  0.0203  1.8646  1.4867
 1481SOL     OW15904   3.056   4.034  12.627 -0.2248  0.0598 -0.0132
 1481SOL    HW115905   3.010   3.990  12.699  0.3489  1.9631  1.4980
 1481SOL    HW215906   2.994   4.020  12.556  0.6230  2.2514 -1.1800
 1482SOL     OW15907   1.786   3.454   1.177 -0.5652  0.5879  0.6009
 1482SOL    HW115908   1.757   3.363   1.174  0.7309  0.1755  0.2784
 1482SOL    HW215909   1.882   3.457   1.180 -0.5129  0.7602 -1.4014
 1483SOL     OW15910   3.913   3.827   0.743 -0.1641  0.1146 -0.0730
 1483SOL    HW115911   3.829   3.822   0.787  0.2042  0.2880  0.6442
 1483SOL    HW215912   3.885   3.785   0.661  2.6737 -2.0563  0.0461
 1484SOL     OW15913   2.433   2.163   2.131  0.0092 -0.4909  0.3766
 1484SOL    HW115914   2.449   2.081   2.179  0.0148 -0.4805  0.3926
 1484SOL    HW215915   2.344   2.170   2.165  0.2165 -2.0592  1.2651
 1485SOL     OW15916   4.069   1.094   0.903  0.3249 -0.2952  0.3541
 1485SOL    HW115917   3.985   1.138   0.922 -0.8673 -0.3243 -4.8030
 1485SOL    HW215918   4.062   1.016   0.957  0.8658 -0.9163 -0.4732
 1486SOL     OW15919   1.326   4.385   7.863  0.3490 -0.2971  0.1488
 1486SOL    HW115920   1.415   4.392   7.830 -1.2665 -0.3543 -4.2981
 1486SOL    HW215921   1.265   4.395   7.789  0.1678 -0.1265  0.3207
 1487SOL     OW15922   1.416   3.706   6.016  0.2521  0.3832 -0.0138
 1487SOL    HW115923   1.473   3.642   5.974  0.4237  0.7243 -0.2964
 1487SOL    HW215924   1.482   3.755   6.065 -1.2176  1.2019  1.1244
 1488SOL     OW15925   1.062   1.046   8.576 -0.2232  0.2552  0.3628
 1488SOL    HW115926   0.999   1.021   8.644 -0.5595  2.2473  0.7657
 1488SOL    HW215927   1.036   1.135   8.552  0.2665 -0.1350 -1.6419
 1489SOL     OW15928   2.033   1.697   6.980 -0.3959 -0.2642  0.1762
 1489SOL    HW115929   2.093   1.630   6.947 -0.9400 -1.1417  0.9613
 1489SOL    HW215930   1.986   1.725   6.902  0.6627 -0.2211 -0.4529
 1490SOL     OW15931   3.012   4.087   8.197  0.2420 -0.6411  0.3814
 1490SOL    HW115932   2.957   4.036   8.257 -1.6077  2.5334  1.3667
 1490SOL    HW215933   3.036   4.158   8.257 -0.4292 -0.2231  0.1563
 1491SOL     OW15934   0.765   4.681   9.527  0.0132  0.0335 -0.3870
 1491SOL    HW115935   0.794   4.605   9.577  0.3431 -0.4725 -1.3465
 1491SOL    HW215936   0.696   4.709   9.587  1.3561  0.0995  1.1282
 1492SOL     OW15937   1.837   4.236   3.416 -0.1195  0.1865  0.4930
 1492SOL    HW115938   1.929   4.229   3.392 -0.2072 -0.0772  0.2367
 1492SOL    HW215939   1.803   4.225   3.327 -0.2847  0.9300  0.4706
 1493SOL     OW15940   1.087   3.690   5.320 -0.0558  0.2860  0.1527
 1493SOL    HW115941   1.065   3.783   5.315  0.1429  0.2153 -1.9379
 1493SOL    HW215942   1.000   3.651   5.329 -0.9724  2.4710  0.6424
 1494SOL     OW15943   2.091   3.491   1.133 -0.0435 -0.6423  0.6344
 1494SOL    HW115944   2.106   3.511   1.041  1.0649 -2.4297  0.4218
 1494SOL    HW215945   2.077   3.578   1.172  1.3709  1.2957 -3.1198
 1495SOL     OW15946   2.594   0.981  15.054 -0.2196  0.2289  0.0863
 1495SOL    HW115947   2.598   0.986  14.958  0.7724 -0.1999  0.0963
 1495SOL    HW215948   2.659   0.914  15.078 -0.3570 -0.6307 -1.8654
 1496SOL     OW15949   3.466   2.254   5.140 -0.1375 -0.2120 -0.1955
 1496SOL    HW115950   3.492   2.341   5.107  0.8808 -1.5920 -3.0425
 1496SOL    HW215951   3.401   2.275   5.206 -1.4382 -1.1273 -1.1875
 1497SOL     OW15952   0.964   4.553   2.503  0.1774  0.2665 -0.0036
 1497SOL    HW115953   0.966   4.645   2.531  2.5906  0.2687 -0.1872
 1497SOL    HW215954   0.958   4.500   2.582  2.0811 -0.1482 -0.1419
 1498SOL     OW15955   2.467   4.451   1.836 -0.0620 -0.2690 -0.6805
 1498SOL    HW115956   2.388   4.497   1.863  0.5394  1.8787 -2.5419
 1498SOL    HW215957   2.525   4.456   1.912  2.3188 -0.9353 -2.4198
 1499SOL     OW15958   3.437   0.587   7.375  0.4940 -0.3332 -0.8995
 1499SOL    HW115959   3.505   0.595   7.442 -1.2600 -0.3752  0.8761
 1499SOL    HW215960   3.374   0.526   7.412 -0.7659  1.0518 -0.7491
 1500SOL     OW15961   2.485   3.656   4.917 -0.1271 -0.4607  0.1469
 1500SOL    HW115962   2.480   3.748   4.943  2.4320  0.6432 -3.3235
 1500SOL    HW215963   2.481   3.620   5.006 -1.3975 -0.5672  0.0556
 1501SOL     OW15964   3.592   2.314   0.242 -0.4424  0.2309  0.5048
 1501SOL    HW115965   3.616   2.295   0.332  0.1979  0.8491  0.4638
 1501SOL    HW215966   3.673   2.336   0.196 -1.1096  0.5593 -0.5334
 1502SOL     OW15967   1.340   3.737  15.784 -0.1041 -0.2997  0.0634
 1502SOL    HW115968   1.251   3.723  15.751  0.4903 -0.8696 -1.2955
 1502SOL    HW215969   1.390   3.733  15.702 -0.8696  1.1484 -0.4771
 1503SOL     OW15970   3.313   2.916   2.900 -0.5699 -0.5189  0.1283
 1503SOL    HW115971   3.248   2.954   2.960 -0.2637 -2.6241  1.7934
 1503SOL    HW215972   3.265   2.896   2.820 -1.0747  1.1771  0.0008
 1504SOL     OW15973   4.711   1.028   6.288  0.1099 -0.2160 -0.2846
 1504SOL    HW115974   0.025   1.071   6.208 -2.4424  2.5272  0.2137
 1504SOL    HW215975   0.015   0.937   6.264  1.4231 -0.5002  2.0293
 1505SOL     OW15976   3.335   2.479   1.241  0.0959 -0.3852 -0.0618
 1505SOL    HW115977   3.362   2.546   1.303 -1.8668 -0.0459  0.4457
 1505SOL    HW215978   3.268   2.426   1.284 -0.0517  0.9613  1.3524
 1506SOL     OW15979   2.428   3.931   1.475  1.0245 -0.7115  0.4008
 1506SOL    HW115980   2.393   3.864   1.416 -1.0769  0.8884 -0.1537
 1506SOL    HW215981   2.521   3.932   1.449  0.7037 -2.5393 -0.8293
 1507SOL     OW15982   3.358   2.155  10.326 -0.9666  0.2028  0.0412
 1507SOL    HW115983   3.287   2.093  10.342 -1.0937  0.0985 -0.8890
 1507SOL    HW215984   3.361   2.160  10.230 -1.2651  0.3788  0.0423
 1508SOL     OW15985   2.506   4.247   6.533  0.0972  0.7920  0.1242
 1508SOL    HW115986   2.559   4.227   6.456 -0.2732  0.5491 -0.0672
 1508SOL    HW215987   2.530   4.176   6.592 -0.9093 -0.5892 -1.1501
 1509SOL     OW15988   0.692   1.284   1.878  0.3374  0.0722  0.5597
 1509SOL    HW115989   0.608   1.238   1.867  0.7938 -1.0477  1.6638
 1509SOL    HW215990   0.661   1.368   1.911 -0.8993 -0.5579  1.0441
 1510SOL     OW15991   1.392   4.636   4.768 -0.0155 -0.0512  0.1437
 1510SOL    HW115992   1.345   4.640   4.851  0.6145  1.4406  0.4438
 1510SOL    HW215993   1.329   4.674   4.707  1.1468  0.1630 -0.9055
 1511SOL     OW15994   1.739   0.510   3.972  0.2352  0.1069  0.5737
 1511SOL    HW115995   1.674   0.529   4.040 -1.5153 -4.3023  0.1502
 1511SOL    HW215996   1.691   0.541   3.895 -2.8110 -1.8695  1.6879
 1512SOL     OW15997   4.011   3.178   7.485  0.9843 -0.3950 -0.3945
 1512SOL    HW115998   3.999   3.254   7.541 -1.7909 -1.2580  0.2247
 1512SOL    HW215999   3.945   3.217   7.428 -0.9764 -0.5916  1.7415
 1513SOL     OW16000   4.403   2.892   6.860  0.4796 -0.2058  0.4037
 1513SOL    HW116001   4.316   2.878   6.897 -1.0281  1.0023 -2.6234
 1513SOL    HW216002   4.423   2.801   6.838  0.1134 -0.6180  1.8018
 1514SOL     OW16003   4.386   2.405   6.005  0.2339 -0.2451  0.0739
 1514SOL    HW116004   4.406   2.493   6.037  0.5789  0.4092 -1.9776
 1514SOL    HW216005   4.423   2.405   5.917 -1.3864  2.4371 -0.6068
 1515SOL     OW16006   0.025   3.840   8.543 -0.5331  0.5385  0.2677
 1515SOL    HW116007   0.067   3.764   8.504 -0.3943 -0.5816  2.6016
 1515SOL    HW216008   4.691   3.875   8.470 -1.7264  0.3306  1.0160
 1516SOL     OW16009   4.311   2.618   3.770 -0.2216 -0.2215  0.6739
 1516SOL    HW116010   4.378   2.560   3.807  1.4815 -1.2419 -4.1037
 1516SOL    HW216011   4.230   2.568   3.780  1.2402 -2.5260  0.8619
 1517SOL     OW16012   2.907   2.806   3.774 -0.2638  0.2889  0.2227
 1517SOL    HW116013   2.956   2.734   3.735 -0.2478  0.4743 -0.0999
 1517SOL    HW216014   2.884   2.762   3.856 -1.2062  0.4195  0.0320
 1518SOL     OW16015   1.347   3.308   9.422 -0.5850 -0.4987  0.0502
 1518SOL    HW116016   1.400   3.255   9.481 -2.3753 -2.6769 -0.2877
 1518SOL    HW216017   1.383   3.390   9.455  0.1968 -0.7944 -0.0655
 1519SOL     OW16018   3.533   0.540   8.794  0.3785 -0.2863 -0.0172
 1519SOL    HW116019   3.558   0.482   8.866 -1.9961 -0.6159  0.5440
 1519SOL    HW216020   3.615   0.531   8.747 -0.1732 -2.3139 -0.5538
 1520SOL     OW16021   2.698   1.704   9.771 -0.1416 -0.5057  0.7910
 1520SOL    HW116022   2.602   1.704   9.777 -0.2301  2.4098 -0.2861
 1520SOL    HW216023   2.719   1.688   9.862 -1.0390 -0.5555  0.9890
 1521SOL     OW16024   4.326   2.579  14.654  0.0547 -0.0376 -0.6428
 1521SOL    HW116025   4.403   2.566  14.599 -0.8438  1.6603 -2.2874
 1521SOL    HW216026   4.268   2.627  14.595  0.4623  0.2709 -0.7843
 1522SOL     OW16027   1.048   3.908  12.720 -0.4929  0.2286  0.3652
 1522SOL    HW116028   1.122   3.898  12.660 -0.4586 -1.4930  0.6905
 1522SOL    HW216029   1.032   3.818  12.748  1.2466 -0.4699 -0.8541
 1523SOL     OW16030   4.395   3.686   4.968  0.1247  0.0098  0.1074
 1523SOL    HW116031   4.380   3.602   4.924  3.2959 -0.7624  0.5538
 1523SOL    HW216032   4.346   3.749   4.914  0.4921  1.0138  0.9509
 1524SOL     OW16033   2.594   1.861   0.162  0.0825 -0.2485  0.2739
 1524SOL    HW116034   2.639   1.935   0.120  0.9451 -1.2756 -0.6206
 1524SOL    HW216035   2.595   1.893   0.252 -1.4891 -4.2641  1.6638
 1525SOL     OW16036   4.334   4.401   2.687  0.0651 -0.1493 -0.4434
 1525SOL    HW116037   4.393   4.418   2.613  1.1302 -1.6059  0.0654
 1525SOL    HW216038   4.376   4.324   2.726  0.2324  0.6006  0.8322
 1526SOL     OW16039   4.032   0.449   9.025  0.2962  0.2221  0.2716
 1526SOL    HW116040   4.123   0.461   9.053  0.0063  0.7437  0.9616
 1526SOL    HW216041   4.023   0.357   9.048 -0.6584  0.2780  0.1180
 1527SOL     OW16042   1.779   1.185   9.260  0.5970  0.0806 -0.2008
 1527SOL    HW116043   1.764   1.263   9.314  0.5695  0.5667 -0.9094
 1527SOL    HW216044   1.870   1.165   9.278  0.5244 -0.4971 -0.4890
 1528SOL     OW16045   3.622   2.600   8.315  0.0886  0.0959 -0.3571
 1528SOL    HW116046   3.568   2.567   8.242 -0.8172  0.0180  0.3491
 1528SOL    HW216047   3.709   2.566   8.293 -0.2853 -0.9513 -0.2441
 1529SOL     OW16048   3.168   0.331   5.549 -0.4494  0.0586 -0.0185
 1529SOL    HW116049   3.105   0.260   5.533 -2.6072  2.3957 -1.7842
 1529SOL    HW216050   3.171   0.334   5.645  0.5299  1.2840 -0.0900
 1530SOL     OW16051   1.144   2.697   7.083 -0.2971  0.2562 -0.2541
 1530SOL    HW116052   1.182   2.611   7.065 -1.4681 -0.1443 -0.7775
 1530SOL    HW216053   1.067   2.684   7.138  1.6468 -2.2307  1.8737
 1531SOL     OW16054   3.894   4.180   3.248  0.6025  0.4781  0.2215
 1531SOL    HW116055   3.801   4.164   3.265  0.4206  1.2377 -0.0581
 1531SOL    HW216056   3.882   4.210   3.158 -1.9808 -0.6338  0.1892
 1532SOL     OW16057   4.335   1.183   4.721 -0.1278  0.1715  0.6101
 1532SOL    HW116058   4.342   1.236   4.800 -0.9459  0.6983  0.3252
 1532SOL    HW216059   4.392   1.107   4.735 -2.6981 -1.4829  2.0332
 1533SOL     OW16060   4.450   1.463   6.425 -0.1979  0.3791  0.1423
 1533SOL    HW116061   4.380   1.472   6.490  0.8186 -1.3931  1.4783
 1533SOL    HW216062   4.482   1.553   6.422  1.3478 -0.0759  2.8965
 1534SOL     OW16063   4.175   4.692   2.452  0.8158 -0.2011  0.5088
 1534SOL    HW116064   4.241   0.037   2.480  0.9086 -0.8168  1.6911
 1534SOL    HW216065   4.134   4.664   2.534 -1.2228  1.5478  0.0738
 1535SOL     OW16066   2.230   0.051   4.346  0.0044  0.0351  0.4300
 1535SOL    HW116067   2.315   0.078   4.379  0.5529 -0.4573 -0.5845
 1535SOL    HW216068   2.209   4.696   4.404 -2.9166 -1.0721 -2.0154
 1536SOL     OW16069   1.238   0.139   2.322  0.6877 -0.3693  0.2673
 1536SOL    HW116070   1.168   0.178   2.269  0.8168 -0.5964 -0.0682
 1536SOL    HW216071   1.295   0.107   2.252 -0.4045 -0.3227 -0.6432
 1537SOL     OW16072   0.015   3.465   8.660  0.0128 -0.6818 -0.4643
 1537SOL    HW116073   0.003   3.415   8.741 -0.6045 -1.0313 -0.7767
 1537SOL    HW216074   4.653   3.442   8.612  0.3769  1.3939 -2.0320
 1538SOL     OW16075   1.252   0.678  17.669  0.1393  0.3822 -0.8229
 1538SOL    HW116076   1.339   0.643   0.014  1.4574  2.4218 -2.8865
 1538SOL    HW216077   1.269   0.769  17.647  0.5898  0.2700 -0.9460
 1539SOL     OW16078   2.806   1.163  14.944  0.0112  0.4102 -0.6630
 1539SOL    HW116079   2.824   1.196  14.856 -1.0999 -1.3395 -1.5432
 1539SOL    HW216080   2.755   1.238  14.974 -1.4474  0.2292 -2.7236
 1540SOL     OW16081   1.587   1.804   4.355 -0.3530  0.2509  0.0628
 1540SOL    HW116082   1.608   1.862   4.427 -0.7855 -2.1093  2.0830
 1540SOL    HW216083   1.627   1.720   4.380 -2.2285 -0.6051  0.2143
 1541SOL     OW16084   0.231   4.639  12.475  0.3273 -0.0852 -0.0309
 1541SOL    HW116085   0.269   4.593  12.550  2.4164 -0.2041 -1.1738
 1541SOL    HW216086   0.234   0.010  12.510  1.7473 -1.8023  4.2237
 1542SOL     OW16087   3.440   1.905   8.770  0.1795  0.1436 -0.0590
 1542SOL    HW116088   3.487   1.988   8.760  0.7278 -0.1798 -0.1733
 1542SOL    HW216089   3.507   1.860   8.821  1.3900  2.7496  0.6266
 1543SOL     OW16090   2.753   3.811   4.658  0.2749 -0.1491  0.2270
 1543SOL    HW116091   2.708   3.727   4.668  1.6746 -0.7966  1.1812
 1543SOL    HW216092   2.695   3.868   4.608  1.3429  1.8536  1.2627
 1544SOL     OW16093   2.580   2.775  14.415  0.1876  0.8637  1.0941
 1544SOL    HW116094   2.635   2.726  14.354  0.0459 -2.0266  3.2844
 1544SOL    HW216095   2.528   2.699  14.441 -0.3557  0.2322 -1.8033
 1545SOL     OW16096   2.463   0.179  17.600 -0.7516  0.3792  0.7328
 1545SOL    HW116097   2.538   0.124  17.624  0.1692  0.9003 -0.9600
 1545SOL    HW216098   2.481   0.260  17.647  0.9431 -0.2965  1.2352
 1546SOL     OW16099   3.599   0.649   2.902 -0.2626 -0.1040  0.0069
 1546SOL    HW116100   3.632   0.583   2.963 -0.6010 -0.7179 -0.4743
 1546SOL    HW216101   3.513   0.608   2.898 -0.4811  0.6010 -2.3000
 1547SOL     OW16102   3.916   1.881   6.031 -0.1486 -0.1121 -0.2527
 1547SOL    HW116103   3.967   1.952   6.070 -1.5808  0.3287  0.8277
 1547SOL    HW216104   3.914   1.811   6.096 -0.7123 -0.6233 -0.8211
 1548SOL     OW16105   0.261   0.467   3.030  0.1011 -0.0070  0.2751
 1548SOL    HW116106   0.212   0.497   2.953 -0.4886 -0.1897  0.5786
 1548SOL    HW216107   0.326   0.416   2.981  1.7487  2.1472  0.2557
 1549SOL     OW16108   2.390   4.486  13.587 -0.8664 -0.0897  0.6766
 1549SOL    HW116109   2.384   4.391  13.600 -1.0829 -0.3175 -1.0864
 1549SOL    HW216110   2.384   4.517  13.678  1.0745 -0.1995  0.8592
 1550SOL     OW16111   4.138   2.046   7.181 -0.0306  0.2135 -0.3327
 1550SOL    HW116112   4.112   1.965   7.224  3.5568 -1.3304 -1.0998
 1550SOL    HW216113   4.169   2.012   7.096 -0.7983 -1.1217 -0.0824
 1551SOL     OW16114   1.207   1.863   0.193  0.2167  0.1457  0.2831
 1551SOL    HW116115   1.180   1.950   0.222 -0.5033 -0.1407  0.4527
 1551SOL    HW216116   1.223   1.815   0.274 -0.5423 -0.1294  0.2704
 1552SOL     OW16117   3.534   1.471   5.383 -1.0567 -0.2968  0.1244
 1552SOL    HW116118   3.567   1.559   5.365 -1.1755 -0.6550 -1.9348
 1552SOL    HW216119   3.464   1.465   5.317  0.5575 -1.8777 -1.4734
 1553SOL     OW16120   4.018   4.277   1.353 -0.1661 -0.6484  0.1814
 1553SOL    HW116121   4.061   4.299   1.270  0.5062  0.1024  0.7339
 1553SOL    HW216122   3.972   4.359   1.370  0.2722  0.2731 -3.1874
 1554SOL     OW16123   0.722   4.598   4.307  0.0052 -0.3839  0.0521
 1554SOL    HW116124   0.788   4.578   4.240 -1.1562 -2.6482 -0.3963
 1554SOL    HW216125   0.706   4.692   4.292  0.2716 -0.1628  1.1452
 1555SOL     OW16126   0.636   0.296  15.034  0.3398  0.1756  0.1523
 1555SOL    HW116127   0.672   0.245  15.107 -0.9162  0.9595  1.3043
 1555SOL    HW216128   0.670   0.235  14.968 -0.9563 -1.1663  0.7371
 1556SOL     OW16129   3.989   1.461  16.526  0.2341  0.0505 -0.7331
 1556SOL    HW116130   3.968   1.370  16.546 -1.7133  0.9623  1.3952
 1556SOL    HW216131   4.079   1.443  16.499  0.2929 -0.0928 -0.4353
 1557SOL     OW16132   1.483   4.530   4.279 -0.5220  0.3085 -0.2337
 1557SOL    HW116133   1.511   4.526   4.371  0.6814  1.8831 -0.5347
 1557SOL    HW216134   1.566   4.504   4.240 -0.6447 -0.8297  0.2448
 1558SOL     OW16135   3.382   2.965   4.737 -0.2782 -0.7426 -0.0959
 1558SOL    HW116136   3.389   2.905   4.663 -1.5189 -0.8342 -0.1475
 1558SOL    HW216137   3.328   3.037   4.704  1.2874  1.0152  1.1882
 1559SOL     OW16138   1.441   3.629   0.764 -0.1910  0.3695 -0.2025
 1559SOL    HW116139   1.431   3.652   0.857  1.2617 -1.2231  0.3587
 1559SOL    HW216140   1.513   3.686   0.738  0.1014 -1.3754 -3.0918
 1560SOL     OW16141   2.825   2.068   5.274 -0.5355 -0.9958 -0.1610
 1560SOL    HW116142   2.877   2.083   5.353 -0.0696  2.3305 -1.1038
 1560SOL    HW216143   2.737   2.071   5.310 -0.2031  0.0944  0.5702
 1561SOL     OW16144   1.120   1.260  15.227 -0.2079  0.0315 -0.1367
 1561SOL    HW116145   1.067   1.288  15.302 -0.5645  0.4305 -0.5427
 1561SOL    HW216146   1.070   1.183  15.200 -0.8564  0.4367 -0.0755
 1562SOL     OW16147   0.823   0.913  14.410 -1.4344 -0.0551  0.2594
 1562SOL    HW116148   0.816   0.827  14.370  1.1313 -1.0840  2.0220
 1562SOL    HW216149   0.741   0.955  14.385 -1.5436  0.3947  1.3505
 1563SOL     OW16150   4.638   1.176  10.632 -0.1787  0.7934 -0.3022
 1563SOL    HW116151   4.606   1.089  10.607 -0.6214  1.3287 -1.6132
 1563SOL    HW216152   4.654   1.164  10.725 -2.5664  1.8592  0.2514
 1564SOL     OW16153   2.001   0.432   2.256  0.4831 -0.3707 -0.6153
 1564SOL    HW116154   1.994   0.514   2.305  1.8183 -0.2471 -0.6367
 1564SOL    HW216155   1.993   0.369   2.329 -1.4261 -0.0634 -0.5499
 1565SOL     OW16156   2.900   2.114   2.849  0.0603  0.2991 -0.3149
 1565SOL    HW116157   2.824   2.083   2.897  0.0685 -0.2646 -0.6711
 1565SOL    HW216158   2.929   2.034   2.806  0.7483 -0.2796  1.2344
 1566SOL     OW16159   1.603   3.744  15.895  0.2712 -0.0909  0.2738
 1566SOL    HW116160   1.623   3.700  15.813  1.3762  0.4819  0.2425
 1566SOL    HW216161   1.511   3.717  15.895  0.1183  0.4196 -0.8392
 1567SOL     OW16162   2.750   2.631  14.273  0.5342  0.5259  0.0068
 1567SOL    HW116163   2.845   2.633  14.289  0.6133 -0.5738 -0.3256
 1567SOL    HW216164   2.751   2.538  14.251 -2.6777  0.2395  1.0792
 1568SOL     OW16165   3.616   1.046   3.371  0.4963  0.1883 -0.3965
 1568SOL    HW116166   3.646   1.119   3.426 -0.6558  0.1127  0.3395
 1568SOL    HW216167   3.542   1.016   3.423  1.0874  0.8237  0.8275
 1569SOL     OW16168   3.270   3.473  15.067 -0.4064 -0.1522  0.2452
 1569SOL    HW116169   3.260   3.537  14.997  2.6314 -0.4890 -0.4619
 1569SOL    HW216170   3.364   3.459  15.057 -0.7941 -1.9880 -0.7914
 1570SOL     OW16171   1.872   2.443   6.642 -0.1100  0.4645  0.1817
 1570SOL    HW116172   1.932   2.373   6.616 -0.5674  0.6687 -1.4133
 1570SOL    HW216173   1.798   2.402   6.687 -0.3652  0.2848 -0.4034
 1571SOL     OW16174   4.012   2.007   5.406  0.3491  0.1150  0.3209
 1571SOL    HW116175   3.955   1.943   5.450  2.6504 -1.7225  0.6057
 1571SOL    HW216176   3.976   2.030   5.321  0.4526  1.3786  0.6146
 1572SOL     OW16177   0.509   2.200   1.182  0.1853  0.1394 -0.1348
 1572SOL    HW116178   0.570   2.259   1.227  0.0786  0.0011  0.1905
 1572SOL    HW216179   0.464   2.252   1.116 -0.5770 -0.5269 -0.1439
 1573SOL     OW16180   3.166   3.964  10.766 -0.0315  0.2752 -0.6208
 1573SOL    HW116181   3.140   3.965  10.858 -0.4004  0.1859 -0.7227
 1573SOL    HW216182   3.201   3.875  10.776  1.0986  0.5946 -1.8719
 1574SOL     OW16183   3.950   2.251   5.927 -0.6178 -0.6875 -0.2722
 1574SOL    HW116184   4.002   2.329   5.950  1.4307 -1.0356 -3.7408
 1574SOL    HW216185   4.011   2.187   5.963  1.0185  2.0739  1.9285
 1575SOL     OW16186   4.178   3.378  15.164 -0.0539  0.0526  0.0839
 1575SOL    HW116187   4.100   3.331  15.194 -1.1914  0.3053 -2.5065
 1575SOL    HW216188   4.143   3.467  15.171 -1.9510 -0.6771 -0.1438
 1576SOL     OW16189   0.402   0.713  10.171 -0.0508  0.2006  0.4519
 1576SOL    HW116190   0.446   0.635  10.206 -0.3104 -0.3405 -0.4249
 1576SOL    HW216191   0.325   0.671  10.132 -0.2288  2.2307 -1.3348
 1577SOL     OW16192   1.296   3.598   8.544  0.5066  0.1813  0.2556
 1577SOL    HW116193   1.371   3.626   8.596  1.5744  1.0703 -1.7914
 1577SOL    HW216194   1.234   3.564   8.609  0.8553  0.0693  0.5320
 1578SOL     OW16195   2.629   2.131   4.967 -0.3079 -0.2158  0.5187
 1578SOL    HW116196   2.714   2.141   4.923 -0.7198  1.3855  0.0755
 1578SOL    HW216197   2.637   2.192   5.040 -0.8727 -0.6648  0.9604
 1579SOL     OW16198   2.890   4.222   1.456  0.0988  0.1023  0.2355
 1579SOL    HW116199   2.798   4.243   1.446  0.3995  0.9843 -0.6845
 1579SOL    HW216200   2.915   4.219   1.363 -1.7378 -0.0260 -0.2532
 1580SOL     OW16201   2.857   2.411   8.398  0.5815  0.0776  0.6039
 1580SOL    HW116202   2.819   2.395   8.311  0.8373  2.0200  0.1510
 1580SOL    HW216203   2.779   2.402   8.453  0.3130  2.8657  0.6625
 1581SOL     OW16204   1.986   4.388   6.903 -0.5040  0.0922 -0.2425
 1581SOL    HW116205   2.006   4.294   6.908 -0.9655  0.0278  0.3229
 1581SOL    HW216206   1.913   4.393   6.841  0.0415  3.4779 -0.6286
 1582SOL     OW16207   1.714   3.917   2.944 -0.1233  0.2152 -0.0190
 1582SOL    HW116208   1.620   3.907   2.929 -0.2648  1.4498  0.0207
 1582SOL    HW216209   1.752   3.844   2.895 -1.5952 -0.3289 -0.3584
 1583SOL     OW16210   3.550   3.935   1.863  0.1668  0.4852  0.5892
 1583SOL    HW116211   3.643   3.915   1.863 -0.1041 -0.7481 -0.2057
 1583SOL    HW216212   3.526   3.863   1.805 -3.1613  0.4944  1.9667
 1584SOL     OW16213   2.989   0.778   6.549 -0.2681 -0.4446  0.1009
 1584SOL    HW116214   2.981   0.712   6.480  0.7062 -1.3101  0.8031
 1584SOL    HW216215   3.063   0.830   6.516 -0.1056 -0.1747  0.8958
 1585SOL     OW16216   3.794   2.246   2.265 -0.6404 -0.1500 -0.2011
 1585SOL    HW116217   3.772   2.300   2.341  1.0727  0.4532 -0.1131
 1585SOL    HW216218   3.871   2.294   2.232 -0.8350  0.4606  0.2339
 1586SOL     OW16219   4.115   2.657   5.429 -0.3432 -0.1403  0.3645
 1586SOL    HW116220   4.162   2.727   5.383  1.3661 -1.4474  0.1521
 1586SOL    HW216221   4.186   2.615   5.478 -0.0040  0.6852  0.5927
 1587SOL     OW16222   1.745   1.996   6.634 -0.6441  0.3220 -0.2805
 1587SOL    HW116223   1.724   2.082   6.673  1.0392  0.8740 -0.6219
 1587SOL    HW216224   1.669   1.994   6.576 -0.7323  1.2960 -0.2012
 1588SOL     OW16225   4.280   4.020   7.788 -0.2411 -0.6456  0.6157
 1588SOL    HW116226   4.229   4.100   7.799  0.0105 -0.4130  0.0741
 1588SOL    HW216227   4.248   3.987   7.704  2.0027 -0.3636 -0.3168
 1589SOL     OW16228   0.915   3.593   6.704  0.0817 -0.0528  0.3345
 1589SOL    HW116229   0.907   3.517   6.762 -0.0659 -1.6020 -1.7504
 1589SOL    HW216230   0.992   3.646   6.725  0.6391 -0.9150  0.4565
 1590SOL     OW16231   2.935   2.885   0.258  0.0753 -0.3118 -0.3841
 1590SOL    HW116232   3.013   2.925   0.219 -0.0426  1.4034  1.1497
 1590SOL    HW216233   2.960   2.792   0.257  1.9838  0.2142 -1.5882
 1591SOL     OW16234   3.241   4.348   6.417 -0.3701 -0.2687  0.3660
 1591SOL    HW116235   3.287   4.433   6.420  2.0818 -1.5538 -0.5582
 1591SOL    HW216236   3.300   4.274   6.402  0.8546  0.6857  0.3888
 1592SOL     OW16237   3.961   2.596   2.266  0.3658 -0.3276  0.0188
 1592SOL    HW116238   3.979   2.516   2.216 -1.9135  0.2511 -1.7618
 1592SOL    HW216239   3.878   2.625   2.227  0.9403 -1.9908 -2.4640
 1593SOL     OW16240   2.062   0.617   9.056  0.2401  0.3814 -0.0676
 1593SOL    HW116241   2.065   0.652   9.145  2.7060  0.6915 -0.2511
 1593SOL    HW216242   1.997   0.677   9.021  0.7394  0.7660 -0.3390
 1594SOL     OW16243   1.106   1.722   2.558 -0.1272  0.1351  0.5975
 1594SOL    HW116244   1.109   1.781   2.483 -0.8481 -1.5212 -0.7369
 1594SOL    HW216245   1.157   1.765   2.626  1.7353 -1.3158  0.1208
 1595SOL     OW16246   2.038   0.115  10.417 -0.1958  0.2198 -0.1871
 1595SOL    HW116247   2.081   0.035  10.444 -1.1389 -0.5721 -1.0025
 1595SOL    HW216248   2.114   0.163  10.385 -0.2406 -0.5121 -1.3950
 1596SOL     OW16249   4.694   1.602   1.269 -0.0398 -0.3284  0.3003
 1596SOL    HW116250   4.604   1.633   1.279 -0.2495 -0.8578  0.0345
 1596SOL    HW216251   4.688   1.537   1.199  0.4530 -0.6535  0.5557
 1597SOL     OW16252   2.999   4.227   2.299  0.5184  0.1393  0.3046
 1597SOL    HW116253   2.942   4.151   2.288  0.5898  0.2923 -1.1008
 1597SOL    HW216254   3.074   4.211   2.241  0.6816  0.1804  0.5022
 1598SOL     OW16255   1.463   1.960  16.876 -0.3984  0.8489  0.2241
 1598SOL    HW116256   1.484   2.048  16.910 -1.5932  1.2582 -0.1048
 1598SOL    HW216257   1.374   1.951  16.910 -1.1704  1.7179 -1.5645
 1599SOL     OW16258   2.711   1.524   3.012 -0.0223 -0.3402  0.3585
 1599SOL    HW116259   2.625   1.560   3.037  0.6452  1.4048  0.1198
 1599SOL    HW216260   2.689   1.435   3.038  0.4917 -0.5763 -0.0202
 1600SOL     OW16261   0.377   3.227   0.946 -0.4274 -0.1149  0.5947
 1600SOL    HW116262   0.388   3.142   0.904  2.3934  0.3642  0.3367
 1600SOL    HW216263   0.436   3.283   0.894 -0.0046 -1.5978 -0.5253
 1601SOL     OW16264   2.922   2.798  17.607 -0.5992  0.3359 -0.1603
 1601SOL    HW116265   2.992   2.862  17.594  1.9945 -1.7789  3.2370
 1601SOL    HW216266   2.847   2.851  17.635 -0.5254  0.1977  0.2995
 1602SOL     OW16267   2.858   3.945   7.643 -0.8087  0.3140 -0.2705
 1602SOL    HW116268   2.824   3.936   7.554  0.6732 -1.4938 -0.6705
 1602SOL    HW216269   2.891   3.856   7.652  0.6162  1.0144  1.3766
 1603SOL     OW16270   3.447   2.024   6.302  0.6397 -0.1523  0.0488
 1603SOL    HW116271   3.459   2.098   6.362  0.4634 -1.0399  1.1898
 1603SOL    HW216272   3.511   2.038   6.232 -1.5788  1.8606 -1.5300
 1604SOL     OW16273   1.735   3.248  13.837  0.1353  0.4604  0.2460
 1604SOL    HW116274   1.794   3.231  13.764  1.6733  1.9818  1.1410
 1604SOL    HW216275   1.679   3.308  13.788 -0.9445  0.6218  1.6663
 1605SOL     OW16276   1.742   1.026   4.569  0.5326  0.3236 -0.2529
 1605SOL    HW116277   1.781   0.941   4.551 -1.8101 -0.7458 -0.3395
 1605SOL    HW216278   1.787   1.079   4.504 -0.2400  1.8777  0.4558
 1606SOL     OW16279   1.710   0.602   8.548 -0.5491  0.2997  0.1108
 1606SOL    HW116280   1.647   0.595   8.620 -0.3499 -3.3740 -0.0981
 1606SOL    HW216281   1.784   0.559   8.590 -1.5946 -0.3007  1.3512
 1607SOL     OW16282   1.953   0.879   1.825 -1.0923  0.1561  0.1475
 1607SOL    HW116283   1.953   0.883   1.729 -3.8879  0.1635  0.1497
 1607SOL    HW216284   1.994   0.794   1.840  1.6055  1.7259  1.6409
 1608SOL     OW16285   4.246   3.962   7.516  0.0164 -0.2726  0.9561
 1608SOL    HW116286   4.168   3.912   7.541 -2.0600  2.6490  0.3614
 1608SOL    HW216287   4.309   3.891   7.526  0.5437  0.0259 -0.2702
 1609SOL     OW16288   0.815   3.446  12.110 -0.1458  0.1890 -0.1015
 1609SOL    HW116289   0.821   3.426  12.203 -1.2803  1.4734  0.2504
 1609SOL    HW216290   0.907   3.461  12.088 -0.3452  0.6770 -0.6086
 1610SOL     OW16291   3.423   3.784   7.722 -0.1097  0.3073  0.3564
 1610SOL    HW116292   3.365   3.709   7.734 -0.2362  0.2495 -0.5706
 1610SOL    HW216293   3.476   3.782   7.801  1.2448  1.4367 -0.5256
 1611SOL     OW16294   1.367   2.364   5.103 -0.3867  0.1933  0.0037
 1611SOL    HW116295   1.281   2.406   5.100  0.3009  1.6330  0.6072
 1611SOL    HW216296   1.355   2.298   5.035  1.2750  0.3614 -0.4495
 1612SOL     OW16297   1.723   3.702   5.277 -0.3167  0.3331 -0.1479
 1612SOL    HW116298   1.809   3.691   5.237 -0.5404 -1.1686 -0.2267
 1612SOL    HW216299   1.727   3.759   5.354 -0.9540  0.1604  0.0168
 1613SOL     OW16300   3.695   4.219  16.003  0.1622  0.0053 -0.4153
 1613SOL    HW116301   3.763   4.272  15.961 -1.7774  1.4542 -1.7227
 1613SOL    HW216302   3.711   4.222  16.097  0.1461  1.5913 -0.4538
 1614SOL     OW16303   3.680   3.658  15.067  0.1239 -0.3925 -0.1558
 1614SOL    HW116304   3.638   3.736  15.033  1.6178  0.7229  0.5370
 1614SOL    HW216305   3.761   3.674  15.018 -1.3761 -0.0875 -2.4815
 1615SOL     OW16306   4.282   1.064   1.384 -0.3620 -0.5407 -0.6423
 1615SOL    HW116307   4.340   1.128   1.425 -2.3238 -0.0995  1.4807
 1615SOL    HW216308   4.199   1.113   1.387  0.0660  0.3021 -3.1627
 1616SOL     OW16309   4.651   2.636  14.248 -0.4786  0.3399  0.1635
 1616SOL    HW116310   4.605   2.556  14.224  0.0093 -0.1319  0.7933
 1616SOL    HW216311   0.016   2.627  14.201 -0.7516 -1.1591 -0.0311
 1617SOL     OW16312   1.151   2.779   8.506  0.1588  0.2409 -0.1433
 1617SOL    HW116313   1.225   2.766   8.565 -0.6869 -4.2726 -0.0403
 1617SOL    HW216314   1.173   2.719   8.434 -0.6582  0.0153 -0.2078
 1618SOL     OW16315   3.749   2.742   0.449 -0.0467 -0.1304  0.2067
 1618SOL    HW116316   3.744   2.647   0.444 -0.3014 -0.1931  1.6526
 1618SOL    HW216317   3.842   2.761   0.435 -0.2869 -0.5500 -1.9429
 1619SOL     OW16318   1.900   4.276   2.414  0.1779  0.1002  0.8778
 1619SOL    HW116319   1.985   4.234   2.404 -0.2311 -0.2451 -1.2127
 1619SOL    HW216320   1.927   4.360   2.379  0.2026 -0.3068 -0.0961
 1620SOL     OW16321   2.185   3.415  11.965  0.2280  0.3627  0.0642
 1620SOL    HW116322   2.161   3.365  11.887  0.9415  2.8449 -1.7263
 1620SOL    HW216323   2.115   3.380  12.020  1.9376  0.0486  2.0338
 1621SOL     OW16324   4.189   4.219   2.941  0.1288  0.0533  0.6940
 1621SOL    HW116325   4.262   4.256   2.892 -1.2816 -0.2583 -1.6467
 1621SOL    HW216326   4.185   4.127   2.915  0.2074 -0.2418  1.7112
 1622SOL     OW16327   1.706   3.476  12.347  0.5614 -0.1375  0.0365
 1622SOL    HW116328   1.674   3.410  12.285  1.1635 -1.0457  0.6725
 1622SOL    HW216329   1.771   3.433  12.403  0.4113  1.6233  1.5214
 1623SOL     OW16330   4.526   2.084   7.801  0.0045  0.5219  0.2862
 1623SOL    HW116331   4.465   2.038   7.859 -0.5841 -0.3646 -1.0552
 1623SOL    HW216332   4.453   2.104   7.743  0.2620  0.6172 -0.0039
 1624SOL     OW16333   2.187   3.757   1.546 -0.2595  0.6343  0.0624
 1624SOL    HW116334   2.215   3.667   1.527 -0.2856  0.9378 -1.4435
 1624SOL    HW216335   2.141   3.741   1.628  0.1543 -0.0047  0.1727
 1625SOL     OW16336   1.856   1.261   3.274 -0.0223 -0.1550  0.1560
 1625SOL    HW116337   1.791   1.304   3.329 -0.1962 -1.7747  1.1998
 1625SOL    HW216338   1.877   1.185   3.328 -0.9396 -0.3719  0.2131
 1626SOL     OW16339   1.177   1.323  12.465  0.3807  0.2423  0.0857
 1626SOL    HW116340   1.091   1.321  12.507  0.5433 -1.0257  0.3557
 1626SOL    HW216341   1.173   1.395  12.402 -0.5009  0.1817  0.0705
 1627SOL     OW16342   4.024   0.786   2.684 -0.0154 -1.0219 -0.0687
 1627SOL    HW116343   4.001   0.873   2.654  2.2651 -0.3142  0.2394
 1627SOL    HW216344   4.078   0.813   2.759 -0.2304  0.3352 -0.4072
 1628SOL     OW16345   3.433   2.299   7.877 -0.0938  0.8536 -0.2765
 1628SOL    HW116346   3.441   2.223   7.934  1.4696  1.9429  0.9722
 1628SOL    HW216347   3.346   2.273   7.845  0.8650 -2.0390 -0.5182
 1629SOL     OW16348   0.404   4.401  15.997 -0.5765  0.4032 -0.0329
 1629SOL    HW116349   0.397   4.311  16.030 -1.8235  1.0450  1.3901
 1629SOL    HW216350   0.410   4.392  15.901  0.5977 -1.1849  0.1830
 1630SOL     OW16351   1.562   1.885   4.687 -0.0603 -0.5488 -0.2696
 1630SOL    HW116352   1.493   1.947   4.666  0.0626 -0.4944 -0.5054
 1630SOL    HW216353   1.522   1.835   4.758 -0.3399  1.7244  1.1532
 1631SOL     OW16354   4.212   4.612   6.350 -0.5209 -0.2576  0.0442
 1631SOL    HW116355   4.284   4.550   6.337  0.7660  0.9903  1.1552
 1631SOL    HW216356   4.134   4.558   6.337 -1.6583  1.7146 -1.2486
 1632SOL     OW16357   1.494   0.465   7.527 -0.0002  0.0083 -0.2969
 1632SOL    HW116358   1.442   0.523   7.472 -0.2277 -0.0018 -0.0926
 1632SOL    HW216359   1.440   0.389   7.545 -2.4702  1.6725 -0.6986
 1633SOL     OW16360   2.577   3.724   3.813  0.4141  0.1785  0.7143
 1633SOL    HW116361   2.538   3.690   3.733  1.9388  2.7165 -1.1024
 1633SOL    HW216362   2.519   3.702   3.886 -0.2116 -0.1555  0.1116
 1634SOL     OW16363   0.833   1.702   8.177  0.5277 -0.4139 -0.3338
 1634SOL    HW116364   0.859   1.712   8.085 -2.1490 -1.7197 -1.2043
 1634SOL    HW216365   0.810   1.795   8.186 -1.0470 -0.6680 -1.8920
 1635SOL     OW16366   3.149   4.126   7.829  0.5695  0.7074 -0.5239
 1635SOL    HW116367   3.132   4.210   7.787 -2.7734 -0.1098 -0.7472
 1635SOL    HW216368   3.229   4.105   7.781  1.1407 -0.8206  1.0858
 1636SOL     OW16369   0.367   4.119  13.848  0.2931  0.5611 -0.0074
 1636SOL    HW116370   0.277   4.094  13.870  0.2349  0.1384 -0.7304
 1636SOL    HW216371   0.371   4.215  13.848 -1.4087  0.6372 -1.1503
 1637SOL     OW16372   2.940   3.365  11.811 -0.2964 -0.0224 -0.3084
 1637SOL    HW116373   2.966   3.363  11.903 -0.3908 -1.0908 -0.3049
 1637SOL    HW216374   3.026   3.365  11.769  0.7599 -1.8704  1.8377
 1638SOL     OW16375   1.382   1.041  14.379 -0.4808 -0.2961 -0.1677
 1638SOL    HW116376   1.448   0.972  14.369  1.1354  1.1468  0.5318
 1638SOL    HW216377   1.300   0.995  14.398  0.2899 -1.8978 -0.7375
 1639SOL     OW16378   3.555   0.101   7.242  0.0031  0.4300  0.0316
 1639SOL    HW116379   3.582   0.009   7.245  0.3278  0.5986  2.4657
 1639SOL    HW216380   3.642   0.139   7.258 -0.3549  1.1574  0.2617
 1640SOL     OW16381   3.838   4.207   1.852  0.1675 -0.3114 -0.5792
 1640SOL    HW116382   3.761   4.262   1.867  0.0597 -0.8719  0.9579
 1640SOL    HW216383   3.843   4.199   1.757  1.2578  0.3008 -0.5666
 1641SOL     OW16384   1.106   2.969   6.407 -0.2849  0.1149 -0.2110
 1641SOL    HW116385   1.188   3.001   6.368 -1.4548  2.1531 -1.0053
 1641SOL    HW216386   1.103   2.888   6.356  1.7937  0.8969 -1.5687
 1642SOL     OW16387   2.457   4.630  13.001 -0.1033 -0.6312  0.9002
 1642SOL    HW116388   2.534   4.576  12.983  0.1624 -0.4829  1.5834
 1642SOL    HW216389   2.381   4.572  12.996  0.1928 -0.9433 -0.0802
 1643SOL     OW16390   3.668   2.035   9.298  0.3827 -0.0993 -0.1750
 1643SOL    HW116391   3.693   2.099   9.364 -1.4844  1.2467 -0.7640
 1643SOL    HW216392   3.628   1.969   9.354 -3.1459  1.9329 -0.2592
 1644SOL     OW16393   2.220   2.966   0.265 -0.0175 -0.3249 -0.5252
 1644SOL    HW116394   2.199   3.051   0.303  0.0858 -1.1813  1.4578
 1644SOL    HW216395   2.297   2.935   0.313  1.6850  0.8680 -2.4969
 1645SOL     OW16396   1.682   0.346  10.568  0.1596 -0.0489  0.4950
 1645SOL    HW116397   1.690   0.440  10.585 -1.4942  0.2875 -0.5766
 1645SOL    HW216398   1.771   0.321  10.592 -0.1005  0.0758  1.5990
 1646SOL     OW16399   1.018   4.648   0.809 -0.1499 -0.2748  0.0079
 1646SOL    HW116400   0.927   4.677   0.810  1.0375  3.3947  1.3519
 1646SOL    HW216401   1.001   4.558   0.838  1.1767 -0.4184  0.3396
 1647SOL     OW16402   3.128   4.529   7.442 -0.7167  0.3255 -0.4214
 1647SOL    HW116403   3.175   4.445   7.439 -0.3144  0.5178  0.2833
 1647SOL    HW216404   3.163   4.579   7.368 -0.9516  0.8225 -0.1968
 1648SOL     OW16405   4.114   0.145   2.962  0.6215 -0.1337 -0.3413
 1648SOL    HW116406   4.115   0.125   3.056 -0.7218 -0.9479 -0.5053
 1648SOL    HW216407   4.161   0.227   2.974  0.9728 -0.2748 -0.7772
 1649SOL     OW16408   4.653   3.891  14.805  0.2998  0.2117  0.2859
 1649SOL    HW116409   0.017   3.919  14.763 -0.5106  1.6050 -0.3762
 1649SOL    HW216410   4.600   3.851  14.736  1.0728  1.9273 -1.3225
 1650SOL     OW16411   4.353   3.070   4.104 -0.0903 -0.4462  0.2616
 1650SOL    HW116412   4.437   3.027   4.093  1.2039  2.0542  0.4107
 1650SOL    HW216413   4.354   3.139   4.037  4.8738 -1.1479 -0.3560
 1651SOL     OW16414   2.948   2.028   7.313 -0.6357 -0.1140  0.3377
 1651SOL    HW116415   2.953   2.034   7.218  1.5244  0.5400  0.4823
 1651SOL    HW216416   3.001   2.099   7.349  2.1721 -0.9695 -2.0317
 1652SOL     OW16417   0.099   3.622   5.160 -0.3219  0.2856 -0.2716
 1652SOL    HW116418   0.007   3.626   5.187  0.2456  0.1201  1.6936
 1652SOL    HW216419   0.131   3.642   5.248 -1.2017  1.1186 -0.1440
 1653SOL     OW16420   4.498   1.894   6.135 -0.1111 -0.5641  0.4240
 1653SOL    HW116421   4.529   1.820   6.083 -0.4329  0.8866 -1.8158
 1653SOL    HW216422   4.480   1.954   6.063  0.2490 -0.4093  0.4589
 1654SOL     OW16423   2.838   0.861  12.276  0.2461 -0.0869  0.1167
 1654SOL    HW116424   2.931   0.838  12.278 -0.0210 -1.1992  0.1487
 1654SOL    HW216425   2.797   0.788  12.322 -1.4586  0.5420 -0.4132
 1655SOL     OW16426   4.443   0.063  10.107  0.9537 -0.0607  0.1819
 1655SOL    HW116427   4.519   0.071  10.165  1.1938  2.3805 -0.4419
 1655SOL    HW216428   4.456   4.689  10.088 -2.3917 -0.4256 -0.3001
 1656SOL     OW16429   3.991   0.878  17.221 -0.8220 -0.0479 -0.4246
 1656SOL    HW116430   3.952   0.866  17.135  0.4367  1.0271 -1.1571
 1656SOL    HW216431   4.083   0.864  17.196 -0.6276  1.7145 -0.6732
 1657SOL     OW16432   4.703   1.581   9.140 -0.2571  0.0933  0.0838
 1657SOL    HW116433   4.609   1.571   9.155 -0.5803  3.6116  0.4106
 1657SOL    HW216434   4.698   1.670   9.105  1.0395 -0.1851 -0.8066
 1658SOL     OW16435   2.290   1.149   4.238  0.5695 -0.5249 -0.2076
 1658SOL    HW116436   2.351   1.124   4.308 -0.9675  3.1970  2.4551
 1658SOL    HW216437   2.207   1.114   4.267  0.6405 -0.6767 -0.1910
 1659SOL     OW16438   0.911   3.612  15.462  0.4561 -0.2893  0.4573
 1659SOL    HW116439   0.866   3.552  15.521 -1.8805 -0.4545 -1.4960
 1659SOL    HW216440   0.863   3.694  15.479  0.6022  0.0389 -0.7433
 1660SOL     OW16441   3.546   4.634   5.848 -0.6105  0.2732  0.3404
 1660SOL    HW116442   3.503   4.605   5.928  0.2400  0.3112  0.8082
 1660SOL    HW216443   3.485   4.700   5.814  0.5617  1.5590  0.7654
 1661SOL     OW16444   3.603   3.789   7.514 -0.0898  0.5144  0.1077
 1661SOL    HW116445   3.553   3.769   7.592  1.2705  0.1574  0.8785
 1661SOL    HW216446   3.657   3.865   7.536 -0.4038  0.3197  1.5412
 1662SOL     OW16447   3.984   1.071   2.661 -0.1044 -0.1020 -0.3543
 1662SOL    HW116448   3.960   1.161   2.683  1.4586  0.1629  0.3457
 1662SOL    HW216449   3.910   1.061   2.602  1.2503 -1.4439 -1.8363
 1663SOL     OW16450   0.157   2.352   6.146  0.1037 -0.2022  0.2970
 1663SOL    HW116451   0.139   2.314   6.232 -0.3215  1.3181  0.8740
 1663SOL    HW216452   0.229   2.293   6.124  0.2579  0.1249 -0.0695
 1664SOL     OW16453   3.359   4.080  12.654 -0.1948  0.1012  0.2407
 1664SOL    HW116454   3.375   4.174  12.653  1.0195 -0.0905  1.1284
 1664SOL    HW216455   3.266   4.071  12.635 -0.3795  2.4250  0.0284
 1665SOL     OW16456   4.279   2.561   8.716  0.4929 -0.5216 -0.1373
 1665SOL    HW116457   4.313   2.617   8.786  2.7624 -0.3389 -1.3741
 1665SOL    HW216458   4.228   2.504   8.773 -0.5388  2.0255  1.4636
 1666SOL     OW16459   1.235   0.501   4.504  0.3785  0.0869 -0.2885
 1666SOL    HW116460   1.301   0.567   4.524  1.4077 -1.2488  0.7076
 1666SOL    HW216461   1.192   0.550   4.433  0.4809  1.3318  0.5133
 1667SOL     OW16462   1.691   1.338   4.605 -0.2478  0.8193  0.1038
 1667SOL    HW116463   1.657   1.315   4.692  0.6444  0.5401  0.3791
 1667SOL    HW216464   1.624   1.307   4.545 -0.0958 -0.6483  0.6908
 1668SOL     OW16465   1.199   1.119   8.973 -0.0958 -0.3469  0.2106
 1668SOL    HW116466   1.222   1.141   8.883  0.0486 -0.8348  0.1324
 1668SOL    HW216467   1.193   1.025   8.957 -0.8287 -0.3286  0.3414
 1669SOL     OW16468   3.570   2.496   1.108  0.0218 -0.0197 -0.2206
 1669SOL    HW116469   3.529   2.492   1.022 -1.9420 -0.2944  0.7159
 1669SOL    HW216470   3.490   2.508   1.160  1.0267 -0.2809  1.3643
 1670SOL     OW16471   4.262   3.930   0.454  0.4208 -0.4756 -0.2178
 1670SOL    HW116472   4.215   3.893   0.529 -1.2857  1.9426 -0.0889
 1670SOL    HW216473   4.280   3.860   0.391  1.1250 -1.7750  1.4340
 1671SOL     OW16474   2.903   2.576  15.095  0.2293 -0.1680 -0.3150
 1671SOL    HW116475   2.998   2.580  15.099  0.1834  0.8505 -0.2268
 1671SOL    HW216476   2.884   2.492  15.053  0.7736 -0.0005 -0.8981
 1672SOL     OW16477   4.106   2.031   2.354  0.8337 -0.3256 -0.4169
 1672SOL    HW116478   4.050   2.007   2.280  0.5236  1.7127 -0.8408
 1672SOL    HW216479   4.115   2.126   2.350  0.5008 -0.1744  2.4444
 1673SOL     OW16480   2.844   1.180   4.451 -0.0679  0.6874  0.2180
 1673SOL    HW116481   2.755   1.210   4.432  0.0040  1.0967  0.5257
 1673SOL    HW216482   2.807   1.131   4.524 -0.8450 -2.4713 -2.3027
 1674SOL     OW16483   0.978   1.016  15.234  0.2512  0.4036 -0.4453
 1674SOL    HW116484   1.052   0.969  15.194  0.1016 -0.5340  0.3646
 1674SOL    HW216485   0.946   0.935  15.275 -1.0192  0.5193 -1.2157
 1675SOL     OW16486   0.676   3.326   6.922  0.0517  0.0265  0.2175
 1675SOL    HW116487   0.640   3.311   7.009 -0.8567 -1.6014 -0.4422
 1675SOL    HW216488   0.593   3.325   6.874  0.0779  2.7983  0.1161
 1676SOL     OW16489   2.698   2.258   0.322  0.3144 -0.0449 -0.1114
 1676SOL    HW116490   2.662   2.328   0.268  2.6458 -0.0714 -1.7565
 1676SOL    HW216491   2.705   2.180   0.267 -1.8945 -0.1446 -0.2289
 1677SOL     OW16492   3.055   4.304   5.765 -0.0666 -0.2787  0.4644
 1677SOL    HW116493   3.123   4.361   5.802 -0.2322  0.2476 -0.0445
 1677SOL    HW216494   3.088   4.217   5.789  2.1808  1.0233  2.0671
 1678SOL     OW16495   4.550   4.307   3.078  0.0018  0.0831  0.3160
 1678SOL    HW116496   4.598   4.375   3.031  0.7107 -0.5744  0.0949
 1678SOL    HW216497   4.523   4.266   2.996  0.3650  1.1182 -0.3204
 1679SOL     OW16498   4.086   3.355   8.911 -0.2333 -0.0918  0.2747
 1679SOL    HW116499   4.166   3.302   8.919  0.2131  0.7586  1.4909
 1679SOL    HW216500   4.018   3.293   8.937 -1.3505  0.7227 -0.7120
 1680SOL     OW16501   2.162   3.810   6.092 -0.1355 -0.0860 -0.6531
 1680SOL    HW116502   2.098   3.799   6.162  1.0893 -1.6484  0.2359
 1680SOL    HW216503   2.102   3.795   6.019 -0.1750 -1.2140 -0.3875
 1681SOL     OW16504   2.542   4.161   3.371 -0.5147 -0.1338  0.6288
 1681SOL    HW116505   2.474   4.147   3.436  0.4198 -0.7203  1.4820
 1681SOL    HW216506   2.495   4.211   3.304 -0.4575  0.6328  1.1595
 1682SOL     OW16507   1.805   0.076   3.315 -0.5231 -0.1963 -0.4407
 1682SOL    HW116508   1.712   0.100   3.317 -0.5319 -0.3172  0.6723
 1682SOL    HW216509   1.806   0.004   3.378  0.1892 -0.7867 -1.1326
 1683SOL     OW16510   1.690   2.615   1.426  0.2254 -0.5101  0.2465
 1683SOL    HW116511   1.616   2.558   1.449 -0.3168  0.9565  2.1353
 1683SOL    HW216512   1.766   2.556   1.427 -1.2216 -2.4159 -2.6243
 1684SOL     OW16513   2.651   3.116   1.568 -0.7417  0.5698 -1.0784
 1684SOL    HW116514   2.725   3.144   1.514 -1.2891 -0.8704 -2.5917
 1684SOL    HW216515   2.692   3.056   1.631 -1.3159  0.8397 -0.4524
 1685SOL     OW16516   3.669   4.274  11.006 -0.2463 -0.6853  0.3142
 1685SOL    HW116517   3.639   4.325  11.080 -1.7336 -0.7132 -0.2792
 1685SOL    HW216518   3.632   4.315  10.928  0.8592  0.4967  0.4137
 1686SOL     OW16519   4.287   3.711  17.041  0.5197  0.2383  0.7374
 1686SOL    HW116520   4.264   3.785  16.986  1.1440  0.4782  0.7967
 1686SOL    HW216521   4.224   3.723  17.112  1.2956  0.3995  1.3947
 1687SOL     OW16522   1.403   2.844  16.686 -0.0122 -0.7943 -0.2304
 1687SOL    HW116523   1.385   2.928  16.645 -3.0129 -1.5760 -0.5190
 1687SOL    HW216524   1.321   2.819  16.729 -0.3101  0.3023 -0.1557
 1688SOL     OW16525   2.422   3.833   1.770  0.3599 -0.4147 -0.1498
 1688SOL    HW116526   2.378   3.871   1.694  1.5916  1.8189  0.2529
 1688SOL    HW216527   2.514   3.835   1.743  0.1161  1.3325 -0.8464
 1689SOL     OW16528   1.492   1.096   7.332  0.7458 -0.5280 -0.4698
 1689SOL    HW116529   1.491   1.016   7.280 -1.9336 -0.9815  0.2873
 1689SOL    HW216530   1.413   1.085   7.385 -0.2776 -1.1627 -2.1211
 1690SOL     OW16531   3.100   4.366   8.011 -0.4005 -0.4880  0.2306
 1690SOL    HW116532   3.120   4.304   7.941 -0.3003  0.5504 -0.6660
 1690SOL    HW216533   3.028   4.417   7.975 -1.5828 -1.3758  1.3492
 1691SOL     OW16534   3.811   3.950   7.562  0.2950  0.2423 -0.5220
 1691SOL    HW116535   3.821   3.976   7.653  0.5960  2.5495 -1.1956
 1691SOL    HW216536   3.881   3.885   7.560  0.4574  0.4973 -3.2685
 1692SOL     OW16537   0.830   0.545  15.160 -0.1998  0.0361  0.6769
 1692SOL    HW116538   0.889   0.496  15.102 -0.6401  0.1762  0.1151
 1692SOL    HW216539   0.770   0.586  15.098 -0.6346 -0.6795  0.6179
 1693SOL     OW16540   0.720   1.499   6.181 -0.5919 -0.1561 -0.6975
 1693SOL    HW116541   0.652   1.474   6.118 -2.1193  0.9634  0.5038
 1693SOL    HW216542   0.796   1.473   6.129 -0.6554 -1.3008 -0.2385
 1694SOL     OW16543   4.144   2.688  14.112 -0.5002 -0.2444 -0.7375
 1694SOL    HW116544   4.114   2.601  14.139  2.8555  0.2339  4.5238
 1694SOL    HW216545   4.071   2.736  14.074 -0.2727  0.2823 -0.5051
 1695SOL     OW16546   3.941   0.328   6.663  0.0455 -0.2450  0.2533
 1695SOL    HW116547   3.911   0.243   6.632  1.5235  0.3129 -2.7735
 1695SOL    HW216548   3.994   0.298   6.736  0.5681 -0.9358 -0.4091
 1696SOL     OW16549   1.916   1.532   6.616 -0.1494  0.4201  0.4680
 1696SOL    HW116550   1.878   1.605   6.566 -2.1792 -0.7793  0.2465
 1696SOL    HW216551   1.910   1.458   6.557 -1.0801  1.0006 -0.1771
 1697SOL     OW16552   3.208   4.314   8.680 -0.3758  0.3477 -0.7036
 1697SOL    HW116553   3.271   4.325   8.752 -1.9375  0.1705  0.6936
 1697SOL    HW216554   3.154   4.237   8.697 -1.9449  1.8119  1.0641
 1698SOL     OW16555   1.450   0.268   6.065 -0.5598 -0.2620  0.3159
 1698SOL    HW116556   1.392   0.229   6.130 -2.7708  1.5878 -0.5339
 1698SOL    HW216557   1.480   0.198   6.008  2.6376  2.5799 -1.4680
 1699SOL     OW16558   4.590   2.393   6.392 -0.4395 -0.0547 -0.1737
 1699SOL    HW116559   4.526   2.396   6.321 -0.5188 -2.2600 -0.1903
 1699SOL    HW216560   4.564   2.307   6.426 -2.7082  0.5247 -0.4285
 1700SOL     OW16561   4.631   4.600  17.554  1.0032  0.5808  0.6039
 1700SOL    HW116562   4.676   4.618  17.471  0.8388  0.3205  0.4566
 1700SOL    HW216563   4.602   4.686  17.584  1.2939  1.2345 -0.9897
 1701SOL     OW16564   0.803   2.905   5.494 -0.1109  0.2685 -0.4992
 1701SOL    HW116565   0.788   2.903   5.399  1.2812  0.7131 -0.7354
 1701SOL    HW216566   0.870   2.841   5.519  1.9123  2.5519 -0.0087
 1702SOL     OW16567   2.353   0.019  17.125  0.7188  0.6713 -0.2222
 1702SOL    HW116568   2.260   0.001  17.113  1.0309 -1.4437  0.5912
 1702SOL    HW216569   2.360   0.061  17.210  0.5479 -1.5464  0.8713
 1703SOL     OW16570   3.627   1.006  13.164 -0.4553 -0.0651  0.0270
 1703SOL    HW116571   3.634   0.991  13.258  1.7066  0.5490 -0.0478
 1703SOL    HW216572   3.693   0.938  13.149 -1.4629 -1.4069  1.6349
 1704SOL     OW16573   0.338   3.894  10.941 -0.4225  0.0305 -0.1721
 1704SOL    HW116574   0.388   3.972  10.917  0.6418 -0.9143 -0.9908
 1704SOL    HW216575   0.403   3.846  10.992  0.6793  2.8837  1.1164
 1705SOL     OW16576   1.781   2.309   7.528  0.3001 -0.0616  0.2438
 1705SOL    HW116577   1.689   2.298   7.503  0.0065  3.1760 -0.0959
 1705SOL    HW216578   1.819   2.353   7.452 -2.8106 -1.4033 -2.0778
 1706SOL     OW16579   1.462   4.428   1.785  0.8486 -0.2416  0.1293
 1706SOL    HW116580   1.403   4.404   1.713 -2.0185  1.4395  1.9062
 1706SOL    HW216581   1.443   4.521   1.790  0.5985 -0.3509  1.2252
 1707SOL     OW16582   1.464   2.962  16.264  0.1849 -0.2239 -0.5586
 1707SOL    HW116583   1.523   2.944  16.190 -0.6331 -4.1838 -0.2641
 1707SOL    HW216584   1.387   2.909  16.243 -0.0716  0.5710 -1.6473
 1708SOL     OW16585   1.292   1.866   6.866 -0.4034  0.4485 -0.0654
 1708SOL    HW116586   1.344   1.941   6.896  1.2253  0.0609 -1.9099
 1708SOL    HW216587   1.360   1.799   6.853  0.5917  1.0249  2.1428
 1709SOL     OW16588   2.543   4.162   2.389 -0.3426 -0.0931  0.2365
 1709SOL    HW116589   2.478   4.109   2.344  0.7588 -0.6921 -0.6246
 1709SOL    HW216590   2.614   4.166   2.326  0.5606  0.3103  1.2702
 1710SOL     OW16591   2.930   0.367  16.166 -0.0404  0.3892  0.2046
 1710SOL    HW116592   2.839   0.363  16.136 -0.0606 -1.2908  0.5252
 1710SOL    HW216593   2.925   0.309  16.241  0.2093 -1.5311 -1.2565
 1711SOL     OW16594   3.250   0.087  10.738  0.5152  0.7591  0.0419
 1711SOL    HW116595   3.171   0.135  10.714  0.5273  0.4371 -0.6276
 1711SOL    HW216596   3.290   0.170  10.763 -0.4156  0.4942  2.3711
 1712SOL     OW16597   1.706   4.356  15.129 -0.3272 -0.4402  0.2988
 1712SOL    HW116598   1.726   4.313  15.212 -0.2366  0.9080  0.9889
 1712SOL    HW216599   1.650   4.295  15.081  0.9470 -0.7216 -0.8352
 1713SOL     OW16600   0.244   1.566   6.560 -0.3081 -0.4153  0.1704
 1713SOL    HW116601   0.298   1.542   6.485 -1.3919 -0.7494 -0.5057
 1713SOL    HW216602   0.310   1.570   6.629 -1.3584  0.5471  1.1138
 1714SOL     OW16603   4.450   2.714   8.123 -0.1083  0.6791  0.3804
 1714SOL    HW116604   4.471   2.651   8.054  1.5331  1.6517 -0.0055
 1714SOL    HW216605   4.419   2.659   8.195  0.6682  1.0471  0.9863
 1715SOL     OW16606   3.373   2.431   4.202  0.3493  0.2089  0.0486
 1715SOL    HW116607   3.308   2.403   4.266  0.2145 -0.5971 -0.4325
 1715SOL    HW216608   3.443   2.372   4.231 -1.4800 -2.3640 -0.7496
 1716SOL     OW16609   2.151   4.561   9.970 -0.0914  0.5458 -0.1471
 1716SOL    HW116610   2.239   4.597   9.960  0.4893 -2.0959 -4.3535
 1716SOL    HW216611   2.106   4.615   9.906  0.3665  1.8077  0.5883
 1717SOL     OW16612   1.188   1.752   0.431 -0.2174 -0.9761 -0.0694
 1717SOL    HW116613   1.113   1.696   0.408  0.9183 -2.1676 -0.8514
 1717SOL    HW216614   1.231   1.697   0.496  0.3375 -0.8363 -0.3215
 1718SOL     OW16615   1.963   1.052   6.888  0.1645 -0.1385 -0.1438
 1718SOL    HW116616   1.987   1.035   6.979 -1.4980 -0.4680  0.2207
 1718SOL    HW216617   2.049   1.066   6.848 -0.2822 -3.7213 -2.3906
 1719SOL     OW16618   3.000   2.336   7.526 -0.3000  0.1960  0.5929
 1719SOL    HW116619   3.023   2.344   7.433  1.6608 -1.9068  0.9070
 1719SOL    HW216620   2.921   2.390   7.528 -0.7529 -0.4877  1.2228
 1720SOL     OW16621   2.589   3.115  11.264  0.3437 -0.1900  0.0082
 1720SOL    HW116622   2.585   3.152  11.176 -1.6457 -0.4958 -0.0338
 1720SOL    HW216623   2.594   3.022  11.245  0.5114 -0.3284  0.7153
 1721SOL     OW16624   2.851   4.386  14.179 -0.5604  0.0078 -0.2445
 1721SOL    HW116625   2.896   4.333  14.113  0.1857  1.9188 -1.2543
 1721SOL    HW216626   2.818   4.448  14.114 -0.4777  0.7712  0.4421
 1722SOL     OW16627   3.792   1.960   8.809  0.1946 -0.0964  0.2263
 1722SOL    HW116628   3.717   2.019   8.810 -0.1853 -0.5919  0.5175
 1722SOL    HW216629   3.749   1.882   8.845  1.2959 -0.5248  0.6225
 1723SOL     OW16630   0.465   2.770   5.104 -0.6024 -0.6636 -0.0283
 1723SOL    HW116631   0.393   2.822   5.139 -0.4249  0.6056 -1.5308
 1723SOL    HW216632   0.518   2.763   5.183 -0.5921 -0.7961 -0.0457
 1724SOL     OW16633   2.155   0.362  13.252  0.4848 -0.4695 -0.5668
 1724SOL    HW116634   2.171   0.268  13.241  1.0360 -0.6268  1.5209
 1724SOL    HW216635   2.076   0.362  13.305  0.2412  1.6834 -0.9366
 1725SOL     OW16636   2.927   3.183   4.505 -0.5106 -0.2878  0.0916
 1725SOL    HW116637   2.930   3.261   4.450  0.3742 -0.8482 -0.6420
 1725SOL    HW216638   2.870   3.223   4.572 -0.0760  1.5588 -0.6481
 1726SOL     OW16639   2.572   0.705   8.702 -0.1413 -0.2675  0.2481
 1726SOL    HW116640   2.501   0.641   8.703 -0.4983  0.1062 -2.2733
 1726SOL    HW216641   2.553   0.766   8.631 -3.4321  0.3627  1.6649
 1727SOL     OW16642   0.384   0.986  16.103  0.0104  0.6565  0.1611
 1727SOL    HW116643   0.307   1.043  16.110 -0.2680 -0.0488  2.4773
 1727SOL    HW216644   0.371   0.919  16.170 -1.6381  2.2715  1.4753
 1728SOL     OW16645   3.911   3.160   8.968  0.2314 -0.0304 -0.1995
 1728SOL    HW116646   3.819   3.158   8.939 -0.4441 -1.6477  2.0287
 1728SOL    HW216647   3.943   3.073   8.946  0.9154  0.4355 -1.0275
 1729SOL     OW16648   0.893   2.179  16.640 -0.2316 -0.2424 -0.5998
 1729SOL    HW116649   0.922   2.173  16.549  0.0511 -1.7843 -0.4051
 1729SOL    HW216650   0.952   2.127  16.694 -0.6565  0.8693  0.9520
 1730SOL     OW16651   1.536   1.054  11.159  0.2429 -0.1662  0.0768
 1730SOL    HW116652   1.462   0.995  11.142  0.4284 -0.6632  0.9824
 1730SOL    HW216653   1.605   0.993  11.136  1.1295  0.5211  0.8975
 1731SOL     OW16654   2.001   4.142   3.745  0.3585  0.1915  1.2858
 1731SOL    HW116655   1.973   4.228   3.777  0.1681  1.1426 -1.5201
 1731SOL    HW216656   2.033   4.174   3.661 -1.3943  0.6862  0.8093
 1732SOL     OW16657   3.983   3.991   2.392  0.3377  0.1481 -0.4757
 1732SOL    HW116658   3.949   3.917   2.442  1.9324 -1.6133 -1.9947
 1732SOL    HW216659   3.943   3.985   2.306  1.1671  0.6573 -0.8979
 1733SOL     OW16660   1.333   4.461   2.505 -0.3155 -0.8104  0.2880
 1733SOL    HW116661   1.312   4.552   2.525 -1.6450 -1.3185  1.2196
 1733SOL    HW216662   1.248   4.431   2.473 -0.8777  2.1817 -1.0291
 1734SOL     OW16663   1.065   1.171   3.336  0.2176 -0.0896  0.1651
 1734SOL    HW116664   1.148   1.150   3.293 -0.4390  1.0208 -1.6573
 1734SOL    HW216665   1.089   1.213   3.419 -0.3865  0.1056  0.2363
 1735SOL     OW16666   3.252   2.108   7.794 -0.0292 -0.4951 -0.3799
 1735SOL    HW116667   3.165   2.128   7.759 -0.5062 -2.1710 -0.1856
 1735SOL    HW216668   3.232   2.084   7.885 -0.4098  1.7824  0.1420
 1736SOL     OW16669   3.827   1.159   2.403 -0.3161  0.0022 -0.1073
 1736SOL    HW116670   3.858   1.189   2.318  0.1794  1.0433  0.4371
 1736SOL    HW216671   3.846   1.065   2.407 -2.5880 -0.4389  0.2230
 1737SOL     OW16672   4.177   0.316  11.874 -0.3826 -0.2262 -0.2077
 1737SOL    HW116673   4.264   0.279  11.882 -0.8062 -0.9954  0.8733
 1737SOL    HW216674   4.206   0.407  11.869  2.1057 -1.0536 -0.3515
 1738SOL     OW16675   1.823   4.054   9.646  0.1996  0.7498 -0.7744
 1738SOL    HW116676   1.887   4.014   9.587  0.7733  1.9110 -0.9464
 1738SOL    HW216677   1.790   3.979   9.694  1.1094  0.6833 -0.2401
 1739SOL     OW16678   3.484   3.275   5.690  0.0644 -0.1748  0.1930
 1739SOL    HW116679   3.550   3.304   5.627  0.3485  0.5748  0.8402
 1739SOL    HW216680   3.486   3.346   5.755 -2.2387  0.0046  0.0659
 1740SOL     OW16681   3.525   1.258  12.144 -0.1422 -0.0304  0.2799
 1740SOL    HW116682   3.505   1.200  12.217 -1.9149  1.9879  1.3928
 1740SOL    HW216683   3.448   1.234  12.093 -0.5110 -1.0952  1.3504
 1741SOL     OW16684   1.616   0.067  12.055  0.0957  0.1469  0.3226
 1741SOL    HW116685   1.560   0.088  11.980 -0.0074  0.6800  0.5476
 1741SOL    HW216686   1.688   0.028  12.006 -0.1522  1.6368 -1.2615
 1742SOL     OW16687   0.939   2.982   1.974  0.2221  0.0605 -0.0767
 1742SOL    HW116688   0.966   3.031   1.896 -1.4575  0.5551 -0.3544
 1742SOL    HW216689   0.910   2.904   1.926 -2.0157 -1.0526  3.0874
 1743SOL     OW16690   1.013   3.355  11.452  0.4053 -0.0102  0.3201
 1743SOL    HW116691   0.959   3.402  11.388 -0.1738  0.0100  0.8216
 1743SOL    HW216692   1.091   3.325  11.404 -0.1460  0.0732 -0.6246
 1744SOL     OW16693   0.042   2.173   7.967  0.1830 -0.2118 -0.2817
 1744SOL    HW116694   0.002   2.159   8.053  1.4890 -0.0945  0.3395
 1744SOL    HW216695   4.680   2.155   7.917  2.4153 -1.0277 -3.5811
 1745SOL     OW16696   3.307   3.519  13.921 -1.0051  0.0227  0.3046
 1745SOL    HW116697   3.353   3.442  13.953 -1.7475 -0.7072 -0.3678
 1745SOL    HW216698   3.265   3.475  13.847  1.6975  0.6617 -1.6187
 1746SOL     OW16699   4.328   4.619   4.320 -0.4770  0.2516  0.4065
 1746SOL    HW116700   4.335   4.526   4.340 -2.0889  0.4141  1.6910
 1746SOL    HW216701   4.413   4.661   4.332  0.7575 -1.9929 -0.4031
 1747SOL     OW16702   3.398   3.655   8.588 -0.4528 -0.1932  0.1037
 1747SOL    HW116703   3.373   3.746   8.608  2.4313  0.7899 -0.7573
 1747SOL    HW216704   3.377   3.615   8.672  1.3471 -1.1381  0.1043
 1748SOL     OW16705   2.043   3.979   7.264  0.4959 -0.0643 -0.6528
 1748SOL    HW116706   2.027   3.927   7.185 -1.7495 -0.5871  0.1538
 1748SOL    HW216707   2.126   3.945   7.297  0.7035  1.2263  0.1564
 1749SOL     OW16708   1.918   3.226   1.481 -0.1563 -0.1477  0.1163
 1749SOL    HW116709   1.825   3.247   1.491  0.4060  3.3685 -2.1552
 1749SOL    HW216710   1.966   3.286   1.538  1.3645 -1.1986 -0.0619
 1750SOL     OW16711   1.555   3.310   7.079 -0.3411  0.0280  0.0398
 1750SOL    HW116712   1.613   3.250   7.126  0.1330  0.5031  0.0574
 1750SOL    HW216713   1.527   3.252   7.007  1.3005  0.4244 -0.9264
 1751SOL     OW16714   0.231   3.747   1.685 -0.7316 -0.5624 -0.3356
 1751SOL    HW116715   0.232   3.653   1.701  2.2355 -0.3435  0.7640
 1751SOL    HW216716   0.295   3.761   1.616 -3.6040 -0.0511 -2.9182
 1752SOL     OW16717   3.663   0.226  13.515 -0.1769 -0.1472  0.0792
 1752SOL    HW116718   3.607   0.233  13.593  0.0414  1.5405  0.0775
 1752SOL    HW216719   3.618   0.152  13.474  0.9121  0.4342 -2.1390
 1753SOL     OW16720   2.067   3.580  14.277 -0.3740  0.3791 -0.3478
 1753SOL    HW116721   2.046   3.670  14.254 -3.3958  0.0111  1.0089
 1753SOL    HW216722   1.984   3.537  14.258 -0.3277  0.6056 -1.0506
 1754SOL     OW16723   1.868   1.980  16.251 -0.3341 -0.0949 -0.2618
 1754SOL    HW116724   1.779   1.977  16.285 -0.5637 -0.5391 -0.8966
 1754SOL    HW216725   1.898   1.889  16.251 -2.3699 -0.7699 -1.1148
 1755SOL     OW16726   0.239   3.551   4.926  0.4157 -0.6048 -0.8014
 1755SOL    HW116727   0.184   3.546   5.004 -1.2227 -0.2514 -1.9316
 1755SOL    HW216728   0.331   3.548   4.953  0.3117  1.4879 -0.2091
 1756SOL     OW16729   1.100   3.182   1.245  0.3068  0.1704 -0.1101
 1756SOL    HW116730   1.115   3.106   1.189  2.3737  0.4341  0.0949
 1756SOL    HW216731   1.041   3.218   1.178 -1.3476 -0.1150  1.2064
 1757SOL     OW16732   0.306   0.306  15.856  0.5247  0.5677  0.4368
 1757SOL    HW116733   0.312   0.364  15.780 -3.1442  0.6975  0.2727
 1757SOL    HW216734   0.317   0.373  15.924  0.1841  0.0672  0.9793
 1758SOL     OW16735   3.159   3.431  11.652  0.1501 -0.2788  0.0719
 1758SOL    HW116736   3.135   3.358  11.594  0.4250 -0.7410  0.5339
 1758SOL    HW216737   3.246   3.448  11.615  0.9958  0.6106  2.5007
 1759SOL     OW16738   2.222   3.990   1.231 -0.0414 -0.5318 -0.1610
 1759SOL    HW116739   2.197   4.008   1.140 -1.0492 -2.3306 -0.2451
 1759SOL    HW216740   2.264   4.074   1.248  2.4119 -0.9751 -3.7884
 1760SOL     OW16741   1.551   1.426   8.343  0.1773 -0.6262 -0.5881
 1760SOL    HW116742   1.645   1.430   8.363 -0.3562  1.1330  1.6034
 1760SOL    HW216743   1.534   1.336   8.372 -1.5520  0.3572  1.4119
 1761SOL     OW16744   4.360   3.524  14.989 -0.4756 -0.0145  0.2154
 1761SOL    HW116745   4.357   3.445  14.936 -0.0313  0.6847 -0.8510
 1761SOL    HW216746   4.344   3.500  15.080 -2.0466 -1.2865 -0.3871
 1762SOL     OW16747   1.985   2.164  15.612  0.0487  0.2706  0.2336
 1762SOL    HW116748   1.938   2.246  15.593 -0.5382 -0.4528 -1.4225
 1762SOL    HW216749   2.005   2.188  15.703  0.1497  2.5257 -0.3670
 1763SOL     OW16750   4.060   3.611   8.829 -0.0606  0.3768  0.4395
 1763SOL    HW116751   4.061   3.518   8.851  2.1039 -0.0772 -1.5128
 1763SOL    HW216752   3.966   3.623   8.820  0.1001  0.3714 -1.1732
 1764SOL     OW16753   4.371   1.860   3.598 -0.4288  0.5088 -1.0981
 1764SOL    HW116754   4.418   1.860   3.515  0.3152 -2.8424 -0.6944
 1764SOL    HW216755   4.410   1.781   3.637 -0.7920  1.5839  1.3961
 1765SOL     OW16756   2.379   0.036   7.867  0.2189 -0.2471 -0.1474
 1765SOL    HW116757   2.424   4.701   7.932 -0.7056 -2.2834 -1.1680
 1765SOL    HW216758   2.286   0.037   7.891 -0.1647  0.6746 -1.6701
 1766SOL     OW16759   0.689   1.456   7.875 -0.4741  0.0526  0.1571
 1766SOL    HW116760   0.693   1.437   7.781  2.0154 -2.0896  0.6656
 1766SOL    HW216761   0.596   1.461   7.896 -0.7315 -0.1584 -0.9285
 1767SOL     OW16762   4.702   4.484  12.695 -0.0275  0.5981 -0.2976
 1767SOL    HW116763   0.056   4.522  12.646 -0.6304  2.8849  0.5913
 1767SOL    HW216764   0.025   4.403  12.727 -0.4079  0.2357 -0.7274
 1768SOL     OW16765   0.810   3.711   0.863 -0.7716 -0.3817  0.0544
 1768SOL    HW116766   0.797   3.623   0.899 -0.3824  0.2358  1.7175
 1768SOL    HW216767   0.893   3.734   0.906 -0.1314  0.4209 -1.6115
 1769SOL     OW16768   4.564   0.034   4.880 -0.1618 -0.3279 -0.2108
 1769SOL    HW116769   4.659   0.026   4.884  0.0061  2.3064  0.9558
 1769SOL    HW216770   4.553   0.129   4.884  0.0195 -0.3819  1.5493
 1770SOL     OW16771   2.386   1.044   5.039 -0.4294 -0.6576  0.1794
 1770SOL    HW116772   2.385   1.120   4.981 -0.5347 -0.9824 -0.2460
 1770SOL    HW216773   2.374   0.981   4.968  1.3642 -0.1676 -0.5718
 1771SOL     OW16774   2.715   4.197   8.233 -0.2065  1.0665 -0.2082
 1771SOL    HW116775   2.745   4.151   8.155 -0.5097  0.6291 -0.0682
 1771SOL    HW216776   2.687   4.124   8.288  3.4957  0.9238  1.5125
 1772SOL     OW16777   1.085   2.859   7.484 -0.3572 -0.0571  0.3191
 1772SOL    HW116778   1.011   2.899   7.529 -0.7737  0.8086 -1.1372
 1772SOL    HW216779   1.086   2.772   7.523 -1.5599 -0.9698 -1.6834
 1773SOL     OW16780   0.912   1.498   3.964 -0.4046  0.3164 -0.0598
 1773SOL    HW116781   0.907   1.593   3.960  2.6855  0.4396 -1.0113
 1773SOL    HW216782   0.840   1.476   3.905 -1.0698  3.1668 -0.2928
 1774SOL     OW16783   0.035   0.433  14.536  0.0364  0.0139  0.5857
 1774SOL    HW116784   0.055   0.480  14.617 -1.9080 -1.3626  1.8624
 1774SOL    HW216785   4.666   0.464  14.512  0.1389 -0.9981 -1.0880
 1775SOL     OW16786   2.685   3.489  10.226  0.0067  0.0367 -0.4924
 1775SOL    HW116787   2.742   3.454  10.295  2.9925  1.9570 -1.9759
 1775SOL    HW216788   2.607   3.433  10.231 -1.4988  2.4422  2.4734
 1776SOL     OW16789   4.372   4.640   7.370  0.5046  0.1720  0.8123
 1776SOL    HW116790   4.348   4.548   7.359  0.3302  0.2937  0.1516
 1776SOL    HW216791   4.354   4.683   7.286 -0.0457 -0.0674  0.8078
 1777SOL     OW16792   3.112   2.516   7.105 -0.2145  0.3493  0.2421
 1777SOL    HW116793   3.058   2.534   7.028 -1.0343  0.0334  0.7401
 1777SOL    HW216794   3.198   2.506   7.064  0.0975 -0.1544  1.0191
 1778SOL     OW16795   2.381   3.668   4.379 -0.0005 -0.0942 -0.0622
 1778SOL    HW116796   2.336   3.738   4.428 -0.0525 -0.4777  0.4457
 1778SOL    HW216797   2.466   3.709   4.365 -0.0838 -0.9126 -2.8334
 1779SOL     OW16798   3.447   0.544   5.520 -0.0956  0.3175  0.2056
 1779SOL    HW116799   3.355   0.521   5.537 -0.1142  0.4636  0.2972
 1779SOL    HW216800   3.474   0.453   5.504  2.0904  0.8905  0.6634
 1780SOL     OW16801   1.875   4.358   1.867 -0.5275  0.0689 -0.2737
 1780SOL    HW116802   1.812   4.405   1.813 -0.6063 -0.3890 -0.5856
 1780SOL    HW216803   1.895   4.286   1.807  1.0908  0.4870 -0.2369
 1781SOL     OW16804   1.292   1.073   7.973  0.1329  0.1761 -0.2028
 1781SOL    HW116805   1.294   0.988   7.929  1.8282  0.3644 -0.4796
 1781SOL    HW216806   1.286   1.050   8.065 -2.5866  2.6574  0.2290
 1782SOL     OW16807   2.696   3.192   8.408  0.2607 -0.0021  0.0876
 1782SOL    HW116808   2.699   3.155   8.496  0.4518  1.1186  0.5416
 1782SOL    HW216809   2.782   3.163   8.375  1.0816 -0.2387  2.4563
 1783SOL     OW16810   1.229   3.928  11.394  0.0075 -0.1017 -0.2362
 1783SOL    HW116811   1.202   3.836  11.392 -1.4037  0.2890  1.0113
 1783SOL    HW216812   1.322   3.908  11.410  0.1126 -0.5051 -1.3581
 1784SOL     OW16813   2.749   1.212  13.672 -0.4197 -0.0196 -0.0757
 1784SOL    HW116814   2.841   1.197  13.692 -0.6291 -0.9830  0.1889
 1784SOL    HW216815   2.709   1.238  13.756  1.9196 -0.0773  1.0571
 1785SOL     OW16816   2.647   0.910   2.414 -0.0146 -0.0172  0.1032
 1785SOL    HW116817   2.642   0.979   2.348  1.9649  0.0618  0.0400
 1785SOL    HW216818   2.682   0.838   2.361 -0.6873  1.3558 -2.1761
 1786SOL     OW16819   4.055   4.467   8.006 -0.2374  0.4617  0.2730
 1786SOL    HW116820   4.015   4.445   8.090  1.7479  0.1937  1.1435
 1786SOL    HW216821   3.990   4.524   7.965  1.0092  1.5473 -0.2112
 1787SOL     OW16822   1.247   0.207   3.284  0.2833 -0.8664  0.0146
 1787SOL    HW116823   1.301   0.259   3.344  1.2629 -0.8704 -0.8569
 1787SOL    HW216824   1.163   0.251   3.295  0.3042 -0.1909 -2.6705
 1788SOL     OW16825   1.467   2.538   4.922 -0.3416 -0.4385  0.0897
 1788SOL    HW116826   1.456   2.491   5.005 -0.0404 -0.4131  0.1431
 1788SOL    HW216827   1.384   2.580   4.900  0.3186  0.1166 -1.2813
 1789SOL     OW16828   2.254   2.560   6.850  0.0975 -0.0079 -0.4444
 1789SOL    HW116829   2.198   2.633   6.821 -0.5278 -0.3374 -0.0545
 1789SOL    HW216830   2.273   2.531   6.761  0.3271  1.0920 -0.7633
 1790SOL     OW16831   1.714   0.803   7.436 -0.6741 -0.5380  0.4672
 1790SOL    HW116832   1.794   0.842   7.472 -0.5836 -1.5128  1.3330
 1790SOL    HW216833   1.729   0.828   7.345  1.2152 -1.3306  0.5522
 1791SOL     OW16834   1.696   3.330   2.580  0.4772 -0.3000  0.1362
 1791SOL    HW116835   1.640   3.298   2.651  1.4836 -0.2160  0.9661
 1791SOL    HW216836   1.787   3.317   2.608  0.1074 -0.6191  1.1875
 1792SOL     OW16837   3.312   0.898   4.212 -0.6341 -0.1419 -0.0618
 1792SOL    HW116838   3.340   0.990   4.220 -1.4889  0.2440 -1.4472
 1792SOL    HW216839   3.351   0.879   4.127 -5.7983 -2.4058 -1.8886
 1793SOL     OW16840   0.930   0.306   8.637 -0.6199  0.8049  0.4545
 1793SOL    HW116841   0.961   0.320   8.548 -3.1403  2.1513 -0.2206
 1793SOL    HW216842   0.990   0.358   8.689 -2.0573  2.3558  0.5455
 1794SOL     OW16843   2.112   3.333   2.052  0.4545  0.7064  0.2988
 1794SOL    HW116844   2.093   3.422   2.082  0.8502  0.3731  1.5637
 1794SOL    HW216845   2.187   3.350   1.995 -0.5764  1.1065 -0.9155
 1795SOL     OW16846   2.941   0.822  10.111 -0.3745 -0.2167  0.9075
 1795SOL    HW116847   2.901   0.750  10.062  0.7824 -1.5288  1.8938
 1795SOL    HW216848   3.034   0.809  10.092 -0.4809  2.2696 -1.3160
 1796SOL     OW16849   4.585   1.144   2.102  0.6097  0.4467 -0.0398
 1796SOL    HW116850   4.542   1.155   2.187  0.5962 -1.4165  0.1787
 1796SOL    HW216851   4.580   1.235   2.072  0.2763 -0.3406 -2.3359
 1797SOL     OW16852   4.421   4.085   2.565 -0.3865 -0.0619  0.2495
 1797SOL    HW116853   4.342   4.099   2.513  1.4839 -2.1351 -3.1569
 1797SOL    HW216854   4.475   4.154   2.528 -0.7334 -1.3003 -2.5997
 1798SOL     OW16855   1.017   1.003  12.174  0.6683  0.5018 -0.3634
 1798SOL    HW116856   1.040   1.003  12.267 -1.0479  3.2761  0.0708
 1798SOL    HW216857   1.103   0.974  12.143 -0.3210 -2.6469 -0.1591
 1799SOL     OW16858   3.446   0.356   3.500  0.0277  0.5660 -1.1592
 1799SOL    HW116859   3.354   0.334   3.513  0.0491  0.7307 -0.6996
 1799SOL    HW216860   3.448   0.363   3.405 -1.3544  1.6687 -1.1187
 1800SOL     OW16861   4.366   1.623   6.090  0.3786  0.0328  0.1113
 1800SOL    HW116862   4.448   1.661   6.059 -0.1841  0.5379 -0.7568
 1800SOL    HW216863   4.350   1.566   6.015  1.2787 -1.1111  0.7809
 1801SOL     OW16864   1.847   1.927   7.354  0.6244 -0.0254 -0.2368
 1801SOL    HW116865   1.939   1.936   7.378 -0.3595  2.2380  2.5602
 1801SOL    HW216866   1.842   1.832   7.340  1.0140 -0.0828  0.0093
 1802SOL     OW16867   2.904   2.739  12.271  0.3954  0.1084 -0.2546
 1802SOL    HW116868   2.898   2.653  12.230  2.8595 -1.3192  2.3968
 1802SOL    HW216869   2.823   2.776  12.237 -0.5339 -1.1143  0.6296
 1803SOL     OW16870   3.402   4.587  16.926 -0.6077  0.0204 -0.1072
 1803SOL    HW116871   3.460   4.651  16.885 -0.6245 -0.8231 -1.4675
 1803SOL    HW216872   3.430   4.508  16.879  3.1415  2.1341 -1.4551
 1804SOL     OW16873   3.050   3.105   7.044  0.2696 -0.1561 -0.1099
 1804SOL    HW116874   2.989   3.067   6.980 -1.3599 -1.1321  1.9945
 1804SOL    HW216875   3.085   3.025   7.084  0.7942  0.5506  0.8287
 1805SOL     OW16876   0.786   0.647   4.016  0.1147 -0.4034  0.4388
 1805SOL    HW116877   0.733   0.716   4.055  2.6358  1.5135  0.4425
 1805SOL    HW216878   0.847   0.705   3.970  0.6939 -0.6367  0.9109
 1806SOL     OW16879   2.794   3.949  14.861 -0.2260 -0.2156  0.3273
 1806SOL    HW116880   2.750   3.869  14.832  1.6762 -0.7271 -1.1759
 1806SOL    HW216881   2.754   3.948  14.948 -0.6646 -0.4912  0.1186
 1807SOL     OW16882   3.089   4.069   7.518  0.4787  0.5519  0.0280
 1807SOL    HW116883   3.018   4.024   7.562  0.2909 -0.0509 -0.8805
 1807SOL    HW216884   3.054   4.114   7.441  0.2314  0.5953  0.1653
 1808SOL     OW16885   0.419   1.089   3.000 -0.6059 -0.5879 -0.0293
 1808SOL    HW116886   0.324   1.093   3.014 -0.5394 -1.4919  0.6221
 1808SOL    HW216887   0.423   1.104   2.905  2.4088 -1.7192 -0.0678
 1809SOL     OW16888   3.901   3.915   2.758  0.1641  0.6850  0.2345
 1809SOL    HW116889   3.871   3.891   2.670  0.8616  0.2207  0.1270
 1809SOL    HW216890   3.815   3.903   2.799 -1.8099  2.9177 -3.2240
 1810SOL     OW16891   0.010   2.041   5.922  0.4318  0.6842 -0.4021
 1810SOL    HW116892   4.713   2.135   5.925 -0.4472  0.5101  0.8202
 1810SOL    HW216893   0.072   2.035   5.994 -0.2142 -0.4844  0.0673
 1811SOL     OW16894   2.492   1.618   6.968  0.1702  0.2224 -0.0384
 1811SOL    HW116895   2.457   1.690   7.021 -0.2171 -0.1559  0.2141
 1811SOL    HW216896   2.565   1.663   6.926 -1.0143  1.5610 -0.6660
 1812SOL     OW16897   3.919   4.449  15.701  0.2304 -0.2894  0.2186
 1812SOL    HW116898   3.963   4.534  15.691 -0.0115 -0.4372 -2.1268
 1812SOL    HW216899   3.828   4.475  15.685  0.3558  0.0153  0.0071
 1813SOL     OW16900   4.368   0.593   1.165  0.9738  0.1857 -0.6400
 1813SOL    HW116901   4.339   0.682   1.184 -1.2085 -0.4075 -1.1850
 1813SOL    HW216902   4.282   0.560   1.137 -0.7690  3.6932  0.6221
 1814SOL     OW16903   0.589   2.187   8.484 -0.2740  0.0230  0.6063
 1814SOL    HW116904   0.614   2.095   8.473  0.3601  0.1292  1.1727
 1814SOL    HW216905   0.520   2.194   8.550 -1.3140  1.7022 -0.6730
 1815SOL     OW16906   3.571   0.038   8.175 -0.0959 -0.0902  0.2622
 1815SOL    HW116907   3.530   4.697   8.113  1.3384 -0.8678  0.0656
 1815SOL    HW216908   3.663   0.039   8.146  0.6654  1.8194  2.6989
 1816SOL     OW16909   1.710   3.601  17.303 -0.1012  0.0137  0.3633
 1816SOL    HW116910   1.727   3.542  17.376  1.7785 -0.6091 -0.5699
 1816SOL    HW216911   1.697   3.543  17.228  0.9346  1.7887 -1.2114
 1817SOL     OW16912   4.673   2.368   4.479 -0.1391 -0.4534  0.2492
 1817SOL    HW116913   4.635   2.290   4.520 -0.0341  0.6158  2.3692
 1817SOL    HW216914   4.624   2.372   4.396  0.0628  0.9924  0.2042
 1818SOL     OW16915   4.578   1.877   1.101 -0.1189 -0.0204  0.0300
 1818SOL    HW116916   4.665   1.857   1.136 -0.3783  0.0517  0.7097
 1818SOL    HW216917   4.522   1.862   1.177  2.2134 -0.0360  1.7461
 1819SOL     OW16918   1.733   1.082   4.824  0.6662 -0.1062 -0.1751
 1819SOL    HW116919   1.744   1.088   4.729 -2.7268 -1.5891 -0.6328
 1819SOL    HW216920   1.642   1.053   4.828  0.1824  1.4677  0.3870
 1820SOL     OW16921   1.635   4.268   8.796  0.1229  0.4141  0.5129
 1820SOL    HW116922   1.664   4.296   8.884 -1.6015  2.2303  0.5122
 1820SOL    HW216923   1.553   4.227   8.822 -0.2414  2.1878  2.2075
 1821SOL     OW16924   2.794   3.604  11.733  0.8970  0.2223 -0.9024
 1821SOL    HW116925   2.788   3.614  11.638  0.1834 -0.6003 -0.9433
 1821SOL    HW216926   2.851   3.527  11.736 -2.0605 -1.8640  0.8647
 1822SOL     OW16927   1.484   2.562   3.076  0.0064  0.0276  0.1683
 1822SOL    HW116928   1.467   2.497   3.144 -2.2583 -1.3808 -1.7515
 1822SOL    HW216929   1.516   2.637   3.127  2.1515 -1.2758  0.7718
 1823SOL     OW16930   2.068   3.917  13.172 -0.6489  0.0414  0.3386
 1823SOL    HW116931   2.049   4.005  13.205  0.1533  0.0150  0.8564
 1823SOL    HW216932   2.061   3.864  13.251  0.5380  0.0860  0.4785
 1824SOL     OW16933   4.212   4.330   1.703 -0.4568  0.0176 -0.5890
 1824SOL    HW116934   4.183   4.408   1.750  0.3849  0.4682 -0.8258
 1824SOL    HW216935   4.281   4.353   1.642 -1.8684  0.7938 -1.9012
 1825SOL     OW16936   2.025   2.078  10.167  0.3417 -0.7864  0.8130
 1825SOL    HW116937   1.979   2.000  10.198  1.4914 -2.1812 -1.0190
 1825SOL    HW216938   1.976   2.088  10.085  1.3383 -0.3554  0.2767
 1826SOL     OW16939   1.179   1.535   8.418 -0.5683  0.0978 -0.0046
 1826SOL    HW116940   1.126   1.508   8.343 -0.2259  3.6927 -1.5455
 1826SOL    HW216941   1.188   1.627   8.391 -0.4713 -0.2709 -1.2277
 1827SOL     OW16942   4.152   0.145  12.452 -0.4548  0.5978 -0.2479
 1827SOL    HW116943   4.201   0.225  12.429  0.1104 -0.0465 -1.3103
 1827SOL    HW216944   4.127   0.122  12.362  1.9410 -1.7109 -0.3180
 1828SOL     OW16945   4.303   0.436   7.871 -0.1524  0.2193 -0.7170
 1828SOL    HW116946   4.256   0.508   7.828 -2.7309 -0.4487  1.0046
 1828SOL    HW216947   4.323   0.374   7.801  1.3818 -1.7619  1.4627
 1829SOL     OW16948   0.717   3.402   0.572  0.1565  0.5446  0.3390
 1829SOL    HW116949   0.734   3.494   0.592 -0.8488  0.9253 -0.5389
 1829SOL    HW216950   0.772   3.406   0.494  1.8081 -0.5677  1.4665
 1830SOL     OW16951   3.665   3.211   8.868  0.1897 -0.0747  0.2127
 1830SOL    HW116952   3.611   3.290   8.867 -0.9389 -0.8576 -1.3272
 1830SOL    HW216953   3.687   3.204   8.775  1.5387 -0.6054  0.5666
 1831SOL     OW16954   0.119   3.450   7.428 -0.8537 -0.0443  0.1190
 1831SOL    HW116955   0.045   3.433   7.368 -1.8544  0.5841  1.1716
 1831SOL    HW216956   0.169   3.369   7.426 -1.7351 -0.5360 -2.3867
 1832SOL     OW16957   3.070   3.231   5.311  0.1515 -0.7252  0.7719
 1832SOL    HW116958   3.136   3.258   5.375  1.3448  1.2635 -1.2595
 1832SOL    HW216959   3.135   3.199   5.248 -2.3045  0.5475 -2.3934
 1833SOL     OW16960   1.587   3.217   3.559  0.2995  0.0589 -0.2653
 1833SOL    HW116961   1.607   3.181   3.473  3.2903  0.9136  0.0699
 1833SOL    HW216962   1.665   3.270   3.577 -0.2189  0.7813 -0.1244
 1834SOL     OW16963   1.090   0.680   5.222 -0.0620 -0.4803  0.5082
 1834SOL    HW116964   1.045   0.631   5.154  1.1439 -2.2944  0.9946
 1834SOL    HW216965   1.076   0.621   5.296  0.8378 -1.1349  0.1591
 1835SOL     OW16966   1.755   4.121   8.444 -0.4798  0.4965 -0.3788
 1835SOL    HW116967   1.826   4.148   8.503 -1.1507 -0.0151  0.6692
 1835SOL    HW216968   1.734   4.035   8.480  0.1171  0.7930  0.7026
 1836SOL     OW16969   0.888   0.519   0.760  0.0583  0.0377 -0.2589
 1836SOL    HW116970   0.949   0.452   0.727  0.3052 -1.1253  2.5358
 1836SOL    HW216971   0.931   0.539   0.844  0.2989  1.2950 -0.6830
 1837SOL     OW16972   3.185   1.185   1.718  0.3091  0.3635  0.5474
 1837SOL    HW116973   3.116   1.210   1.656  1.1379 -1.7182 -1.2032
 1837SOL    HW216974   3.250   1.130   1.675  0.9925 -0.9917  3.3391
 1838SOL     OW16975   2.706   0.690  11.017 -0.2296  0.3151 -0.2643
 1838SOL    HW116976   2.701   0.623  11.085  2.9357 -1.7502 -2.0435
 1838SOL    HW216977   2.742   0.638  10.945 -0.6953  1.8433 -1.5900
 1839SOL     OW16978   2.679   2.356   8.601 -0.2505  1.0920 -0.1466
 1839SOL    HW116979   2.761   2.396   8.630  0.7251 -2.3131  1.8371
 1839SOL    HW216980   2.669   2.287   8.666  2.3570  1.4893  0.7025
 1840SOL     OW16981   4.021   2.404  15.159  0.2218  0.2842 -0.6307
 1840SOL    HW116982   3.987   2.483  15.201  0.2451  0.7577 -1.5141
 1840SOL    HW216983   4.055   2.436  15.076 -1.9653  0.4611 -1.4770
 1841SOL     OW16984   1.184   2.557  15.285 -0.4706 -0.2134 -0.0169
 1841SOL    HW116985   1.210   2.640  15.245 -3.4781 -0.2594 -2.0176
 1841SOL    HW216986   1.198   2.493  15.216 -2.1372  1.0461 -1.5308
 1842SOL     OW16987   4.162   3.872  16.009  0.0573  0.5107 -0.5317
 1842SOL    HW116988   4.086   3.830  16.050  0.1892  1.2666  0.4752
 1842SOL    HW216989   4.224   3.815  16.055  0.9132  1.0278 -1.0458
 1843SOL     OW16990   0.697   3.769   5.569 -0.4020 -0.1587  0.2107
 1843SOL    HW116991   0.630   3.833   5.590 -0.6969 -0.2487 -0.4505
 1843SOL    HW216992   0.733   3.756   5.657  0.6686 -0.0839 -0.2097
 1844SOL     OW16993   3.482   1.807   2.013  0.2886 -0.2706  0.1667
 1844SOL    HW116994   3.572   1.776   2.016  0.4922  0.3233  0.2890
 1844SOL    HW216995   3.457   1.781   1.924  3.6077 -1.5554 -0.3897
 1845SOL     OW16996   0.555   2.393  13.326  0.4177  0.0915 -0.0919
 1845SOL    HW116997   0.521   2.312  13.287  1.1400 -0.9399  1.4391
 1845SOL    HW216998   0.624   2.368  13.387 -1.1776 -0.2065  1.6039
 1846SOL     OW16999   0.750   3.023   5.972  0.0208 -0.0917 -0.3718
 1846SOL    HW117000   0.798   2.941   5.983 -2.4423 -1.5483 -0.5119
 1846SOL    HW217001   0.715   3.019   5.883 -1.3647  0.3865  0.1616
 1847SOL     OW17002   2.095   2.747   8.299  0.0032  0.1165 -0.1222
 1847SOL    HW117003   2.004   2.764   8.275  0.7837  2.3019 -1.5350
 1847SOL    HW217004   2.091   2.773   8.391 -0.5392  0.9852 -0.3890
 1848SOL     OW17005   1.462   3.833   2.946  0.0097  0.6445 -0.4472
 1848SOL    HW117006   1.454   3.787   3.030  0.7897  0.8444 -0.2563
 1848SOL    HW217007   1.456   3.763   2.881  0.5575  0.5510 -0.4032
 1849SOL     OW17008   2.597   4.086   0.648 -0.0415  0.1168  0.6373
 1849SOL    HW117009   2.692   4.091   0.662 -0.0315  1.3069  0.1756
 1849SOL    HW217010   2.567   4.009   0.697 -0.4715 -0.7102 -0.9277
 1850SOL     OW17011   0.477   2.334   6.573  0.5017  0.3468  0.1935
 1850SOL    HW117012   0.392   2.377   6.571 -0.1148 -0.8946 -0.7271
 1850SOL    HW217013   0.477   2.284   6.654  0.3912  0.4876  0.2797
 1851SOL     OW17014   0.025   0.013   4.534  0.1430 -0.0787  0.2076
 1851SOL    HW117015   0.010   4.646   4.575  0.7043  0.2573  1.1184
 1851SOL    HW217016   0.108   0.015   4.487  1.6683  1.2412  2.9495
 1852SOL     OW17017   0.393   3.333   1.189  0.6518  0.2903  0.5890
 1852SOL    HW117018   0.406   3.295   1.102 -1.4155 -3.7131  2.0409
 1852SOL    HW217019   0.472   3.387   1.194  0.7657 -0.0314  1.9913
 1853SOL     OW17020   1.088   1.894   4.525  0.0289  0.2290  0.5579
 1853SOL    HW117021   1.084   1.807   4.484  1.1330  0.2788  0.3501
 1853SOL    HW217022   1.039   1.953   4.468 -0.4562 -0.0128  0.7232
 1854SOL     OW17023   4.123   2.212   4.973 -0.6195  0.3776 -0.6109
 1854SOL    HW117024   4.187   2.208   4.902  2.1280 -2.9610  2.1061
 1854SOL    HW217025   4.134   2.294   5.021  0.4841 -1.2327  1.8809
 1855SOL     OW17026   1.591   2.979  17.189 -0.2389  0.0419  0.5220
 1855SOL    HW117027   1.604   3.059  17.136  1.7472 -0.0575  0.8795
 1855SOL    HW217028   1.495   2.974  17.183 -0.0011 -1.2956 -2.2272
 1856SOL     OW17029   3.361   1.940   2.228 -0.2760  0.2072  0.6007
 1856SOL    HW117030   3.408   1.896   2.157 -0.7783 -0.4272  0.6567
 1856SOL    HW217031   3.305   1.870   2.262 -3.0044  1.0315 -2.1475
 1857SOL     OW17032   2.022   1.102   2.425 -0.0130 -0.1786 -0.3726
 1857SOL    HW117033   2.050   1.107   2.517 -0.7956  1.2501 -0.2277
 1857SOL    HW217034   2.068   1.180   2.394  1.5185  0.8171  4.3434
 1858SOL     OW17035   3.745   4.366   7.570 -0.2795 -0.6223 -0.1854
 1858SOL    HW117036   3.704   4.418   7.501 -0.6080 -0.6651 -0.0236
 1858SOL    HW217037   3.673   4.306   7.590  0.4417 -0.4235  2.9637
 1859SOL     OW17038   0.640   1.915   1.390 -0.0427 -0.0545 -0.5112
 1859SOL    HW117039   0.618   1.963   1.309 -0.9070  0.4590  0.0201
 1859SOL    HW217040   0.579   1.842   1.381 -0.8382  0.2275  2.4135
 1860SOL     OW17041   3.819   0.772  10.529 -0.2165  0.4094  0.1244
 1860SOL    HW117042   3.816   0.849  10.586  1.4343 -0.7578  1.7880
 1860SOL    HW217043   3.803   0.701  10.592 -0.4540  0.8560  0.5735
 1861SOL     OW17044   0.060   2.623   5.533 -0.3208 -0.1611 -0.2171
 1861SOL    HW117045   0.001   2.622   5.458  0.8739 -2.4548 -1.1592
 1861SOL    HW217046   0.026   2.699   5.580  0.2624  0.5891 -1.0196
 1862SOL     OW17047   2.206   2.577   3.788  0.0129  0.1261  0.2958
 1862SOL    HW117048   2.247   2.632   3.722  0.8246 -0.8190  0.0222
 1862SOL    HW217049   2.135   2.636   3.814 -1.2806 -2.2223  2.0497
 1863SOL     OW17050   1.110   3.277   0.522  0.4918 -0.4757 -0.7116
 1863SOL    HW117051   1.198   3.285   0.485 -0.3728  1.3823 -2.3911
 1863SOL    HW217052   1.094   3.371   0.534 -2.3311 -1.1332  0.8161
 1864SOL     OW17053   4.631   4.463   1.842  0.2940 -0.1917  0.2120
 1864SOL    HW117054   4.628   4.558   1.829 -0.3062 -0.2536 -0.0953
 1864SOL    HW217055   4.698   4.441   1.778 -0.6546  0.2765 -0.9511
 1865SOL     OW17056   0.899   1.908   9.218  0.2807 -0.3480  0.4615
 1865SOL    HW117057   0.839   1.983   9.218  1.5541  0.6632 -0.1981
 1865SOL    HW217058   0.935   1.908   9.307  2.3714 -2.4288 -0.3877
 1866SOL     OW17059   2.219   2.230  10.217 -0.2417  0.6564  0.4622
 1866SOL    HW117060   2.279   2.173  10.169 -1.6942 -1.0432  0.6597
 1866SOL    HW217061   2.141   2.181  10.189  0.2351  1.8859 -3.0536
 1867SOL     OW17062   2.304   0.519   5.508  0.0488 -0.5729  0.3936
 1867SOL    HW117063   2.327   0.430   5.482  0.1449 -0.2722 -0.5485
 1867SOL    HW217064   2.281   0.563   5.427 -0.5781 -1.7175 -0.0444
 1868SOL     OW17065   4.036   0.183   4.518 -0.2435 -0.0099  0.4383
 1868SOL    HW117066   4.088   0.240   4.462 -1.8464 -0.0220 -1.0379
 1868SOL    HW217067   4.074   0.097   4.498  0.0226  0.7949 -2.4602
 1869SOL     OW17068   2.193   2.471   4.571 -0.5817 -0.1112 -0.4459
 1869SOL    HW117069   2.197   2.409   4.498  0.0757 -1.4813  0.7432
 1869SOL    HW217070   2.158   2.547   4.525 -2.2006 -1.4265 -1.3741
 1870SOL     OW17071   4.571   4.265   6.858  0.1096 -0.2555  0.2705
 1870SOL    HW117072   4.486   4.226   6.876  0.1685 -0.8435 -0.6966
 1870SOL    HW217073   4.560   4.336   6.795  1.5402  0.8776  1.3053
 1871SOL     OW17074   1.836   0.047  16.832 -0.2618  0.4002  0.3842
 1871SOL    HW117075   1.787   0.116  16.878 -2.2637 -1.8984  1.6879
 1871SOL    HW217076   1.927   0.076  16.831 -0.3868  0.9511  4.0966
 1872SOL     OW17077   1.868   0.415   1.512  0.4477  0.3696  0.5140
 1872SOL    HW117078   1.878   0.511   1.510 -0.5795  0.4114 -2.7199
 1872SOL    HW217079   1.929   0.381   1.447  1.3878 -0.6803  1.9645
 1873SOL     OW17080   3.512   4.717   3.252  0.0977 -0.0119  0.1741
 1873SOL    HW117081   3.435   4.664   3.233  1.3096 -1.8835  0.4514
 1873SOL    HW217082   3.541   4.670   3.330  1.0770  0.7881  0.2925
 1874SOL     OW17083   2.204   0.705   5.021  0.3645  0.2569 -0.1960
 1874SOL    HW117084   2.129   0.757   5.051 -0.2916 -1.7945  1.7233
 1874SOL    HW217085   2.154   0.638   4.975  2.8740 -3.5256  2.5583
 1875SOL     OW17086   2.176   4.259   2.272  0.1297  0.2326  0.4347
 1875SOL    HW117087   2.220   4.329   2.321 -1.3414  0.9604  0.7485
 1875SOL    HW217088   2.128   4.312   2.209 -0.2258 -0.1219  0.4068
 1876SOL     OW17089   1.780   3.899   3.735 -0.0193 -0.1869 -0.1585
 1876SOL    HW117090   1.845   3.969   3.734  2.6953 -2.7403 -0.1879
 1876SOL    HW217091   1.700   3.942   3.704 -0.1350 -0.4596 -0.2399
 1877SOL     OW17092   1.655   2.018   7.196 -0.3023 -0.4619 -0.4103
 1877SOL    HW117093   1.587   1.979   7.251 -1.4661  0.7025 -1.0171
 1877SOL    HW217094   1.726   1.969   7.237  0.9485  3.3308  2.0349
 1878SOL     OW17095   2.016   0.117   6.549  0.2687  0.1856 -0.2572
 1878SOL    HW117096   2.045   0.068   6.626 -0.1391  0.5336  0.1164
 1878SOL    HW217097   1.988   0.204   6.577 -1.6634 -0.9456  1.3657
 1879SOL     OW17098   3.020   2.304  16.997  0.3407 -0.2044  0.2433
 1879SOL    HW117099   3.074   2.340  17.067 -2.0816  3.2112  0.3141
 1879SOL    HW217100   2.955   2.245  17.037 -0.1901  0.4646  0.3694
 1880SOL     OW17101   2.642   4.497   5.547  0.0273  0.1931 -0.7525
 1880SOL    HW117102   2.723   4.546   5.535  0.8771 -1.5613 -2.2327
 1880SOL    HW217103   2.606   4.530   5.629  0.3397 -2.1240  0.3215
 1881SOL     OW17104   3.555   0.785   7.555  0.4050  0.0738 -0.2531
 1881SOL    HW117105   3.472   0.804   7.598  1.5294  1.8866  1.1420
 1881SOL    HW217106   3.596   0.870   7.540 -0.7145  0.7603  0.5731
 1882SOL     OW17107   1.936   3.465   6.240 -0.6020  0.1590 -0.0830
 1882SOL    HW117108   1.867   3.513   6.194 -1.0592 -1.1794 -0.7944
 1882SOL    HW217109   1.987   3.434   6.165  0.2570 -0.3083  0.6900
 1883SOL     OW17110   1.802   3.649   3.365  0.1270 -0.1448  0.7494
 1883SOL    HW117111   1.796   3.575   3.304  0.0136 -0.1779  0.8011
 1883SOL    HW217112   1.711   3.641   3.391 -0.5454  2.8052 -0.7823
 1884SOL     OW17113   0.768   2.732   3.879 -0.3595  0.3208  0.6292
 1884SOL    HW117114   0.752   2.657   3.821 -3.8486  0.1565  1.7943
 1884SOL    HW217115   0.770   2.696   3.967  2.6923  0.9218  0.8200
 1885SOL     OW17116   3.437   2.621  12.373 -0.5114 -0.5176  0.5451
 1885SOL    HW117117   3.341   2.617  12.370 -0.5479 -0.2192  1.4674
 1885SOL    HW217118   3.453   2.677  12.297  0.7781 -0.8046  0.6011
 1886SOL     OW17119   1.550   2.809   7.695 -0.3363  0.5923  0.4437
 1886SOL    HW117120   1.557   2.873   7.766 -0.5159 -0.1352  1.1136
 1886SOL    HW217121   1.489   2.748   7.737 -1.5025  1.5738  0.1690
 1887SOL     OW17122   4.052   4.149   4.920 -0.5892 -0.3507 -0.2887
 1887SOL    HW117123   3.973   4.200   4.900  0.0669  0.0538 -1.7942
 1887SOL    HW217124   4.073   4.099   4.841  2.9224  2.0612 -0.8677
 1888SOL     OW17125   0.647   0.936   2.257 -0.1965 -0.1941 -0.0390
 1888SOL    HW117126   0.630   0.852   2.300  2.4925  0.2792  1.9058
 1888SOL    HW217127   0.570   0.966   2.208  0.1035  0.1315 -0.3139
 1889SOL     OW17128   1.416   1.024   4.075  0.5196 -0.0049  0.3575
 1889SOL    HW117129   1.356   1.097   4.090  3.9912  2.6805  1.2207
 1889SOL    HW217130   1.492   1.060   4.120 -0.3461  1.9215  0.2631
 1890SOL     OW17131   2.885   3.241   3.865 -0.1578 -0.7484 -0.3179
 1890SOL    HW117132   2.952   3.175   3.847  1.4350  1.2355 -1.6718
 1890SOL    HW217133   2.892   3.317   3.807 -2.0927 -0.1786  0.1818
 1891SOL     OW17134   0.594   2.552  17.592  0.3577  0.6389 -0.4841
 1891SOL    HW117135   0.509   2.509  17.595 -0.8460  3.1016  0.4898
 1891SOL    HW217136   0.644   2.503  17.657  2.1494  1.1664 -1.4580
 1892SOL     OW17137   0.702   0.570   7.101 -0.3515 -0.2106  0.5382
 1892SOL    HW117138   0.648   0.491   7.094 -0.1775 -0.0166 -3.0987
 1892SOL    HW217139   0.636   0.631   7.133  0.5873 -0.1262  2.2755
 1893SOL     OW17140   2.438   2.181  16.572 -0.8500 -0.2577 -0.1712
 1893SOL    HW117141   2.495   2.104  16.562 -2.5985 -1.6397  0.4090
 1893SOL    HW217142   2.485   2.235  16.636  2.7256 -2.6580 -0.7483
 1894SOL     OW17143   1.997   1.374  12.848 -0.1788 -0.3340  0.2667
 1894SOL    HW117144   1.922   1.412  12.893  0.2458 -0.5201  1.1532
 1894SOL    HW217145   2.067   1.414  12.900  0.5308  0.5109 -1.3678
 1895SOL     OW17146   1.824   1.662   7.349  0.0244 -0.0253 -0.3850
 1895SOL    HW117147   1.740   1.617   7.362 -0.4544  0.5293 -1.5328
 1895SOL    HW217148   1.866   1.609   7.282  0.4777 -0.2277  0.0588
 1896SOL     OW17149   2.438   2.102   3.826 -0.0303 -0.1696  0.5491
 1896SOL    HW117150   2.426   2.196   3.814  0.8976 -0.3272 -1.4685
 1896SOL    HW217151   2.436   2.104   3.922 -0.1200 -0.6956  0.5620
 1897SOL     OW17152   2.829   2.426  16.641 -0.4519 -0.0163 -0.0842
 1897SOL    HW117153   2.916   2.386  16.646 -0.1004  0.7829  0.1495
 1897SOL    HW217154   2.798   2.381  16.562 -2.1180  0.9243  0.0485
 1898SOL     OW17155   2.418   2.532   9.125 -0.3240 -0.1983  0.0766
 1898SOL    HW117156   2.503   2.488   9.115  0.0122  0.4614  0.0472
 1898SOL    HW217157   2.430   2.549   9.219  2.2363  2.9518 -0.8313
 1899SOL     OW17158   4.340   4.120   9.215 -0.2640 -0.0913  0.2056
 1899SOL    HW117159   4.292   4.059   9.160  0.1465  0.8561 -1.1828
 1899SOL    HW217160   4.375   4.173   9.144  1.1509  0.4921  1.3254
 1900SOL     OW17161   3.908   2.867  13.523  0.3227 -0.0454 -0.3316
 1900SOL    HW117162   3.881   2.783  13.561  0.0316  0.4495  0.5466
 1900SOL    HW217163   3.854   2.867  13.443  1.3673 -1.9951 -1.0330
 1901SOL     OW17164   0.200   3.178  12.640 -0.1319  0.4393  0.3935
 1901SOL    HW117165   0.292   3.176  12.614 -0.2577 -0.2804  0.0221
 1901SOL    HW217166   0.211   3.184  12.735 -1.0485 -0.9296  0.5780
 1902SOL     OW17167   2.030   3.084  10.148 -0.7047 -0.4319 -0.1605
 1902SOL    HW117168   2.126   3.091  10.155 -0.9805  0.6171  2.4836
 1902SOL    HW217169   2.010   2.994  10.171 -0.5372 -0.2468  0.7128
 1903SOL     OW17170   2.560   4.606   2.770 -0.0179  0.9582  0.6835
 1903SOL    HW117171   2.606   4.656   2.838  0.6414  0.7176  0.4135
 1903SOL    HW217172   2.469   4.630   2.782 -0.3557 -0.4711  1.0491
 1904SOL     OW17173   3.368   2.574   0.589  0.0525  0.4499  0.5821
 1904SOL    HW117174   3.340   2.649   0.537  1.0225 -0.3973 -1.1606
 1904SOL    HW217175   3.299   2.514   0.560  0.1059 -0.2694  1.9230
 1905SOL     OW17176   1.325   0.732   8.284 -0.1171  0.1774  0.2199
 1905SOL    HW117177   1.417   0.738   8.308 -0.3220 -0.1468  1.0945
 1905SOL    HW217178   1.299   0.823   8.299  2.8000  0.9583  0.4705
 1906SOL     OW17179   3.962   4.537   9.035  0.0806 -0.2347  0.0751
 1906SOL    HW117180   3.968   4.447   9.004  0.0935  0.2391 -1.2967
 1906SOL    HW217181   3.992   4.588   8.960 -0.8586  1.2064  0.6705
 1907SOL     OW17182   2.060   3.318   5.845  0.1944  0.1748 -0.0681
 1907SOL    HW117183   2.109   3.350   5.921 -1.2077  0.5353  0.6799
 1907SOL    HW217184   2.016   3.248   5.893  0.4277 -0.1870 -0.3815
 1908SOL     OW17185   4.108   0.398  15.890 -0.1631  0.2456 -0.0527
 1908SOL    HW117186   4.142   0.422  15.804 -2.3173  1.1321 -0.6577
 1908SOL    HW217187   4.187   0.359  15.927 -1.3652 -0.5299  1.6851
 1909SOL     OW17188   2.372   2.991   0.616  0.2668 -0.5325 -0.6001
 1909SOL    HW117189   2.416   3.075   0.606  1.3275 -0.8410  1.2838
 1909SOL    HW217190   2.409   2.927   0.555  1.3777 -0.5284  0.0537
 1910SOL     OW17191   2.236   3.173   5.250  0.2344 -0.8715 -0.7861
 1910SOL    HW117192   2.225   3.268   5.258 -1.8071 -1.0887 -1.0792
 1910SOL    HW217193   2.310   3.167   5.189  0.7320  0.3062 -0.2974
 1911SOL     OW17194   2.933   0.629   6.758 -0.0026 -0.2885  0.3361
 1911SOL    HW117195   2.853   0.674   6.785  0.4816 -1.6518  4.1882
 1911SOL    HW217196   2.953   0.682   6.681  0.4331  3.0771  2.7741
 1912SOL     OW17197   3.161   3.605   5.817  0.0670  0.9813  0.1551
 1912SOL    HW117198   3.134   3.676   5.876  1.6491  0.1545  1.8589
 1912SOL    HW217199   3.139   3.533   5.876 -0.3736  1.0686  0.0980
 1913SOL     OW17200   4.689   3.913  13.899  0.3372 -0.4275  0.0214
 1913SOL    HW117201   4.618   3.911  13.835 -0.9483  1.0674  1.4227
 1913SOL    HW217202   4.707   3.822  13.923 -1.2794 -1.0071 -0.9459
 1914SOL     OW17203   3.261   0.785   1.414 -0.3668 -1.0025 -0.2307
 1914SOL    HW117204   3.307   0.708   1.448  0.4348 -0.0631  0.8115
 1914SOL    HW217205   3.185   0.784   1.472 -1.2110  0.1692 -1.3286
 1915SOL     OW17206   2.536   0.488   9.232  0.1600  0.3924  0.5279
 1915SOL    HW117207   2.580   0.569   9.257  3.0105 -1.1071  0.4435
 1915SOL    HW217208   2.462   0.530   9.189  0.3748 -1.0021 -1.2167
 1916SOL     OW17209   1.679   3.659   2.077 -0.2502 -0.2348  0.1000
 1916SOL    HW117210   1.679   3.564   2.082 -0.3691 -0.1582  1.5641
 1916SOL    HW217211   1.744   3.682   2.143 -0.5318  3.5981 -0.9242
 1917SOL     OW17212   4.323   4.157   5.876 -0.4823  0.2822 -0.0910
 1917SOL    HW117213   4.304   4.245   5.844 -1.5636  0.4790  1.1209
 1917SOL    HW217214   4.406   4.144   5.829 -0.1829 -0.2068  0.5800
 1918SOL     OW17215   1.793   4.098   0.927  0.2961 -0.4761  0.1880
 1918SOL    HW117216   1.824   4.157   0.995 -0.8001 -0.1895  0.4329
 1918SOL    HW217217   1.879   4.068   0.896 -1.1181 -2.2814 -2.0401
 1919SOL     OW17218   0.699   3.714   6.992  0.5646  0.0849 -0.4687
 1919SOL    HW117219   0.678   3.647   6.928 -2.4426  1.2380 -0.7038
 1919SOL    HW217220   0.742   3.785   6.945 -2.3338  0.6411 -2.2919
 1920SOL     OW17221   3.450   4.541   6.485  0.4054 -0.3180  0.2679
 1920SOL    HW117222   3.422   4.623   6.527 -2.0042  0.2242 -2.3705
 1920SOL    HW217223   3.540   4.537   6.515  0.7610 -0.8818 -0.8929
 1921SOL     OW17224   3.644   3.808   2.841  0.4397  0.0910 -0.2998
 1921SOL    HW117225   3.606   3.813   2.929  1.2923  2.4284 -0.0689
 1921SOL    HW217226   3.577   3.794   2.774 -1.0629 -0.8321  1.4004
 1922SOL     OW17227   4.691   3.075   4.395 -0.1439  0.2093  0.3000
 1922SOL    HW117228   0.050   3.117   4.356  0.1099  2.1980  2.9043
 1922SOL    HW217229   4.625   3.144   4.388 -1.9657 -1.5367  0.5203
 1923SOL     OW17230   1.499   2.355   7.628 -0.3996 -0.2029 -0.0472
 1923SOL    HW117231   1.446   2.433   7.646  1.8152  0.3401  4.1099
 1923SOL    HW217232   1.431   2.289   7.612 -0.9297  0.1166  0.8746
 1924SOL     OW17233   1.458   2.433   3.309  0.4717 -0.2890  0.2803
 1924SOL    HW117234   1.514   2.356   3.322  2.8366  1.3281 -0.3472
 1924SOL    HW217235   1.375   2.413   3.352  0.3954  0.9605  0.6976
 1925SOL     OW17236   1.813   1.426   5.865 -0.8776  0.0703 -0.4210
 1925SOL    HW117237   1.889   1.381   5.901 -0.5842 -1.4732 -2.9957
 1925SOL    HW217238   1.803   1.504   5.919 -0.9365 -1.4081  1.7170
 1926SOL     OW17239   4.320   0.042   3.686  0.2773  0.3087 -0.3248
 1926SOL    HW117240   4.367   4.678   3.670  0.9513  0.7416 -0.5600
 1926SOL    HW217241   4.368   0.103   3.630  0.2487  0.6754  0.0494
 1927SOL     OW17242   1.385   0.231   1.724  0.5748 -0.4071 -0.1435
 1927SOL    HW117243   1.405   0.305   1.782 -0.2831  0.2474 -0.6850
 1927SOL    HW217244   1.419   0.262   1.640  1.9919  1.5134  1.1472
 1928SOL     OW17245   3.945   4.094   6.867 -0.4549 -0.2150  0.7036
 1928SOL    HW117246   3.996   4.015   6.851 -0.7367 -0.1709 -0.4065
 1928SOL    HW217247   3.897   4.068   6.946  0.1716  1.0712  1.4995
 1929SOL     OW17248   4.306   0.103   5.962  0.3718  0.7713 -0.6066
 1929SOL    HW117249   4.384   0.060   5.997 -1.3078 -2.5024 -0.8790
 1929SOL    HW217250   4.270   0.043   5.896  0.8789  1.1910 -1.2671
 1930SOL     OW17251   2.986   3.409   0.098 -0.4701  0.1694  0.3528
 1930SOL    HW117252   3.068   3.406   0.147  0.5635  1.2759 -1.2968
 1930SOL    HW217253   2.932   3.462   0.156  0.1109  2.4738 -1.1965
 1931SOL     OW17254   2.222   1.008   6.812  0.2840 -0.0769 -0.4740
 1931SOL    HW117255   2.301   1.020   6.760  0.6324 -0.4647 -0.0360
 1931SOL    HW217256   2.273   0.963   6.880  0.2309 -1.0178 -1.0607
 1932SOL     OW17257   3.812   2.919   4.686  0.2565 -0.2501  0.7541
 1932SOL    HW117258   3.778   2.946   4.600  1.2336 -1.0571  0.1165
 1932SOL    HW217259   3.906   2.926   4.675  0.2143  1.7459  1.6603
 1933SOL     OW17260   1.063   4.453   3.220 -0.7266  0.3343  0.0384
 1933SOL    HW117261   1.002   4.520   3.249  0.0373  1.0097  0.0947
 1933SOL    HW217262   1.017   4.406   3.150 -1.1172  0.0759  0.4671
 1934SOL     OW17263   0.894   1.610   0.970 -0.1019 -0.6080  0.3791
 1934SOL    HW117264   0.852   1.688   0.935  2.1105  1.2593  1.8505
 1934SOL    HW217265   0.944   1.581   0.894  0.7071 -1.9562  1.4071
 1935SOL     OW17266   0.167   4.625   5.943 -0.1414  0.1455 -0.1545
 1935SOL    HW117267   0.256   4.619   5.910  0.3327  0.1930  1.1092
 1935SOL    HW217268   0.171   4.568   6.020 -0.3957  0.0265 -0.2266
 1936SOL     OW17269   3.111   0.901   7.463  0.3021  0.1745  0.3375
 1936SOL    HW117270   3.032   0.933   7.507 -1.6203 -1.2168 -2.1033
 1936SOL    HW217271   3.164   0.856   7.529  3.0539  0.3220 -1.7577
 1937SOL     OW17272   4.004   3.115  15.477  0.2108  0.2210 -0.0950
 1937SOL    HW117273   3.952   3.123  15.558  0.8270  0.7886  0.2472
 1937SOL    HW217274   4.095   3.132  15.502  0.8121 -1.8579 -0.8887
 1938SOL     OW17275   0.044   4.699   7.768 -0.3835  0.0585 -0.0967
 1938SOL    HW117276   0.019   4.609   7.789 -0.7865  0.3451  0.6277
 1938SOL    HW217277   4.676   4.716   7.729 -2.1641 -1.3327  3.2588
 1939SOL     OW17278   4.194   0.617   5.716 -0.3693  0.4959  0.8618
 1939SOL    HW117279   4.204   0.663   5.799  0.7254 -1.6296  1.9083
 1939SOL    HW217280   4.209   0.525   5.739 -1.0402  0.4753  1.2102
 1940SOL     OW17281   0.772   0.179   8.213  0.1945 -0.1342  0.2363
 1940SOL    HW117282   0.737   0.223   8.136  0.1646  1.7932  1.3663
 1940SOL    HW217283   0.826   0.120   8.161 -0.9185 -0.0203 -1.0617
 1941SOL     OW17284   2.885   1.484   7.337  0.3707  0.0797 -0.0621
 1941SOL    HW117285   2.978   1.483   7.358  0.5318 -0.8805 -0.8002
 1941SOL    HW217286   2.896   1.427   7.260  0.7110 -0.6787  0.5416
 1942SOL     OW17287   0.793   3.929   6.624  0.1167  0.3614 -0.6550
 1942SOL    HW117288   0.852   3.932   6.699 -1.9079  1.2226  0.8747
 1942SOL    HW217289   0.839   3.878   6.557 -1.0227 -0.9129 -0.4794
 1943SOL     OW17290   0.675   3.997   5.331  0.8960  0.2278 -0.2062
 1943SOL    HW117291   0.676   3.919   5.387 -1.5768  0.1706 -0.2147
 1943SOL    HW217292   0.687   3.960   5.243  0.1576  1.3570 -0.7877
 1944SOL     OW17293   2.536   1.001  13.237  0.0724  0.0919  0.0748
 1944SOL    HW117294   2.611   0.946  13.259 -0.0730 -0.1939 -0.1385
 1944SOL    HW217295   2.549   1.075  13.297 -0.2333 -1.6203  2.2543
 1945SOL     OW17296   4.671   1.270   4.453 -0.3194 -0.0086  0.6151
 1945SOL    HW117297   4.607   1.202   4.431  0.7526 -0.8890  0.1928
 1945SOL    HW217298   0.018   1.258   4.383  0.2291  1.1163  0.9408
 1946SOL     OW17299   0.836   1.747  15.721  0.5668 -0.0359  0.0643
 1946SOL    HW117300   0.825   1.663  15.677 -0.9722 -0.1458  0.6555
 1946SOL    HW217301   0.898   1.795  15.665  1.0893 -1.5870 -0.6763
 1947SOL     OW17302   3.747   3.836  13.236 -0.7073 -0.1500  0.2839
 1947SOL    HW117303   3.724   3.745  13.218 -0.4445 -0.0959 -0.3369
 1947SOL    HW217304   3.687   3.867  13.304  1.6080  0.7504  1.9543
 1948SOL     OW17305   0.546   1.617   8.849  0.1792  0.2128  0.4172
 1948SOL    HW117306   0.553   1.647   8.939  0.6059  1.3203  0.0073
 1948SOL    HW217307   0.482   1.677   8.811  0.6603 -0.8151 -2.0696
 1949SOL     OW17308   2.507   0.546   0.600  0.6678 -0.2084  0.0919
 1949SOL    HW117309   2.509   0.451   0.585  2.4922  0.0166 -1.0717
 1949SOL    HW217310   2.598   0.571   0.585  0.3493 -0.0433 -1.5126
 1950SOL     OW17311   0.762   1.167  15.270  0.1859  0.2845 -0.2310
 1950SOL    HW117312   0.688   1.108  15.285 -0.1055  0.3835 -1.2691
 1950SOL    HW217313   0.828   1.109  15.232 -1.4511 -0.6326 -1.6507
 1951SOL     OW17314   4.205   0.621  11.922  0.5982  0.2321  0.0089
 1951SOL    HW117315   4.222   0.667  11.840 -0.8290  1.7637  0.5804
 1951SOL    HW217316   4.149   0.685  11.965 -0.5491  1.3839 -3.1569
 1952SOL     OW17317   0.911   0.151   6.546  0.0307 -0.2893  0.0260
 1952SOL    HW117318   0.818   0.137   6.564  0.2720 -2.2996 -0.3994
 1952SOL    HW217319   0.947   0.157   6.635  0.7588 -1.1862 -0.2146
 1953SOL     OW17320   2.712   2.459  14.023  0.2781 -0.3553 -0.2556
 1953SOL    HW117321   2.768   2.446  13.946 -1.4095  1.8923 -1.8791
 1953SOL    HW217322   2.703   2.553  14.014  2.5630 -0.0221  1.0948
 1954SOL     OW17323   0.762   4.358   5.053  0.2174  0.1170  0.2536
 1954SOL    HW117324   0.703   4.291   5.087  0.0716 -0.0377 -0.3052
 1954SOL    HW217325   0.697   4.417   5.015  0.8916  0.3767 -0.4931
 1955SOL     OW17326   3.461   4.380  17.333  0.1273 -0.6925  0.0099
 1955SOL    HW117327   3.398   4.420  17.274  0.5031 -1.1536 -0.6975
 1955SOL    HW217328   3.402   4.342  17.399  0.4859  0.5887  1.0692
 1956SOL     OW17329   4.199   1.338   6.587  0.0171  0.5682  0.1959
 1956SOL    HW117330   4.262   1.282   6.632 -1.2307  0.3225  1.6615
 1956SOL    HW217331   4.170   1.273   6.523 -1.1849 -2.1677  3.4840
 1957SOL     OW17332   4.634   1.111   4.107  0.4662 -0.3040 -0.1531
 1957SOL    HW117333   4.647   1.024   4.145  0.6669 -0.8339 -1.4342
 1957SOL    HW217334   4.576   1.094   4.033  1.5703  3.8867 -1.9789
 1958SOL     OW17335   1.793   2.133   2.027 -0.3931 -0.0592 -0.2050
 1958SOL    HW117336   1.853   2.187   1.976 -0.1094  0.2478  0.4533
 1958SOL    HW217337   1.740   2.101   1.954  0.1541 -0.3239 -0.4896
 1959SOL     OW17338   2.853   2.656   2.600  0.0203 -0.0283  0.1211
 1959SOL    HW117339   2.852   2.705   2.517 -0.4277 -0.1995  0.0249
 1959SOL    HW217340   2.780   2.594   2.597  0.2415 -0.2841  0.0781
 1960SOL     OW17341   1.994   2.823   0.238 -0.3032 -0.4191 -0.6717
 1960SOL    HW117342   1.956   2.852   0.321  0.9955  0.8690 -0.5268
 1960SOL    HW217343   2.064   2.888   0.240 -0.3582 -0.3569 -0.7435
 1961SOL     OW17344   1.518   2.423   5.304 -0.2961 -0.2194 -0.3293
 1961SOL    HW117345   1.468   2.378   5.236  1.6009  1.8668 -3.0756
 1961SOL    HW217346   1.466   2.503   5.318  0.3897  0.0675  0.5858
 1962SOL     OW17347   0.420   1.207   7.645  0.4426 -0.7270  0.3017
 1962SOL    HW117348   0.339   1.164   7.615 -0.5014  1.3909 -0.1815
 1962SOL    HW217349   0.479   1.132   7.653  2.7834  1.2675  1.4590
 1963SOL     OW17350   0.831   4.400  12.286  0.6089 -0.2577 -0.4123
 1963SOL    HW117351   0.889   4.342  12.335  0.2704 -0.2898 -0.0511
 1963SOL    HW217352   0.751   4.350  12.273  0.8832 -0.8825  0.2978
 1964SOL     OW17353   0.896   1.861   8.426 -0.2394  0.0631 -0.1936
 1964SOL    HW117354   0.888   1.875   8.521  2.9177 -1.0860  0.2508
 1964SOL    HW217355   0.977   1.809   8.422  0.8205  1.6194  1.0371
 1965SOL     OW17356   4.564   0.930  16.940 -0.0598  0.2926 -0.3916
 1965SOL    HW117357   4.521   0.845  16.949  1.1440 -0.4616 -1.7378
 1965SOL    HW217358   4.642   0.904  16.990  0.1752  0.7719 -0.5067
 1966SOL     OW17359   1.618   0.304   4.915 -0.0077  0.6792  0.3425
 1966SOL    HW117360   1.534   0.338   4.947 -1.4435 -0.2390 -2.4187
 1966SOL    HW217361   1.571   0.249   4.853  0.5972  1.7553 -1.0762
 1967SOL     OW17362   0.704   0.467  10.531  0.4815 -0.8499  0.0364
 1967SOL    HW117363   0.749   0.476  10.615  0.3711  2.3750 -0.2751
 1967SOL    HW217364   0.619   0.439  10.566 -0.4881  1.4345 -0.4869
 1968SOL     OW17365   1.490   3.199  14.610  0.1517  0.5604  0.0263
 1968SOL    HW117366   1.577   3.159  14.618 -0.0298  0.0070 -0.8308
 1968SOL    HW217367   1.434   3.124  14.588  0.1461  1.1679 -2.0068
 1969SOL     OW17368   0.800   2.668  10.813  0.2131 -0.9635 -0.4149
 1969SOL    HW117369   0.875   2.641  10.865  0.3470  0.9206  0.3703
 1969SOL    HW217370   0.810   2.615  10.734  1.1546 -2.0408  0.4274
 1970SOL     OW17371   1.093   3.661  15.730 -0.2174 -0.5705  0.3759
 1970SOL    HW117372   1.019   3.695  15.781 -0.0675  0.4864 -0.1022
 1970SOL    HW217373   1.048   3.623  15.655  1.9817 -0.4270 -0.9839
 1971SOL     OW17374   0.014   3.053   6.363  0.2207  0.3735 -0.3225
 1971SOL    HW117375   0.065   2.986   6.318 -0.8552 -1.0487  0.5534
 1971SOL    HW217376   4.708   3.004   6.442  2.4167 -2.2560 -1.2786
 1972SOL     OW17377   1.854   4.433  11.333  0.2489  0.0065  0.2871
 1972SOL    HW117378   1.840   4.473  11.247  3.2984 -1.5617 -0.9541
 1972SOL    HW217379   1.768   4.431  11.374  0.9880 -0.3041  1.8184
 1973SOL     OW17380   1.003   0.784   3.950 -0.1072 -0.1817 -0.0042
 1973SOL    HW117381   1.045   0.854   4.000 -1.2372  1.1576 -0.9355
 1973SOL    HW217382   1.077   0.734   3.914 -0.3863 -0.3714 -0.3085
 1974SOL     OW17383   3.019   2.756  11.287 -0.4491 -0.6810 -0.0962
 1974SOL    HW117384   3.067   2.685  11.244 -1.8677 -0.8148 -1.4630
 1974SOL    HW217385   3.040   2.739  11.379  3.9102 -0.5853 -1.0977
 1975SOL     OW17386   0.028   3.436   0.530  0.0908  0.4978  0.5501
 1975SOL    HW117387   4.656   3.464   0.516 -0.1278  1.0385  3.0469
 1975SOL    HW217388   0.068   3.503   0.476 -0.1301  2.1807  2.4694
 1976SOL     OW17389   0.233   4.018   9.248 -0.1590 -1.3370 -0.1876
 1976SOL    HW117390   0.154   4.027   9.194 -0.0957 -0.1854 -0.0932
 1976SOL    HW217391   0.278   3.963   9.183 -0.2549 -1.3272 -0.2622
 1977SOL     OW17392   4.082   1.869   8.345 -0.0781  0.2717  0.2460
 1977SOL    HW117393   4.042   1.930   8.408 -0.5424  0.0486  0.1669
 1977SOL    HW217394   4.156   1.920   8.313  0.2927 -1.5802 -1.7832
 1978SOL     OW17395   3.257   0.891   5.592 -0.0311  0.2998  0.2664
 1978SOL    HW117396   3.240   0.806   5.631  1.5973 -0.2882 -0.2822
 1978SOL    HW217397   3.220   0.947   5.660  0.4347  2.7139 -1.4440
 1979SOL     OW17398   3.378   0.237   0.433  0.2762 -0.3604  0.4173
 1979SOL    HW117399   3.351   0.245   0.525 -1.0027  2.1487 -0.1932
 1979SOL    HW217400   3.394   0.144   0.420 -1.8931 -0.5643 -0.7478
 1980SOL     OW17401   2.100   1.832   9.958 -0.3709  0.7369  0.0516
 1980SOL    HW117402   2.100   1.915   9.909 -0.1174  0.3068 -0.6858
 1980SOL    HW217403   2.194   1.819   9.971 -0.7419 -1.0390  0.9919
 1981SOL     OW17404   2.378   2.053  13.683  0.1713  0.0637 -0.0067
 1981SOL    HW117405   2.352   1.975  13.731 -2.3961  1.8415  1.5569
 1981SOL    HW217406   2.454   2.087  13.729  0.4824 -2.2709  1.1776
 1982SOL     OW17407   0.609   0.799   9.172 -0.0136  0.3590 -0.1111
 1982SOL    HW117408   0.618   0.740   9.247  2.3217 -1.0269 -1.4908
 1982SOL    HW217409   0.590   0.883   9.214  0.1060 -0.0384  0.7428
 1983SOL     OW17410   2.994   1.897  17.477  0.2324  0.0808 -0.3552
 1983SOL    HW117411   3.089   1.886  17.481  0.2829  0.3229 -1.0464
 1983SOL    HW217412   2.982   1.988  17.451  0.4008  0.1132 -0.3160
 1984SOL     OW17413   0.037   1.352   4.039  0.3605 -0.2116 -0.0473
 1984SOL    HW117414   4.703   1.276   4.064 -0.9023  0.7838  0.3824
 1984SOL    HW217415   0.118   1.333   4.086 -0.2201 -1.3336  0.5161
 1985SOL     OW17416   0.774   0.476   1.669  0.1059  0.3556 -0.1479
 1985SOL    HW117417   0.806   0.488   1.579  1.1691 -0.0263  0.1826
 1985SOL    HW217418   0.748   0.566   1.690 -0.0438  0.2213  0.2460
 1986SOL     OW17419   2.335   1.529   1.947 -0.1290  0.8991  0.5598
 1986SOL    HW117420   2.316   1.617   1.914 -0.2620  0.5827 -0.1910
 1986SOL    HW217421   2.244   1.507   1.969 -0.6998  1.5532 -1.1388
 1987SOL     OW17422   4.592   2.331   5.504  0.7041 -0.5047 -0.5181
 1987SOL    HW117423   4.537   2.366   5.435 -1.4381  0.0761  1.4852
 1987SOL    HW217424   4.671   2.307   5.455  1.6344  2.5223 -0.4666
 1988SOL     OW17425   3.784   3.639  17.566 -0.2373 -0.0645  0.5992
 1988SOL    HW117426   3.856   3.641  17.630  1.5024 -1.5878 -1.3326
 1988SOL    HW217427   3.719   3.593  17.619 -0.5996  1.2579  1.3100
 1989SOL     OW17428   0.843   4.609  11.297  0.5037  0.4681 -0.1635
 1989SOL    HW117429   0.808   4.690  11.335  0.5438  0.2559  0.3275
 1989SOL    HW217430   0.808   4.620  11.209 -0.4330  0.5075  0.2091
 1990SOL     OW17431   1.286   3.959   0.572 -0.3696  0.4999 -0.4243
 1990SOL    HW117432   1.211   3.950   0.631  0.7503 -0.9163  0.7859
 1990SOL    HW217433   1.319   4.048   0.586 -0.4320  0.1482  2.0026
 1991SOL     OW17434   0.557   3.366   7.186 -0.1784 -0.5857  0.3190
 1991SOL    HW117435   0.474   3.410   7.205 -1.5488 -2.7266 -0.6478
 1991SOL    HW217436   0.615   3.412   7.247  3.5285 -1.0507 -2.8408
 1992SOL     OW17437   0.723   2.785  12.560 -0.9588 -0.4810 -0.2855
 1992SOL    HW117438   0.660   2.855  12.580  0.3485  1.2577 -2.3060
 1992SOL    HW217439   0.679   2.713  12.604 -0.0944 -1.8976 -1.7182
 1993SOL     OW17440   0.495   0.043   1.745 -0.3161 -0.2559 -0.2419
 1993SOL    HW117441   0.431   4.710   1.794  1.3825 -0.5654  1.6259
 1993SOL    HW217442   0.497   0.120   1.802 -0.9182 -0.0910 -0.4397
 1994SOL     OW17443   3.090   3.359   5.956 -0.1032 -0.2719 -0.3256
 1994SOL    HW117444   3.180   3.328   5.947  0.6133  1.7365 -0.1389
 1994SOL    HW217445   3.065   3.342   6.047  0.7530  2.2340  0.3626
 1995SOL     OW17446   0.837   4.393   2.144 -0.4950 -0.4542 -0.0606
 1995SOL    HW117447   0.802   4.323   2.199 -0.6798  0.5337  1.0884
 1995SOL    HW217448   0.923   4.355   2.124 -0.6561 -0.4510 -0.7580
 1996SOL     OW17449   4.157   1.215   3.770 -0.7154 -0.0344 -0.1345
 1996SOL    HW117450   4.168   1.267   3.690  0.4729 -2.0364 -1.2806
 1996SOL    HW217451   4.175   1.126   3.740  4.4876  0.5826  1.1542
 1997SOL     OW17452   1.517   3.547   9.192  0.2835 -0.1049  0.0249
 1997SOL    HW117453   1.507   3.553   9.287 -0.5607  0.6663 -0.1060
 1997SOL    HW217454   1.551   3.633   9.165  0.3105  0.5407  2.1551
 1998SOL     OW17455   2.005   1.837   2.684 -0.6500  0.7291 -0.6352
 1998SOL    HW117456   2.027   1.745   2.671 -3.9039 -0.4633  2.2904
 1998SOL    HW217457   1.917   1.832   2.721 -0.1540 -1.2823  0.2863
 1999SOL     OW17458   4.457   1.581  11.670  0.5318 -0.4920  0.9338
 1999SOL    HW117459   4.372   1.625  11.682  1.4534  0.7242  2.9130
 1999SOL    HW217460   4.459   1.575  11.574 -0.6671  0.0978  0.8669
 2000SOL     OW17461   2.414   1.496   5.056 -0.1666 -0.0060  0.2776
 2000SOL    HW117462   2.501   1.533   5.039 -0.9709  0.7865 -2.1660
 2000SOL    HW217463   2.397   1.447   4.976 -1.3723  0.2855  0.3489
 2001SOL     OW17464   1.472   4.474   3.829 -0.3682  0.3807  0.2911
 2001SOL    HW117465   1.489   4.502   3.919 -1.5684  1.4006  0.1969
 2001SOL    HW217466   1.550   4.508   3.784  0.4620  0.1356  1.5358
 2002SOL     OW17467   2.768   3.608  17.197 -0.8480 -0.2134  0.0364
 2002SOL    HW117468   2.823   3.537  17.164 -0.2749 -0.6532  1.9105
 2002SOL    HW217469   2.693   3.559  17.231 -1.1720 -0.8345 -1.5898
 2003SOL     OW17470   3.556   1.911   2.703 -0.8173  0.4608  0.0878
 2003SOL    HW117471   3.511   1.834   2.669  0.2548 -0.2465  0.2847
 2003SOL    HW217472   3.553   1.964   2.623  0.3833 -0.6649 -0.6990
 2004SOL     OW17473   1.349   3.166   1.960  0.0627 -0.4533  0.3653
 2004SOL    HW117474   1.406   3.180   2.036  1.4475  1.0040 -0.9174
 2004SOL    HW217475   1.268   3.202   1.997  0.3702  0.7898 -0.1831
 2005SOL     OW17476   4.267   3.745  14.822  0.0964 -0.1210 -0.7769
 2005SOL    HW117477   4.217   3.790  14.890 -0.1141 -0.2475 -0.8462
 2005SOL    HW217478   4.316   3.687  14.880 -0.7644 -0.2155 -0.1416
 2006SOL     OW17479   3.053   3.107   4.872  0.8161 -0.0398 -0.5612
 2006SOL    HW117480   2.958   3.109   4.882  0.8565  1.3379 -0.5032
 2006SOL    HW217481   3.072   3.083   4.962 -0.6317 -1.1359 -0.5509
 2007SOL     OW17482   2.599   1.382   4.463  0.3987 -0.2868  0.2165
 2007SOL    HW117483   2.636   1.382   4.551  0.4191 -2.2014  0.2154
 2007SOL    HW217484   2.612   1.476   4.450  0.8567 -0.5202 -1.1312
 2008SOL     OW17485   2.266   4.333   1.646 -0.3296 -0.3051  0.6192
 2008SOL    HW117486   2.333   4.334   1.714  2.2594  1.6789 -1.9963
 2008SOL    HW217487   2.225   4.249   1.668 -0.3115 -0.2190  0.9794
 2009SOL     OW17488   1.546   4.240   1.175  0.2631 -0.0943 -0.1758
 2009SOL    HW117489   1.618   4.177   1.173 -0.2300 -0.6682  0.0458
 2009SOL    HW217490   1.597   4.320   1.162  0.9286 -0.6531 -0.9849
 2010SOL     OW17491   0.423   2.535  16.434  0.2596  0.3463 -0.0440
 2010SOL    HW117492   0.422   2.543  16.529 -0.3575 -0.4361  0.0178
 2010SOL    HW217493   0.344   2.481  16.425  0.1347  0.6899 -1.0531
 2011SOL     OW17494   1.835   0.350   6.940 -0.3263  0.0317 -0.7759
 2011SOL    HW117495   1.851   0.385   7.027 -0.6880 -0.8218 -0.3616
 2011SOL    HW217496   1.795   0.267   6.966  1.8442 -1.2327 -1.4005
 2012SOL     OW17497   3.417   4.442  15.754  0.0280  0.5036 -0.2702
 2012SOL    HW117498   3.411   4.371  15.817 -1.0524  1.6819  0.9390
 2012SOL    HW217499   3.355   4.508  15.784 -0.1025  0.4630 -0.4464
 2013SOL     OW17500   2.350   0.085   8.299  0.4139  0.6677 -0.2400
 2013SOL    HW117501   2.407   0.111   8.227 -0.6644  2.2013 -0.5514
 2013SOL    HW217502   2.383   4.715   8.315 -3.1424 -0.5159  0.7219
 2014SOL     OW17503   2.056   0.029   2.729  0.3458  0.3048  0.2666
 2014SOL    HW117504   2.088   0.098   2.788  0.6856 -1.3893  2.0415
 2014SOL    HW217505   1.974   4.715   2.768  0.4612 -0.4891 -0.1715
 2015SOL     OW17506   1.319   1.273   6.196 -0.1612 -0.6130 -0.2137
 2015SOL    HW117507   1.350   1.333   6.128  1.8041  0.3415  1.5095
 2015SOL    HW217508   1.335   1.188   6.155  1.7898 -0.8921  1.0847
 2016SOL     OW17509   3.368   3.360   4.094 -0.6236 -0.3351 -0.2248
 2016SOL    HW117510   3.338   3.274   4.063 -2.1213  0.0243  0.2163
 2016SOL    HW217511   3.361   3.406   4.011  0.1057  0.2042  0.0220
 2017SOL     OW17512   2.649   3.895   5.543  0.5561 -0.1784 -0.3343
 2017SOL    HW117513   2.586   3.965   5.561  0.6331  0.1084 -1.1751
 2017SOL    HW217514   2.598   3.851   5.474 -0.3798 -1.1556  0.9939
 2018SOL     OW17515   0.697   2.571  12.948 -0.1750  0.2584 -0.3180
 2018SOL    HW117516   0.764   2.555  13.015  0.4194 -1.4091 -1.3311
 2018SOL    HW217517   0.632   2.619  13.001  0.1861  1.9716 -1.4083
 2019SOL     OW17518   1.307   2.789  10.375  0.2372  0.1367  0.1829
 2019SOL    HW117519   1.212   2.795  10.389  0.0393  1.8493 -1.9107
 2019SOL    HW217520   1.321   2.699  10.345 -2.4662 -0.1604 -0.1738
 2020SOL     OW17521   1.830   2.342   2.665 -0.0676  0.6147 -0.0825
 2020SOL    HW117522   1.891   2.268   2.671  0.5683  1.0222 -1.6500
 2020SOL    HW217523   1.765   2.296   2.613 -0.1586  0.5658  0.0729
 2021SOL     OW17524   0.036   0.059   5.761 -0.6196  0.2847 -0.5526
 2021SOL    HW117525   0.066   0.013   5.839 -3.9377 -1.4620 -0.2868
 2021SOL    HW217526   0.059   0.148   5.788  1.0757  0.5809 -3.0158
 2022SOL     OW17527   3.453   2.893  10.956  0.0377 -0.8415  0.0392
 2022SOL    HW117528   3.359   2.896  10.939 -0.0263 -0.5706  0.4563
 2022SOL    HW217529   3.477   2.812  10.911  1.6270 -0.9378  1.0545
 2023SOL     OW17530   4.108   2.941   4.645 -0.3428 -0.8717 -0.0264
 2023SOL    HW117531   4.191   2.898   4.666  0.2170 -0.5426 -1.6056
 2023SOL    HW217532   4.130   2.994   4.569 -2.1507 -1.7768 -1.1661
 2024SOL     OW17533   0.175   3.944   8.778  0.0941  0.2248 -0.0736
 2024SOL    HW117534   0.109   3.930   8.710 -0.7922  1.3386  0.5648
 2024SOL    HW217535   0.178   3.862   8.828  1.3892  1.0372  1.1653
 2025SOL     OW17536   0.850   1.948   4.372  0.0611 -0.7071 -1.0066
 2025SOL    HW117537   0.892   2.023   4.329  1.2203 -2.2170 -2.5406
 2025SOL    HW217538   0.808   1.910   4.295 -0.8602 -1.9527  0.1207
 2026SOL     OW17539   0.891   2.738   2.843  0.2971  0.5857  0.0408
 2026SOL    HW117540   0.883   2.685   2.764 -0.2815  0.5659  0.1115
 2026SOL    HW217541   0.812   2.710   2.889  1.2061  0.4970  1.5184
 2027SOL     OW17542   2.183   0.062   9.519  0.5877  0.2057  0.1158
 2027SOL    HW117543   2.198   0.156   9.528  1.5062 -0.0164  0.9136
 2027SOL    HW217544   2.108   0.065   9.460 -1.1484 -0.9124  2.2521
 2028SOL     OW17545   0.257   4.473   8.231 -0.1974 -0.3309  0.4384
 2028SOL    HW117546   0.197   4.476   8.306  0.2141  0.6802  0.7381
 2028SOL    HW217547   0.226   4.554   8.191  4.4257 -0.1293 -2.7036
 2029SOL     OW17548   2.372   2.188  16.303  0.0163  0.0882  0.0945
 2029SOL    HW117549   2.302   2.123  16.293  0.0010  0.1789 -0.3674
 2029SOL    HW217550   2.375   2.189  16.399  3.7665 -0.5926 -0.0528
 2030SOL     OW17551   1.676   3.902   7.321  0.2369  0.2910 -0.2380
 2030SOL    HW117552   1.735   3.905   7.246  0.7702 -1.4658  0.1160
 2030SOL    HW217553   1.741   3.907   7.391  0.7233  1.1274 -0.7501
 2031SOL     OW17554   2.217   2.088   1.932 -0.6778  0.2220 -0.4903
 2031SOL    HW117555   2.289   2.121   1.986  0.5466  0.1319 -2.0434
 2031SOL    HW217556   2.267   2.091   1.850  0.6970  1.0032  0.3800
 2032SOL     OW17557   4.373   4.406   8.824  0.1141 -0.5853 -0.5921
 2032SOL    HW117558   4.357   4.407   8.919  0.8449  0.3461 -0.4694
 2032SOL    HW217559   4.286   4.374   8.801 -0.1530 -2.6487  3.3803
 2033SOL     OW17560   2.887   0.202   7.509  0.3705 -0.2043  0.2812
 2033SOL    HW117561   2.897   0.241   7.422 -2.4929 -1.2838 -0.5272
 2033SOL    HW217562   2.822   0.132   7.501  1.0290 -0.7904  0.0207
 2034SOL     OW17563   2.935   4.710   3.920 -0.5062  0.1878 -0.0946
 2034SOL    HW117564   2.849   4.713   3.962 -0.3743 -0.7125  0.2254
 2034SOL    HW217565   2.928   4.638   3.858  0.4911  0.9553 -1.1041
 2035SOL     OW17566   2.173   0.812   5.632  0.3792  0.3956  0.4778
 2035SOL    HW117567   2.130   0.813   5.547  0.9631  1.9085  0.1990
 2035SOL    HW217568   2.259   0.779   5.603  1.7606  1.6707  3.1033
 2036SOL     OW17569   2.552   2.619   9.930 -0.0958 -0.2154  0.0618
 2036SOL    HW117570   2.575   2.534   9.893 -1.0054 -0.2924 -0.3358
 2036SOL    HW217571   2.634   2.651   9.967 -1.2846  1.3362  1.3128
 2037SOL     OW17572   0.545   3.084   7.745 -0.0906  0.0411  0.5473
 2037SOL    HW117573   0.536   3.048   7.833  0.3560  0.5151  0.7847
 2037SOL    HW217574   0.572   3.012   7.688 -0.2310 -0.8200  1.5719
 2038SOL     OW17575   1.669   4.549   9.426 -0.6047  0.1547 -0.3987
 2038SOL    HW117576   1.617   4.543   9.346  1.7676 -0.4275 -1.9036
 2038SOL    HW217577   1.743   4.603   9.398 -1.0687  1.2605  0.5092
 2039SOL     OW17578   4.275   2.393   4.095 -0.2196 -0.2106  0.1507
 2039SOL    HW117579   4.250   2.404   4.187 -0.4560 -1.2530  0.2153
 2039SOL    HW217580   4.242   2.476   4.061 -1.8859 -0.0476  2.1109
 2040SOL     OW17581   0.808   1.051   4.512 -0.0305 -0.0677 -0.0508
 2040SOL    HW117582   0.756   1.000   4.449 -0.5238 -1.6370  1.6153
 2040SOL    HW217583   0.754   1.023   4.587  0.9338 -1.0619  0.2715
 2041SOL     OW17584   4.005   3.552  10.638  0.0976 -0.3649  0.4262
 2041SOL    HW117585   4.017   3.461  10.614 -0.9122  0.2681 -2.5092
 2041SOL    HW217586   3.980   3.547  10.730  0.4103 -1.6008  0.4353
 2042SOL     OW17587   0.760   3.136   8.046 -0.0480  0.3873  0.4246
 2042SOL    HW117588   0.799   3.156   8.131 -0.3241 -2.6137  1.2749
 2042SOL    HW217589   0.733   3.044   8.050  0.6727  0.1403 -0.2443
 2043SOL     OW17590   1.919   4.006  15.376 -0.3806 -0.2195  0.0597
 2043SOL    HW117591   1.867   4.086  15.382 -1.3096 -0.8618  0.5959
 2043SOL    HW217592   1.992   4.027  15.318 -0.7118 -1.2043 -0.7202
 2044SOL     OW17593   1.843   0.133   6.132  0.4472  0.0734 -0.4649
 2044SOL    HW117594   1.851   0.178   6.048  0.5707  1.6226  0.3752
 2044SOL    HW217595   1.930   0.151   6.166  0.7756 -1.5666 -0.4539
 2045SOL     OW17596   2.539   3.704   8.454  0.4058 -0.2821  0.2053
 2045SOL    HW117597   2.602   3.742   8.516  1.1431 -2.0071  0.5234
 2045SOL    HW217598   2.570   3.615   8.442  2.5784  0.6473 -1.0176
 2046SOL     OW17599   2.435   3.121   6.527 -0.2748  0.0857  0.2638
 2046SOL    HW117600   2.375   3.190   6.499  2.1194  0.8000 -3.1484
 2046SOL    HW217601   2.375   3.049   6.505 -0.8582  0.4115  0.7957
 2047SOL     OW17602   1.714   1.415   5.608 -0.0956 -0.1150 -0.0630
 2047SOL    HW117603   1.792   1.380   5.565 -0.7470 -2.4080  0.6108
 2047SOL    HW217604   1.742   1.395   5.698 -0.5048  1.0853  0.3228
 2048SOL     OW17605   3.512   1.768   4.178  0.4000 -0.2985  0.1289
 2048SOL    HW117606   3.419   1.769   4.200  0.2942 -1.7909 -0.2451
 2048SOL    HW217607   3.546   1.706   4.243  0.9498 -1.2242 -1.0587
 2049SOL     OW17608   2.447   3.962  14.585 -0.6197  0.2491 -0.8603
 2049SOL    HW117609   2.408   3.878  14.611 -1.0857  0.6313 -0.3328
 2049SOL    HW217610   2.470   4.001  14.669  0.8109 -2.3400 -0.0345
 2050SOL     OW17611   4.222   4.421  12.381  0.6640  0.2743  0.0467
 2050SOL    HW117612   4.140   4.434  12.430  2.2595 -1.5188  3.1607
 2050SOL    HW217613   4.260   4.508  12.367  0.3026  0.4043 -0.1356
 2051SOL     OW17614   2.331   4.388   0.375  0.1847 -0.1930 -0.0206
 2051SOL    HW117615   2.259   4.429   0.423 -0.4887 -1.7178  0.2852
 2051SOL    HW217616   2.372   4.344   0.450  0.7013  1.1134  0.4488
 2052SOL     OW17617   0.530   2.686   0.171  0.0991  0.2189 -0.0920
 2052SOL    HW117618   0.552   2.640   0.091  1.2760  0.5987  0.0054
 2052SOL    HW217619   0.491   2.614   0.221  0.6841 -0.1887 -0.2312
 2053SOL     OW17620   3.471   0.872   3.982 -0.4079  0.1103 -0.1057
 2053SOL    HW117621   3.489   0.851   3.891 -1.6093 -2.0781  0.1589
 2053SOL    HW217622   3.508   0.960   3.984  1.3973 -0.6609  0.3276
 2054SOL     OW17623   1.834   0.518   6.474  0.0748  0.2672 -0.0330
 2054SOL    HW117624   1.783   0.458   6.419  0.2401 -1.2297  1.4581
 2054SOL    HW217625   1.773   0.592   6.477 -0.5567 -0.3213  1.1132
 2055SOL     OW17626   1.734   2.087   8.028  0.2142 -0.1107 -0.2183
 2055SOL    HW117627   1.705   2.096   8.119  0.6445 -2.1666  0.1212
 2055SOL    HW217628   1.728   2.175   7.991 -4.7052 -0.1091  0.6273
 2056SOL     OW17629   1.966   1.816   8.856  0.1771 -0.0755 -0.2513
 2056SOL    HW117630   2.015   1.867   8.921  2.7814 -1.6799 -0.9480
 2056SOL    HW217631   2.025   1.747   8.828 -0.9062 -0.4103 -1.6791
 2057SOL     OW17632   3.516   0.999  12.907 -0.0200 -0.2495  0.0904
 2057SOL    HW117633   3.548   1.037  12.988  0.5634 -4.6364  1.9464
 2057SOL    HW217634   3.422   1.018  12.914  0.4933  0.6853  4.3570
 2058SOL     OW17635   3.238   4.039   4.288 -0.5455  0.1919  0.5300
 2058SOL    HW117636   3.311   4.088   4.250 -0.0723 -1.4872 -0.6858
 2058SOL    HW217637   3.163   4.088   4.254 -0.4271  0.1130  0.1653
 2059SOL     OW17638   3.975   1.292   8.240 -0.5421 -0.1576 -0.4842
 2059SOL    HW117639   3.987   1.335   8.155  1.4389 -0.5802 -0.4188
 2059SOL    HW217640   3.898   1.337   8.273  1.3454  0.9299  2.4979
 2060SOL     OW17641   4.449   2.517   7.922 -0.0724 -0.0976  0.0822
 2060SOL    HW117642   4.380   2.462   7.959 -0.6582 -0.1520 -1.1058
 2060SOL    HW217643   4.422   2.526   7.830  0.5492  2.4502  0.1703
 2061SOL     OW17644   3.609   1.993  14.512  0.0950  0.1802  0.2417
 2061SOL    HW117645   3.562   2.055  14.457 -0.8014  0.0963  0.9029
 2061SOL    HW217646   3.563   1.913  14.488 -1.5410  0.6436  1.8154
 2062SOL     OW17647   0.894   0.675   9.653 -0.6097 -0.2965  0.5011
 2062SOL    HW117648   0.872   0.594   9.700 -0.9517  1.1061  2.7218
 2062SOL    HW217649   0.813   0.725   9.664 -1.8166 -2.0486 -0.2644
 2063SOL     OW17650   1.630   0.968  14.777  0.3806 -0.3346  0.5706
 2063SOL    HW117651   1.632   0.959  14.682  1.5167 -0.2042  0.5913
 2063SOL    HW217652   1.659   1.059  14.784  2.4570 -1.1078  1.7205
 2064SOL     OW17653   1.595   4.088  14.328  0.2503 -0.3674  0.0264
 2064SOL    HW117654   1.556   4.106  14.414  0.2867 -0.7626  0.1242
 2064SOL    HW217655   1.526   4.132  14.278  1.9372  0.7088 -1.3735
 2065SOL     OW17656   2.253   2.305   5.653 -0.2544  0.1547  0.2175
 2065SOL    HW117657   2.262   2.363   5.577 -5.1724 -1.0938 -1.3323
 2065SOL    HW217658   2.313   2.335   5.721 -0.5399  2.7626 -0.6867
 2066SOL     OW17659   0.239   3.525   2.387 -0.1267 -0.4961  0.0673
 2066SOL    HW117660   0.263   3.617   2.398 -2.4231  0.1522 -0.3393
 2066SOL    HW217661   0.324   3.491   2.358  1.5001  2.5443  1.2545
 2067SOL     OW17662   2.532   1.677   2.110  0.5991 -0.1981 -0.0856
 2067SOL    HW117663   2.526   1.719   2.024  1.4399  0.6985  0.3022
 2067SOL    HW217664   2.483   1.595   2.097  2.9776 -1.6106 -0.2208
 2068SOL     OW17665   0.448   0.554   4.797 -0.0079 -0.0761 -0.8072
 2068SOL    HW117666   0.507   0.577   4.725  2.1461 -1.1737  0.6247
 2068SOL    HW217667   0.381   0.620   4.781  0.7163  1.0146  0.6773
 2069SOL     OW17668   3.233   1.126   8.077  0.1166  0.2465  0.6687
 2069SOL    HW117669   3.143   1.157   8.069  0.1237 -0.1819 -1.0893
 2069SOL    HW217670   3.220   1.032   8.087  2.9401 -0.2138  0.2262
 2070SOL     OW17671   0.887   0.658   6.789 -0.1815  0.5938  0.2168
 2070SOL    HW117672   0.817   0.638   6.852  1.3778 -0.4776  1.5953
 2070SOL    HW217673   0.866   0.597   6.718  0.1336 -0.1589  0.7634
 2071SOL     OW17674   3.616   1.102   4.006  0.8950  0.3032 -0.1537
 2071SOL    HW117675   3.702   1.116   3.965  0.8192  0.6039 -0.2113
 2071SOL    HW217676   3.642   1.097   4.098  0.6143  1.2695 -0.0279
 2072SOL     OW17677   1.434   2.143  12.097  0.2769 -0.3941 -0.0673
 2072SOL    HW117678   1.341   2.147  12.117 -0.0941 -0.8190 -1.6941
 2072SOL    HW217679   1.453   2.236  12.082  2.1788 -0.5187  1.5584
 2073SOL     OW17680   1.217   3.250   8.909 -0.4188 -0.3187  0.1412
 2073SOL    HW117681   1.248   3.195   8.982  0.6184 -0.5760 -0.4978
 2073SOL    HW217682   1.186   3.184   8.847 -0.7913  1.2641 -1.3403
 2074SOL     OW17683   0.170   4.691   2.516  0.3860 -0.4360 -0.1854
 2074SOL    HW117684   0.200   4.658   2.431 -0.3352  2.2672 -1.4995
 2074SOL    HW217685   0.079   4.661   2.506  0.3073 -1.1553  2.9466
 2075SOL     OW17686   2.979   1.743   6.201  0.1467 -0.1410 -0.4007
 2075SOL    HW117687   2.896   1.779   6.233 -0.3957 -0.0875 -1.8964
 2075SOL    HW217688   3.047   1.794   6.246  0.0324 -1.5139  1.3457
 2076SOL     OW17689   0.732   4.589   7.688  0.1352  0.7998 -0.1702
 2076SOL    HW117690   0.691   4.546   7.764  1.4278 -1.7275 -0.9188
 2076SOL    HW217691   0.805   4.532   7.667 -1.8236 -1.0810 -1.9513
 2077SOL     OW17692   1.248   2.933   9.764  0.4469  0.6801 -0.0743
 2077SOL    HW117693   1.235   2.892   9.849 -1.4937  1.7265  0.1217
 2077SOL    HW217694   1.224   2.862   9.705  0.8693 -1.1353  1.9334
 2078SOL     OW17695   3.234   2.253  10.046 -0.0573  0.1456 -0.3409
 2078SOL    HW117696   3.241   2.346  10.027 -2.6616  0.3292 -0.4215
 2078SOL    HW217697   3.176   2.216   9.980  0.7689  1.4020 -1.7508
 2079SOL     OW17698   2.852   4.663   3.172  0.2749 -0.3144  0.7875
 2079SOL    HW117699   2.917   4.668   3.242  0.2633 -1.4747  0.8699
 2079SOL    HW217700   2.901   4.605   3.114 -0.9179  1.9768 -2.4783
 2080SOL     OW17701   3.382   3.986  15.981 -0.2740 -0.1285 -0.9569
 2080SOL    HW117702   3.301   3.939  15.962 -2.0290  2.3796  0.3541
 2080SOL    HW217703   3.378   3.982  16.077  0.5543  2.4852 -0.8009
 2081SOL     OW17704   4.288   0.133   1.859 -0.5476  0.3033  0.5334
 2081SOL    HW117705   4.343   0.153   1.935 -0.4753  1.9641  0.0475
 2081SOL    HW217706   4.219   0.194   1.886 -1.1156 -1.5424  3.2794
 2082SOL     OW17707   3.536   0.018   4.184 -0.6362 -0.2170  0.2816
 2082SOL    HW117708   3.557   4.709   4.095  0.3357 -2.6287  1.2494
 2082SOL    HW217709   3.624   0.004   4.220 -0.0331 -1.6394 -1.7544
 2083SOL     OW17710   1.772   4.674   5.352 -0.3532  0.4445  0.3078
 2083SOL    HW117711   1.842   0.008   5.313  0.3861 -0.4371  0.4588
 2083SOL    HW217712   1.787   4.685   5.447  2.3896 -0.3184 -0.0285
 2084SOL     OW17713   2.144   1.485  15.840 -0.0782 -0.1348 -0.1856
 2084SOL    HW117714   2.101   1.484  15.755  1.0574  0.7766 -0.7756
 2084SOL    HW217715   2.146   1.391  15.860  0.1085  0.0092  0.4526
 2085SOL     OW17716   2.174   3.817  13.668 -0.0556 -0.8740  0.1288
 2085SOL    HW117717   2.121   3.862  13.732  0.8748 -0.7563  0.8171
 2085SOL    HW217718   2.255   3.796  13.715  0.9504 -1.7695 -1.9443
 2086SOL     OW17719   2.837   3.452   7.072  0.0241  0.6851 -0.2910
 2086SOL    HW117720   2.789   3.518   7.122  0.0061  0.0998  0.4734
 2086SOL    HW217721   2.802   3.370   7.107  0.7819  0.0819 -0.9208
 2087SOL     OW17722   1.081   3.716  14.527 -0.2442  0.2389  0.4189
 2087SOL    HW117723   1.060   3.758  14.444  0.0732  0.1611  0.2980
 2087SOL    HW217724   0.992   3.697  14.557  0.1755  0.1520  1.6222
 2088SOL     OW17725   1.693   4.035   6.355  0.0419  0.0605 -0.1224
 2088SOL    HW117726   1.604   4.051   6.387  0.0038 -0.1912 -0.0995
 2088SOL    HW217727   1.728   3.981   6.425 -2.7531 -1.2362  0.2909
 2089SOL     OW17728   3.129   1.601  15.864 -0.4874 -0.2273 -0.3532
 2089SOL    HW117729   3.052   1.574  15.915 -0.1710 -0.4952 -0.0143
 2089SOL    HW217730   3.092   1.672  15.811  1.4676  1.3513  0.3922
 2090SOL     OW17731   3.185   2.788   6.138  0.0838  0.2137  0.3546
 2090SOL    HW117732   3.244   2.758   6.069  1.1344 -1.2707  1.9110
 2090SOL    HW217733   3.157   2.873   6.103 -0.2861  1.1560  2.9281
 2091SOL     OW17734   3.698   1.535   4.675 -0.3544  0.6743  0.5296
 2091SOL    HW117735   3.614   1.500   4.707  0.4173 -0.4246  1.3289
 2091SOL    HW217736   3.736   1.587   4.746  2.6557 -0.2602 -0.3999
 2092SOL     OW17737   4.172   4.031  12.000 -0.0740 -0.0168  0.0528
 2092SOL    HW117738   4.258   4.004  11.967  0.2536  1.2640 -0.1237
 2092SOL    HW217739   4.188   4.108  12.055  2.1678 -1.7649  1.8798
 2093SOL     OW17740   3.456   1.136   5.786  0.0171 -0.3745  0.4620
 2093SOL    HW117741   3.410   1.108   5.865  3.0760 -1.8606  1.7171
 2093SOL    HW217742   3.506   1.214   5.812 -1.8715  0.4292  1.6346
 2094SOL     OW17743   1.503   0.434  12.690  0.5535  0.3559 -0.0273
 2094SOL    HW117744   1.576   0.486  12.656  0.9660  0.3465  0.8503
 2094SOL    HW217745   1.492   0.475  12.775  0.0986  1.1077 -0.4478
 2095SOL     OW17746   2.200   4.119   4.578 -0.5663 -0.7348  0.1674
 2095SOL    HW117747   2.162   4.203   4.605  1.3041  0.6323 -1.4298
 2095SOL    HW217748   2.276   4.146   4.526 -1.4757 -2.3724 -2.0246
 2096SOL     OW17749   2.846   0.840   0.586 -0.0503  0.7981 -0.2045
 2096SOL    HW117750   2.918   0.890   0.546  1.3645 -0.3500  0.8856
 2096SOL    HW217751   2.809   0.901   0.649 -0.4026  1.3036 -0.8953
 2097SOL     OW17752   4.114   1.407   4.835 -0.7700 -0.4232  0.1750
 2097SOL    HW117753   4.086   1.317   4.819  1.3711 -0.9720 -0.4518
 2097SOL    HW217754   4.028   1.447   4.847 -0.5252 -0.2095  1.2480
 2098SOL     OW17755   0.362   3.151   8.065  0.3018 -0.5198  0.2980
 2098SOL    HW117756   0.383   3.072   8.116  1.1970 -0.9989 -0.8249
 2098SOL    HW217757   0.320   3.110   7.989 -2.5379 -1.0990  2.1641
 2099SOL     OW17758   3.431   0.737   6.386 -0.1026  0.6105 -0.9185
 2099SOL    HW117759   3.467   0.755   6.473  0.4296  0.4401 -1.1021
 2099SOL    HW217760   3.489   0.789   6.330 -1.1394  4.2023  1.3056
 2100SOL     OW17761   2.267   3.971   0.658 -0.3540 -0.2975  0.2036
 2100SOL    HW117762   2.307   4.009   0.736  0.0973  2.6607 -1.4819
 2100SOL    HW217763   2.334   3.978   0.589 -0.8333 -1.8090 -0.4279
 2101SOL     OW17764   3.335   0.502   0.101 -0.2219  0.4162  0.1843
 2101SOL    HW117765   3.299   0.492   0.188  0.3991  0.1640  0.4184
 2101SOL    HW217766   3.370   0.591   0.103 -0.8933  0.7872 -3.3771
 2102SOL     OW17767   1.987   3.577   3.530  0.8519  0.0124  0.4403
 2102SOL    HW117768   2.026   3.498   3.493 -1.7420  0.1829 -2.6334
 2102SOL    HW217769   1.930   3.610   3.462  1.7993 -2.0182 -1.3519
 2103SOL     OW17770   2.809   4.360   0.079 -0.5826 -0.3233  0.0578
 2103SOL    HW117771   2.850   4.441   0.110  0.0668 -0.1047 -1.3617
 2103SOL    HW217772   2.887   4.317   0.044 -0.9971 -0.5286 -0.6204
 2104SOL     OW17773   3.522   4.206   7.640 -0.1891 -0.5386  0.1960
 2104SOL    HW117774   3.502   4.188   7.548  1.6766  0.1906 -0.3468
 2104SOL    HW217775   3.463   4.140   7.677  0.5916 -0.6849  1.1769
 2105SOL     OW17776   2.859   1.310   2.043 -0.2156 -0.0052 -0.1919
 2105SOL    HW117777   2.798   1.383   2.031 -0.2908  0.1675  1.2317
 2105SOL    HW217778   2.943   1.346   2.016 -0.6346  1.3708  0.3558
 2106SOL     OW17779   1.175   4.538   1.085 -0.0380  0.1955 -0.0993
 2106SOL    HW117780   1.171   4.478   1.012 -1.9093  0.5280 -0.2686
 2106SOL    HW217781   1.199   4.482   1.159  0.9642 -1.7308 -1.8776
 2107SOL     OW17782   2.310   1.853   4.375  0.5136 -0.0641 -0.1027
 2107SOL    HW117783   2.371   1.926   4.359 -1.7396  1.5193 -1.5000
 2107SOL    HW217784   2.342   1.836   4.463  2.6634 -1.4107 -1.1500
 2108SOL     OW17785   3.139   2.895  10.910 -0.2600 -0.3411  0.0221
 2108SOL    HW117786   3.061   2.839  10.902 -1.7491  1.3675  2.2765
 2108SOL    HW217787   3.137   2.933  10.822 -1.2913  2.3882  1.2177
 2109SOL     OW17788   0.037   1.969   2.638 -0.6153 -0.6736 -0.4147
 2109SOL    HW117789   0.059   1.958   2.731 -1.6198  0.6693 -0.0244
 2109SOL    HW217790   4.699   2.046   2.636  0.6169  0.2267 -0.1449
 2110SOL     OW17791   1.524   0.352  14.159 -0.0834 -0.0662  0.0916
 2110SOL    HW117792   1.508   0.367  14.252 -3.0204  0.2133 -0.4593
 2110SOL    HW217793   1.461   0.281  14.146 -0.3156 -0.3403  2.7427
 2111SOL     OW17794   3.410   4.671   9.752 -0.2222  0.5661  0.3213
 2111SOL    HW117795   3.477   0.003   9.798 -1.7645  4.5640 -1.8664
 2111SOL    HW217796   3.366   4.620   9.821  2.0381 -2.3425 -0.3673
 2112SOL     OW17797   2.112   3.646   6.659 -0.5424  0.3731  0.5992
 2112SOL    HW117798   2.184   3.586   6.674  0.0318  0.0988 -3.1132
 2112SOL    HW217799   2.049   3.582   6.690 -0.6604 -0.5365 -1.4782
 2113SOL     OW17800   3.329   2.697   7.621  0.2509 -0.2293  0.1422
 2113SOL    HW117801   3.362   2.786   7.632 -0.8001  0.3645 -1.4608
 2113SOL    HW217802   3.400   2.652   7.668 -0.6010  0.2918  1.9316
 2114SOL     OW17803   0.504   1.732  12.594  0.0850  0.8288 -0.0114
 2114SOL    HW117804   0.532   1.823  12.587  2.2826  0.2201  1.0175
 2114SOL    HW217805   0.565   1.705  12.663 -1.6365 -0.6721  0.9200
 2115SOL     OW17806   2.966   3.351   8.373  0.0670  0.1188 -0.3461
 2115SOL    HW117807   2.937   3.328   8.284  0.4316 -0.5470 -0.2998
 2115SOL    HW217808   2.969   3.446   8.376 -1.4890  0.1623 -0.1404
 2116SOL     OW17809   2.313   0.540   5.796  0.1354 -0.0924  0.2806
 2116SOL    HW117810   2.218   0.536   5.812  0.3586 -2.1453  1.2112
 2116SOL    HW217811   2.322   0.494   5.712  0.4280 -1.8683  1.2894
 2117SOL     OW17812   0.203   0.783   2.018  0.4279 -0.4357 -0.2148
 2117SOL    HW117813   0.109   0.780   2.003  0.3404  2.1177 -0.2242
 2117SOL    HW217814   0.239   0.802   1.931  0.8030  0.6923  0.1904
 2118SOL     OW17815   1.605   4.498  16.441  0.6399  0.4709  0.0227
 2118SOL    HW117816   1.623   4.537  16.526  0.8790 -1.2012  0.7336
 2118SOL    HW217817   1.672   4.432  16.424  0.0066 -0.2166  0.1823
 2119SOL     OW17818   2.425   4.033   8.800 -0.0853  0.2486 -0.1411
 2119SOL    HW117819   2.345   4.075   8.831  0.3324  0.1968  0.9905
 2119SOL    HW217820   2.500   4.047   8.857  0.1741 -0.7384 -0.2262
 2120SOL     OW17821   1.018   2.617  10.973  0.4595 -0.4303  0.0102
 2120SOL    HW117822   1.078   2.554  11.012  1.0763 -0.4380 -0.9330
 2120SOL    HW217823   1.058   2.609  10.886  0.4127  1.9126 -0.2263
 2121SOL     OW17824   1.039   3.222   5.251  0.0346  0.3869  0.4263
 2121SOL    HW117825   1.118   3.274   5.268 -0.6137  1.3389  0.5578
 2121SOL    HW217826   1.027   3.181   5.337 -1.1690 -0.1842 -0.0032
 2122SOL     OW17827   3.777   4.689   7.078  0.1022  0.4262 -0.2806
 2122SOL    HW117828   3.794   0.047   7.133 -0.8507  1.2121 -1.0802
 2122SOL    HW217829   3.866   4.654   7.082 -0.2631 -0.3346  1.1410
 2123SOL     OW17830   1.100   3.802   8.655 -0.3542 -0.6097 -0.0543
 2123SOL    HW117831   1.084   3.798   8.561  1.6541 -0.7976 -0.3856
 2123SOL    HW217832   1.088   3.710   8.680 -1.3804 -1.0440 -2.1503
 2124SOL     OW17833   1.613   4.487  17.191  0.2765  0.7944  0.6863
 2124SOL    HW117834   1.679   4.530  17.244 -0.3904  3.4910 -0.6413
 2124SOL    HW217835   1.554   4.557  17.164 -1.8652 -0.7294  1.4120
 2125SOL     OW17836   1.084   2.048   1.866  0.0792 -0.2515 -0.3077
 2125SOL    HW117837   1.135   2.074   1.942 -1.2500  0.1868  0.4289
 2125SOL    HW217838   1.113   1.957   1.854  1.4710  0.2336 -0.6083
 2126SOL     OW17839   4.652   3.815   5.574 -0.4739 -0.3923 -0.0897
 2126SOL    HW117840   4.566   3.832   5.536 -0.0635  0.5736 -0.5813
 2126SOL    HW217841   4.620   3.774   5.655  1.8030 -1.8126  0.1037
 2127SOL     OW17842   0.708   4.329   5.906 -0.1989 -0.2620 -0.0994
 2127SOL    HW117843   0.762   4.251   5.919 -0.4843 -0.7803 -2.0275
 2127SOL    HW217844   0.623   4.286   5.921 -0.5768  0.0111 -1.5300
 2128SOL     OW17845   3.220   2.923   3.284 -0.2544 -0.2811  0.2471
 2128SOL    HW117846   3.260   2.893   3.366  1.2826 -3.6056 -1.7128
 2128SOL    HW217847   3.280   2.993   3.260  0.1362 -1.2683 -1.6184
 2129SOL     OW17848   3.147   1.903  17.182  0.3313  0.6350  0.3191
 2129SOL    HW117849   3.059   1.893  17.144  0.4454  1.4434 -0.1615
 2129SOL    HW217850   3.169   1.811  17.168 -1.1144  0.3742 -0.2757
 2130SOL     OW17851   4.615   2.590   5.930 -0.4894 -0.0883  0.0965
 2130SOL    HW117852   4.683   2.623   5.988  1.0134 -1.5911 -0.7809
 2130SOL    HW217853   4.553   2.661   5.918  0.7521  0.8736 -0.5973
 2131SOL     OW17854   1.136   2.305   1.674  0.3432 -0.8641  0.0028
 2131SOL    HW117855   1.072   2.243   1.638  0.2286  0.4508 -2.0698
 2131SOL    HW217856   1.222   2.282   1.638  0.6567 -0.4136  0.4721
 2132SOL     OW17857   4.167   4.616   8.839 -0.2020 -0.2013 -0.5197
 2132SOL    HW117858   4.191   4.639   8.750 -0.9482  2.8340  0.0592
 2132SOL    HW217859   4.228   4.665   8.895 -1.5936 -0.3756  1.1675
 2133SOL     OW17860   2.724   1.408   2.664  0.4604 -0.0331 -0.0386
 2133SOL    HW117861   2.679   1.327   2.689 -0.4420  0.2051 -0.8842
 2133SOL    HW217862   2.785   1.378   2.598 -0.3354  1.2239 -1.3454
 2134SOL     OW17863   2.214   1.877   8.060 -0.1880 -0.6902  0.0120
 2134SOL    HW117864   2.279   1.808   8.043  1.3190  0.7088  0.1789
 2134SOL    HW217865   2.129   1.833   8.063  0.5934 -2.3809 -2.1388
 2135SOL     OW17866   4.554   0.783   2.454  0.2960 -0.2582 -0.1756
 2135SOL    HW117867   4.618   0.807   2.521  0.6547  0.0523 -0.6335
 2135SOL    HW217868   4.597   0.775   2.369  0.1705  3.4989 -0.5834
 2136SOL     OW17869   0.154   2.606   7.156 -0.0308 -0.2474 -0.0860
 2136SOL    HW117870   0.189   2.558   7.231 -0.9663  1.0668  1.1943
 2136SOL    HW217871   0.191   2.558   7.083  0.1085  0.1696 -0.2936
 2137SOL     OW17872   1.547   0.990  13.371  0.6052 -0.7098 -0.0710
 2137SOL    HW117873   1.561   0.908  13.324  2.1634 -1.4300  1.6596
 2137SOL    HW217874   1.460   1.014  13.339  1.3819 -0.1287 -1.7372
 2138SOL     OW17875   4.608   4.330  16.139 -0.2845 -0.1598 -0.1450
 2138SOL    HW117876   4.580   4.382  16.214 -1.5327 -2.6259  1.0886
 2138SOL    HW217877   4.574   4.386  16.069 -1.5320 -1.3755 -0.5130
 2139SOL     OW17878   1.854   3.904   1.472  0.7855 -0.3844  0.3420
 2139SOL    HW117879   1.949   3.914   1.482  0.9188  0.4306 -1.7830
 2139SOL    HW217880   1.821   3.958   1.544 -0.7025 -0.6725 -0.1119
 2140SOL     OW17881   4.334   1.999  14.758 -0.3246 -0.3935  0.1659
 2140SOL    HW117882   4.427   2.012  14.738 -0.6722 -0.3286 -1.4413
 2140SOL    HW217883   4.303   1.959  14.676  3.0299 -2.3472 -0.1371
 2141SOL     OW17884   2.636   3.938  11.721 -0.3872 -0.1403 -0.4329
 2141SOL    HW117885   2.547   3.923  11.689 -0.0907 -1.1894 -0.7519
 2141SOL    HW217886   2.639   3.865  11.782 -0.5003 -1.1543 -1.6284
 2142SOL     OW17887   0.934   1.485   0.532  0.3135  0.3193 -0.2224
 2142SOL    HW117888   0.894   1.399   0.520  0.5217  0.2608 -0.5010
 2142SOL    HW217889   0.880   1.539   0.475 -0.3168 -0.4814 -0.3720
 2143SOL     OW17890   2.344   1.372   5.570 -0.4313  0.3973  0.3775
 2143SOL    HW117891   2.393   1.381   5.488  0.5694  0.1798  0.9558
 2143SOL    HW217892   2.355   1.466   5.584  1.9734  0.4996 -2.2974
 2144SOL     OW17893   1.461   3.092  13.557 -0.1624  0.6526  0.1804
 2144SOL    HW117894   1.479   3.055  13.644 -0.5729 -0.8479 -0.3769
 2144SOL    HW217895   1.383   3.044  13.528 -0.3991  1.5465 -0.6250
 2145SOL     OW17896   3.510   1.569  17.183  0.0557  0.1114  0.1670
 2145SOL    HW117897   3.594   1.616  17.180  0.4303 -0.4389  1.9639
 2145SOL    HW217898   3.537   1.487  17.223  2.6728  2.7845  3.9594
 2146SOL     OW17899   0.328   0.614   7.643 -0.2645 -0.0887  0.4986
 2146SOL    HW117900   0.258   0.570   7.594  2.2506 -0.9901 -2.3076
 2146SOL    HW217901   0.393   0.646   7.581  0.7348 -2.8300  0.1081
 2147SOL     OW17902   1.166   1.604   4.696 -0.0850  0.1538  0.5854
 2147SOL    HW117903   1.082   1.603   4.650  0.1750  1.8849  0.0748
 2147SOL    HW217904   1.188   1.511   4.691  2.3625  0.7897 -0.6280
 2148SOL     OW17905   3.393   0.236   2.271 -0.0659  0.1392 -0.2016
 2148SOL    HW117906   3.473   0.248   2.322  0.0094 -1.0298 -0.0550
 2148SOL    HW217907   3.334   0.306   2.298 -0.0391 -0.1738  0.6480
 2149SOL     OW17908   4.147   1.263   7.532  0.0155  0.1746 -0.7934
 2149SOL    HW117909   4.063   1.218   7.539  0.6514 -0.7969  0.4662
 2149SOL    HW217910   4.112   1.351   7.524 -0.2467 -0.0087 -1.6868
 2150SOL     OW17911   4.182   1.687   2.223  0.6244 -0.1187  0.4162
 2150SOL    HW117912   4.159   1.625   2.292 -2.4629 -0.9206 -1.3376
 2150SOL    HW217913   4.221   1.763   2.268 -0.1350  0.6574 -0.2332
 2151SOL     OW17914   0.082   3.561   0.274 -0.4073  0.5070  0.7496
 2151SOL    HW117915   0.035   3.478   0.269  0.7123 -0.0873  0.2101
 2151SOL    HW217916   0.128   3.562   0.191  1.5935  1.5581  1.8847
 2152SOL     OW17917   1.676   2.569   6.829 -0.1442  0.2915  0.1436
 2152SOL    HW117918   1.611   2.561   6.758 -0.3149  0.3161  0.2966
 2152SOL    HW217919   1.618   2.582   6.904  0.0729  0.5127  0.2742
 2153SOL     OW17920   4.438   0.820  10.934  0.3554 -0.0032 -0.6600
 2153SOL    HW117921   4.460   0.902  10.889 -2.2029  1.2905  0.4157
 2153SOL    HW217922   4.516   0.766  10.927  1.0268  0.8623  0.1764
 2154SOL     OW17923   2.708   4.288   4.375 -0.0166  0.3216  0.3561
 2154SOL    HW117924   2.796   4.255   4.395  1.2180  1.8851 -2.6039
 2154SOL    HW217925   2.678   4.327   4.458 -1.0854 -0.2651  0.2459
 2155SOL     OW17926   1.295   0.767   4.532  0.0580  0.2124  0.4088
 2155SOL    HW117927   1.221   0.816   4.567 -0.6365 -2.0158  1.9655
 2155SOL    HW217928   1.338   0.832   4.475  0.1711  0.4642  0.7797
 2156SOL     OW17929   4.034   1.590   9.023 -0.3527 -0.4666  0.1948
 2156SOL    HW117930   4.056   1.592   8.930 -0.0890 -0.4052  0.2572
 2156SOL    HW217931   3.949   1.633   9.020  0.4283  1.0249 -0.2634
 2157SOL     OW17932   0.141   2.700   7.660  0.1851  0.3818 -0.0082
 2157SOL    HW117933   0.154   2.606   7.652 -0.3444  0.5709 -2.9194
 2157SOL    HW217934   0.084   2.701   7.737 -1.3075 -0.7456 -1.1267
 2158SOL     OW17935   0.565   0.341   9.528  0.0711 -0.5536  0.4561
 2158SOL    HW117936   0.503   0.284   9.483  0.0027 -0.9301  1.0285
 2158SOL    HW217937   0.646   0.290   9.533  0.1673 -0.2330  2.3375
 2159SOL     OW17938   2.367   2.182   4.107  0.3099 -0.3381 -0.5179
 2159SOL    HW117939   2.408   2.134   4.179 -1.2212 -0.0020  0.5673
 2159SOL    HW217940   2.334   2.267   4.138 -1.3812 -0.8419 -0.9914
 2160SOL     OW17941   3.635   2.496   3.608 -0.2245 -0.7434  0.4358
 2160SOL    HW117942   3.731   2.494   3.601 -0.0886 -0.5108  2.1834
 2160SOL    HW217943   3.620   2.567   3.670  1.5160 -0.9832  1.1240
 2161SOL     OW17944   3.925   0.856  16.365 -0.3109  0.5159  0.1084
 2161SOL    HW117945   4.008   0.812  16.385 -0.2707  0.7723  0.5189
 2161SOL    HW217946   3.882   0.779  16.329  0.0961 -0.9785  2.8398
 2162SOL     OW17947   0.513   3.325  13.580  0.0881  0.6564  0.4997
 2162SOL    HW117948   0.573   3.258  13.612  2.1542  1.8804 -0.7811
 2162SOL    HW217949   0.543   3.340  13.490  0.9863 -0.1230  0.6737
 2163SOL     OW17950   0.281   2.844  14.532 -0.7277 -0.4350 -0.0001
 2163SOL    HW117951   0.223   2.900  14.481  1.0315 -0.2556 -1.7643
 2163SOL    HW217952   0.275   2.879  14.621 -0.5351  0.5654 -0.3903
 2164SOL     OW17953   3.153   4.666   0.367  0.3216 -0.2650  0.2664
 2164SOL    HW117954   3.169   4.690   0.458 -3.3191  0.2838  0.7562
 2164SOL    HW217955   3.090   0.018   0.351  1.2131  0.4894  0.0532
 2165SOL     OW17956   4.406   0.515   4.462 -0.1088 -0.3480 -0.4711
 2165SOL    HW117957   4.357   0.577   4.407  0.6616  0.3770 -0.3407
 2165SOL    HW217958   4.357   0.436   4.437  0.6036 -0.5480 -1.2421
 2166SOL     OW17959   3.510   2.001   2.939 -0.3651 -0.2902 -0.6149
 2166SOL    HW117960   3.509   1.990   2.844 -1.9866 -1.4359 -0.4534
 2166SOL    HW217961   3.499   1.909   2.965  0.6502 -0.0408  0.7376
 2167SOL     OW17962   0.992   1.214   4.570  0.0728 -0.1991 -0.2016
 2167SOL    HW117963   0.938   1.263   4.633  0.4419 -2.3550  1.7680
 2167SOL    HW217964   0.925   1.159   4.530  0.6903 -1.4306  0.4634
 2168SOL     OW17965   1.338   0.169   5.205  0.2121 -0.2392  0.6995
 2168SOL    HW117966   1.267   0.194   5.145  0.4896 -0.8604  0.1074
 2168SOL    HW217967   1.385   0.249   5.229 -0.7404  0.8386 -1.0313
 2169SOL     OW17968   3.171   1.133   2.222 -0.2366 -0.0735 -0.5952
 2169SOL    HW117969   3.157   1.104   2.132  1.9757  0.2392 -1.0509
 2169SOL    HW217970   3.098   1.091   2.267 -0.6004 -0.0559 -1.1675
 2170SOL     OW17971   3.005   3.673   5.428 -0.3522  0.4595  0.0842
 2170SOL    HW117972   3.007   3.758   5.384 -3.1277  0.6183  0.2650
 2170SOL    HW217973   2.955   3.681   5.509  0.4472 -1.7338  0.7654
 2171SOL     OW17974   0.398   0.856  17.124  0.1248  0.0087 -0.1185
 2171SOL    HW117975   0.467   0.920  17.140  1.5521 -1.2356 -1.2840
 2171SOL    HW217976   0.343   0.902  17.060 -0.4600  0.5521  0.7824
 2172SOL     OW17977   3.169   0.225   0.002  0.3582  0.3351 -0.7990
 2172SOL    HW117978   3.202   0.306  17.639  1.8883  0.4757  0.8206
 2172SOL    HW217979   3.079   0.226  17.645  0.0266  1.9643  0.1498
 2173SOL     OW17980   2.077   0.154  12.668  0.3621  0.1642 -0.4203
 2173SOL    HW117981   2.027   0.077  12.694 -2.0556  0.9453 -2.7430
 2173SOL    HW217982   2.024   0.222  12.709  0.1948  0.7617 -1.6621
 2174SOL     OW17983   2.655   0.461   5.576  0.0448 -0.4264 -0.1422
 2174SOL    HW117984   2.707   0.389   5.611 -1.7972 -1.0663  1.2622
 2174SOL    HW217985   2.567   0.440   5.607  0.2343  1.0077  1.3802
 2175SOL     OW17986   4.303   3.284   8.600 -0.1078  0.1588  0.5829
 2175SOL    HW117987   4.353   3.238   8.533  0.3959 -1.0943  1.8340
 2175SOL    HW217988   4.345   3.369   8.596  0.4842 -0.1803 -0.5645
 2176SOL     OW17989   4.166   0.384   4.346  0.0111  0.1866 -0.1306
 2176SOL    HW117990   4.116   0.437   4.407  1.6142  1.3724  0.1680
 2176SOL    HW217991   4.106   0.377   4.272  0.3533  0.6886 -0.4574
 2177SOL     OW17992   1.698   4.172  13.446 -0.1934 -0.3747 -0.4260
 2177SOL    HW117993   1.680   4.078  13.455  5.5094 -1.4940 -1.0097
 2177SOL    HW217994   1.623   4.197  13.392 -0.9931 -1.3077  0.2302
 2178SOL     OW17995   4.004   1.608   4.201  0.3778 -0.4208  0.2775
 2178SOL    HW117996   3.931   1.567   4.156 -1.2001  2.7427 -0.0373
 2178SOL    HW217997   4.082   1.575   4.157 -0.4452 -1.5616 -0.3298
 2179SOL     OW17998   1.248   2.626   2.942 -0.3208 -0.2453  0.8874
 2179SOL    HW117999   1.327   2.581   2.973  0.4819  0.8126  0.3782
 2179SOL    HW218000   1.191   2.550   2.956  0.0438 -0.5346  0.8356
 2180SOL     OW18001   3.177   0.693  11.842 -0.8256  0.0864  0.1809
 2180SOL    HW118002   3.220   0.617  11.882  1.5984  0.3232 -2.0168
 2180SOL    HW218003   3.093   0.661  11.809 -0.8421  0.3088  0.0077
 2181SOL     OW18004   4.404   2.820   9.223  0.3221  0.4796  0.0350
 2181SOL    HW118005   4.375   2.745   9.274  0.0978  0.6327  0.1321
 2181SOL    HW218006   4.479   2.857   9.271  0.0162  0.0463  0.8386
 2182SOL     OW18007   2.053   4.238   0.279  0.2964 -0.1210  0.9150
 2182SOL    HW118008   1.968   4.194   0.282 -0.0121  0.4674  0.8219
 2182SOL    HW218009   2.042   4.299   0.353 -1.2628 -0.7485  1.2075
 2183SOL     OW18010   1.841   0.299   9.559  0.2104 -0.0454  0.4847
 2183SOL    HW118011   1.859   0.344   9.476 -1.4169  1.3794  0.8988
 2183SOL    HW218012   1.914   0.340   9.606  0.8075  1.0841 -1.4097
 2184SOL     OW18013   2.197   0.340   4.226  0.5630 -0.2344 -0.1294
 2184SOL    HW118014   2.291   0.357   4.234  0.2061  0.9461  1.7875
 2184SOL    HW218015   2.172   0.413   4.170  0.8821  0.1207  0.1919
 2185SOL     OW18016   2.483   3.035   4.688 -0.7226 -0.1081  0.3300
 2185SOL    HW118017   2.507   3.117   4.730 -1.6570  0.0596  0.5328
 2185SOL    HW218018   2.551   3.017   4.623 -0.8632 -1.0744  0.4506
 2186SOL     OW18019   3.094   1.957   2.587  0.0777  0.2493  0.1937
 2186SOL    HW118020   3.153   1.992   2.521 -0.9576  0.3999 -0.6591
 2186SOL    HW218021   3.128   1.996   2.667  0.3062  0.2646  0.0895
 2187SOL     OW18022   0.767   1.933   6.703 -0.1429  0.2001  0.0288
 2187SOL    HW118023   0.721   1.995   6.647 -2.5477  0.4272  2.2921
 2187SOL    HW218024   0.777   1.985   6.782 -0.7983 -1.1898  1.0146
 2188SOL     OW18025   4.086   1.493   0.211 -0.1940 -0.0965 -0.1158
 2188SOL    HW118026   4.120   1.432   0.276  0.3441 -0.9847 -1.2229
 2188SOL    HW218027   3.991   1.480   0.207  0.3170 -3.8381 -0.5047
 2189SOL     OW18028   3.647   0.941   4.831 -0.5905  0.1289 -0.2418
 2189SOL    HW118029   3.709   0.965   4.900 -2.0695 -0.4555  1.2936
 2189SOL    HW218030   3.636   0.846   4.841  0.3122  0.1514  0.9665
 2190SOL     OW18031   3.279   0.489   2.183  0.9402  0.7099 -0.5667
 2190SOL    HW118032   3.228   0.418   2.144  1.7667 -1.4093  2.2001
 2190SOL    HW218033   3.233   0.564   2.144  1.7721  1.5232  0.0172
 2191SOL     OW18034   4.326   3.465   5.921 -0.3374  0.7152  0.3351
 2191SOL    HW118035   4.238   3.503   5.926 -1.4662 -1.7872 -0.8522
 2191SOL    HW218036   4.380   3.533   5.962  2.7467 -0.8335 -1.1497
 2192SOL     OW18037   0.040   3.783   6.406  0.2685  0.2747  0.2046
 2192SOL    HW118038   0.063   3.876   6.401  0.1327  0.2839 -0.2596
 2192SOL    HW218039   0.129   3.751   6.392 -0.8920 -2.9411  0.1621
 2193SOL     OW18040   3.142   4.715   1.556  0.5113 -0.6653  0.4307
 2193SOL    HW118041   3.221   4.710   1.501 -0.9573 -0.3067 -1.7141
 2193SOL    HW218042   3.163   0.074   1.609 -0.2466 -0.8314  0.9707
 2194SOL     OW18043   3.719   4.238   4.177 -0.5168 -0.1761  0.5174
 2194SOL    HW118044   3.771   4.260   4.100 -1.9552  2.0628  0.1885
 2194SOL    HW218045   3.753   4.151   4.201 -0.3443  0.4752  2.6567
 2195SOL     OW18046   4.303   2.709   2.079  0.6601  0.0777  0.7281
 2195SOL    HW118047   4.256   2.721   1.997  1.6928  2.5880  0.4994
 2195SOL    HW218048   4.393   2.721   2.048  2.1610 -2.4159  4.0269
 2196SOL     OW18049   4.695   2.453   6.835  0.2846  0.5065 -0.1295
 2196SOL    HW118050   0.006   2.366   6.809 -0.1301  0.3006  0.0999
 2196SOL    HW218051   0.053   2.479   6.886  0.4664  1.7981 -1.0450
 2197SOL     OW18052   4.517   2.880   0.436  0.4844 -0.0934  0.6265
 2197SOL    HW118053   4.433   2.920   0.413  0.6020 -0.0126  0.3411
 2197SOL    HW218054   4.484   2.808   0.490 -0.8321 -0.1912 -0.3065
 2198SOL     OW18055   1.316   2.577  11.832  0.2773 -0.2505  0.5595
 2198SOL    HW118056   1.352   2.518  11.898  3.5598  0.3661 -0.6670
 2198SOL    HW218057   1.332   2.664  11.870 -0.3300 -0.7743  1.9961
 2199SOL     OW18058   2.728   1.204   3.142  0.3006  0.2885 -0.1721
 2199SOL    HW118059   2.666   1.258   3.191  0.2098 -0.4788  0.5662
 2199SOL    HW218060   2.798   1.224   3.204 -0.1145 -1.4827  0.8959
 2200SOL     OW18061   2.194   4.102   2.531  0.3528 -0.2453  0.0137
 2200SOL    HW118062   2.251   4.158   2.584  1.1944  0.1767 -1.3147
 2200SOL    HW218063   2.196   4.152   2.449 -0.3275 -0.1319  0.0687
 2201SOL     OW18064   1.294   4.324   4.456 -0.1681 -0.2534 -0.1934
 2201SOL    HW118065   1.336   4.249   4.414 -1.0881 -2.2782  2.4266
 2201SOL    HW218066   1.371   4.374   4.482 -0.6757 -0.2263  1.3058
 2202SOL     OW18067   2.000   4.520   2.391  0.0109 -0.2738  0.1531
 2202SOL    HW118068   2.041   4.550   2.473 -0.7360  0.8977  0.1094
 2202SOL    HW218069   2.031   4.589   2.332  1.7106  0.3870  1.8304
 2203SOL     OW18070   1.844   3.376   5.329  0.0565  0.2420 -0.6935
 2203SOL    HW118071   1.880   3.454   5.286  1.1217  0.2109  0.1130
 2203SOL    HW218072   1.829   3.325   5.250 -0.3981  0.1972 -0.5751
 2204SOL     OW18073   1.564   1.759   5.045 -0.1249  0.6434 -0.1518
 2204SOL    HW118074   1.632   1.721   4.990 -0.1014 -0.3108  0.5333
 2204SOL    HW218075   1.486   1.742   4.994 -0.8377  0.5135  0.9752
 2205SOL     OW18076   0.741   3.593   9.048  0.2115 -0.7745  0.8287
 2205SOL    HW118077   0.697   3.551   9.122  0.0528 -1.0200  0.5960
 2205SOL    HW218078   0.699   3.679   9.051  1.3911 -0.1022 -1.5978
 2206SOL     OW18079   3.383   4.716   2.447  0.2823 -0.1034 -0.7956
 2206SOL    HW118080   3.445   0.019   2.516  1.1578  0.7112 -1.8279
 2206SOL    HW218081   3.346   0.083   2.425 -0.3125  0.9041  4.2369
 2207SOL     OW18082   0.509   3.281  11.466 -0.4951  0.4960  0.5614
 2207SOL    HW118083   0.471   3.367  11.451  3.0795  2.0749  0.7518
 2207SOL    HW218084   0.598   3.294  11.497  0.0820 -1.9800 -0.0351
 2208SOL     OW18085   2.195   1.792   1.759  0.7902  0.1358 -0.2456
 2208SOL    HW118086   2.219   1.847   1.833  0.1620 -0.9898  0.8066
 2208SOL    HW218087   2.100   1.782   1.772  1.1179  0.0101  1.9196
 2209SOL     OW18088   0.536   3.990   5.919  0.9199  0.1638 -0.2789
 2209SOL    HW118089   0.565   4.003   5.828  0.3436 -2.5656 -0.8543
 2209SOL    HW218090   0.535   3.895   5.934 -1.4785  0.1766 -0.3914
 2210SOL     OW18091   4.175   2.738  11.595  0.4794 -0.1771 -0.3122
 2210SOL    HW118092   4.226   2.687  11.658  1.5481 -0.6733 -1.5932
 2210SOL    HW218093   4.138   2.808  11.649 -2.1011 -1.4020 -0.4715
 2211SOL     OW18094   3.994   4.488   7.552  0.5539  0.5316  0.5755
 2211SOL    HW118095   3.921   4.428   7.536 -0.7996  2.1870  0.5394
 2211SOL    HW218096   3.947   4.570   7.533  2.1941  0.8753 -2.0854
 2212SOL     OW18097   4.586   4.324  16.755  0.0021 -0.1147  0.3701
 2212SOL    HW118098   4.503   4.357  16.791 -0.7721 -0.0697 -1.4763
 2212SOL    HW218099   4.639   4.321  16.835  1.0190  0.0892 -0.2946
 2213SOL     OW18100   3.817   2.660   9.298 -0.3344 -0.2263 -0.1441
 2213SOL    HW118101   3.793   2.697   9.214 -0.5922  1.0879  0.5124
 2213SOL    HW218102   3.873   2.729   9.334  1.1984 -1.7456  0.3753
 2214SOL     OW18103   2.076   0.292   6.323  0.4189 -0.5360 -0.0834
 2214SOL    HW118104   2.067   0.205   6.362 -0.5929 -1.8759 -3.2958
 2214SOL    HW218105   2.041   0.343   6.395  2.1337 -1.3942  1.3773
 2215SOL     OW18106   1.955   1.009  13.601  0.2856  0.3191 -0.1989
 2215SOL    HW118107   1.955   0.919  13.633 -2.2837  1.1203  2.0478
 2215SOL    HW218108   2.014   1.002  13.526 -1.1769  1.5377 -1.4771
 2216SOL     OW18109   0.366   3.706  15.838 -0.1850  0.2654 -0.1240
 2216SOL    HW118110   0.284   3.708  15.790  0.4029  0.2242 -1.1453
 2216SOL    HW218111   0.374   3.615  15.865 -3.5576 -0.1075 -0.5007
 2217SOL     OW18112   1.758   3.439   0.734  0.1861  0.1476  0.4940
 2217SOL    HW118113   1.675   3.420   0.779  1.0520 -0.7221  1.7238
 2217SOL    HW218114   1.797   3.490   0.804 -2.7587  0.5657  1.8207
 2218SOL     OW18115   1.773   1.069   8.558  0.1661  0.6003 -0.2659
 2218SOL    HW118116   1.825   1.032   8.487 -0.6218  0.8839 -0.9849
 2218SOL    HW218117   1.690   1.083   8.514 -1.5126 -1.2493  2.3376
 2219SOL     OW18118   4.461   0.898   8.594  0.4527 -0.3094  0.1097
 2219SOL    HW118119   4.492   0.966   8.533  0.7010 -0.3764  0.1624
 2219SOL    HW218120   4.544   0.885   8.639 -0.0448  1.8719  1.6852
 2220SOL     OW18121   2.819   0.243   0.149 -0.0278 -0.4812 -0.9700
 2220SOL    HW118122   2.748   0.303   0.170  0.4744 -0.3145  0.2415
 2220SOL    HW218123   2.838   0.269   0.059  1.1564  1.3192 -0.1796
 2221SOL     OW18124   2.892   0.388  15.271  0.0130 -0.0312 -0.0836
 2221SOL    HW118125   2.857   0.403  15.184 -0.2085  0.9675  0.1744
 2221SOL    HW218126   2.983   0.417  15.261 -0.0888 -0.3874 -2.0406
 2222SOL     OW18127   0.303   2.418   9.508  0.3635  0.6561  0.0830
 2222SOL    HW118128   0.239   2.482   9.539  1.7454  2.0452  0.0828
 2222SOL    HW218129   0.384   2.452   9.545  1.0360  0.8932 -1.6008
 2223SOL     OW18130   0.973   3.165   0.280 -0.4358  0.4097  0.0440
 2223SOL    HW118131   0.893   3.217   0.280 -0.3908  0.4607  2.6712
 2223SOL    HW218132   1.016   3.175   0.365 -2.8143  0.3686  1.2500
 2224SOL     OW18133   1.201   4.159   3.820 -0.5366  0.3173  0.2315
 2224SOL    HW118134   1.270   4.222   3.795 -1.5013  0.3655 -2.3057
 2224SOL    HW218135   1.189   4.192   3.909  1.3670  1.0825  0.2238
 2225SOL     OW18136   0.376   0.668  17.318  0.3970  0.3436  0.5007
 2225SOL    HW118137   0.404   0.731  17.251 -1.8175  1.0369  0.2414
 2225SOL    HW218138   0.290   0.704  17.338  1.2264  2.1972  0.7954
 2226SOL     OW18139   1.775   1.408   1.648  0.2964 -0.0717 -0.1032
 2226SOL    HW118140   1.807   1.339   1.590  0.9182 -1.1514  1.5420
 2226SOL    HW218141   1.848   1.470   1.651 -0.3179  0.5944  1.1848
 2227SOL     OW18142   2.308   3.083   1.993  0.2269 -0.0775  0.0667
 2227SOL    HW118143   2.264   3.016   1.941 -1.2075  0.2764  0.8341
 2227SOL    HW218144   2.236   3.095   2.054 -0.7162  2.1334 -1.4705
 2228SOL     OW18145   3.619   4.125  17.453  0.2027 -0.6972  0.3189
 2228SOL    HW118146   3.686   4.168  17.400  1.2900 -1.3518  1.1502
 2228SOL    HW218147   3.672   4.048  17.476  0.5482 -0.2107  1.1352
 2229SOL     OW18148   3.451   0.951   1.222 -0.0626  0.0873 -0.2913
 2229SOL    HW118149   3.378   0.889   1.223 -0.0400  0.1005  2.2778
 2229SOL    HW218150   3.515   0.905   1.277 -2.5829 -1.8491  1.0202
 2230SOL     OW18151   4.191   0.841   4.768 -0.2985  0.3643  0.0470
 2230SOL    HW118152   4.284   0.850   4.792  0.4001  1.3407 -3.0070
 2230SOL    HW218153   4.203   0.855   4.674 -0.1096  1.6612  0.2591
 2231SOL     OW18154   4.235   2.929   8.729 -0.2771  0.1362 -0.2948
 2231SOL    HW118155   4.253   2.916   8.636  1.5434  1.1625 -0.0773
 2231SOL    HW218156   4.299   2.875   8.777  0.1012 -0.3623 -1.3580
 2232SOL     OW18157   4.364   2.764   6.233 -0.3458 -0.0714 -0.1170
 2232SOL    HW118158   4.281   2.745   6.277 -0.0331  0.8806  0.9025
 2232SOL    HW218159   4.414   2.798   6.307 -0.8923 -1.2918  0.8132
 2233SOL     OW18160   4.679   2.992  12.230 -0.3352  0.7057  0.7077
 2233SOL    HW118161   4.685   3.017  12.322 -1.4278 -0.3851  1.0765
 2233SOL    HW218162   0.028   2.925  12.238 -1.1632 -0.2793 -0.6977
 2234SOL     OW18163   0.651   2.848   8.316 -0.7544 -0.5025 -0.3357
 2234SOL    HW118164   0.733   2.890   8.344 -0.5522 -1.1428  0.0489
 2234SOL    HW218165   0.684   2.833   8.227 -0.3059  0.5350 -0.3440
 2235SOL     OW18166   0.905   4.158   0.980  0.2090 -0.5172  0.0709
 2235SOL    HW118167   0.944   4.216   1.045 -0.9911  0.7716 -0.3567
 2235SOL    HW218168   0.869   4.218   0.915 -0.2892  0.0621  0.8767
 2236SOL     OW18169   2.609   2.918   6.214 -0.5808  0.3963 -0.1629
 2236SOL    HW118170   2.539   2.855   6.198 -0.7415  0.7566 -0.9071
 2236SOL    HW218171   2.575   2.999   6.176  0.3900  1.5190  1.3887
 2237SOL     OW18172   1.161   2.912  16.331 -0.3364  0.4610 -0.0175
 2237SOL    HW118173   1.086   2.853  16.333 -0.0134  0.1500  2.5707
 2237SOL    HW218174   1.211   2.858  16.270 -0.9983 -0.3744  0.1708
 2238SOL     OW18175   2.444   0.021   7.424  0.2776  0.5428  0.4474
 2238SOL    HW118176   2.372   4.717   7.483 -1.3543  0.7572 -1.4426
 2238SOL    HW218177   2.404   4.715   7.340  0.0857 -0.1268  0.7337
 2239SOL     OW18178   3.275   0.322   1.594 -0.0115  0.0445  0.3144
 2239SOL    HW118179   3.209   0.297   1.530  0.2539  3.7926 -1.4265
 2239SOL    HW218180   3.261   0.272   1.674  1.7004 -0.1836  0.4709
 2240SOL     OW18181   2.967   1.057   5.176  0.0329  0.1597  0.2105
 2240SOL    HW118182   2.876   1.080   5.198  0.5812  0.0918  2.5382
 2240SOL    HW218183   3.002   1.032   5.261  0.5613  0.8327  0.1903
 2241SOL     OW18184   0.104   0.915   9.595  0.2796 -0.3081  0.2433
 2241SOL    HW118185   0.189   0.950   9.622 -0.1668  0.9500  0.0228
 2241SOL    HW218186   0.114   0.824   9.626  1.4960 -0.6464 -1.1571
 2242SOL     OW18187   3.841   0.612   8.967 -0.3180 -0.1005  0.2955
 2242SOL    HW118188   3.817   0.551   8.896 -1.2613 -1.0198  1.3960
 2242SOL    HW218189   3.914   0.566   9.008  0.5620 -0.7203 -1.9547
 2243SOL     OW18190   1.181   2.961   1.108 -0.0140 -0.8356 -0.0215
 2243SOL    HW118191   1.274   2.944   1.127  0.0454 -0.3106  0.1610
 2243SOL    HW218192   1.191   2.975   1.013  1.0535 -0.7269  0.0981
 2244SOL     OW18193   1.124   0.447   7.804  0.0877  0.0478  0.7239
 2244SOL    HW118194   1.084   0.361   7.813  0.7878 -0.2454  1.0748
 2244SOL    HW218195   1.218   0.434   7.822  0.2101 -0.4232 -0.2631
 2245SOL     OW18196   0.224   0.406   9.576 -0.1622 -0.1275 -0.0908
 2245SOL    HW118197   0.299   0.453   9.612  0.1489  0.3113 -1.2950
 2245SOL    HW218198   0.262   0.322   9.547  0.1421  1.1483 -3.4266
 2246SOL     OW18199   3.323   3.061   5.677  0.4245 -0.1978  0.3972
 2246SOL    HW118200   3.385   3.129   5.706  0.6510 -1.0565  1.9350
 2246SOL    HW218201   3.372   2.987   5.713  0.0243  0.1511  1.6518
 2247SOL     OW18202   2.358   2.997   1.072  0.2823 -0.7085  0.1028
 2247SOL    HW118203   2.373   2.940   0.997 -2.0652  1.4250 -2.0106
 2247SOL    HW218204   2.413   3.071   1.048  0.1405  0.1778  2.5627
 2248SOL     OW18205   3.104   0.797   2.500 -0.7415 -0.5576  0.4796
 2248SOL    HW118206   3.181   0.775   2.448 -0.7595 -1.4214  0.8078
 2248SOL    HW218207   3.045   0.722   2.487  0.6905 -1.5632 -0.2364
 2249SOL     OW18208   1.307   0.137   8.015  0.6371 -0.0786 -0.4860
 2249SOL    HW118209   1.389   0.111   8.056  0.8079  0.6728 -0.3445
 2249SOL    HW218210   1.265   0.051   8.021 -0.3292  0.2645 -2.3785
 2250SOL     OW18211   2.283   2.509   4.813  0.4083 -0.4793  0.3641
 2250SOL    HW118212   2.250   2.491   4.725 -0.1482  2.0689  0.0438
 2250SOL    HW218213   2.307   2.422   4.845  1.6472  1.3548  4.5198
 2251SOL     OW18214   1.732   3.686   8.101 -0.4774 -0.0749 -0.4158
 2251SOL    HW118215   1.805   3.632   8.069 -0.7476  0.0564 -1.2531
 2251SOL    HW218216   1.664   3.619   8.114 -0.6097  0.4275  1.4146
 2252SOL     OW18217   0.881   0.575   5.067  0.2578  0.0582 -0.5382
 2252SOL    HW118218   0.828   0.575   5.147 -0.1667  0.2703 -0.8153
 2252SOL    HW218219   0.867   0.490   5.025 -2.4293 -0.2060  0.8802
 2253SOL     OW18220   4.607   0.471   7.268 -0.3003 -0.5727  0.3946
 2253SOL    HW118221   4.550   0.500   7.197 -0.7975  0.2468  1.1200
 2253SOL    HW218222   4.544   0.484   7.339 -0.6924 -1.7396  0.2658
 2254SOL     OW18223   2.243   2.842   3.612  0.1332 -0.2280  0.5957
 2254SOL    HW118224   2.339   2.835   3.614  0.1214 -0.8556 -1.8261
 2254SOL    HW218225   2.240   2.891   3.694 -1.0945  0.2505  0.2569
 2255SOL     OW18226   2.086   4.648   1.115  0.2829  0.2311 -0.2887
 2255SOL    HW118227   2.004   4.678   1.075 -1.0336 -1.0043  1.5009
 2255SOL    HW218228   2.069   4.561   1.150 -4.1695  1.0347 -0.4213
 2256SOL     OW18229   3.246   0.185  12.048  0.3919  0.3321 -0.4185
 2256SOL    HW118230   3.210   0.122  11.984 -1.0915 -0.3283  1.0688
 2256SOL    HW218231   3.197   0.148  12.121  0.2475  1.6362  0.1445
 2257SOL     OW18232   0.021   2.257   3.108  0.7565 -0.4480  0.1868
 2257SOL    HW118233   0.066   2.235   3.027 -1.3281 -0.2751 -1.0152
 2257SOL    HW218234   4.650   2.247   3.076 -0.2888  2.0900  2.3291
 2258SOL     OW18235   2.330   2.250  11.615 -0.3371  0.3156 -0.1645
 2258SOL    HW118236   2.356   2.340  11.634  0.5257  0.1398 -0.5194
 2258SOL    HW218237   2.271   2.232  11.688  1.1596  1.4308  1.3253
 2259SOL     OW18238   3.004   4.117   4.165  0.3217 -0.2725 -0.3492
 2259SOL    HW118239   2.913   4.144   4.178 -0.0341 -0.8589 -1.6873
 2259SOL    HW218240   3.013   4.071   4.082 -0.1796 -0.0200 -0.5448
 2260SOL     OW18241   2.870   0.821   4.989  0.2187 -0.2149  0.5860
 2260SOL    HW118242   2.899   0.897   5.038  0.0087  0.0174  0.3472
 2260SOL    HW218243   2.850   0.761   5.061 -2.4612  0.5688  0.5052
 2261SOL     OW18244   0.986   0.122   9.271  0.0019  0.2819 -0.0111
 2261SOL    HW118245   1.037   0.188   9.224  0.8969  0.4506  1.1915
 2261SOL    HW218246   1.010   0.137   9.363 -1.3819 -1.4964  0.6276
 2262SOL     OW18247   4.025   2.387   8.897 -0.3002  0.0203  0.1441
 2262SOL    HW118248   4.013   2.292   8.897  0.2786 -0.0796  3.3924
 2262SOL    HW218249   3.980   2.407   8.979 -0.5867  1.9023 -0.4796
 2263SOL     OW18250   2.374   2.381  12.219  0.5503 -0.4487 -0.2413
 2263SOL    HW118251   2.311   2.443  12.182  1.1555 -0.5441 -1.4084
 2263SOL    HW218252   2.312   2.342  12.282  0.7306  1.4564  1.1441
 2264SOL     OW18253   3.014   2.933   4.476 -0.3548 -0.0249  0.0159
 2264SOL    HW118254   2.939   2.882   4.507 -1.3450  0.6832 -1.1973
 2264SOL    HW218255   2.999   3.027   4.491  0.4410 -0.0141  0.6905
 2265SOL     OW18256   2.997   0.406  11.731  0.0402 -0.2736  0.2023
 2265SOL    HW118257   2.937   0.476  11.758  1.0299  0.2225  1.1404
 2265SOL    HW218258   3.024   0.451  11.652  1.3561  0.4090  1.0470
 2266SOL     OW18259   1.011   0.658   7.717  0.4018  0.0640  0.4944
 2266SOL    HW118260   0.917   0.649   7.705  0.1561 -0.8143  3.2263
 2266SOL    HW218261   1.040   0.572   7.747  0.2596 -0.7375 -1.6221
 2267SOL     OW18262   2.685   4.270   4.714  0.7706  0.7486  0.1526
 2267SOL    HW118263   2.591   4.285   4.719  0.1864 -2.4880 -1.4870
 2267SOL    HW218264   2.721   4.307   4.795 -1.4334 -1.5620  2.1759
 2268SOL     OW18265   0.208   1.296   4.943  0.1148  0.2209 -0.3815
 2268SOL    HW118266   0.237   1.380   4.907 -3.1445  0.9695 -1.2955
 2268SOL    HW218267   0.148   1.266   4.875 -0.8529 -2.0978  1.5136
 2269SOL     OW18268   2.869   2.391  13.778  0.0201 -0.5168 -0.1725
 2269SOL    HW118269   2.860   2.308  13.730 -1.0605 -0.4208 -0.1349
 2269SOL    HW218270   2.950   2.368  13.822 -0.4421 -1.4331  0.2059
 2270SOL     OW18271   4.598   3.691   8.149  0.1581  0.3493  0.4185
 2270SOL    HW118272   4.668   3.635   8.116 -1.5483 -2.5596  1.7909
 2270SOL    HW218273   4.522   3.657   8.101  1.1457 -0.3217 -0.6558
 2271SOL     OW18274   2.155   4.559   8.407 -0.4203 -0.2909  0.2367
 2271SOL    HW118275   2.232   4.506   8.385 -1.2006 -0.7409 -1.4061
 2271SOL    HW218276   2.194   4.645   8.423  4.6054 -2.2765 -1.0874
 2272SOL     OW18277   2.385   0.867   0.338 -0.6681  0.5603  0.3342
 2272SOL    HW118278   2.294   0.898   0.339 -0.0731  2.3687 -1.3495
 2272SOL    HW218279   2.416   0.924   0.268  0.9497 -0.6143  0.0997
 2273SOL     OW18280   0.166   2.171   4.751 -0.1176 -0.2561 -0.1698
 2273SOL    HW118281   0.193   2.260   4.727 -4.5669  1.7472  2.3167
 2273SOL    HW218282   0.196   2.121   4.675  1.1424  0.6406 -0.2733
 2274SOL     OW18283   2.303   0.122  17.381 -0.4782  0.3850  0.1747
 2274SOL    HW118284   2.362   0.151  17.450 -0.8654 -0.2771  0.7905
 2274SOL    HW218285   2.257   0.050  17.424  2.8853 -0.1845  2.8491
 2275SOL     OW18286   1.450   0.698  11.636  0.5205  0.1884 -0.3375
 2275SOL    HW118287   1.433   0.605  11.651  1.3185 -0.3259 -2.6834
 2275SOL    HW218288   1.449   0.689  11.540  1.0824 -4.1285  0.0418
 2276SOL     OW18289   1.769   0.857   6.821 -0.1821  0.0751  0.4305
 2276SOL    HW118290   1.811   0.922   6.877 -0.3959  1.3547 -0.9070
 2276SOL    HW218291   1.755   0.909   6.742 -0.9633  0.0277  0.5339
 2277SOL     OW18292   4.608   2.604   5.328  0.1272  0.1752  0.0290
 2277SOL    HW118293   4.591   2.690   5.290  1.3860 -0.1014 -1.1531
 2277SOL    HW218294   4.669   2.567   5.265 -0.9001  0.1171 -0.9473
 2278SOL     OW18295   1.391   1.406   2.663  0.0483 -0.7093  0.1329
 2278SOL    HW118296   1.392   1.408   2.568  0.4300 -2.0520  0.1118
 2278SOL    HW218297   1.465   1.349   2.681 -0.1234 -1.2932 -1.0154
 2279SOL     OW18298   0.996   4.301   8.985 -0.2995 -0.0914 -0.3648
 2279SOL    HW118299   0.927   4.275   9.047 -1.4816 -0.1134 -1.6884
 2279SOL    HW218300   1.079   4.277   9.027 -0.9470 -0.2558  0.8399
 2280SOL     OW18301   3.970   0.704   5.322 -0.4558 -0.0860 -0.0679
 2280SOL    HW118302   4.000   0.639   5.385 -2.8754  1.8480  3.0668
 2280SOL    HW218303   3.878   0.704   5.345 -0.5457 -0.4136 -0.4390
 2281SOL     OW18304   2.910   2.463   8.710  0.2875 -0.0297 -0.1318
 2281SOL    HW118305   2.898   2.384   8.764 -0.4286  1.0952  1.3590
 2281SOL    HW218306   2.995   2.495   8.739  0.8815  0.5946 -2.5967
 2282SOL     OW18307   1.390   2.627   7.277  0.1563 -0.3223  0.2022
 2282SOL    HW118308   1.371   2.604   7.368 -0.2133 -0.2926  0.1325
 2282SOL    HW218309   1.367   2.719   7.271 -0.8432 -0.4875  1.4492
 2283SOL     OW18310   0.897   1.885  15.932 -0.7539 -0.3465  0.2980
 2283SOL    HW118311   0.818   1.938  15.944 -1.1605 -0.0383 -3.5922
 2283SOL    HW218312   0.858   1.826  15.867 -2.3499  0.3012  0.6605
 2284SOL     OW18313   1.295   3.803  17.629  0.0988  0.2946 -0.4265
 2284SOL    HW118314   1.361   3.864  17.660 -1.1208  1.9292 -1.0962
 2284SOL    HW218315   1.275   3.747   0.028  0.5833  0.6149 -0.0545
 2285SOL     OW18316   1.521   1.379   6.738  0.0882  0.1706 -0.0753
 2285SOL    HW118317   1.460   1.320   6.783 -0.0162 -1.3749 -2.2738
 2285SOL    HW218318   1.601   1.327   6.730 -0.0737 -0.0230 -0.4059
 2286SOL     OW18319   1.531   0.625   3.434 -0.4281  0.1904 -0.2421
 2286SOL    HW118320   1.518   0.674   3.352 -1.1386 -0.2828 -0.4107
 2286SOL    HW218321   1.494   0.684   3.500 -0.9085 -0.8088  0.3699
 2287SOL     OW18322   0.599   3.363   4.231 -0.2576  0.4209  0.4171
 2287SOL    HW118323   0.609   3.269   4.213  1.6128  0.4767  1.1370
 2287SOL    HW218324   0.504   3.373   4.231 -0.3621 -0.4679 -1.6315
 2288SOL     OW18325   1.560   2.617   2.571  0.0274 -0.2338  0.2352
 2288SOL    HW118326   1.531   2.697   2.616  1.2423 -1.6080  3.4739
 2288SOL    HW218327   1.558   2.560   2.648 -3.3037 -1.3548 -0.7194
 2289SOL     OW18328   4.593   0.857   7.827  0.6218  0.3053  0.0232
 2289SOL    HW118329   4.591   0.942   7.782 -3.3185 -0.3504 -1.0118
 2289SOL    HW218330   4.536   0.799   7.778  0.6298 -1.4027  2.0825
 2290SOL     OW18331   0.711   3.265   3.630 -0.3315 -0.1318  0.1344
 2290SOL    HW118332   0.762   3.321   3.689  0.6909 -0.8614 -0.0505
 2290SOL    HW218333   0.692   3.330   3.562 -1.6067 -0.2259  0.4166
 2291SOL     OW18334   2.669   3.857   1.301  0.0399 -0.8488 -0.5889
 2291SOL    HW118335   2.717   3.779   1.273  0.4013 -1.8200  2.7838
 2291SOL    HW218336   2.656   3.840   1.394 -1.5075 -1.4970 -0.9198
 2292SOL     OW18337   1.058   0.915   4.562 -0.2353  0.3244  0.0651
 2292SOL    HW118338   0.970   0.952   4.561 -0.1322  0.6109  1.2520
 2292SOL    HW218339   1.062   0.862   4.483  0.6460 -1.8351  1.5669
 2293SOL     OW18340   0.326   0.549   6.250  0.0788  0.0434 -0.5723
 2293SOL    HW118341   0.383   0.521   6.322 -2.1799 -0.4440  1.0319
 2293SOL    HW218342   0.361   0.637   6.238  1.3197 -0.1697  1.5029
 2294SOL     OW18343   4.002   2.308  10.817 -0.0001  1.0005 -0.3801
 2294SOL    HW118344   4.079   2.365  10.820 -0.5994  1.7206  1.4705
 2294SOL    HW218345   3.952   2.355  10.751 -0.8532 -0.5207 -0.8254
 2295SOL     OW18346   0.070   1.772  16.270 -0.0058 -0.6015  0.5244
 2295SOL    HW118347   0.019   1.845  16.304 -1.1873 -0.1592 -2.1912
 2295SOL    HW218348   0.080   1.802  16.179 -1.7439  1.5007  1.0344
 2296SOL     OW18349   0.811   4.300   7.970 -0.7542 -0.3847  0.3073
 2296SOL    HW118350   0.818   4.366   8.039 -1.2450 -0.8333  0.7880
 2296SOL    HW218351   0.753   4.245   8.022  0.4669 -1.8972  0.0465
 2297SOL     OW18352   1.609   3.215   0.572  0.1124  0.5796 -0.0985
 2297SOL    HW118353   1.558   3.285   0.613 -0.9150  1.3464 -2.6808
 2297SOL    HW218354   1.690   3.220   0.623 -0.0712  1.7656  0.0641
 2298SOL     OW18355   4.627   1.064   3.154 -0.2756 -0.0854  0.0430
 2298SOL    HW118356   4.579   1.034   3.077 -0.3677 -1.9819  0.8251
 2298SOL    HW218357   4.655   1.152   3.131 -0.1299 -0.6161 -1.7580
 2299SOL     OW18358   3.909   2.483  10.620 -0.0737 -0.3442 -0.2527
 2299SOL    HW118359   3.824   2.493  10.577 -0.5730 -1.6256  0.4538
 2299SOL    HW218360   3.925   2.563  10.669 -2.4112 -1.0159  1.6006
 2300SOL     OW18361   1.318   4.451  15.126  0.2593 -0.4408 -0.3124
 2300SOL    HW118362   1.396   4.505  15.140 -0.9754  1.8129 -2.2514
 2300SOL    HW218363   1.351   4.416  15.044 -0.9846 -0.4178 -0.8178
 2301SOL     OW18364   2.067   1.779   9.351  0.5125 -0.2580  0.8172
 2301SOL    HW118365   1.978   1.814   9.345  0.3166 -1.2950 -2.0849
 2301SOL    HW218366   2.106   1.858   9.390  0.1426 -0.5084  1.7128
 2302SOL     OW18367   1.463   1.358  17.380  0.2715  0.0807  0.2557
 2302SOL    HW118368   1.423   1.444  17.371  0.4061  0.2431  1.2075
 2302SOL    HW218369   1.477   1.338  17.287 -3.6771  2.4527 -0.8454
 2303SOL     OW18370   0.846   1.954   5.179  0.0373  0.0629  0.2106
 2303SOL    HW118371   0.806   2.006   5.109 -0.7388  0.0359  0.6313
 2303SOL    HW218372   0.935   1.966   5.147 -0.4934  2.7374 -0.2887
 2304SOL     OW18373   3.314   3.181   1.211 -0.1137  0.3074 -0.0729
 2304SOL    HW118374   3.332   3.106   1.154  2.1098  1.8044 -1.3430
 2304SOL    HW218375   3.272   3.141   1.287  1.9931  0.7108  1.3168
 2305SOL     OW18376   0.528   1.073   6.243 -0.0003  0.0244 -0.0297
 2305SOL    HW118377   0.471   1.082   6.166  0.1592 -2.6305 -0.4439
 2305SOL    HW218378   0.483   1.134   6.302 -0.0934  0.9559 -1.0469
 2306SOL     OW18379   2.620   0.374   7.826 -0.2798 -0.2908 -0.3003
 2306SOL    HW118380   2.628   0.283   7.796 -2.9024 -0.5729 -0.1105
 2306SOL    HW218381   2.707   0.396   7.860 -0.1589 -1.7715  0.3613
 2307SOL     OW18382   1.383   2.569  15.524 -0.3861  0.1805  0.5357
 2307SOL    HW118383   1.317   2.584  15.457  1.3863  0.7666 -1.1016
 2307SOL    HW218384   1.343   2.490  15.559  0.9451 -0.0637  1.5348
 2308SOL     OW18385   3.254   3.119  14.142  0.4859 -0.1923  0.1660
 2308SOL    HW118386   3.232   3.031  14.112  0.7430 -1.0384  2.4436
 2308SOL    HW218387   3.283   3.155  14.059 -0.0885 -2.3892 -0.9839
 2309SOL     OW18388   2.194   1.431   1.078  0.2877  0.0851  0.7955
 2309SOL    HW118389   2.136   1.441   1.002 -0.2620  0.0917  1.2208
 2309SOL    HW218390   2.128   1.411   1.145 -1.8526  1.9162 -0.7431
 2310SOL     OW18391   3.986   1.605   4.473 -0.5440  0.7403  0.6773
 2310SOL    HW118392   4.068   1.555   4.474  0.0598  1.7160  0.7277
 2310SOL    HW218393   3.993   1.624   4.380  1.2750  3.1439  1.2782
 2311SOL     OW18394   4.280   2.187   5.437  0.1785  0.3320  0.3609
 2311SOL    HW118395   4.232   2.106   5.422  2.6965 -0.7268 -2.0511
 2311SOL    HW218396   4.233   2.257   5.393 -1.6217 -0.6368  0.7659
 2312SOL     OW18397   3.217   3.484   2.747  0.0812 -0.6657 -0.0785
 2312SOL    HW118398   3.143   3.429   2.774  0.8931 -3.0838 -2.8569
 2312SOL    HW218399   3.220   3.556   2.811  0.4653 -0.6869 -0.0714
 2313SOL     OW18400   2.672   1.779   5.872  0.1974  0.2820 -0.0016
 2313SOL    HW118401   2.760   1.762   5.907 -0.5827 -0.6731  1.5112
 2313SOL    HW218402   2.629   1.702   5.908  3.1945 -1.4457 -0.0762
 2314SOL     OW18403   0.755   1.486   2.545  0.4553 -0.2381 -0.1462
 2314SOL    HW118404   0.829   1.489   2.484 -0.5753  2.3927 -1.2821
 2314SOL    HW218405   0.783   1.549   2.611  1.3313 -1.5090  0.6886
 2315SOL     OW18406   0.793   3.557   2.592  0.4688  0.7736  0.1075
 2315SOL    HW118407   0.775   3.466   2.615 -0.4245  0.1447 -3.0865
 2315SOL    HW218408   0.837   3.538   2.509  1.0034  1.9790  0.1108
 2316SOL     OW18409   0.030   3.672   4.797  0.3168 -0.0038  0.2294
 2316SOL    HW118410   0.099   3.621   4.839  2.6025  1.0531 -2.2053
 2316SOL    HW218411   4.673   3.639   4.845 -0.9186 -1.0325 -2.4174
 2317SOL     OW18412   3.074   3.271   2.493 -0.3481  0.6096 -0.4616
 2317SOL    HW118413   3.143   3.328   2.526 -0.1443 -1.7762  3.2523
 2317SOL    HW218414   3.042   3.322   2.419  0.6896  1.0023 -0.6458
 2318SOL     OW18415   0.492   3.009  12.893  0.5968 -0.6016 -0.0539
 2318SOL    HW118416   0.402   3.034  12.910  0.8174 -1.3904  2.2574
 2318SOL    HW218417   0.478   2.929  12.841  2.3050 -1.0176  0.1230
 2319SOL     OW18418   1.506   3.543   1.201 -0.7428  0.4624  0.5086
 2319SOL    HW118419   1.512   3.636   1.225 -0.6716  0.7000 -0.4199
 2319SOL    HW218420   1.596   3.520   1.225  0.0675  3.0482  0.0063
 2320SOL     OW18421   1.077   3.327   6.410  0.7945 -0.6503  0.6646
 2320SOL    HW118422   1.010   3.270   6.447 -1.0770  1.1121 -0.0294
 2320SOL    HW218423   1.103   3.272   6.336  2.2982  0.4298  0.3885
 2321SOL     OW18424   1.874   4.128   7.428 -0.3130  0.5559 -0.1552
 2321SOL    HW118425   1.862   4.073   7.506  1.9563 -0.5660 -0.5847
 2321SOL    HW218426   1.961   4.107   7.394  0.6289  1.0318  1.9681
 2322SOL     OW18427   3.936   2.479   6.912 -0.4038 -0.2032  0.4407
 2322SOL    HW118428   3.939   2.472   7.007  1.7194 -1.8929  0.2511
 2322SOL    HW218429   3.931   2.572   6.892  0.3431 -0.4691 -1.0258
 2323SOL     OW18430   4.705   3.668   0.794  0.4977  0.1077 -0.4903
 2323SOL    HW118431   0.065   3.701   0.749  0.2821  0.8526 -0.3264
 2323SOL    HW218432   0.000   3.716   0.876  3.6062  0.0542 -0.9550
 2324SOL     OW18433   2.404   1.251   4.764 -0.1925  0.0634 -0.2163
 2324SOL    HW118434   2.371   1.293   4.685 -0.9941 -1.5111 -0.7317
 2324SOL    HW218435   2.494   1.273   4.741  0.6444 -1.6058  1.4976
 2325SOL     OW18436   1.703   4.287   6.548  0.3671  0.1846 -0.0134
 2325SOL    HW118437   1.644   4.294   6.472 -0.5511 -1.1268  0.5726
 2325SOL    HW218438   1.720   4.193   6.545  0.4084  0.1941 -0.0779
 2326SOL     OW18439   1.106   3.705   8.387  0.0381 -0.2938  0.4372
 2326SOL    HW118440   1.125   3.655   8.308 -1.0936  1.2120 -0.8001
 2326SOL    HW218441   1.169   3.665   8.447  1.2307  0.2348 -0.4635
 2327SOL     OW18442   0.830   4.316  16.153  0.6943  0.2389 -0.5179
 2327SOL    HW118443   0.870   4.230  16.143  0.6145  0.1076  0.2487
 2327SOL    HW218444   0.746   4.280  16.183  0.3140  1.4763 -0.0862
 2328SOL     OW18445   2.537   4.450  12.627  0.2112 -0.3795  0.0431
 2328SOL    HW118446   2.536   4.544  12.608  1.6618 -0.6305 -1.2599
 2328SOL    HW218447   2.545   4.449  12.723  0.2879  0.3515  0.0477
 2329SOL     OW18448   0.240   1.933   8.002  0.1048 -0.6405 -0.1170
 2329SOL    HW118449   0.315   1.910   8.056  0.1172  1.3023  0.7092
 2329SOL    HW218450   0.222   2.014   8.051 -1.3457 -1.4060  0.5876
 2330SOL     OW18451   2.610   2.471   5.915  0.1069  0.4889  0.0963
 2330SOL    HW118452   2.630   2.516   5.997 -1.0744 -3.5480  2.6496
 2330SOL    HW218453   2.524   2.432   5.932  0.3069  0.9769  2.2347
 2331SOL     OW18454   3.942   1.978   8.566 -0.3848  0.0261 -0.2812
 2331SOL    HW118455   3.924   1.958   8.658  0.1985 -0.6964 -0.3234
 2331SOL    HW218456   3.890   2.058   8.553 -2.5624 -1.5199 -1.1892
 2332SOL     OW18457   0.832   2.035   6.976 -0.4617 -0.0053 -0.2467
 2332SOL    HW118458   0.897   1.978   6.935 -1.9076 -1.8248 -0.0166
 2332SOL    HW218459   0.896   2.096   7.012  1.0773 -2.1928  0.6962
 2333SOL     OW18460   2.157   2.214   6.022 -0.3145 -0.1893 -0.3692
 2333SOL    HW118461   2.187   2.125   6.007  1.0155  0.3142 -0.7448
 2333SOL    HW218462   2.129   2.215   6.114 -2.2035  0.1370 -0.9478
 2334SOL     OW18463   1.034   0.923   7.953 -0.4107 -0.7345  0.0002
 2334SOL    HW118464   1.094   0.977   7.902  1.9761 -0.9628  2.5918
 2334SOL    HW218465   1.088   0.849   7.978  1.6133  0.9767  0.7211
 2335SOL     OW18466   0.063   3.290   5.331  0.4237 -0.4631  0.1477
 2335SOL    HW118467   4.705   3.275   5.275 -1.0581  3.6816  1.0912
 2335SOL    HW218468   0.049   3.382   5.349 -0.4551 -1.1586  3.0895
 2336SOL     OW18469   1.393   4.638   6.331  0.2490  0.0761 -0.0413
 2336SOL    HW118470   1.347   4.565   6.290 -0.1545 -0.0249  0.5948
 2336SOL    HW218471   1.479   4.600   6.312  1.4632  1.1530  3.4344
 2337SOL     OW18472   0.112   0.930   4.574  0.0641 -0.2140  0.0719
 2337SOL    HW118473   0.124   0.863   4.507 -0.7143 -0.8473  0.5665
 2337SOL    HW218474   0.086   1.004   4.519  1.4484  0.4834  0.3524
 2338SOL     OW18475   0.397   2.917   8.197  0.1297 -0.3463  0.4264
 2338SOL    HW118476   0.467   2.909   8.262  0.1804 -2.0785  0.1706
 2338SOL    HW218477   0.386   2.824   8.178  0.8567 -0.0555 -1.4096
 2339SOL     OW18478   4.451   0.028   7.712  0.3087  0.3075 -0.0543
 2339SOL    HW118479   4.410   0.059   7.793 -3.0310 -0.5172 -1.4640
 2339SOL    HW218480   4.371   0.029   7.660  0.2152  0.7795  0.0967
 2340SOL     OW18481   2.303   1.855   8.655  0.1056 -0.6606 -0.5719
 2340SOL    HW118482   2.267   1.935   8.617  0.7993 -0.1891 -0.2328
 2340SOL    HW218483   2.232   1.798   8.624  1.7345 -1.7751 -2.2628
 2341SOL     OW18484   1.064   0.527   1.932 -0.4986  0.0227 -0.4260
 2341SOL    HW118485   1.052   0.603   1.876  0.9691  1.6503  1.4592
 2341SOL    HW218486   1.025   0.462   1.875  1.3919 -1.1688 -0.3594
 2342SOL     OW18487   2.043   2.424   8.640  0.0714  0.5864  0.0608
 2342SOL    HW118488   2.139   2.428   8.638  0.0070  0.9286 -2.7078
 2342SOL    HW218489   2.019   2.348   8.586 -0.6845 -0.6010  2.0797
 2343SOL     OW18490   4.001   0.139   5.093 -0.0738 -0.0770 -0.5901
 2343SOL    HW118491   4.011   0.230   5.065 -0.1562  0.3461  0.7645
 2343SOL    HW218492   4.058   0.094   5.031 -0.5129 -1.0040 -0.3214
 2344SOL     OW18493   1.766   2.669   4.228  0.0720 -0.3199 -0.7194
 2344SOL    HW118494   1.715   2.666   4.309  1.7046 -0.1659  0.3235
 2344SOL    HW218495   1.846   2.704   4.266 -0.4401  1.0297 -0.8824
 2345SOL     OW18496   1.587   1.770  13.513 -0.3048 -0.0659 -0.1066
 2345SOL    HW118497   1.535   1.817  13.579  0.6317 -0.8902  1.2386
 2345SOL    HW218498   1.532   1.793  13.439  0.8360  2.1352 -0.2770
 2346SOL     OW18499   3.071   0.279   7.799  0.0714  0.2678  0.1316
 2346SOL    HW118500   3.161   0.310   7.804  0.4356 -0.6487 -0.7409
 2346SOL    HW218501   3.046   0.281   7.706 -0.1363  0.9915  0.2005
 2347SOL     OW18502   1.333   3.222   0.352 -0.0879  0.0708  0.7128
 2347SOL    HW118503   1.426   3.204   0.364  0.1497 -0.5753 -2.0887
 2347SOL    HW218504   1.338   3.282   0.278  1.8493  1.0345  1.6527
 2348SOL     OW18505   4.544   2.144  10.456 -0.5892  0.0680  0.1576
 2348SOL    HW118506   4.526   2.088  10.532 -0.8291  0.3883  0.3376
 2348SOL    HW218507   4.557   2.078  10.388  1.3478  0.9371 -0.3203
 2349SOL     OW18508   3.801   2.947   8.746 -0.4585  0.1071 -0.3617
 2349SOL    HW118509   3.859   2.910   8.813 -0.2726 -0.7971 -1.0208
 2349SOL    HW218510   3.736   2.877   8.742 -0.8989  0.6190 -2.1687
 2350SOL     OW18511   2.836   0.631   9.947  0.1664  0.0222  0.8476
 2350SOL    HW118512   2.782   0.659   9.873  1.6744 -1.9319 -0.9673
 2350SOL    HW218513   2.848   0.537   9.935 -0.8246  0.0411 -0.3460
 2351SOL     OW18514   1.712   4.183   2.900  0.7134  0.4181  0.3889
 2351SOL    HW118515   1.731   4.175   2.807  1.9147  0.6851  0.6155
 2351SOL    HW218516   1.715   4.090   2.924  1.7694 -0.0461 -1.5242
 2352SOL     OW18517   3.625   3.634   4.910 -0.5042  0.2296  0.2141
 2352SOL    HW118518   3.715   3.664   4.899 -0.2917  1.0273  4.0552
 2352SOL    HW218519   3.650   3.546   4.940 -1.1655  0.2247  0.7608
 2353SOL     OW18520   2.043   0.013   9.795  0.4401 -0.3865  0.5306
 2353SOL    HW118521   2.109   0.051   9.737 -0.0597  0.0719  0.2621
 2353SOL    HW218522   1.993   0.086   9.829  1.4384  0.2965  0.5399
 2354SOL     OW18523   0.426   0.044   3.205  0.0744 -0.1602  0.3062
 2354SOL    HW118524   0.408   0.028   3.112 -0.9013  1.6500  0.1895
 2354SOL    HW218525   0.515   0.079   3.208 -0.5163  1.3778 -0.0763
 2355SOL     OW18526   0.722   2.286   3.150  0.5830 -0.4421 -0.0518
 2355SOL    HW118527   0.755   2.212   3.203 -1.0462 -0.2834  1.1864
 2355SOL    HW218528   0.727   2.347   3.224 -1.1780 -0.0356 -0.2591
 2356SOL     OW18529   4.282   1.583   9.483  0.4398 -0.5284 -0.0233
 2356SOL    HW118530   4.366   1.618   9.452 -0.7266  1.6938 -0.6270
 2356SOL    HW218531   4.257   1.540   9.401 -0.0234 -0.5298  0.1187
 2357SOL     OW18532   4.440   3.728   6.147  0.4119 -0.3500  0.2345
 2357SOL    HW118533   4.508   3.791   6.172  1.0642  0.0525 -2.5778
 2357SOL    HW218534   4.485   3.647   6.170  1.8866 -0.0493 -1.6186
 2358SOL     OW18535   4.703   4.392  16.533 -0.0603 -0.0461  0.1592
 2358SOL    HW118536   4.660   4.367  16.615 -2.7796  1.0356 -0.9450
 2358SOL    HW218537   4.630   4.381  16.473  1.0022  0.3513 -1.1899
 2359SOL     OW18538   1.773   1.013   5.088 -0.1524  0.1063 -0.2734
 2359SOL    HW118539   1.780   1.003   4.993 -0.6058  2.5198 -0.5543
 2359SOL    HW218540   1.680   1.032   5.097 -0.1428  0.6183 -1.2268
 2360SOL     OW18541   3.331   1.219   8.317 -0.3382  0.0372  0.6601
 2360SOL    HW118542   3.362   1.139   8.359  1.2268  1.2361  1.7702
 2360SOL    HW218543   3.293   1.177   8.240  1.2505  0.2876 -0.2818
 2361SOL     OW18544   3.101   0.621  16.443  0.0824 -0.0218  0.1147
 2361SOL    HW118545   3.118   0.540  16.491  0.4699 -0.8066 -1.3400
 2361SOL    HW218546   3.149   0.613  16.360  1.7321  2.2303  0.8527
 2362SOL     OW18547   3.109   0.671   4.848 -0.1234 -0.3956 -0.3675
 2362SOL    HW118548   3.155   0.739   4.898  0.8069  0.5948 -2.5739
 2362SOL    HW218549   3.021   0.688   4.880 -0.2044 -0.2820 -0.6512
 2363SOL     OW18550   3.997   3.328  14.415  0.4152 -0.3678 -0.5786
 2363SOL    HW118551   4.030   3.410  14.452  1.9724 -1.0679 -0.4212
 2363SOL    HW218552   4.024   3.341  14.324  2.3389 -2.5540 -0.3095
 2364SOL     OW18553   0.057   4.424   4.425  0.3733  0.0314 -0.1909
 2364SOL    HW118554   0.079   4.471   4.345  0.8757 -1.2558 -0.7938
 2364SOL    HW218555   0.026   4.342   4.388 -2.9931  0.7366  1.0560
 2365SOL     OW18556   0.514   2.507   9.635  0.4361  0.4730 -0.6155
 2365SOL    HW118557   0.492   2.559   9.713  0.5953 -2.2525  1.2472
 2365SOL    HW218558   0.543   2.576   9.576  2.4303 -0.6971 -0.9760
 2366SOL     OW18559   1.370   3.443  14.562 -0.3855  0.3042 -0.2616
 2366SOL    HW118560   1.401   3.368  14.613  1.5655  0.6253 -0.9641
 2366SOL    HW218561   1.281   3.412  14.545 -0.4770  0.4850 -0.1001
 2367SOL     OW18562   1.774   0.571  14.841  0.1048  0.0733 -0.2673
 2367SOL    HW118563   1.764   0.478  14.863  0.0190 -0.5337 -2.9674
 2367SOL    HW218564   1.839   0.591  14.909 -1.6237 -0.6653  1.6133
 2368SOL     OW18565   3.359   0.963   5.985  0.1837 -0.0416 -0.2802
 2368SOL    HW118566   3.330   1.000   6.069 -1.3416  3.6796 -2.3991
 2368SOL    HW218567   3.302   0.886   5.980  0.5719 -0.2220 -2.0090
 2369SOL     OW18568   4.501   1.417  17.375  0.1840 -0.7691 -0.0816
 2369SOL    HW118569   4.565   1.382  17.313 -0.7738 -0.4261 -1.2807
 2369SOL    HW218570   4.501   1.512  17.361 -1.6879 -0.6492  0.6294
 2370SOL     OW18571   0.116   0.508  12.054  0.1631  0.2603  0.4093
 2370SOL    HW118572   0.184   0.527  12.120  1.7597 -1.3580 -0.7799
 2370SOL    HW218573   0.143   0.574  11.990  0.8273  0.7147  1.1460
 2371SOL     OW18574   2.554   4.486   7.437  0.3708 -0.0298 -0.5639
 2371SOL    HW118575   2.501   4.565   7.441  1.5113  0.6457  1.1498
 2371SOL    HW218576   2.532   4.432   7.513 -0.0779  0.7009 -0.1687
 2372SOL     OW18577   0.861   1.705   0.372  0.1157 -0.5558  0.1766
 2372SOL    HW118578   0.897   1.788   0.341 -2.7316  1.2715  1.6427
 2372SOL    HW218579   0.805   1.685   0.297  0.4403 -1.7373  0.2494
 2373SOL     OW18580   0.918   4.387   7.725  0.2388 -0.8066 -0.0817
 2373SOL    HW118581   0.878   4.348   7.803 -0.5709 -2.0221 -1.1162
 2373SOL    HW218582   0.992   4.329   7.708 -0.4804 -2.5579  2.6965
 2374SOL     OW18583   3.948   3.052  10.602  0.5300  0.1034  0.3286
 2374SOL    HW118584   3.951   3.060  10.698 -1.2424  0.6034  0.3382
 2374SOL    HW218585   3.933   2.957  10.599  1.7157 -0.0227 -1.1241
 2375SOL     OW18586   4.283   3.964  13.651 -0.4926 -0.1284 -0.0616
 2375SOL    HW118587   4.279   4.014  13.733 -0.9377 -2.9081  1.6279
 2375SOL    HW218588   4.379   3.973  13.646 -0.5475  1.1940  1.1486
 2376SOL     OW18589   2.618   1.416   8.679  0.2066  0.4966 -0.1558
 2376SOL    HW118590   2.660   1.484   8.733 -1.0375  0.0628  1.3546
 2376SOL    HW218591   2.531   1.456   8.671  0.1846  0.8122  1.5553
 2377SOL     OW18592   1.837   0.450   7.203 -0.5571 -0.3251  0.2479
 2377SOL    HW118593   1.747   0.440   7.175 -0.5321 -1.5869  0.6029
 2377SOL    HW218594   1.814   0.471   7.294 -0.0529 -1.0477  0.5480
 2378SOL     OW18595   4.560   0.614  12.991  0.3053  0.2973  0.1872
 2378SOL    HW118596   4.530   0.534  13.034 -2.7708  1.6051  0.4253
 2378SOL    HW218597   4.646   0.620  13.034 -1.0149  0.1216  2.8563
 2379SOL     OW18598   0.033   3.335   2.737 -0.1558 -0.1346  0.2158
 2379SOL    HW118599   4.685   3.351   2.804 -2.2257 -1.3324 -1.5119
 2379SOL    HW218600   0.003   3.400   2.673  1.3576 -0.5653 -0.9269
 2380SOL     OW18601   1.754   0.268  10.309  0.7094  0.0571 -0.6016
 2380SOL    HW118602   1.750   0.174  10.327 -0.5951 -0.0334 -1.3691
 2380SOL    HW218603   1.744   0.305  10.396  0.5893 -0.1200 -0.5388
 2381SOL     OW18604   1.830   4.308  10.291  0.3114 -0.0432 -0.1772
 2381SOL    HW118605   1.787   4.361  10.224  0.0112  0.2838  0.2733
 2381SOL    HW218606   1.900   4.269  10.239 -0.4019  1.7130 -2.4127
 2382SOL     OW18607   2.207   0.791  12.866 -0.1485 -0.5957 -0.0037
 2382SOL    HW118608   2.251   0.790  12.952  1.7794 -1.4592 -0.9941
 2382SOL    HW218609   2.277   0.759  12.808  1.7823  3.9218 -0.1436
 2383SOL     OW18610   1.160   2.950  10.859  0.1936 -0.1934 -0.0268
 2383SOL    HW118611   1.181   3.005  10.784  1.3152  1.7840  1.7456
 2383SOL    HW218612   1.242   2.900  10.865 -0.4589 -1.0795  1.7200
 2384SOL     OW18613   2.700   1.279   3.786 -0.5758  0.1988  0.1421
 2384SOL    HW118614   2.658   1.223   3.852 -0.7263  0.5461  0.3405
 2384SOL    HW218615   2.790   1.273   3.817 -0.9246  0.8564  1.2693
 2385SOL     OW18616   0.472   3.504   6.484 -0.5324  0.0549 -0.3488
 2385SOL    HW118617   0.393   3.539   6.442 -0.0388  0.6112 -0.8190
 2385SOL    HW218618   0.512   3.586   6.515 -2.8312  1.3422 -0.7107
 2386SOL     OW18619   2.450   3.534   4.669  0.4001  0.1884 -0.1735
 2386SOL    HW118620   2.407   3.596   4.610 -0.3495  0.4808  0.6928
 2386SOL    HW218621   2.444   3.582   4.751  0.8942 -0.2677  0.1278
 2387SOL     OW18622   4.142   0.573  17.170  0.3993 -0.2252 -0.6210
 2387SOL    HW118623   4.171   0.662  17.188 -0.7618  0.0500 -0.1099
 2387SOL    HW218624   4.070   0.582  17.107  2.8496 -0.2556 -3.4122
 2388SOL     OW18625   2.502   4.583  13.828  0.1168  0.3383 -0.0958
 2388SOL    HW118626   2.573   4.623  13.778  1.4225 -0.8740  0.7867
 2388SOL    HW218627   2.533   4.492  13.832 -1.5404 -0.1823  0.9611
 2389SOL     OW18628   3.620   0.353   5.735  0.6696 -0.5280 -0.2186
 2389SOL    HW118629   3.675   0.422   5.698 -1.2075 -0.5521 -3.0912
 2389SOL    HW218630   3.661   0.351   5.822  0.4215 -3.2865 -0.1611
 2390SOL     OW18631   1.672   3.630   7.493 -1.1141  0.3593  0.2797
 2390SOL    HW118632   1.695   3.690   7.421  1.9242 -2.3799 -1.0419
 2390SOL    HW218633   1.751   3.579   7.511  0.9776  2.7288 -2.0983
 2391SOL     OW18634   1.299   2.785   4.929  0.2383  0.1570  0.4441
 2391SOL    HW118635   1.203   2.778   4.927  0.1418  2.1132 -1.9172
 2391SOL    HW218636   1.306   2.831   4.845 -0.8057 -1.4958 -0.5579
 2392SOL     OW18637   0.966   2.171  15.383 -0.2443  0.3140 -0.2477
 2392SOL    HW118638   0.962   2.264  15.403  3.9245  0.3259  0.6539
 2392SOL    HW218639   1.057   2.163  15.354  0.2260  0.1454  1.2436
 2393SOL     OW18640   2.443   0.428   6.281 -0.1119 -0.0913  0.4989
 2393SOL    HW118641   2.475   0.342   6.309 -0.7132 -0.9763 -1.5429
 2393SOL    HW218642   2.447   0.478   6.363  0.5834 -0.2375  0.5512
 2394SOL     OW18643   3.660   0.933  14.874  0.3550  0.4362  0.0973
 2394SOL    HW118644   3.573   0.900  14.855  0.7151 -0.0636 -0.6817
 2394SOL    HW218645   3.702   0.888  14.801 -2.2043  0.5719 -1.4520
 2395SOL     OW18646   3.760   0.168   6.160 -0.7234 -0.7154  0.2972
 2395SOL    HW118647   3.676   0.145   6.200 -0.8795  0.4317  0.6169
 2395SOL    HW218648   3.816   0.100   6.197  2.6142  1.0167 -1.5580
 2396SOL     OW18649   1.669   3.674   8.526 -0.1658  0.8633 -0.4800
 2396SOL    HW118650   1.643   3.587   8.556 -0.9242  1.9158  1.9095
 2396SOL    HW218651   1.598   3.698   8.467 -1.9096 -1.6578  0.6202
 2397SOL     OW18652   3.318   1.078   6.259  0.4077 -0.0230  0.3787
 2397SOL    HW118653   3.289   1.169   6.256 -1.0948 -0.5508 -0.6813
 2397SOL    HW218654   3.414   1.087   6.253  0.2700  0.7418 -0.6705
 2398SOL     OW18655   1.095   3.926  16.517 -0.3407  0.0110 -0.0978
 2398SOL    HW118656   1.188   3.909  16.507 -0.1989  0.9107 -0.2447
 2398SOL    HW218657   1.099   3.992  16.587  0.8885  1.1346 -1.2454
 2399SOL     OW18658   3.664   4.108   2.613 -0.2279  0.0837  0.3664
 2399SOL    HW118659   3.570   4.090   2.627 -0.1174 -0.6368  0.1899
 2399SOL    HW218660   3.671   4.066   2.527 -0.0005 -1.9243  1.3565
 2400SOL     OW18661   2.731   1.829   2.491 -0.2275 -0.7649  0.0134
 2400SOL    HW118662   2.758   1.921   2.498 -1.6296 -0.5211  2.1512
 2400SOL    HW218663   2.763   1.812   2.402 -2.2713 -0.2449 -0.8120
 2401SOL     OW18664   3.378   1.272   6.591 -0.6161  0.1622 -0.4901
 2401SOL    HW118665   3.380   1.323   6.510 -0.7896 -0.1483 -0.6896
 2401SOL    HW218666   3.472   1.262   6.608 -0.8672  0.0314  0.8154
 2402SOL     OW18667   2.267   0.041   6.268 -0.4289 -0.2671  0.8210
 2402SOL    HW118668   2.339   0.091   6.306  0.1974  0.9866 -2.0011
 2402SOL    HW218669   2.273   4.679   6.321 -0.0477 -0.2326  0.8324
 2403SOL     OW18670   1.541   0.456   1.872  0.0553 -0.0969  0.0926
 2403SOL    HW118671   1.628   0.429   1.842  0.5544  0.5568  0.9407
 2403SOL    HW218672   1.555   0.550   1.882 -2.3097  0.1659  0.8710
 2404SOL     OW18673   2.409   4.516   5.364  0.1363  0.9935  0.5879
 2404SOL    HW118674   2.498   4.490   5.389  0.3901  0.8884 -0.4033
 2404SOL    HW218675   2.399   4.605   5.399  1.0779  1.1872  0.3714
 2405SOL     OW18676   1.112   4.190   0.396 -0.1488  0.1676  0.0160
 2405SOL    HW118677   1.110   4.265   0.337  0.0201  1.5116  1.7344
 2405SOL    HW218678   1.195   4.209   0.439 -0.2021 -0.4576  0.3953
 2406SOL     OW18679   3.550   3.760   2.574  0.3652 -1.1306  0.1867
 2406SOL    HW118680   3.561   3.811   2.494 -0.7328 -1.8234 -0.4073
 2406SOL    HW218681   3.599   3.684   2.542 -0.8842 -1.4909 -0.8454
 2407SOL     OW18682   4.185   2.031   2.656  0.1910 -0.0141  0.1097
 2407SOL    HW118683   4.169   2.125   2.670 -0.5048 -0.3391  1.4132
 2407SOL    HW218684   4.168   2.038   2.562 -1.2333 -2.8858  0.1485
 2408SOL     OW18685   3.210   3.448   9.806 -0.4418  0.1782 -0.0563
 2408SOL    HW118686   3.191   3.472   9.897  1.0957  1.5689 -0.1170
 2408SOL    HW218687   3.136   3.392   9.781  0.3017 -0.2594 -1.2869
 2409SOL     OW18688   2.800   2.823   2.393  0.3235  0.3924  0.4417
 2409SOL    HW118689   2.706   2.829   2.377  0.6260  0.1816 -1.3603
 2409SOL    HW218690   2.826   2.912   2.416  3.6581 -0.0142 -1.8073
 2410SOL     OW18691   0.376   3.057   2.079 -0.0105 -0.1234  0.1487
 2410SOL    HW118692   0.310   2.991   2.057  0.4752 -0.9126  1.0440
 2410SOL    HW218693   0.461   3.019   2.104 -1.6084 -3.8428 -0.0436
 2411SOL     OW18694   3.575   2.405  12.279  0.0075 -0.2226 -0.6806
 2411SOL    HW118695   3.573   2.331  12.340 -0.3590  0.8362  0.6108
 2411SOL    HW218696   3.517   2.468  12.322 -0.1454  0.0615 -1.3052
 2412SOL     OW18697   1.809   0.503   1.195  0.2544 -0.2316  0.8707
 2412SOL    HW118698   1.901   0.515   1.219  0.2417  1.0429  0.2814
 2412SOL    HW218699   1.785   0.589   1.162 -1.1101 -0.2862  1.7028
 2413SOL     OW18700   3.533   3.440  15.029 -0.1337 -0.0005  0.4703
 2413SOL    HW118701   3.576   3.525  15.029  1.0765 -0.6002  1.3248
 2413SOL    HW218702   3.580   3.394  15.099  0.5829 -0.9247 -0.6090
 2414SOL     OW18703   0.673   1.511  11.151  0.1613 -0.1961 -0.3598
 2414SOL    HW118704   0.611   1.580  11.128 -0.9253 -1.0268  0.0855
 2414SOL    HW218705   0.734   1.571  11.194 -1.3137  0.6949  0.4719
 2415SOL     OW18706   3.373   1.425   2.015 -0.0974  0.5029  0.3610
 2415SOL    HW118707   3.446   1.431   2.077  2.3937  2.8652 -2.8103
 2415SOL    HW218708   3.413   1.466   1.939 -0.2506 -2.3318 -1.2283
 2416SOL     OW18709   2.835   4.506   4.138  0.4050 -0.5270  0.8064
 2416SOL    HW118710   2.929   4.496   4.119 -0.0028  0.4056 -1.6940
 2416SOL    HW218711   2.802   4.421   4.107 -0.4408 -0.3237  1.1569
 2417SOL     OW18712   0.296   4.663   1.888  0.4275  0.9341 -0.1620
 2417SOL    HW118713   0.260   4.583   1.851  1.5476 -0.4953  1.8621
 2417SOL    HW218714   0.223   4.703   1.934  0.8005  2.1757 -0.6461
 2418SOL     OW18715   2.358   1.338  17.178 -0.5690 -0.3449  0.3512
 2418SOL    HW118716   2.443   1.308  17.212 -0.0826  2.0565  1.2370
 2418SOL    HW218717   2.376   1.397  17.106 -0.8324  2.0573  2.2729
 2419SOL     OW18718   2.803   3.400  13.267 -0.3675 -0.0196 -0.2625
 2419SOL    HW118719   2.796   3.470  13.202 -0.9313  1.5591  1.5075
 2419SOL    HW218720   2.719   3.412  13.311 -0.6797 -0.4210 -0.7421
 2420SOL     OW18721   3.745   2.072  10.884  0.2826 -0.1178 -0.2998
 2420SOL    HW118722   3.807   2.059  10.813  1.3014  0.0312  0.5550
 2420SOL    HW218723   3.709   1.986  10.906 -2.2684  0.5826 -1.7430
 2421SOL     OW18724   3.080   0.998   4.490  0.2224 -0.4628 -0.2261
 2421SOL    HW118725   3.140   1.060   4.530  1.2605 -0.5354 -1.6654
 2421SOL    HW218726   3.017   1.061   4.455 -2.0271 -0.9874  2.9202
 2422SOL     OW18727   3.829   1.710  12.896  0.1977  0.1162 -0.1706
 2422SOL    HW118728   3.904   1.768  12.883 -1.4386  2.1037 -0.7792
 2422SOL    HW218729   3.765   1.751  12.839 -1.0368  0.1643  1.2494
 2423SOL     OW18730   1.365   3.540   0.500 -0.3613  0.3402  0.2175
 2423SOL    HW118731   1.396   3.587   0.577 -2.2913  2.9900 -0.5972
 2423SOL    HW218732   1.277   3.523   0.534 -0.4897 -1.5562 -1.0471
 2424SOL     OW18733   0.534   3.720   9.409  0.1355  0.1484 -0.3652
 2424SOL    HW118734   0.601   3.755   9.468  0.6747 -1.9334  0.2850
 2424SOL    HW218735   0.449   3.756   9.436 -0.1656 -1.3502  0.7083
 2425SOL     OW18736   1.890   0.763   7.764 -0.0607 -0.0568  0.0256
 2425SOL    HW118737   1.888   0.822   7.688  1.6530  1.3845  1.0992
 2425SOL    HW218738   1.982   0.775   7.787  0.5096 -1.0353 -1.7251
 2426SOL     OW18739   2.667   3.397  11.050  0.4670 -0.0525  0.1878
 2426SOL    HW118740   2.742   3.379  11.107 -0.5021  0.1071  1.5012
 2426SOL    HW218741   2.681   3.487  11.021 -0.3267  0.3090  0.9487
 2427SOL     OW18742   3.826   1.555   2.833 -0.1571  0.3965 -0.1323
 2427SOL    HW118743   3.777   1.511   2.902  1.0932 -0.5521  0.1542
 2427SOL    HW218744   3.755   1.572   2.771  0.2930  2.2933 -0.1537
 2428SOL     OW18745   3.620   2.779  10.226 -0.0376 -0.7390  0.3548
 2428SOL    HW118746   3.675   2.772  10.305  0.3573 -0.7390  0.0796
 2428SOL    HW218747   3.681   2.734  10.167  0.9650 -0.2380  0.9933
 2429SOL     OW18748   0.031   4.357   7.713  0.0501 -0.1623 -0.0349
 2429SOL    HW118749   0.054   4.283   7.770  1.8098 -0.0625 -0.6199
 2429SOL    HW218750   4.657   4.376   7.728 -0.0105  0.2487 -0.9213
 2430SOL     OW18751   1.493   3.545   6.690  0.3974 -0.0322 -0.5067
 2430SOL    HW118752   1.502   3.613   6.623  0.2577  0.5104  0.0293
 2430SOL    HW218753   1.431   3.481   6.653  0.8033  0.0644 -1.3653
 2431SOL     OW18754   0.375   0.016   6.843  0.1746  0.1688  0.0128
 2431SOL    HW118755   0.326   0.084   6.796  0.7669 -0.5440 -1.6249
 2431SOL    HW218756   0.435   4.701   6.777 -0.6814 -0.6148 -0.3700
 2432SOL     OW18757   2.191   3.169   6.259 -0.4802 -0.0488 -0.4113
 2432SOL    HW118758   2.118   3.129   6.212 -0.5707  2.0142 -2.0195
 2432SOL    HW218759   2.154   3.198   6.342 -0.2554  1.8270 -0.9625
 2433SOL     OW18760   0.604   1.016   7.638  0.0617 -0.4823  0.2236
 2433SOL    HW118761   0.626   0.941   7.583  0.8630 -0.4144  0.4548
 2433SOL    HW218762   0.673   1.021   7.704 -0.6217  0.2298  0.8736
 2434SOL     OW18763   0.113   4.266  16.251 -0.6723  0.3383 -0.0912
 2434SOL    HW118764   0.032   4.305  16.219 -0.8794 -1.4655 -1.7658
 2434SOL    HW218765   0.082   4.197  16.309 -0.5552  2.5085  2.5240
 2435SOL     OW18766   0.040   3.608   8.389 -0.5458 -0.0989 -0.4887
 2435SOL    HW118767   4.695   3.589   8.459  0.6466  1.2225  0.9545
 2435SOL    HW218768   4.701   3.615   8.313 -0.2111 -0.2665 -0.7557
 2436SOL     OW18769   0.932   1.457  15.994 -0.4013 -0.7554  0.0871
 2436SOL    HW118770   0.945   1.536  16.047 -1.1124 -0.1825 -0.5688
 2436SOL    HW218771   0.842   1.430  16.012  0.5244 -2.6747  1.8076
 2437SOL     OW18772   3.882   2.534   8.345 -0.1600 -0.3376 -0.0278
 2437SOL    HW118773   3.943   2.494   8.283  2.0196  0.0640  1.8504
 2437SOL    HW218774   3.943   2.585   8.398 -0.6653  0.9388 -0.6701
 2438SOL     OW18775   0.090   2.873   7.467 -0.4857  0.0487 -0.0115
 2438SOL    HW118776   0.016   2.920   7.507 -0.7993  0.7352 -1.4081
 2438SOL    HW218777   0.123   2.824   7.542  0.5827 -0.1679 -0.6309
 2439SOL     OW18778   4.523   2.351   4.991 -0.7014 -0.1998  0.0066
 2439SOL    HW118779   4.586   2.415   4.960 -0.3448 -1.0779 -1.0815
 2439SOL    HW218780   4.539   2.269   4.945  1.3196 -0.1102  0.5473
 2440SOL     OW18781   0.902   0.884   3.465  0.2591 -0.0898  0.4320
 2440SOL    HW118782   0.902   0.979   3.457 -1.6877 -0.0271  0.9995
 2440SOL    HW218783   0.898   0.870   3.560  0.3736  1.8083  0.7178
 2441SOL     OW18784   4.274   3.734   8.120 -0.7896  0.2336 -0.0749
 2441SOL    HW118785   4.180   3.718   8.131 -0.3821 -0.6244  2.0269
 2441SOL    HW218786   4.301   3.681   8.046 -0.4373 -0.0649  0.2711
 2442SOL     OW18787   0.032   2.516   0.692 -0.3189 -0.3173 -0.0969
 2442SOL    HW118788   4.705   2.599   0.704 -3.1930 -1.8031 -0.7455
 2442SOL    HW218789   0.091   2.536   0.619  0.7117 -0.0229  0.8159
 2443SOL     OW18790   4.383   3.842   5.475 -0.2182 -0.5349 -0.3790
 2443SOL    HW118791   4.300   3.835   5.522  0.1602  1.2562  0.5853
 2443SOL    HW218792   4.355   3.870   5.388  1.3723 -1.1289 -1.0995
 2444SOL     OW18793   3.986   4.192   6.369  0.0953 -0.8053  0.0197
 2444SOL    HW118794   4.030   4.140   6.301  0.0147  0.8552 -1.2933
 2444SOL    HW218795   3.928   4.131   6.415 -0.9616 -0.3128 -0.6769
 2445SOL     OW18796   1.018   0.606   7.411  0.0266  0.0795  0.1164
 2445SOL    HW118797   0.999   0.513   7.422  1.7934 -0.1966  0.9318
 2445SOL    HW218798   1.061   0.617   7.496  0.9945  0.7214 -0.4470
 2446SOL     OW18799   1.357   2.145   1.616 -0.0385 -0.3554 -0.5501
 2446SOL    HW118800   1.419   2.116   1.549  0.6946  0.0545 -0.0458
 2446SOL    HW218801   1.316   2.059   1.626 -0.7516  0.1511  0.8601
 2447SOL     OW18802   3.679   3.104   7.497  0.0003  0.2449 -0.3011
 2447SOL    HW118803   3.696   3.179   7.554 -2.5613  0.0571  0.6767
 2447SOL    HW218804   3.634   3.132   7.417 -0.4104  0.0693 -0.1274
 2448SOL     OW18805   4.151   0.660  15.691  0.3567 -0.1866  0.2643
 2448SOL    HW118806   4.173   0.714  15.615  3.5586 -0.3725  1.0715
 2448SOL    HW218807   4.082   0.717  15.727 -0.2304 -1.3212  0.9318
 2449SOL     OW18808   3.609   2.613   5.329  0.6697 -0.4331 -0.1466
 2449SOL    HW118809   3.514   2.623   5.331  0.7521  0.6290 -1.4403
 2449SOL    HW218810   3.627   2.690   5.383 -0.2967 -0.4386  0.1843
 2450SOL     OW18811   2.665   2.254   2.726  0.1578 -0.5722 -0.1023
 2450SOL    HW118812   2.643   2.177   2.673  0.3170 -1.0436  0.5179
 2450SOL    HW218813   2.755   2.239   2.754 -0.2280  0.6023  1.7769
 2451SOL     OW18814   3.174   1.046   1.968  0.1441  0.2935 -0.2425
 2451SOL    HW118815   3.186   1.083   1.880  3.2003 -1.6759 -0.6587
 2451SOL    HW218816   3.234   0.972   1.975 -1.5893 -1.1571 -0.7182
 2452SOL     OW18817   4.646   2.850   5.625  0.2741 -0.0160  0.2623
 2452SOL    HW118818   4.552   2.852   5.610  0.7460  1.4861 -2.4657
 2452SOL    HW218819   4.664   2.940   5.653 -1.7304 -0.0663  1.6745
 2453SOL     OW18820   2.499   1.358   8.025 -0.1556  0.0408 -0.2885
 2453SOL    HW118821   2.511   1.401   7.940 -1.4199  1.5111  0.2965
 2453SOL    HW218822   2.554   1.281   8.009 -0.9342 -1.0014  2.0403
 2454SOL     OW18823   3.916   2.840   5.346 -0.0915 -0.1563 -0.0575
 2454SOL    HW118824   3.879   2.806   5.265  0.6219  0.6132 -0.7022
 2454SOL    HW218825   3.968   2.765   5.373 -0.1507 -0.2541 -0.2177
 2455SOL     OW18826   0.782   2.301   5.832 -0.0415 -0.2351  0.0622
 2455SOL    HW118827   0.689   2.290   5.812 -0.3281 -0.8338  1.6952
 2455SOL    HW218828   0.823   2.317   5.747 -0.2981 -2.2333 -0.4350
 2456SOL     OW18829   2.646   3.463   8.515 -0.1809 -0.2154 -0.6328
 2456SOL    HW118830   2.671   3.399   8.449 -0.1524  0.8855 -1.7003
 2456SOL    HW218831   2.697   3.438   8.592  1.4653  2.5217 -0.7854
 2457SOL     OW18832   0.775   1.598   1.775 -0.4112 -0.0094 -0.0368
 2457SOL    HW118833   0.707   1.638   1.720 -0.5450 -1.7816 -1.1814
 2457SOL    HW218834   0.723   1.603   1.855  2.4953  0.3215  1.8100
 2458SOL     OW18835   1.080   4.117   6.769  0.8030  0.1248 -0.3006
 2458SOL    HW118836   1.025   4.121   6.848  0.6558  1.6595 -0.4801
 2458SOL    HW218837   1.066   4.202   6.726  0.3254  1.0511  1.6749
 2459SOL     OW18838   0.953   1.592   6.519  0.1454 -0.5409 -0.2115
 2459SOL    HW118839   0.948   1.515   6.575  2.4422 -0.5556 -0.0455
 2459SOL    HW218840   0.992   1.554   6.440 -0.7329 -2.4973  0.3031
 2460SOL     OW18841   0.197   1.349   2.804  0.2200  0.2256 -0.2162
 2460SOL    HW118842   0.292   1.346   2.792  0.4246  3.7671  0.4936
 2460SOL    HW218843   0.183   1.430   2.853 -0.4501  0.9436 -1.5944
 2461SOL     OW18844   3.411   3.788  11.853 -0.1753  0.2322  0.2608
 2461SOL    HW118845   3.320   3.770  11.829 -0.6336  1.5142  1.0411
 2461SOL    HW218846   3.453   3.702  11.850  0.1542  0.4335 -1.1399
 2462SOL     OW18847   3.299   0.546  14.696 -0.3154 -0.0649 -0.2233
 2462SOL    HW118848   3.372   0.485  14.704 -0.9374 -0.6914  0.6336
 2462SOL    HW218849   3.245   0.507  14.627  0.0511 -0.4237 -0.3015
 2463SOL     OW18850   1.756   3.454  17.519  0.1810 -0.1032 -0.7361
 2463SOL    HW118851   1.723   3.504  17.594 -1.5289 -3.2659  0.6430
 2463SOL    HW218852   1.734   3.365  17.546  1.7748  0.2185  1.6496
 2464SOL     OW18853   4.462   3.488   4.811 -0.2188 -0.2756  0.0545
 2464SOL    HW118854   4.421   3.463   4.728  0.7612  2.3356 -1.2084
 2464SOL    HW218855   4.523   3.414   4.819 -2.5405 -2.0018  1.6694
 2465SOL     OW18856   1.830   4.572   9.089 -0.3442 -0.1003  0.1565
 2465SOL    HW118857   1.814   4.637   9.020  1.4925  0.3564  0.1656
 2465SOL    HW218858   1.847   4.489   9.045  0.6388  0.6076 -0.7773
 2466SOL     OW18859   3.560   1.755   5.236 -0.4391 -0.1434 -0.0499
 2466SOL    HW118860   3.591   1.731   5.149  1.1601 -0.6825  0.6673
 2466SOL    HW218861   3.473   1.784   5.209  0.2236  1.3029 -0.6205
 2467SOL     OW18862   2.485   0.510   3.709  0.0958 -0.6938 -0.3898
 2467SOL    HW118863   2.513   0.494   3.619 -0.3125  1.8057 -0.9650
 2467SOL    HW218864   2.411   0.570   3.698  0.8899  0.3462 -0.0981
 2468SOL     OW18865   2.644   3.569   5.155 -0.1268 -0.1295 -0.0442
 2468SOL    HW118866   2.634   3.475   5.163  1.4058 -0.2860 -0.0922
 2468SOL    HW218867   2.739   3.575   5.151 -0.0503 -2.0152 -0.9222
 2469SOL     OW18868   2.283   3.467   5.241 -0.2079 -0.0309 -0.8131
 2469SOL    HW118869   2.376   3.482   5.255  0.0357  0.6027 -3.1135
 2469SOL    HW218870   2.278   3.551   5.197 -1.6489  0.3895  0.1517
 2470SOL     OW18871   2.256   3.228  16.514 -0.4178 -0.2792 -0.0798
 2470SOL    HW118872   2.284   3.137  16.503 -1.1327 -0.2639 -2.1153
 2470SOL    HW218873   2.296   3.252  16.597  0.1398  0.8591 -0.6834
 2471SOL     OW18874   2.313   3.886  14.910 -0.3835 -0.0007  0.3099
 2471SOL    HW118875   2.384   3.944  14.881 -0.2861  0.8075  2.1495
 2471SOL    HW218876   2.291   3.831  14.835 -0.6899  2.6450 -1.5224
 2472SOL     OW18877   2.341   3.414   8.586 -0.2133 -0.0150  0.0910
 2472SOL    HW118878   2.339   3.494   8.638 -0.4031  0.0504 -0.0165
 2472SOL    HW218879   2.432   3.407   8.558  0.3118 -1.0920  2.1233
 2473SOL     OW18880   3.891   1.781  10.722  0.2793 -0.4841 -0.3970
 2473SOL    HW118881   3.924   1.789  10.812 -2.1524  1.4160  0.3325
 2473SOL    HW218882   3.930   1.863  10.691  0.5840 -0.1591  0.8278
 2474SOL     OW18883   3.925   0.580   3.581  0.0083  0.3777 -0.0163
 2474SOL    HW118884   3.979   0.650   3.545  2.4064 -0.7165  1.4187
 2474SOL    HW218885   3.930   0.589   3.677  3.6602  0.3148 -0.1675
 2475SOL     OW18886   2.975   0.949  11.860  0.2252 -0.0914  0.1932
 2475SOL    HW118887   2.926   0.970  11.939  0.1984 -2.4967  0.8312
 2475SOL    HW218888   2.963   0.855  11.841  0.7959 -0.3075  0.9466
 2476SOL     OW18889   4.483   4.312   2.006  0.0053 -0.3962 -0.3092
 2476SOL    HW118890   4.420   4.376   2.039  0.6089 -0.7509  1.5402
 2476SOL    HW218891   4.509   4.351   1.923  0.5306 -0.2503 -0.0701
 2477SOL     OW18892   0.199   0.237   5.175 -0.3695  0.3825  0.5502
 2477SOL    HW118893   0.173   0.200   5.091 -1.7471 -0.1641  1.2204
 2477SOL    HW218894   0.279   0.283   5.150  0.3775 -1.4021 -0.3901
 2478SOL     OW18895   4.342   2.534   5.402  0.2365  0.0630  0.5910
 2478SOL    HW118896   4.432   2.566   5.399  0.8555 -1.5940  1.7062
 2478SOL    HW218897   4.356   2.440   5.403 -0.9426 -0.0871  2.7373
 2479SOL     OW18898   4.137   0.780   6.968  0.5061  0.4539  0.2339
 2479SOL    HW118899   4.050   0.761   6.931  0.6938  2.7301 -1.3541
 2479SOL    HW218900   4.187   0.699   6.955 -0.3057  0.0646 -0.4664
 2480SOL     OW18901   3.229   0.642   5.710  0.6073  0.3537 -0.3723
 2480SOL    HW118902   3.171   0.576   5.747  0.6097  0.4674 -0.1653
 2480SOL    HW218903   3.291   0.643   5.783  1.2428  0.9314 -0.9221
 2481SOL     OW18904   2.623   4.466   3.181 -0.1009  0.2920 -0.9047
 2481SOL    HW118905   2.652   4.556   3.166  2.1108 -0.1468  0.7241
 2481SOL    HW218906   2.535   4.483   3.216  0.0043 -0.6079 -0.2055
 2482SOL     OW18907   2.630   1.219  16.968 -0.1974  0.1902 -0.6318
 2482SOL    HW118908   2.680   1.139  16.986  2.6100  2.0724 -0.0471
 2482SOL    HW218909   2.602   1.240  17.057 -0.3896 -0.0290 -0.6400
 2483SOL     OW18910   3.114   2.626   8.791  0.0494 -0.3126 -0.4951
 2483SOL    HW118911   3.135   2.674   8.871  0.3007  0.1655 -0.8510
 2483SOL    HW218912   3.102   2.695   8.726  1.3937  0.7099  0.3323
 2484SOL     OW18913   3.499   4.078   5.223  0.2524  0.5028  0.7099
 2484SOL    HW118914   3.492   4.026   5.144 -0.0904  1.0040  0.4124
 2484SOL    HW218915   3.405   4.096   5.233  0.2437  0.1572  1.2739
 2485SOL     OW18916   3.116   4.397   0.414 -0.2916 -0.1035  0.1544
 2485SOL    HW118917   3.123   4.492   0.416  0.9338 -0.1992  0.4217
 2485SOL    HW218918   3.202   4.367   0.385 -0.9401  0.8948 -2.7255
 2486SOL     OW18919   4.368   2.798   2.904 -0.0733  0.0343 -0.1699
 2486SOL    HW118920   4.384   2.788   2.810 -0.3824 -0.5592 -0.1596
 2486SOL    HW218921   4.422   2.874   2.925 -1.9283  1.7462 -1.5629
 2487SOL     OW18922   1.537   3.892  12.666  0.3106  0.3914 -0.5429
 2487SOL    HW118923   1.595   3.955  12.623  0.9498  0.6531  0.7142
 2487SOL    HW218924   1.596   3.848  12.728 -1.6047 -0.7047  0.4930
 2488SOL     OW18925   4.043   1.797   7.646 -0.1131 -0.4246  0.0107
 2488SOL    HW118926   3.964   1.778   7.595  0.2133 -0.4552 -0.4889
 2488SOL    HW218927   4.075   1.877   7.605 -2.4743 -0.2065 -1.3893
 2489SOL     OW18928   1.407   2.656   4.635  0.1565  0.3541 -0.1357
 2489SOL    HW118929   1.393   2.749   4.652  0.9379  0.0032  2.4075
 2489SOL    HW218930   1.321   2.622   4.660  1.0343 -2.5628 -1.0769
 2490SOL     OW18931   4.314   2.042   4.079 -0.4472 -0.0555  0.2547
 2490SOL    HW118932   4.338   2.014   3.990  1.1379 -2.8278  1.5690
 2490SOL    HW218933   4.233   2.089   4.061 -0.5756 -0.9829 -1.6522
 2491SOL     OW18934   4.113   0.492   1.122 -0.1322  0.3756  0.1745
 2491SOL    HW118935   4.089   0.438   1.047 -0.3706  0.8283 -0.0713
 2491SOL    HW218936   4.128   0.410   1.169  0.2663  0.6032  0.4532
 2492SOL     OW18937   2.587   0.335  10.781 -0.0880 -0.7109 -0.0187
 2492SOL    HW118938   2.638   0.415  10.768 -0.8669  0.2061  2.5687
 2492SOL    HW218939   2.626   0.284  10.710  1.5235  0.0856  0.2895
 2493SOL     OW18940   0.851   0.107  10.052  0.3734 -0.0678 -0.0676
 2493SOL    HW118941   0.858   0.013  10.066 -0.1856  0.0729  1.1876
 2493SOL    HW218942   0.944   0.129  10.038  0.5128  0.4137  1.6203
 2494SOL     OW18943   4.541   3.016   7.508  0.3456  0.5212  0.0919
 2494SOL    HW118944   4.542   2.985   7.418 -2.3160 -1.9455  0.8940
 2494SOL    HW218945   4.449   3.040   7.520  0.9493  1.8572  2.1342
 2495SOL     OW18946   3.344   4.555   9.989 -0.1197 -0.5609 -0.6203
 2495SOL    HW118947   3.397   4.563  10.069 -2.5688 -3.1689  1.2398
 2495SOL    HW218948   3.376   4.473   9.951  1.1771 -0.1859 -0.3431
 2496SOL     OW18949   0.164   1.521   8.165  0.4663  0.3524 -0.3778
 2496SOL    HW118950   0.206   1.523   8.251 -1.8056  0.3735  0.7354
 2496SOL    HW218951   0.101   1.450   8.179  1.3942 -0.1833  1.1341
 2497SOL     OW18952   0.951   0.799   8.229  0.4359 -0.1803  0.1425
 2497SOL    HW118953   0.995   0.714   8.221  2.0830  0.7975 -1.1645
 2497SOL    HW218954   0.978   0.854   8.155  2.0758 -1.1226  0.0451
 2498SOL     OW18955   1.956   1.210   7.744 -0.2475  0.1477 -0.2828
 2498SOL    HW118956   2.045   1.224   7.711 -0.2183  1.4920  0.3911
 2498SOL    HW218957   1.920   1.298   7.755 -2.0727 -0.9678  2.7227
 2499SOL     OW18958   3.568   1.726   8.583  0.0328  0.2662  0.2155
 2499SOL    HW118959   3.522   1.803   8.616 -1.5208 -0.8384  0.6391
 2499SOL    HW218960   3.655   1.733   8.623  0.8412 -2.1826 -1.1142
 2500SOL     OW18961   2.394   1.616   6.424  0.2064  0.3002  0.3231
 2500SOL    HW118962   2.380   1.662   6.341  0.5847  0.3861  0.3035
 2500SOL    HW218963   2.305   1.629   6.456  1.4087  0.6461  3.5075
 2501SOL     OW18964   1.083   2.693   5.840 -0.2427  0.1354  0.2321
 2501SOL    HW118965   1.106   2.771   5.789  0.9735  0.9949  2.1407
 2501SOL    HW218966   1.073   2.629   5.769  1.1601 -0.3237  0.4523
 2502SOL     OW18967   2.681   0.447   0.963  0.6013  0.0855  0.4655
 2502SOL    HW118968   2.720   0.533   0.974  1.2599 -0.3820  1.7331
 2502SOL    HW218969   2.599   0.452   1.012  0.8464 -0.1860  0.9034
 2503SOL     OW18970   1.330   1.870   4.229  0.0896 -0.3034  0.7871
 2503SOL    HW118971   1.351   1.826   4.312  1.2205  0.8687  1.1318
 2503SOL    HW218972   1.409   1.853   4.178 -0.7778 -1.1793 -0.2665
 2504SOL     OW18973   1.487   3.589   8.241  0.3088  0.2293 -0.3638
 2504SOL    HW118974   1.538   3.668   8.259  2.3013 -0.9457 -0.8587
 2504SOL    HW218975   1.401   3.630   8.254  1.5516  3.4756 -2.3643
 2505SOL     OW18976   1.775   2.374   5.593  0.4964  0.4032  0.3707
 2505SOL    HW118977   1.860   2.414   5.578  0.9488 -0.5750  0.3529
 2505SOL    HW218978   1.773   2.295   5.539  0.9647 -0.4186  1.5576
 2506SOL     OW18979   1.604   3.049   6.397 -0.9869  0.0476 -0.0313
 2506SOL    HW118980   1.554   3.068   6.476  0.6852  0.2044  1.0028
 2506SOL    HW218981   1.643   2.963   6.413  2.0098  1.5764  0.9127
 2507SOL     OW18982   1.419   3.573   4.649 -0.2530  0.5849 -0.2971
 2507SOL    HW118983   1.346   3.545   4.594  0.4443  1.1467 -1.4882
 2507SOL    HW218984   1.376   3.641   4.701 -4.3201 -0.5141 -2.2719
 2508SOL     OW18985   1.638   3.728  14.498 -0.2499  0.4561 -0.1254
 2508SOL    HW118986   1.550   3.760  14.517  0.3625  1.5115  0.8809
 2508SOL    HW218987   1.692   3.746  14.574 -0.1635  0.3050 -0.1497
 2509SOL     OW18988   3.326   1.159   4.184 -0.5940 -0.2338 -0.2956
 2509SOL    HW118989   3.350   1.226   4.247 -2.7042 -0.8852  1.1719
 2509SOL    HW218990   3.322   1.213   4.105 -1.7278  0.9932  0.6086
 2510SOL     OW18991   0.204   3.317  15.009 -0.3597  0.0820 -0.5165
 2510SOL    HW118992   0.118   3.329  14.969  1.0381  1.9733 -2.9271
 2510SOL    HW218993   0.216   3.224  15.030 -0.1258  0.3138  0.3884
 2511SOL     OW18994   2.164   1.302   2.302 -0.0424 -0.1953  0.8244
 2511SOL    HW118995   2.138   1.325   2.213 -1.7638 -2.4157  0.7619
 2511SOL    HW218996   2.247   1.262   2.276 -0.7545 -0.9121 -0.3050
 2512SOL     OW18997   0.058   4.591   1.473 -0.4016  0.1060  0.8227
 2512SOL    HW118998   4.682   4.575   1.468  0.2845 -3.5482 -0.3302
 2512SOL    HW218999   0.070   4.665   1.413  2.9337 -0.8134  0.3282
 2513SOL     OW19000   1.699   1.274   2.489  0.3690 -0.5318 -0.2894
 2513SOL    HW119001   1.628   1.213   2.470  0.6388 -0.7268 -0.6835
 2513SOL    HW219002   1.717   1.305   2.400  0.5403  1.3857  0.4240
 2514SOL     OW19003   3.353   2.384   6.314 -0.0721  0.2953  0.0731
 2514SOL    HW119004   3.443   2.350   6.312 -0.1369  0.2464 -1.5712
 2514SOL    HW219005   3.376   2.461   6.365  1.2774  0.7584 -1.2416
 2515SOL     OW19006   2.368   0.873  13.076 -0.3096 -0.2127  0.6012
 2515SOL    HW119007   2.432   0.931  13.116 -0.3262 -0.7557  1.4278
 2515SOL    HW219008   2.400   0.785  13.096 -0.2783 -0.1030  1.0405
 2516SOL     OW19009   1.074   2.558   7.887 -0.1475  0.1814 -0.2815
 2516SOL    HW119010   1.157   2.602   7.871 -0.7529  1.1755 -0.6894
 2516SOL    HW219011   1.018   2.621   7.933  0.5839  0.0011  0.8498
 2517SOL     OW19012   4.100   3.123   4.436  0.2986  0.7501  0.8475
 2517SOL    HW119013   4.188   3.098   4.409  0.2340  1.6823 -0.2329
 2517SOL    HW219014   4.054   3.091   4.358 -0.0238 -1.5992  2.0100
 2518SOL     OW19015   1.184   1.938  13.308 -0.0818  0.2631  0.2056
 2518SOL    HW119016   1.277   1.918  13.303 -0.3880 -1.3096  0.7030
 2518SOL    HW219017   1.144   1.891  13.234  1.9450 -1.5127  0.2263
 2519SOL     OW19018   3.590   4.314  17.080 -0.2090  0.3600  0.3898
 2519SOL    HW119019   3.645   4.392  17.088  1.9581 -1.2002  0.7876
 2519SOL    HW219020   3.539   4.321  17.160 -0.5837 -3.7981  0.5571
 2520SOL     OW19021   1.240   3.501  11.573 -0.0204 -0.0349  0.2703
 2520SOL    HW119022   1.224   3.416  11.532  0.8063  0.5827 -1.3405
 2520SOL    HW219023   1.165   3.550  11.540  0.3555  1.2358  1.3425
 2521SOL     OW19024   3.853   0.630   3.138  0.3215 -0.4015  0.2802
 2521SOL    HW119025   3.780   0.574   3.111 -0.6852 -0.2441  2.6698
 2521SOL    HW219026   3.813   0.695   3.196 -1.4043  0.2918 -1.7077
 2522SOL     OW19027   2.277   0.319   0.796 -0.4029  0.0976  0.3144
 2522SOL    HW119028   2.352   0.281   0.843  0.7281  0.9073 -0.8299
 2522SOL    HW219029   2.312   0.317   0.707 -0.5350 -0.4993  0.2784
 2523SOL     OW19030   3.737   0.618  12.925  0.6509  0.0289  0.1798
 2523SOL    HW119031   3.797   0.608  13.000  0.9460 -0.3317 -0.1050
 2523SOL    HW219032   3.655   0.640  12.969 -0.3620 -0.1670 -1.6388
 2524SOL     OW19033   3.700   0.342   7.873  0.1725 -0.1012  0.2801
 2524SOL    HW119034   3.714   0.356   7.966  2.2494 -1.4043  0.1710
 2524SOL    HW219035   3.687   0.434   7.851 -1.4034 -1.0552 -2.8208
 2525SOL     OW19036   3.317   0.911   7.057  0.0003 -0.0710 -0.1221
 2525SOL    HW119037   3.342   0.994   7.017 -1.3625  0.4589  0.1306
 2525SOL    HW219038   3.231   0.946   7.080 -0.7303 -0.0596 -2.8090
 2526SOL     OW19039   0.776   0.710  14.249  0.5912  0.2046  0.0226
 2526SOL    HW119040   0.868   0.711  14.221  1.4281  1.2320  2.8117
 2526SOL    HW219041   0.741   0.690  14.163  1.0997 -2.6694  0.4831
 2527SOL     OW19042   1.526   3.061   4.150 -0.3784  0.3041  0.2047
 2527SOL    HW119043   1.574   3.015   4.081  1.3994 -0.3670  1.9019
 2527SOL    HW219044   1.434   3.034   4.145  0.6284 -3.1638  0.2628
 2528SOL     OW19045   3.092   0.487  14.470 -0.3976  0.4088 -0.2484
 2528SOL    HW119046   3.073   0.452  14.382 -0.7738 -1.9833  0.7800
 2528SOL    HW219047   3.145   0.561  14.442 -0.8618  1.1360  0.7906
 2529SOL     OW19048   3.819   1.305   2.686  0.3861 -0.3219  0.0154
 2529SOL    HW119049   3.826   1.397   2.711  1.1288 -0.7938  1.5239
 2529SOL    HW219050   3.737   1.328   2.642 -0.1878 -3.1375 -0.3689
 2530SOL     OW19051   3.764   2.966   4.067 -0.6378 -0.1242 -1.0588
 2530SOL    HW119052   3.678   2.996   4.095 -0.8405 -0.9490 -0.8123
 2530SOL    HW219053   3.752   2.872   4.079  0.0322 -0.0119  0.4278
 2531SOL     OW19054   2.983   2.281   4.586 -0.3434  0.2047 -0.3219
 2531SOL    HW119055   2.971   2.356   4.528 -0.8272  0.4200  0.0567
 2531SOL    HW219056   3.007   2.213   4.523 -2.2801 -1.9564  1.3218
 2532SOL     OW19057   3.804   2.302   4.479 -0.0516 -0.2294  0.4617
 2532SOL    HW119058   3.874   2.275   4.420  0.4326  2.0070  0.0177
 2532SOL    HW219059   3.825   2.262   4.564  0.5654  0.6325  0.7149
 2533SOL     OW19060   3.030   3.080   6.752  0.2526  0.6350 -0.0810
 2533SOL    HW119061   2.948   3.055   6.795  0.0213  0.0071 -0.8920
 2533SOL    HW219062   3.014   3.086   6.658  0.0092 -3.0520 -0.2746
 2534SOL     OW19063   2.713   1.869   4.987  0.0444  0.0458  0.0618
 2534SOL    HW119064   2.674   1.951   5.018 -0.5813  0.0749 -0.7999
 2534SOL    HW219065   2.802   1.896   4.961 -0.5523 -0.5396 -2.6207
 2535SOL     OW19066   4.135   2.297   2.315 -0.1884  0.4345  0.4640
 2535SOL    HW119067   4.075   2.327   2.248 -0.7188 -0.5005  0.5227
 2535SOL    HW219068   4.209   2.353   2.290  0.2366 -2.2003 -4.1007
 2536SOL     OW19069   1.714   4.268   3.152  0.7224  0.7182 -0.0447
 2536SOL    HW119070   1.718   4.253   3.058 -1.5668  0.1322 -0.0708
 2536SOL    HW219071   1.620   4.257   3.171  1.1232 -0.8639  1.0510
 2537SOL     OW19072   4.567   1.942   8.490  0.1853 -0.0081 -0.4940
 2537SOL    HW119073   4.614   1.985   8.563 -1.7504  0.8753  0.2347
 2537SOL    HW219074   4.640   1.900   8.446  1.9082  1.1512  1.2012
 2538SOL     OW19075   3.362   3.812   0.288 -0.6510  0.0149  0.6434
 2538SOL    HW119076   3.280   3.804   0.239  2.1395  0.3808 -4.0859
 2538SOL    HW219077   3.410   3.737   0.253 -0.6052  0.8971 -1.1631
 2539SOL     OW19078   0.768   3.299   9.439  0.2230  0.1142 -0.0837
 2539SOL    HW119079   0.739   3.267   9.524 -0.2780 -0.5855 -0.5242
 2539SOL    HW219080   0.823   3.229   9.402 -0.7786  0.0690 -1.4837
 2540SOL     OW19081   1.563   3.182   9.505  0.1593  0.1887  0.2173
 2540SOL    HW119082   1.651   3.219   9.497  1.1302 -1.7892  1.8443
 2540SOL    HW219083   1.546   3.156   9.414 -0.5067  2.1456 -0.2187
 2541SOL     OW19084   1.919   4.372   4.431  0.3553 -0.1480  0.2548
 2541SOL    HW119085   1.976   4.449   4.428  0.3116 -0.1739 -1.2159
 2541SOL    HW219086   1.889   4.381   4.522 -1.8794  0.7507 -0.5692
 2542SOL     OW19087   4.705   4.323  12.220 -0.3261 -0.5013 -0.6520
 2542SOL    HW119088   0.034   4.351  12.298 -0.6803 -0.4829 -0.4458
 2542SOL    HW219089   4.614   4.310  12.248 -0.1555  1.5303  0.8227
 2543SOL     OW19090   2.927   4.122   9.471  0.1100  0.6826 -0.3076
 2543SOL    HW119091   2.961   4.212   9.468 -0.4876  0.9915  2.1064
 2543SOL    HW219092   2.968   4.082   9.395  1.2528 -0.2167  0.7871
 2544SOL     OW19093   0.088   0.665   6.123 -0.2528 -0.2656 -0.1690
 2544SOL    HW119094   0.129   0.582   6.099  1.0304  0.3858 -0.2722
 2544SOL    HW219095   0.002   0.648   6.084  0.1098 -2.6180  0.0601
 2545SOL     OW19096   0.799   1.046   6.257 -0.3423 -0.1816 -0.1518
 2545SOL    HW119097   0.704   1.059   6.263 -0.2714  0.6451 -0.8354
 2545SOL    HW219098   0.823   1.048   6.350  0.4754 -1.9973 -0.3367
 2546SOL     OW19099   3.665   2.183   0.468  0.6561  0.6791 -0.4967
 2546SOL    HW119100   3.647   2.198   0.561  0.2837 -0.8914 -0.3142
 2546SOL    HW219101   3.729   2.112   0.471  0.0416  0.0329 -3.1423
 2547SOL     OW19102   1.363   3.221   0.965  0.2556 -0.3034  0.3001
 2547SOL    HW119103   1.289   3.166   0.938  1.4654 -1.1345 -1.3421
 2547SOL    HW219104   1.326   3.271   1.037  0.1301 -0.2459  0.1952
 2548SOL     OW19105   0.720   2.720   6.290 -0.0342 -0.3032 -0.9739
 2548SOL    HW119106   0.703   2.692   6.200 -2.5246 -0.4003 -0.4862
 2548SOL    HW219107   0.748   2.811   6.281  1.8952 -0.6479  1.4944
 2549SOL     OW19108   4.259   1.844   1.593  0.6462  0.2313 -0.9154
 2549SOL    HW119109   4.284   1.934   1.572 -0.7510  0.8800  0.1936
 2549SOL    HW219110   4.165   1.860   1.601  0.6823  1.8726 -3.7007
 2550SOL     OW19111   3.767   2.377   8.744 -0.3503 -0.1369 -0.0401
 2550SOL    HW119112   3.745   2.403   8.833 -0.4277 -1.7526  0.4178
 2550SOL    HW219113   3.860   2.355   8.754 -0.6005 -0.4277  1.6420
 2551SOL     OW19114   0.520   0.709   6.857  0.5109 -0.4848  0.1428
 2551SOL    HW119115   0.501   0.766   6.783 -0.0830 -0.2788  0.4521
 2551SOL    HW219116   0.437   0.715   6.903  0.1091 -0.9467 -0.5220
 2552SOL     OW19117   1.208   2.579   8.303 -0.2541  0.1249 -0.2978
 2552SOL    HW119118   1.276   2.514   8.286 -0.4770 -0.0129 -0.6552
 2552SOL    HW219119   1.130   2.524   8.298 -0.6257  0.5967  0.2481
 2553SOL     OW19120   0.727   2.944  10.762  0.0573  0.5054 -0.5421
 2553SOL    HW119121   0.705   2.949  10.855 -0.4505 -1.2554 -0.5595
 2553SOL    HW219122   0.783   2.868  10.776 -1.4489 -0.3232  1.0015
 2554SOL     OW19123   3.838   0.444  16.267  0.3562  0.7268 -0.2699
 2554SOL    HW119124   3.895   0.496  16.324 -0.0160 -1.6592  2.3035
 2554SOL    HW219125   3.841   0.499  16.189  1.9904  3.2414  1.5229
 2555SOL     OW19126   0.898   4.225   4.420 -0.4122  0.2583 -0.2207
 2555SOL    HW119127   0.805   4.221   4.442 -0.8771  1.1198 -2.0003
 2555SOL    HW219128   0.893   4.176   4.338  1.4643  1.4679 -1.0432
 2556SOL     OW19129   1.598   3.997  15.215  0.3334 -0.1558 -0.0843
 2556SOL    HW119130   1.590   4.051  15.136 -1.0132 -1.2709 -0.7231
 2556SOL    HW219131   1.510   4.017  15.247  0.8937  0.7295  0.8790
 2557SOL     OW19132   1.446   3.801   1.283 -0.2362  0.0545 -0.5239
 2557SOL    HW119133   1.508   3.832   1.349 -0.3712  0.0319 -0.3858
 2557SOL    HW219134   1.364   3.830   1.322 -1.1561 -2.5080 -0.5783
 2558SOL     OW19135   3.785   1.371   3.732  0.5710  0.3042 -0.2129
 2558SOL    HW119136   3.784   1.463   3.706 -0.7710  0.3996  0.1746
 2558SOL    HW219137   3.716   1.386   3.796  1.1774  0.0512  0.5115
 2559SOL     OW19138   0.241   3.153  12.919 -0.0178 -0.1268  0.4246
 2559SOL    HW119139   0.186   3.212  12.971  0.3021  1.2599 -0.8278
 2559SOL    HW219140   0.184   3.079  12.897  0.9664 -0.7468 -0.0135
 2560SOL     OW19141   3.131   4.413  10.584  0.2989  0.3399 -0.4607
 2560SOL    HW119142   3.092   4.500  10.594 -0.8012 -0.1244 -0.8305
 2560SOL    HW219143   3.137   4.378  10.673  3.5555 -2.3531 -1.7627
 2561SOL     OW19144   3.294   2.493  17.675  0.1498  0.4240 -0.3688
 2561SOL    HW119145   3.267   2.529  17.591 -2.3745 -0.6707 -0.0198
 2561SOL    HW219146   3.354   2.426  17.644  0.1083  0.1279  0.1816
 2562SOL     OW19147   1.722   1.852   3.302  0.6077  0.3487 -0.9470
 2562SOL    HW119148   1.806   1.897   3.311  1.1416 -1.3218  2.3312
 2562SOL    HW219149   1.703   1.862   3.209 -0.8227  0.0597 -0.6779
 2563SOL     OW19150   3.962   2.530  14.925 -0.7001  0.1322  0.2876
 2563SOL    HW119151   3.983   2.523  14.832  1.5734  0.4442  0.7736
 2563SOL    HW219152   3.879   2.577  14.923 -0.8845 -0.1319  2.1522
 2564SOL     OW19153   3.601   0.171   2.634 -0.3896 -0.2332  0.0040
 2564SOL    HW119154   3.659   0.102   2.602  0.5889  1.5952 -2.1751
 2564SOL    HW219155   3.589   0.237   2.565 -2.4113 -0.1369  0.4614
 2565SOL     OW19156   3.981   1.887   2.796 -0.3661  0.2008 -0.4597
 2565SOL    HW119157   3.943   1.810   2.752  0.2201 -0.1234 -0.4009
 2565SOL    HW219158   4.002   1.946   2.724 -2.3488  0.3299 -0.9489
 2566SOL     OW19159   2.267   2.430   6.603 -0.1374  0.3078 -0.2401
 2566SOL    HW119160   2.226   2.355   6.645 -2.0261  1.3027 -0.3193
 2566SOL    HW219161   2.228   2.431   6.516 -1.4404  1.2512  0.3647
 2567SOL     OW19162   2.896   1.651   7.833  0.1767 -0.2497  0.1062
 2567SOL    HW119163   2.971   1.696   7.873  1.9190 -0.9794 -2.3565
 2567SOL    HW219164   2.861   1.729   7.789 -0.4265 -0.5834  0.0031
 2568SOL     OW19165   3.746   0.679  10.780  0.2863  0.0754 -0.0171
 2568SOL    HW119166   3.807   0.743  10.816  0.2605  1.8717 -3.1887
 2568SOL    HW219167   3.672   0.689  10.840  0.7232  0.2752  0.4896
 2569SOL     OW19168   2.464   3.990   6.361  0.3733  0.1629  0.2570
 2569SOL    HW119169   2.384   4.042   6.360  0.3373  0.0769 -1.1430
 2569SOL    HW219170   2.528   4.061   6.364  1.5369 -0.8429 -0.5962
 2570SOL     OW19171   0.384   0.734   8.286  0.0206  0.1337 -0.3244
 2570SOL    HW119172   0.434   0.801   8.333 -1.3207  1.1761 -0.3730
 2570SOL    HW219173   0.448   0.684   8.236 -2.1086 -0.4077 -2.5171
 2571SOL     OW19174   4.209   0.124   6.526  0.6007  0.1827  0.2409
 2571SOL    HW119175   4.225   0.045   6.476  0.9597  1.0654 -1.0283
 2571SOL    HW219176   4.297   0.162   6.531  0.3342  0.7748  0.4357
 2572SOL     OW19177   2.418   2.496  11.632 -0.0212 -0.7516 -0.3414
 2572SOL    HW119178   2.447   2.531  11.548 -0.4874  0.2184 -0.0945
 2572SOL    HW219179   2.426   2.564  11.699  0.8229 -1.2254  0.0481
 2573SOL     OW19180   3.714   2.601   5.975  0.2633 -0.7418 -0.2839
 2573SOL    HW119181   3.636   2.558   5.940 -1.6526  2.0628  0.4633
 2573SOL    HW219182   3.740   2.654   5.900 -1.6494  0.5864 -0.0140
 2574SOL     OW19183   4.661   3.430   8.063  0.3742  0.0951  1.0109
 2574SOL    HW119184   4.672   3.390   8.149 -0.3876  0.3285  1.2164
 2574SOL    HW219185   0.027   3.411   8.022 -1.2097 -1.6944 -1.4693
 2575SOL     OW19186   4.528   2.694   8.445 -0.2077  0.4431  0.4610
 2575SOL    HW119187   4.446   2.743   8.443 -0.6718 -0.2994  1.4751
 2575SOL    HW219188   4.599   2.755   8.467 -2.0861  1.8689  2.5071
 2576SOL     OW19189   1.019   1.072   4.051  0.0297  0.4532  0.2682
 2576SOL    HW119190   1.052   1.111   4.132 -2.0235  1.3705  0.6873
 2576SOL    HW219191   0.929   1.071   4.084 -0.1093 -2.2297 -0.1947
 2577SOL     OW19192   4.077   4.158   4.066 -0.0999 -0.0572 -0.5125
 2577SOL    HW119193   4.054   4.221   3.998 -0.5545 -0.6196 -0.8761
 2577SOL    HW219194   4.110   4.219   4.132  1.7424  1.9223 -3.2797
 2578SOL     OW19195   2.421   2.701   7.582  0.0805 -0.6459  0.1991
 2578SOL    HW119196   2.388   2.613   7.569 -0.4244 -0.3839 -0.3095
 2578SOL    HW219197   2.417   2.710   7.678 -0.4923 -1.2131  0.2245
 2579SOL     OW19198   2.358   4.234   1.203  0.6744 -0.2240  0.2020
 2579SOL    HW119199   2.410   4.162   1.167  0.8036  0.0675 -0.2086
 2579SOL    HW219200   2.374   4.295   1.131  0.8800 -2.3544 -1.5684
 2580SOL     OW19201   3.631   4.376   1.834 -0.3176  0.6814  0.6048
 2580SOL    HW119202   3.566   4.341   1.773  0.5117  1.1135 -0.5262
 2580SOL    HW219203   3.641   4.468   1.810 -4.2646  0.9824  0.0435
 2581SOL     OW19204   4.345   4.686  12.280 -0.3414 -0.0057 -0.4850
 2581SOL    HW119205   4.345   0.029  12.354  0.7479  0.4140 -0.8231
 2581SOL    HW219206   4.309   0.014  12.204 -0.3976 -0.4438 -0.7252
 2582SOL     OW19207   3.928   3.696   8.002 -0.3280  0.1136 -0.0493
 2582SOL    HW119208   3.866   3.697   8.075  1.0165  2.7565  1.0584
 2582SOL    HW219209   3.940   3.791   8.004  1.9057 -0.1547 -1.3468
 2583SOL     OW19210   0.513   4.482  17.458 -0.3534 -0.8126  0.5860
 2583SOL    HW119211   0.529   4.491  17.552 -0.3385 -1.5806  0.6534
 2583SOL    HW219212   0.603   4.459  17.435  0.1269 -1.1914  2.8611
 2584SOL     OW19213   1.070   2.920   2.729 -0.3901  0.1878  0.6110
 2584SOL    HW119214   1.019   2.865   2.789  0.3077 -0.6821  0.4108
 2584SOL    HW219215   1.157   2.880   2.728  0.3542  1.8013  1.1645
 2585SOL     OW19216   1.299   3.463   7.598 -0.0670 -0.3341  0.4125
 2585SOL    HW119217   1.230   3.474   7.663 -0.0164  0.7129  0.2941
 2585SOL    HW219218   1.360   3.404   7.643 -1.9074 -1.1853  1.7809
 2586SOL     OW19219   4.385   1.570   8.664 -0.2497 -0.1579 -0.6751
 2586SOL    HW119220   4.405   1.511   8.591  2.0471  0.5965 -0.6499
 2586SOL    HW219221   4.447   1.539   8.730 -0.5258  0.4743 -0.1185
 2587SOL     OW19222   4.177   0.317   8.789 -0.3554  0.5231 -0.4786
 2587SOL    HW119223   4.181   0.347   8.880  1.0502 -1.7990  0.2374
 2587SOL    HW219224   4.233   0.377   8.741  0.6820  0.8916  1.1693
 2588SOL     OW19225   1.415   2.777   3.934 -0.0451  0.2788  0.1825
 2588SOL    HW119226   1.385   2.746   3.848  0.8988 -1.2771  0.4152
 2588SOL    HW219227   1.439   2.694   3.976 -0.5494  0.3368  0.5876
 2589SOL     OW19228   2.381   1.798  10.015  0.3376  0.6572 -1.1189
 2589SOL    HW119229   2.397   1.867  10.079 -2.6923  1.0987 -0.8612
 2589SOL    HW219230   2.455   1.745  10.045 -0.8585 -0.2680  0.1672
 2590SOL     OW19231   0.107   0.201   8.138  0.9959  0.5130 -0.1780
 2590SOL    HW119232   0.167   0.211   8.212  1.6707  0.0994 -0.6715
 2590SOL    HW219233   0.137   0.256   8.065 -1.1916  2.0085  0.0482
 2591SOL     OW19234   0.452   2.575   6.837  0.3642  0.1554  0.3446
 2591SOL    HW119235   0.456   2.661   6.795  2.0770 -1.5450 -2.9839
 2591SOL    HW219236   0.541   2.543   6.822  0.0236  1.0420 -3.6053
 2592SOL     OW19237   1.289   4.152   0.831  0.4866 -0.2666 -0.5583
 2592SOL    HW119238   1.359   4.114   0.777 -0.1793 -1.0589 -0.8561
 2592SOL    HW219239   1.304   4.092   0.904  1.0609  0.5039 -0.0478
 2593SOL     OW19240   4.299   0.753   3.812 -0.1657  0.0458  0.3491
 2593SOL    HW119241   4.261   0.820   3.755 -1.7143 -0.9346  0.1974
 2593SOL    HW219242   4.360   0.801   3.867  0.9522  0.8457 -1.6097
 2594SOL     OW19243   2.819   3.576   3.326  0.6181  0.0155  0.0158
 2594SOL    HW119244   2.812   3.507   3.392  0.9952 -0.1509 -0.1143
 2594SOL    HW219245   2.730   3.580   3.291  0.2555  0.6479  1.0390
 2595SOL     OW19246   0.260   0.592   5.469  0.1726 -0.7405 -0.0308
 2595SOL    HW119247   0.289   0.569   5.381  1.2716  0.1239  0.1079
 2595SOL    HW219248   0.325   0.659   5.490  1.7973 -1.2990 -3.2327
 2596SOL     OW19249   1.927   0.614   2.433  0.4210 -0.2866 -0.3035
 2596SOL    HW119250   1.959   0.705   2.428 -0.4450 -0.1549 -3.1725
 2596SOL    HW219251   1.879   0.620   2.516  0.8694 -1.1213  0.0112
 2597SOL     OW19252   0.522   2.019   7.032  0.0650 -0.0090  0.3256
 2597SOL    HW119253   0.610   1.996   7.002  0.0894 -0.7703  0.9670
 2597SOL    HW219254   0.533   2.030   7.127 -0.7263 -2.0823  0.6593
 2598SOL     OW19255   1.327   2.536   4.112  0.1227  0.3195  0.4500
 2598SOL    HW119256   1.414   2.507   4.083  0.6962  3.3915 -0.8901
 2598SOL    HW219257   1.343   2.534   4.206  1.2543  1.8381  0.2823
 2599SOL     OW19258   3.153   2.688  11.527 -0.2622  0.3537  0.0175
 2599SOL    HW119259   3.244   2.665  11.508 -1.0435 -0.8675 -2.2585
 2599SOL    HW219260   3.123   2.608  11.569  0.4628 -0.3851 -0.8504
 2600SOL     OW19261   1.013   2.606   8.681 -0.2756  0.4479 -0.0325
 2600SOL    HW119262   0.921   2.626   8.695 -0.1320  0.6433  0.6028
 2600SOL    HW219263   1.053   2.678   8.631 -0.1285  0.0643 -0.4760
 2601SOL     OW19264   2.491   2.827   7.855 -0.2146  0.0348 -0.9860
 2601SOL    HW119265   2.563   2.820   7.918 -0.1499 -2.1363 -1.3141
 2601SOL    HW219266   2.413   2.837   7.908 -0.0974 -1.4062 -0.5314
 2602SOL     OW19267   1.759   1.369  15.840 -0.2290  0.1894 -0.0652
 2602SOL    HW119268   1.775   1.464  15.836  0.0920  0.1116 -0.6961
 2602SOL    HW219269   1.666   1.380  15.857 -0.2012  1.6316 -0.7767
 2603SOL     OW19270   2.572   3.163   0.276 -0.5418  0.2041  0.8063
 2603SOL    HW119271   2.628   3.163   0.198 -1.8289 -1.3326 -0.1274
 2603SOL    HW219272   2.643   3.194   0.333 -0.2722 -1.4465  1.3932
 2604SOL     OW19273   4.101   1.544   6.832  0.1645  0.3459  0.3582
 2604SOL    HW119274   4.186   1.585   6.816  1.4447 -2.1595  0.6922
 2604SOL    HW219275   4.055   1.523   6.751 -2.8613 -1.5548  2.5652
 2605SOL     OW19276   2.559   3.215   6.802 -0.5163  0.3714 -0.5115
 2605SOL    HW119277   2.512   3.196   6.721 -0.0632  0.2098 -0.7312
 2605SOL    HW219278   2.498   3.215   6.876  1.7165  0.3396  1.3324
 2606SOL     OW19279   1.850   2.727   8.199 -0.3585  0.4492  0.3191
 2606SOL    HW119280   1.825   2.646   8.243 -2.1461  0.9495  0.2239
 2606SOL    HW219281   1.848   2.703   8.107  0.8974  2.5898 -0.2698
 2607SOL     OW19282   0.204   0.972   8.235  0.4319 -0.1200 -0.1508
 2607SOL    HW119283   0.274   0.924   8.190  1.1659  1.6624 -0.9264
 2607SOL    HW219284   0.265   1.003   8.302  1.0961 -1.8805  0.0749
 2608SOL     OW19285   0.804   3.664   4.429 -0.3262 -0.2632  0.1969
 2608SOL    HW119286   0.764   3.746   4.402 -1.9846 -0.6752  1.3749
 2608SOL    HW219287   0.815   3.671   4.524 -1.8037  0.0815  0.3448
 2609SOL     OW19288   2.382   3.798   1.159 -0.3343  0.2965 -0.5982
 2609SOL    HW119289   2.301   3.841   1.186 -0.3278 -0.6462  0.9094
 2609SOL    HW219290   2.439   3.875   1.156 -1.7619  1.3971  0.7085
 2610SOL     OW19291   2.646   1.693   7.945 -0.9598 -0.3592  0.2706
 2610SOL    HW119292   2.707   1.619   7.941  1.4027  1.6205  0.3483
 2610SOL    HW219293   2.689   1.742   8.015  0.0470 -0.9835  0.0871
 2611SOL     OW19294   0.464   3.387   3.141 -0.1771 -0.1192 -0.4583
 2611SOL    HW119295   0.414   3.432   3.073 -0.2168  0.5821  0.0350
 2611SOL    HW219296   0.546   3.353   3.105  0.2988 -0.6429  1.1147
 2612SOL     OW19297   4.201   3.887  15.357  0.3736 -0.4509 -0.2477
 2612SOL    HW119298   4.135   3.930  15.303 -0.2861 -0.9725  0.1472
 2612SOL    HW219299   4.243   3.960  15.403 -0.8843  0.6756 -0.8903
 2613SOL     OW19300   4.165   2.700   5.020 -0.7966  0.2943 -0.0419
 2613SOL    HW119301   4.126   2.673   4.937 -0.5706 -0.8926  0.2387
 2613SOL    HW219302   4.120   2.784   5.033 -0.2567  0.5697  0.0746
 2614SOL     OW19303   0.784   0.447   6.624  0.2856 -0.3195  0.2222
 2614SOL    HW119304   0.724   0.441   6.699  2.2837 -2.0490  1.7041
 2614SOL    HW219305   0.812   0.356   6.616  1.5841  0.3197 -2.4517
 2615SOL     OW19306   1.354   1.524   7.791  0.7199 -0.3456 -0.2415
 2615SOL    HW119307   1.305   1.558   7.867  2.5394  0.8910  0.3824
 2615SOL    HW219308   1.316   1.437   7.792  0.6372 -0.3113 -0.5306
 2616SOL     OW19309   2.076   3.697   3.167  0.0804  0.5937  0.1157
 2616SOL    HW119310   2.070   3.688   3.072  3.1068  1.4667 -0.1316
 2616SOL    HW219311   1.996   3.749   3.182 -1.2075 -1.0499 -0.9845
 2617SOL     OW19312   3.060   2.601  10.216  0.3317  0.4117  0.7226
 2617SOL    HW119313   3.048   2.506  10.206 -4.1780  1.1953 -1.2523
 2617SOL    HW219314   3.093   2.610  10.305 -0.5426 -0.0321  1.0895
 2618SOL     OW19315   3.399   3.648   8.928 -0.2390 -0.1375 -0.0117
 2618SOL    HW119316   3.467   3.705   8.965  0.1365  0.1997 -1.2191
 2618SOL    HW219317   3.321   3.676   8.975 -0.5365 -1.0070  0.0037
 2619SOL     OW19318   0.784   4.510   2.834 -0.1495 -0.0981  0.1644
 2619SOL    HW119319   0.732   4.433   2.807 -0.1926 -0.0216  0.0295
 2619SOL    HW219320   0.870   4.469   2.827  0.1752  0.2841  1.9257
 2620SOL     OW19321   2.535   0.404   3.441  0.3022  0.0745 -0.3551
 2620SOL    HW119322   2.469   0.341   3.470 -0.9087  1.3096 -0.4222
 2620SOL    HW219323   2.520   0.414   3.346  2.2634 -0.8743 -0.7580
 2621SOL     OW19324   1.953   1.285   5.607 -0.1455  0.1594 -0.3167
 2621SOL    HW119325   2.013   1.293   5.532  2.2450 -3.3753  1.2054
 2621SOL    HW219326   2.010   1.309   5.680 -0.6142  0.7816 -0.1628
 2622SOL     OW19327   0.854   3.360   4.023 -0.1922  0.5447 -0.0374
 2622SOL    HW119328   0.883   3.423   4.089  1.8679 -1.0436  0.5629
 2622SOL    HW219329   0.786   3.414   3.983 -0.7279 -0.8328 -1.0018
 2623SOL     OW19330   3.276   3.782   7.432  0.0320 -0.0495  0.1118
 2623SOL    HW119331   3.365   3.800   7.463  0.1708 -1.1141  0.3142
 2623SOL    HW219332   3.269   3.852   7.367  2.1340 -2.2898 -2.5302
 2624SOL     OW19333   0.168   4.522   0.019 -0.2325 -0.0403 -0.0005
 2624SOL    HW119334   0.076   4.545   0.014 -0.4433 -0.3227  2.5451
 2624SOL    HW219335   0.186   4.489  17.607  2.1097  1.8498 -0.2485
 2625SOL     OW19336   3.371   3.587  17.034  0.5504 -0.2553 -0.0512
 2625SOL    HW119337   3.357   3.647  16.961 -2.1901  0.1402  0.7856
 2625SOL    HW219338   3.299   3.525  17.019  0.1942 -0.1985  1.3493
 2626SOL     OW19339   0.705   1.032   7.191  0.1810  0.2592  0.3485
 2626SOL    HW119340   0.790   1.044   7.149 -0.0673  0.5756 -0.0687
 2626SOL    HW219341   0.658   1.111   7.164 -0.9443 -1.0313 -1.4537
 2627SOL     OW19342   0.049   4.021   6.819 -0.2550  0.1255  0.5661
 2627SOL    HW119343   4.699   3.964   6.781  0.0673  0.5876 -0.6935
 2627SOL    HW219344   0.004   4.105   6.810 -0.7944 -0.1008  1.0849
 2628SOL     OW19345   4.708   3.110   2.954 -0.4662 -0.4447  0.2624
 2628SOL    HW119346   0.009   3.203   2.944  1.8111 -0.9397  0.1317
 2628SOL    HW219347   0.076   3.077   2.977 -0.8239 -1.9553 -0.5238
 2629SOL     OW19348   0.769   3.925   4.790 -0.5857  0.2895 -0.0026
 2629SOL    HW119349   0.682   3.884   4.796 -0.7708  0.5925 -0.6075
 2629SOL    HW219350   0.738   4.013   4.811 -1.4283 -0.1326  0.5682
 2630SOL     OW19351   3.255   4.671  15.809  0.2211 -0.3549  0.0831
 2630SOL    HW119352   3.166   4.641  15.823 -0.0651  0.1504 -0.6698
 2630SOL    HW219353   3.269   0.010  15.884 -1.4656 -1.1019  0.9662
 2631SOL     OW19354   1.543   0.144   4.728 -0.3170  0.3720 -0.3907
 2631SOL    HW119355   1.482   0.072   4.743 -1.1321  1.0085 -0.6187
 2631SOL    HW219356   1.544   0.159   4.633 -0.4104  1.7420 -0.1758
 2632SOL     OW19357   4.227   3.441   4.645  0.4137 -0.3702 -0.2190
 2632SOL    HW119358   4.222   3.359   4.693  0.3659  0.0377  0.4618
 2632SOL    HW219359   4.168   3.497   4.696  0.6728 -0.5490  0.2747
 2633SOL     OW19360   1.495   3.953  14.702 -0.3325  0.4540  0.2790
 2633SOL    HW119361   1.444   3.873  14.704  1.3091 -0.5889  0.5773
 2633SOL    HW219362   1.540   3.937  14.785 -2.3983 -0.2582  1.2477
 2634SOL     OW19363   2.561   1.974   2.660 -0.3564  0.3798  0.0454
 2634SOL    HW119364   2.601   1.918   2.727  0.8312 -1.0702 -1.8605
 2634SOL    HW219365   2.613   1.947   2.584 -0.0857  0.4823  0.1951
 2635SOL     OW19366   3.916   4.300   8.916  0.3866  0.2267 -0.5413
 2635SOL    HW119367   3.831   4.311   8.874  0.2173 -0.5632 -0.4148
 2635SOL    HW219368   3.889   4.234   8.980 -0.3918  1.4649  0.4054
 2636SOL     OW19369   4.608   3.976   7.684 -0.2870 -0.4004 -0.2698
 2636SOL    HW119370   4.556   3.903   7.651  2.5268 -2.1210 -0.8769
 2636SOL    HW219371   4.540   4.016   7.738  1.4290 -1.5099  2.7560
 2637SOL     OW19372   1.933   2.052   0.397 -0.2942 -0.5377  0.4244
 2637SOL    HW119373   1.949   2.142   0.426 -2.0791 -0.6988  1.8483
 2637SOL    HW219374   2.009   2.047   0.338 -0.3020  0.0839  0.3607
 2638SOL     OW19375   3.370   0.379   7.777  0.3644  0.4476  0.2904
 2638SOL    HW119376   3.395   0.451   7.835  1.2624 -0.9329  1.6516
 2638SOL    HW219377   3.407   0.300   7.816  3.8677  2.3761  0.8721
 2639SOL     OW19378   1.998   3.378  12.179 -0.4081  0.2342 -0.1534
 2639SOL    HW119379   2.043   3.325  12.246  1.4912  0.3876 -1.3054
 2639SOL    HW219380   1.912   3.338  12.174  0.1585 -0.9250 -0.6519
 2640SOL     OW19381   0.076   4.682  17.347 -0.2106  0.1085  0.1809
 2640SOL    HW119382   0.107   4.640  17.266  0.3237 -0.4454  0.6735
 2640SOL    HW219383   0.162   4.701  17.383  0.0845  2.3364 -1.6935
 2641SOL     OW19384   0.520   4.678   2.404  0.2240  0.6799  0.3067
 2641SOL    HW119385   0.490   4.683   2.313 -0.2264  0.5648  0.4450
 2641SOL    HW219386   0.445   4.632   2.443  1.5426 -0.4692  1.4979
 2642SOL     OW19387   2.601   3.148   2.179 -0.1315 -0.4040  0.0551
 2642SOL    HW119388   2.542   3.125   2.108 -0.9630  0.8481  0.3406
 2642SOL    HW219389   2.559   3.125   2.261 -1.7173  0.2175 -0.5736
 2643SOL     OW19390   0.626   0.960  15.412  0.2985 -0.5585 -0.6107
 2643SOL    HW119391   0.558   0.899  15.386 -0.3963 -0.6603  1.4377
 2643SOL    HW219392   0.704   0.906  15.422  0.5707 -0.0468  0.0526
 2644SOL     OW19393   4.140   4.594   1.808 -0.6348 -0.0666 -0.3406
 2644SOL    HW119394   4.048   4.621   1.814 -0.3894  0.5254  0.6661
 2644SOL    HW219395   4.186   4.675   1.829  0.9015 -0.4296 -2.2943
 2645SOL     OW19396   3.802   1.177  17.071 -0.0795 -0.4049 -0.4020
 2645SOL    HW119397   3.809   1.259  17.022  0.2707  1.0821  2.0835
 2645SOL    HW219398   3.867   1.192  17.140 -0.2360  0.3542 -0.4162
 2646SOL     OW19399   0.680   3.275  12.989  0.0795  0.6158 -0.2822
 2646SOL    HW119400   0.700   3.368  12.977  0.7888  0.7273  1.6706
 2646SOL    HW219401   0.606   3.288  13.049  0.3018  1.4529 -0.1928
 2647SOL     OW19402   1.083   3.202  12.755 -0.0602 -0.2599  0.6651
 2647SOL    HW119403   1.071   3.297  12.758 -2.4319 -0.5302 -0.0122
 2647SOL    HW219404   1.147   3.199  12.684  0.5542  1.0718  1.1503
 2648SOL     OW19405   0.328   2.344  14.970  0.6857  0.2191  0.2989
 2648SOL    HW119406   0.299   2.323  15.059  0.9722 -0.2987  0.2725
 2648SOL    HW219407   0.397   2.407  14.990  0.9814 -0.5510  1.7153
 2649SOL     OW19408   3.853   0.633   6.302  0.1301 -0.5818 -0.3211
 2649SOL    HW119409   3.926   0.572   6.294 -0.6463 -1.3730 -1.4439
 2649SOL    HW219410   3.792   0.583   6.357 -1.5750  2.2883  0.4121
 2650SOL     OW19411   0.935   1.233   2.985  0.4224 -0.1385 -0.6069
 2650SOL    HW119412   1.001   1.297   3.011  0.3838 -0.6027  0.6019
 2650SOL    HW219413   0.905   1.274   2.903 -1.7268  1.5007  1.0110
 2651SOL     OW19414   0.091   2.240   3.374  0.7392 -0.5719 -0.0969
 2651SOL    HW119415   0.085   2.266   3.282 -0.2632  0.4999  0.2760
 2651SOL    HW219416   0.116   2.322   3.416 -0.1797  0.2707 -1.2016
 2652SOL     OW19417   4.224   4.321   7.581  0.0799  0.2435 -0.8082
 2652SOL    HW119418   4.142   4.369   7.570 -0.7286 -0.9444 -0.0393
 2652SOL    HW219419   4.221   4.297   7.674  0.8700  2.0819 -0.3220
 2653SOL     OW19420   2.276   1.216   7.357  0.0630 -0.3173  0.3488
 2653SOL    HW119421   2.235   1.281   7.414 -1.2479  0.0348 -1.0075
 2653SOL    HW219422   2.257   1.128   7.390 -1.9157 -0.0299  0.0201
 2654SOL     OW19423   4.595   4.529   8.049  0.1025 -0.2021  0.0965
 2654SOL    HW119424   4.609   4.544   8.142 -0.5108 -1.1726  0.3474
 2654SOL    HW219425   4.508   4.555   8.021 -0.9274 -2.3528  1.3079
 2655SOL     OW19426   2.808   2.747   5.955 -0.6207  0.3645  0.6917
 2655SOL    HW119427   2.836   2.667   6.000  5.0862  0.7101 -2.3503
 2655SOL    HW219428   2.763   2.787   6.030 -1.2471  0.9772 -0.0183
 2656SOL     OW19429   4.071   1.838   4.973 -0.1874 -0.5296  0.3826
 2656SOL    HW119430   4.109   1.789   4.901  3.2475  1.6190  0.7247
 2656SOL    HW219431   4.114   1.794   5.046  2.2315  0.4681 -0.4369
 2657SOL     OW19432   0.552   4.634   3.449 -0.4428 -0.2341  0.4040
 2657SOL    HW119433   0.580   4.700   3.385  0.1602 -1.7114 -0.8681
 2657SOL    HW219434   0.462   4.656   3.473 -1.4083 -1.8439 -1.7656
 2658SOL     OW19435   2.514   1.465  12.856  0.4111 -0.3037  0.3836
 2658SOL    HW119436   2.503   1.400  12.926  2.7518 -1.1954 -0.0632
 2658SOL    HW219437   2.608   1.453  12.843  0.6045  1.3165  0.3146
 2659SOL     OW19438   0.135   1.336   0.931 -0.1015 -0.5419  0.0938
 2659SOL    HW119439   0.125   1.241   0.942 -1.3250 -0.6707 -2.1389
 2659SOL    HW219440   0.189   1.332   0.851  1.0668  0.5120  0.8294
 2660SOL     OW19441   2.123   3.718   8.694  0.3888  0.4451  0.1683
 2660SOL    HW119442   2.212   3.717   8.659 -0.1115 -0.0374 -1.0929
 2660SOL    HW219443   2.104   3.810   8.677  0.2677  0.0117 -1.9941
 2661SOL     OW19444   1.711   4.396   4.903  0.4562  0.3317  0.1924
 2661SOL    HW119445   1.745   4.384   4.992 -0.9602  1.3809  0.8665
 2661SOL    HW219446   1.694   4.489   4.889 -0.1883  0.5825  2.7256
 2662SOL     OW19447   4.545   3.733   5.814  0.3813  0.2104  0.0893
 2662SOL    HW119448   4.478   3.771   5.871  0.4986  0.8622 -0.2062
 2662SOL    HW219449   4.626   3.729   5.866  0.3572  0.0769  0.1164
 2663SOL     OW19450   4.046   0.361   3.374  0.1305 -0.0408  0.1462
 2663SOL    HW119451   4.137   0.390   3.373 -0.3031  1.2863 -0.9175
 2663SOL    HW219452   4.011   0.400   3.454 -1.8768 -1.6450  0.0435
 2664SOL     OW19453   0.194   0.002   4.302  0.4523 -0.1729 -0.1439
 2664SOL    HW119454   0.254   4.653   4.271  0.9659  1.1826 -2.0977
 2664SOL    HW219455   0.192   0.069   4.234 -1.2376  0.7420  0.8158
 2665SOL     OW19456   1.962   0.656  12.631 -0.9354  0.1274 -0.4116
 2665SOL    HW119457   1.907   0.686  12.703  1.0078  0.0687  1.1033
 2665SOL    HW219458   1.971   0.741  12.586 -0.2967  1.4808  2.3080
 2666SOL     OW19459   0.401   0.897   5.747  0.2444  0.1924  0.1677
 2666SOL    HW119460   0.311   0.868   5.758 -0.4249  2.0816 -0.3435
 2666SOL    HW219461   0.429   0.852   5.666 -1.6424  0.5437 -0.6755
 2667SOL     OW19462   4.550   2.893  10.331 -0.2062 -1.1471 -0.1435
 2667SOL    HW119463   4.618   2.890  10.399  3.4684  3.1301 -3.6551
 2667SOL    HW219464   4.586   2.958  10.271 -0.1774  1.2743  2.4843
 2668SOL     OW19465   1.551   2.864   6.626  0.0709 -0.4960  0.5660
 2668SOL    HW119466   1.591   2.881   6.712  1.0068 -1.2519  0.2774
 2668SOL    HW219467   1.471   2.917   6.627  0.7859  0.6033  0.0397
 2669SOL     OW19468   1.229   0.350   7.529 -0.3024 -0.4319  0.4987
 2669SOL    HW119469   1.184   0.322   7.608 -0.3699 -2.9295 -0.4184
 2669SOL    HW219470   1.158   0.341   7.466 -0.4625  1.8914  0.3520
 2670SOL     OW19471   3.688   3.726   0.239  0.0211 -0.3398 -0.0235
 2670SOL    HW119472   3.639   3.763   0.165 -0.7376  1.7726  1.5344
 2670SOL    HW219473   3.626   3.653   0.245  0.2971 -0.6694 -1.1259
 2671SOL     OW19474   1.419   1.182   6.966 -0.1925  0.8579 -0.3271
 2671SOL    HW119475   1.399   1.112   6.904  1.3532  0.1465 -0.0153
 2671SOL    HW219476   1.357   1.140   7.026 -0.4002  0.7655 -0.6065
 2672SOL     OW19477   3.091   3.717   8.118 -0.6215 -0.8008  0.0974
 2672SOL    HW119478   3.090   3.654   8.046  0.4862  0.4218 -1.0027
 2672SOL    HW219479   3.071   3.796   8.068  4.5168  0.0339 -0.6598
 2673SOL     OW19480   3.817   3.224   4.263  0.0629  0.3021 -0.4328
 2673SOL    HW119481   3.846   3.140   4.229 -0.0054 -0.1753  0.7003
 2673SOL    HW219482   3.791   3.257   4.177 -2.7136 -0.1441  0.2368
 2674SOL     OW19483   3.329   3.666   3.724 -0.0764  0.5350 -0.3136
 2674SOL    HW119484   3.414   3.647   3.765 -0.5343  1.2581  0.9567
 2674SOL    HW219485   3.321   3.584   3.675  0.7422  0.1141  0.2471
 2675SOL     OW19486   0.715   0.385   0.414 -0.2258  0.2063  0.4796
 2675SOL    HW119487   0.781   0.453   0.424 -1.4952  1.5380 -0.3138
 2675SOL    HW219488   0.760   0.317   0.465 -0.4079  0.2369  0.6844
 2676SOL     OW19489   1.913   3.520  11.279 -0.2623  0.1372  0.2308
 2676SOL    HW119490   1.979   3.585  11.307  0.2455  0.5867 -2.0290
 2676SOL    HW219491   1.895   3.472  11.360  0.7370 -1.8703 -0.7466
 2677SOL     OW19492   2.328   3.119   7.034 -0.4820 -0.0920 -0.6948
 2677SOL    HW119493   2.300   3.098   7.123  2.4846  1.8214  0.6990
 2677SOL    HW219494   2.370   3.036   7.011  0.9352  0.8740 -1.6212
 2678SOL     OW19495   0.404   0.418  16.100 -0.1261  0.4573  0.6124
 2678SOL    HW119496   0.499   0.428  16.092 -0.1475 -0.4367 -0.7243
 2678SOL    HW219497   0.412   0.327  16.128 -0.4532  0.2103 -0.0953
 2679SOL     OW19498   3.140   2.761  13.657 -0.2463 -0.6622 -0.4473
 2679SOL    HW119499   3.157   2.813  13.735 -1.9870 -0.7579  0.0075
 2679SOL    HW219500   3.059   2.717  13.684 -0.6331 -0.2263 -0.8991
 2680SOL     OW19501   1.189   2.555   1.071  0.2532  0.0403 -0.0738
 2680SOL    HW119502   1.179   2.485   1.135  0.4298  0.1551  0.0770
 2680SOL    HW219503   1.107   2.602   1.088  0.1197 -0.1422 -0.2057
 2681SOL     OW19504   3.584   0.913   2.864 -0.3370  0.6158  0.1237
 2681SOL    HW119505   3.652   0.942   2.926 -0.8317 -0.7740  1.3092
 2681SOL    HW219506   3.571   0.830   2.909  1.6627 -0.2756 -0.9309
 2682SOL     OW19507   2.361   0.184   1.748 -0.3999 -0.0892  0.4195
 2682SOL    HW119508   2.311   0.262   1.722 -0.6969 -0.4740 -0.1501
 2682SOL    HW219509   2.384   0.204   1.839  1.7751 -3.2399  0.5507
 2683SOL     OW19510   0.100   0.595  15.193 -0.6372 -0.1094  0.1241
 2683SOL    HW119511   0.082   0.584  15.286 -1.1748 -1.8999 -0.1840
 2683SOL    HW219512   0.016   0.558  15.163 -0.3382 -0.3976 -0.3569
 2684SOL     OW19513   0.446   3.844  13.353 -0.1013 -0.1810  0.5277
 2684SOL    HW119514   0.383   3.834  13.282 -0.9084 -0.3566  1.2618
 2684SOL    HW219515   0.434   3.938  13.363  0.3582 -0.1407  0.6902
 2685SOL     OW19516   0.830   4.041   6.310  0.3200 -0.1693  0.2777
 2685SOL    HW119517   0.837   3.946   6.320 -2.1508 -0.4654 -0.8128
 2685SOL    HW219518   0.906   4.070   6.361  0.1339  0.1914  0.3463
 2686SOL     OW19519   0.927   3.428   7.563 -0.2460 -0.7748  0.3613
 2686SOL    HW119520   0.981   3.429   7.641 -1.3637  2.0044  1.0666
 2686SOL    HW219521   0.986   3.380   7.503  0.2746  1.1669 -0.6806
 2687SOL     OW19522   4.292   4.242   4.673 -0.2954  0.1249  0.1446
 2687SOL    HW119523   4.254   4.158   4.647 -0.1625  1.4635 -4.3448
 2687SOL    HW219524   4.333   4.216   4.755 -2.2202  0.2785  1.1544
 2688SOL     OW19525   0.344   0.081  15.682 -0.0025  0.2493  0.4690
 2688SOL    HW119526   0.425   0.030  15.692  0.1983  0.6335  0.7640
 2688SOL    HW219527   0.348   0.141  15.755 -0.2203 -0.1226  0.7874
 2689SOL     OW19528   3.007   1.517   3.266 -0.2532  0.1017  0.2157
 2689SOL    HW119529   2.961   1.433   3.274  1.2616 -0.8205 -0.7312
 2689SOL    HW219530   2.938   1.579   3.246 -0.9869 -0.6334  0.4751
 2690SOL     OW19531   2.299   3.409   6.456 -0.1546 -0.3001  0.2881
 2690SOL    HW119532   2.394   3.418   6.456 -0.0915 -1.5524 -4.4134
 2690SOL    HW219533   2.278   3.458   6.377  2.2288  0.8185  0.3542
 2691SOL     OW19534   0.424   3.365   6.835  0.8928 -0.0039  0.0537
 2691SOL    HW119535   0.426   3.460   6.826  0.1828  0.1356  1.4977
 2691SOL    HW219536   0.335   3.347   6.804  0.6082  0.4771  0.5980
 2692SOL     OW19537   2.327   1.627   2.593  0.4327  0.6237 -0.1498
 2692SOL    HW119538   2.423   1.626   2.590  0.4614  0.3999  0.6862
 2692SOL    HW219539   2.308   1.684   2.518 -0.3246  0.5704 -0.0004
 2693SOL     OW19540   4.265   2.215   5.821 -0.3764  0.3394  0.2935
 2693SOL    HW119541   4.243   2.136   5.771 -1.5869  0.9047 -0.0485
 2693SOL    HW219542   4.234   2.286   5.765 -1.4931 -1.2293 -1.0560
 2694SOL     OW19543   0.967   2.443  15.381 -0.7665  0.3388  0.1649
 2694SOL    HW119544   1.052   2.470  15.346  0.5388 -1.8863  1.6898
 2694SOL    HW219545   0.956   2.523  15.433  1.4497  0.0857  1.0078
 2695SOL     OW19546   1.931   2.037   3.355 -0.2502  0.4389  0.1947
 2695SOL    HW119547   2.026   2.032   3.369 -0.0624 -0.9758 -1.6570
 2695SOL    HW219548   1.890   2.031   3.442  0.2307  0.7227  0.4416
 2696SOL     OW19549   1.698   4.707   3.857  0.1414 -0.1563  0.5566
 2696SOL    HW119550   1.616   0.032   3.832 -0.0431  0.6030  2.4275
 2696SOL    HW219551   1.756   0.061   3.833  0.0493  0.3943  1.9898
 2697SOL     OW19552   3.804   2.361   7.341  0.1534 -0.3978 -0.1531
 2697SOL    HW119553   3.826   2.275   7.304  0.9159 -0.6568  0.8882
 2697SOL    HW219554   3.709   2.350   7.353  0.0881  0.5767  0.2149
 2698SOL     OW19555   2.041   0.399  10.155 -0.4931  0.0566  0.0412
 2698SOL    HW119556   2.038   0.317  10.106  1.7354  0.9856 -1.6473
 2698SOL    HW219557   1.979   0.383  10.227 -2.3235  0.3002 -1.4804
 2699SOL     OW19558   0.121   3.707   1.388  0.0161 -0.3686 -0.5121
 2699SOL    HW119559   0.148   3.694   1.297  1.6563 -0.9440  0.0654
 2699SOL    HW219560   0.199   3.674   1.432 -0.5122 -0.7724  0.1238
 2700SOL     OW19561   0.765   0.576  12.934 -0.3252  0.6715  0.5323
 2700SOL    HW119562   0.697   0.582  13.001 -1.3983 -1.5573 -0.3709
 2700SOL    HW219563   0.823   0.511  12.973 -0.6981  0.8561  1.3960
 2701SOL     OW19564   1.384   3.711   2.700  0.0237  0.0696  0.0837
 2701SOL    HW119565   1.427   3.779   2.648  0.9341 -0.0110  0.7265
 2701SOL    HW219566   1.410   3.634   2.651  2.0334  1.1623 -0.5499
 2702SOL     OW19567   3.753   4.278  15.457  0.5446 -0.0725 -0.3134
 2702SOL    HW119568   3.704   4.205  15.495  0.1190 -0.9364 -2.5121
 2702SOL    HW219569   3.695   4.352  15.472  0.8360  0.2952 -0.9953
 2703SOL     OW19570   2.439   1.558   4.102  0.0998 -0.6223  0.1646
 2703SOL    HW119571   2.437   1.536   4.009  1.0268 -0.8204  0.1975
 2703SOL    HW219572   2.530   1.587   4.112  0.3357 -0.2143 -3.0301
 2704SOL     OW19573   1.877   0.227   9.878 -0.3014 -0.1089  0.0079
 2704SOL    HW119574   1.856   0.279   9.800 -0.6973  0.9413  0.8049
 2704SOL    HW219575   1.806   0.249   9.938 -0.2709  0.9348 -0.3381
 2705SOL     OW19576   2.616   1.168   1.470 -0.0854 -0.1901  0.1437
 2705SOL    HW119577   2.674   1.107   1.515 -0.4919 -0.1914  0.6708
 2705SOL    HW219578   2.678   1.239   1.457 -0.0230 -0.5064 -1.2635
 2706SOL     OW19579   2.432   3.571  11.701 -0.8316  0.3294 -0.0457
 2706SOL    HW119580   2.407   3.648  11.649 -0.3497 -0.8384 -2.0330
 2706SOL    HW219581   2.405   3.606  11.785 -1.3028  0.6934 -0.3487
 2707SOL     OW19582   0.408   1.715  10.409  0.1156  0.0968 -0.4082
 2707SOL    HW119583   0.439   1.624  10.414 -2.9832 -0.9081  0.5524
 2707SOL    HW219584   0.334   1.714  10.469  0.3389 -0.0162 -0.1348
 2708SOL     OW19585   2.108   3.526   0.849 -0.7233  0.5566  0.1811
 2708SOL    HW119586   2.150   3.598   0.800  2.0448 -1.8405 -0.9642
 2708SOL    HW219587   2.163   3.452   0.825  0.2928  0.5169  2.6158
 2709SOL     OW19588   3.902   4.246   2.511 -0.1213  0.0939 -0.4508
 2709SOL    HW119589   3.858   4.173   2.554  0.5777  0.5748  1.0756
 2709SOL    HW219590   3.939   4.192   2.441  1.6729 -0.0198  0.5771
 2710SOL     OW19591   0.884   3.112   6.441 -0.0934  0.7328 -0.4235
 2710SOL    HW119592   0.865   3.106   6.535  1.1306 -1.8377 -0.3351
 2710SOL    HW219593   0.969   3.067   6.436 -0.2182  0.2071  2.0734
 2711SOL     OW19594   2.123   0.877  15.327 -0.9969  0.6023 -0.5302
 2711SOL    HW119595   2.179   0.802  15.304  1.1084  0.9758  3.3898
 2711SOL    HW219596   2.092   0.860  15.416 -0.5380  3.1258  0.0876
 2712SOL     OW19597   2.027   2.133   4.996  0.5652  0.3511  0.2270
 2712SOL    HW119598   2.079   2.135   5.076 -0.2056 -1.1410  0.7671
 2712SOL    HW219599   2.087   2.183   4.940 -0.3401 -0.7370 -1.7137
 2713SOL     OW19600   4.290   3.447   7.644  0.3536 -0.1279 -0.0671
 2713SOL    HW119601   4.223   3.408   7.700 -0.2682  0.2265 -0.5661
 2713SOL    HW219602   4.365   3.446   7.703 -0.4307  1.0018  0.9364
 2714SOL     OW19603   0.362   4.225   7.059  0.2471  0.0601 -0.0384
 2714SOL    HW119604   0.271   4.252   7.073 -0.0418 -1.2215  0.6082
 2714SOL    HW219605   0.413   4.305   7.050 -0.9160  0.5998 -1.9407
 2715SOL     OW19606   2.818   3.888   2.045 -0.2510  0.2786  0.2190
 2715SOL    HW119607   2.723   3.889   2.042 -0.2681 -1.1148  0.2674
 2715SOL    HW219608   2.841   3.828   2.116 -2.6399 -0.7336  0.1289
 2716SOL     OW19609   0.235   1.661  12.546 -0.0574 -0.6164 -0.8505
 2716SOL    HW119610   0.255   1.568  12.532  0.6385 -0.4201 -1.1347
 2716SOL    HW219611   0.318   1.691  12.583  0.9640 -4.1015 -0.2791
 2717SOL     OW19612   0.986   0.197   6.811  0.0289 -0.0894 -0.2541
 2717SOL    HW119613   1.022   0.285   6.819 -0.8780  0.2548  0.1013
 2717SOL    HW219614   1.065   0.144   6.827 -2.1408 -2.9768  0.9493
 2718SOL     OW19615   3.004   4.635   5.044  0.2369  0.0163  0.1025
 2718SOL    HW119616   3.026   4.621   4.952  1.2712  3.8352 -0.2069
 2718SOL    HW219617   3.077   4.582   5.077  0.7468  0.0400 -0.9615
 2719SOL     OW19618   0.980   4.404   6.173  0.3108  0.2892  0.2994
 2719SOL    HW119619   0.914   4.335   6.173  0.2273  0.3716 -0.6601
 2719SOL    HW219620   0.989   4.420   6.267  1.9133 -2.3784  0.5916
 2720SOL     OW19621   1.724   0.989   6.318 -0.3209  0.0618 -0.8465
 2720SOL    HW119622   1.787   0.942   6.265  1.6976  1.5644  0.2270
 2720SOL    HW219623   1.697   1.043   6.244  1.6956  1.6018 -0.4647
 2721SOL     OW19624   2.151   2.936   5.738 -0.2873  0.3314 -0.0521
 2721SOL    HW119625   2.191   2.960   5.654 -1.6176 -0.1724 -0.8218
 2721SOL    HW219626   2.111   2.851   5.720  0.6645 -0.4064  1.3250
 2722SOL     OW19627   3.390   3.947   1.116 -0.0609  0.0475 -0.8964
 2722SOL    HW119628   3.432   4.033   1.122 -0.1078 -0.0447  0.5883
 2722SOL    HW219629   3.434   3.905   1.189 -0.9025 -1.2320 -1.1286
 2723SOL     OW19630   0.508   3.151   6.074  0.7363 -0.0196  0.0138
 2723SOL    HW119631   0.567   3.089   6.030 -2.5259 -0.3736 -3.8672
 2723SOL    HW219632   0.548   3.152   6.161  0.4461 -0.8911  0.1517
 2724SOL     OW19633   0.269   2.987   3.319  0.7121  0.5028 -0.3788
 2724SOL    HW119634   0.265   3.016   3.410  0.2810  1.4072 -0.6925
 2724SOL    HW219635   0.185   3.016   3.284  1.5196  0.6990 -2.1663
 2725SOL     OW19636   0.286   1.104  14.345 -0.4410  0.2587  0.4107
 2725SOL    HW119637   0.286   1.122  14.251 -0.4831  0.6438  0.4867
 2725SOL    HW219638   0.193   1.094  14.364  0.0970 -0.3677  2.6536
 2726SOL     OW19639   0.176   1.768   2.060  0.0332 -0.6457  0.1771
 2726SOL    HW119640   0.116   1.770   2.135 -1.4810 -0.9671 -1.0087
 2726SOL    HW219641   0.125   1.718   1.995 -0.3565  0.5545 -0.4379
 2727SOL     OW19642   4.714   3.321   8.315 -0.0236 -0.2728 -0.1478
 2727SOL    HW119643   0.029   3.404   8.349 -0.9092 -0.4665  1.1762
 2727SOL    HW219644   0.070   3.263   8.334 -1.5634 -1.4342  2.3559
 2728SOL     OW19645   0.544   3.997   5.638  0.0131 -0.2017 -0.6677
 2728SOL    HW119646   0.482   4.064   5.609 -0.6487 -0.0068  1.1744
 2728SOL    HW219647   0.624   4.050   5.640 -0.7574  0.9440  0.5191
 2729SOL     OW19648   0.223   0.028   7.133  0.0526  0.6024 -0.6045
 2729SOL    HW119649   0.160   0.060   7.069 -0.6787 -1.5449 -0.9539
 2729SOL    HW219650   0.243   0.106   7.185  0.8497  0.3975 -0.5969
 2730SOL     OW19651   2.644   3.389   9.147  0.5090  0.8464 -0.1769
 2730SOL    HW119652   2.734   3.358   9.149 -0.5873 -2.3759 -0.4460
 2730SOL    HW219653   2.612   3.334   9.219 -1.4072  0.7062 -1.1261
 2731SOL     OW19654   4.529   3.718  17.134  0.4901  0.2661 -0.2041
 2731SOL    HW119655   4.546   3.641  17.079  2.0295  1.7759 -1.8563
 2731SOL    HW219656   4.449   3.748  17.090  0.7926 -1.0801 -1.6773
 2732SOL     OW19657   0.318   1.329   3.349 -0.3619 -0.1813  0.0750
 2732SOL    HW119658   0.272   1.263   3.400  0.0004 -2.0508 -2.0380
 2732SOL    HW219659   0.271   1.409   3.372  3.7865  2.0558  0.8542
 2733SOL     OW19660   2.887   4.054  11.753  0.4723  0.0286  0.1295
 2733SOL    HW119661   2.919   3.971  11.789  0.7674 -0.2548 -0.7811
 2733SOL    HW219662   2.792   4.044  11.761  0.4096  1.3253  0.9691
 2734SOL     OW19663   1.878   0.489   8.013  0.3672  0.0456  0.3540
 2734SOL    HW119664   1.882   0.466   8.106  0.4368 -0.6027  0.1940
 2734SOL    HW219665   1.787   0.467   7.992  0.8613  0.4525 -2.1975
 2735SOL     OW19666   2.875   1.463   4.117  0.0274  0.1323 -0.2858
 2735SOL    HW119667   2.913   1.381   4.149 -1.9999 -1.1837 -1.3112
 2735SOL    HW219668   2.956   1.510   4.093 -1.8004  1.5907 -3.6560
 2736SOL     OW19669   1.988   1.931  10.490 -0.0010 -0.2392 -0.1835
 2736SOL    HW119670   2.038   1.968  10.563  1.5451 -0.7115 -0.9975
 2736SOL    HW219671   2.065   1.890  10.451  0.8241 -0.3605  1.5854
 2737SOL     OW19672   1.428   0.314   5.574  0.3150  0.4479  0.0094
 2737SOL    HW119673   1.516   0.281   5.558 -0.0239  0.7611 -2.4912
 2737SOL    HW219674   1.440   0.395   5.524  1.3970  1.5316  2.0183
 2738SOL     OW19675   3.560   0.197   6.465 -0.2775 -0.0523 -0.4718
 2738SOL    HW119676   3.519   0.137   6.403  0.0063 -1.7807  0.9985
 2738SOL    HW219677   3.485   0.256   6.478 -0.0286  0.5318 -1.7823
 2739SOL     OW19678   0.023   4.239   2.674 -0.2340 -0.4446  0.1455
 2739SOL    HW119679   0.054   4.198   2.754  2.1773  0.3610 -0.3857
 2739SOL    HW219680   0.056   4.326   2.696 -0.6750 -0.1876 -0.1926
 2740SOL     OW19681   2.008   3.599  15.542 -0.5535  0.8026 -0.1573
 2740SOL    HW119682   2.072   3.663  15.511  0.4172  0.6714  1.5539
 2740SOL    HW219683   2.032   3.517  15.498 -1.1939 -0.2132  1.3570
 2741SOL     OW19684   0.272   4.358  17.444  0.3861 -0.0391  0.1863
 2741SOL    HW119685   0.363   4.388  17.453  0.2426  0.0621  1.2829
 2741SOL    HW219686   0.250   4.384  17.355  0.2393 -1.4405 -0.1809
 2742SOL     OW19687   4.179   2.603   1.868  0.9265  0.0122  0.3569
 2742SOL    HW119688   4.260   2.600   1.818 -0.1337 -0.5927 -1.3306
 2742SOL    HW219689   4.173   2.514   1.905  0.6068 -0.0888  0.0698
 2743SOL     OW19690   4.624   2.880   7.743  0.3665  0.3097  0.6551
 2743SOL    HW119691   4.605   2.787   7.733 -0.5087  0.3394  2.1475
 2743SOL    HW219692   4.588   2.915   7.661 -0.1341  0.6209  1.0159
 2744SOL     OW19693   0.119   0.168   4.114  0.4520 -0.1616 -0.6034
 2744SOL    HW119694   0.027   0.182   4.138  0.4081  2.8349 -2.5300
 2744SOL    HW219695   0.157   0.255   4.110  3.0918 -1.3022 -0.5680
 2745SOL     OW19696   3.798   2.285  15.206 -0.1612 -0.1102  0.1788
 2745SOL    HW119697   3.787   2.198  15.167 -1.3305  0.1658 -0.1014
 2745SOL    HW219698   3.889   2.307  15.184  0.5374 -1.3354  1.7335
 2746SOL     OW19699   0.621   2.499   5.504  0.3180 -0.2280 -0.4519
 2746SOL    HW119700   0.644   2.415   5.544  0.8945  1.2655  2.3652
 2746SOL    HW219701   0.544   2.516   5.557  1.0549  1.8752 -0.0527
 2747SOL     OW19702   1.305   1.319   6.474 -0.2260 -0.4742 -0.5633
 2747SOL    HW119703   1.308   1.308   6.379  0.1129  1.9065 -0.8369
 2747SOL    HW219704   1.350   1.403   6.478  1.7829 -1.4795 -2.3998
 2748SOL     OW19705   1.947   2.699   6.586  0.3481 -1.0972 -0.0364
 2748SOL    HW119706   1.919   2.743   6.666  1.0500 -1.0483  0.1822
 2748SOL    HW219707   1.931   2.606   6.602 -2.4697 -0.4291  0.9520
 2749SOL     OW19708   4.355   0.662   2.142  0.2639 -0.0891 -0.0600
 2749SOL    HW119709   4.445   0.646   2.172  0.3605  0.3906 -0.0953
 2749SOL    HW219710   4.318   0.574   2.145 -0.9632  0.4177 -0.4170
 2750SOL     OW19711   1.259   2.806   1.938  0.2169  0.1380  0.1144
 2750SOL    HW119712   1.184   2.853   1.974 -2.4110 -3.6749 -0.4796
 2750SOL    HW219713   1.305   2.887   1.915 -0.0697  0.2051 -0.2351
 2751SOL     OW19714   0.728   0.365   5.391 -0.3870 -0.1817 -0.4763
 2751SOL    HW119715   0.694   0.318   5.314 -0.9984  0.3450 -0.5308
 2751SOL    HW219716   0.691   0.305   5.456  2.7203 -0.9557  0.5499
 2752SOL     OW19717   1.036   0.551   3.316 -0.3121 -0.0076 -0.1720
 2752SOL    HW119718   0.967   0.611   3.289 -0.6004  0.7053  2.1295
 2752SOL    HW219719   1.056   0.488   3.247 -0.7765 -0.5051  0.1457
 2753SOL     OW19720   2.224   3.789   7.328  0.2006 -0.2463  0.1841
 2753SOL    HW119721   2.205   3.737   7.406 -0.3450 -0.2745  0.0362
 2753SOL    HW219722   2.318   3.807   7.331 -0.3239  2.1528  2.1351
 2754SOL     OW19723   2.981   2.452  12.289 -0.2738 -0.3570 -0.4694
 2754SOL    HW119724   2.921   2.400  12.236  0.8635  1.2252 -3.2941
 2754SOL    HW219725   3.037   2.383  12.326  0.0833  0.9432  1.3936
 2755SOL     OW19726   3.598   3.796   4.004  0.4738 -0.4822  0.3339
 2755SOL    HW119727   3.646   3.794   4.087 -0.2616  0.6852  0.7938
 2755SOL    HW219728   3.527   3.859   4.017 -0.3766 -1.5919  1.0335
 2756SOL     OW19729   2.409   0.420  12.932  0.2560  0.1976  0.1914
 2756SOL    HW119730   2.391   0.422  12.838  1.8008 -1.5976 -0.1381
 2756SOL    HW219731   2.370   0.337  12.960 -0.3131  0.7709  1.1079
 2757SOL     OW19732   1.017   2.377   2.296  0.2773  0.1535 -0.1611
 2757SOL    HW119733   1.080   2.354   2.228 -0.2975  0.2045 -0.7075
 2757SOL    HW219734   1.025   2.472   2.291 -2.8414  0.1586 -5.0292
 2758SOL     OW19735   1.297   2.334   8.266  0.1982 -0.2392 -0.9919
 2758SOL    HW119736   1.321   2.260   8.321 -0.1405  0.2943 -0.1222
 2758SOL    HW219737   1.201   2.335   8.261  0.1336 -0.7671  0.3074
 2759SOL     OW19738   2.815   4.055   3.674 -0.0159 -0.2836 -0.1186
 2759SOL    HW119739   2.910   4.064   3.666 -0.0800  0.3272 -0.1879
 2759SOL    HW219740   2.817   3.983   3.737 -0.1426  0.7294  1.0469
 2760SOL     OW19741   3.525   3.540  15.329  0.5689 -0.0689  0.2355
 2760SOL    HW119742   3.580   3.464  15.311 -0.0597 -0.4017 -0.2764
 2760SOL    HW219743   3.444   3.489  15.321  0.9368 -0.5879 -0.1565
 2761SOL     OW19744   1.655   2.499  14.004 -0.4261 -0.0362 -0.1620
 2761SOL    HW119745   1.603   2.576  13.980 -1.5697 -0.8714 -0.3743
 2761SOL    HW219746   1.729   2.503  13.944  0.9438 -1.5501  1.4367
 2762SOL     OW19747   3.116   3.444  17.563 -0.7777  1.0091  0.3695
 2762SOL    HW119748   3.057   3.414  17.495  0.7797 -0.7526 -0.2089
 2762SOL    HW219749   3.065   3.432  17.643 -0.0830  0.1496  0.6887
 2763SOL     OW19750   1.652   3.658   7.796  0.2062  0.1978  0.2758
 2763SOL    HW119751   1.642   3.658   7.700  1.6480 -0.3329  0.1294
 2763SOL    HW219752   1.687   3.571   7.812 -0.2103  0.1789  1.0483
 2764SOL     OW19753   2.054   0.035   7.278  0.4111  0.6096 -0.1628
 2764SOL    HW119754   2.018   0.047   7.366 -0.7182 -1.0211 -0.4248
 2764SOL    HW219755   1.992   4.686   7.251  2.6980 -0.9669 -1.5606
 2765SOL     OW19756   1.155   0.371   8.080 -0.0653  0.3413 -0.2376
 2765SOL    HW119757   1.221   0.378   8.149 -1.0866 -3.2667  1.1011
 2765SOL    HW219758   1.171   0.283   8.048 -1.6516  0.2292 -0.7228
 2766SOL     OW19759   0.498   0.822   2.952  0.5044 -0.0595  0.0009
 2766SOL    HW119760   0.456   0.857   3.031 -0.6880 -1.8277  0.1678
 2766SOL    HW219761   0.437   0.849   2.883 -0.7226  0.5879  1.3375
 2767SOL     OW19762   2.095   1.775   7.259  0.1697  0.2218 -0.2440
 2767SOL    HW119763   2.106   1.693   7.308  0.2902 -1.1077 -2.5027
 2767SOL    HW219764   2.103   1.737   7.172  0.2842 -1.0965  0.3350
 2768SOL     OW19765   4.355   1.677  13.006  0.3715  0.3884 -0.0544
 2768SOL    HW119766   4.449   1.663  13.007  0.2039 -0.7513  0.0114
 2768SOL    HW219767   4.359   1.772  13.022  4.3729  0.4558 -1.5591
 2769SOL     OW19768   3.078   2.944  15.512  0.3520 -0.0719 -0.1857
 2769SOL    HW119769   3.114   2.862  15.545  0.7917 -0.1576 -0.8799
 2769SOL    HW219770   3.008   2.948  15.577 -0.9829  2.6661 -1.7765
 2770SOL     OW19771   4.665   1.460   5.352 -0.3846 -0.1155  0.1741
 2770SOL    HW119772   0.023   1.428   5.304 -0.4022 -1.4283  0.9979
 2770SOL    HW219773   4.590   1.428   5.301  0.2496  0.6157 -1.1985
 2771SOL     OW19774   1.751   4.515   3.686  0.1183 -0.0330  0.0044
 2771SOL    HW119775   1.739   4.590   3.743 -1.1040  1.0777 -1.7444
 2771SOL    HW219776   1.839   4.492   3.717  0.7934  2.5766 -0.0120
 2772SOL     OW19777   3.985   0.208   4.131 -0.0683  0.0269  0.3723
 2772SOL    HW119778   3.967   0.241   4.043 -1.0960  0.0633  0.5903
 2772SOL    HW219779   4.069   0.163   4.129 -0.0132  0.1959 -1.0458
 2773SOL     OW19780   0.075   1.756   3.849  0.2817 -0.0685 -0.2030
 2773SOL    HW119781   0.047   1.846   3.830 -2.9878 -0.4863  2.7170
 2773SOL    HW219782   0.159   1.742   3.804 -0.1602 -1.5587 -0.5419
 2774SOL     OW19783   3.315   1.381   7.931 -0.3245  0.0701 -1.0933
 2774SOL    HW119784   3.275   1.437   7.998  1.1106 -1.3983  0.9882
 2774SOL    HW219785   3.293   1.295   7.965 -0.1855 -0.5002 -2.4619
 2775SOL     OW19786   4.362   3.644   3.385  0.6427  0.1186 -0.3404
 2775SOL    HW119787   4.337   3.618   3.297 -0.3545 -0.3190  0.0765
 2775SOL    HW219788   4.307   3.722   3.390 -2.5962 -2.0612 -2.1177
 2776SOL     OW19789   2.140   2.530   6.371 -0.3759 -0.6327  0.5642
 2776SOL    HW119790   2.075   2.596   6.395 -1.9852 -1.2725 -2.0500
 2776SOL    HW219791   2.083   2.474   6.319 -1.5743  1.8308 -0.7651
 2777SOL     OW19792   1.049   0.178   7.701  0.6073  0.6080 -0.3288
 2777SOL    HW119793   1.041   0.102   7.758  3.5267 -1.6176 -2.8727
 2777SOL    HW219794   1.063   0.122   7.624 -2.0262  0.4032 -0.6342
 2778SOL     OW19795   2.744   0.330   4.991  0.4139  0.1199  0.6374
 2778SOL    HW119796   2.771   0.294   5.076  0.9640 -2.5760 -0.6638
 2778SOL    HW219797   2.826   0.347   4.945 -0.4192 -0.6677 -1.1404
 2779SOL     OW19798   3.898   1.906   7.434  0.3292 -0.3187  0.3001
 2779SOL    HW119799   3.939   1.861   7.360  0.0779  1.7447 -1.1031
 2779SOL    HW219800   3.814   1.931   7.394  1.1604  0.0624 -1.1858
 2780SOL     OW19801   3.117   2.320  13.154 -0.0261 -0.4533 -0.0354
 2780SOL    HW119802   3.075   2.307  13.239  1.2281 -0.3171  0.6131
 2780SOL    HW219803   3.150   2.235  13.123  1.7160  0.9308 -1.9632
 2781SOL     OW19804   1.362   1.534  10.566  0.0124  0.3327  0.4467
 2781SOL    HW119805   1.329   1.489  10.644  1.2331 -0.7741  0.3260
 2781SOL    HW219806   1.441   1.574  10.604  1.3249 -2.4312  0.6252
 2782SOL     OW19807   2.218   3.958   3.172  0.2107 -0.3537  0.0699
 2782SOL    HW119808   2.306   3.920   3.170  0.3076 -0.0812 -0.8035
 2782SOL    HW219809   2.197   3.969   3.079 -1.8763 -2.6943  0.2279
 2783SOL     OW19810   0.596   2.815   4.532 -0.4483 -0.4210 -0.0675
 2783SOL    HW119811   0.592   2.815   4.628 -2.7385 -0.4273 -0.1678
 2783SOL    HW219812   0.504   2.829   4.511 -0.0466  1.3890 -0.6149
 2784SOL     OW19813   3.308   1.405  15.818 -0.3618 -0.5931 -0.2966
 2784SOL    HW119814   3.229   1.458  15.825  0.5596  0.9613 -1.5526
 2784SOL    HW219815   3.353   1.471  15.872 -1.7238 -0.8254  1.1284
 2785SOL     OW19816   0.055   3.761  11.658 -0.8074 -0.0171 -0.6324
 2785SOL    HW119817   0.092   3.674  11.644 -2.4805 -0.7618 -0.3626
 2785SOL    HW219818   4.693   3.749  11.709  0.3599  1.4183  1.5680
 2786SOL     OW19819   4.305   4.107   6.297  0.5857 -0.3163  0.4077
 2786SOL    HW119820   4.233   4.089   6.237 -0.6333 -0.0308  1.7726
 2786SOL    HW219821   4.367   4.035   6.294  1.2975  0.2383  1.7700
 2787SOL     OW19822   3.845   0.867  13.110  1.0847 -0.0945  0.9292
 2787SOL    HW119823   3.871   0.805  13.179 -1.0857  2.0606  3.6838
 2787SOL    HW219824   3.876   0.826  13.030  0.4905  2.6235 -0.6789
 2788SOL     OW19825   0.741   3.095  16.390  0.0413 -0.4362 -0.3012
 2788SOL    HW119826   0.673   3.140  16.439  0.1483  0.5798 -1.0623
 2788SOL    HW219827   0.704   3.008  16.382  1.5721 -1.2440  1.4768
 2789SOL     OW19828   0.942   4.480   6.456  0.0055  0.3794  0.1970
 2789SOL    HW119829   0.854   4.443   6.452 -1.0054  2.8452 -0.1524
 2789SOL    HW219830   0.909   4.545   6.518  1.1407  0.5402  0.6310
 2790SOL     OW19831   3.483   0.141   5.630  0.3671  0.1525 -0.4999
 2790SOL    HW119832   3.527   0.212   5.678 -0.2629 -0.7163  1.3765
 2790SOL    HW219833   3.478   0.195   5.551 -3.2342 -0.8244 -0.9058
 2791SOL     OW19834   3.814   0.879   2.484  0.0725  0.1578  0.2149
 2791SOL    HW119835   3.745   0.820   2.454  0.1263  0.0484  0.3112
 2791SOL    HW219836   3.809   0.859   2.577  1.0311  0.4049  0.3217
 2792SOL     OW19837   0.338   3.394   4.190  0.7134  0.1044  0.5203
 2792SOL    HW119838   0.341   3.353   4.104  0.1893 -2.6466  1.7974
 2792SOL    HW219839   0.299   3.480   4.178  4.4974  1.4868 -1.6570
 2793SOL     OW19840   1.462   0.201  10.398  0.4252  0.1653  0.1506
 2793SOL    HW119841   1.522   0.133  10.367 -1.2654 -2.0910  1.7776
 2793SOL    HW219842   1.522   0.258  10.445 -1.2289  2.2962 -0.3262
 2794SOL     OW19843   2.420   2.634  11.908  0.5216  0.4961 -0.2674
 2794SOL    HW119844   2.501   2.583  11.902  0.7221  0.7970 -0.1236
 2794SOL    HW219845   2.423   2.666  11.998  2.3113 -0.6924  0.0972
 2795SOL     OW19846   0.010   2.023   0.183  0.1741  0.1222  0.2426
 2795SOL    HW119847   4.682   2.013   0.266 -0.2995  1.0960  0.0961
 2795SOL    HW219848   0.089   1.971   0.198  0.4524  0.6358  0.5659
 2796SOL     OW19849   2.027   2.500  13.331  0.1851  0.0431 -0.5937
 2796SOL    HW119850   1.934   2.481  13.320  0.8989 -3.9366  0.3393
 2796SOL    HW219851   2.025   2.581  13.279  1.0972  0.1653 -0.4419
 2797SOL     OW19852   2.396   3.351   4.313 -0.5415 -0.3442 -0.0959
 2797SOL    HW119853   2.305   3.380   4.317 -0.5591 -0.1352 -2.1360
 2797SOL    HW219854   2.420   3.365   4.405  2.0199  0.7072 -0.9234
 2798SOL     OW19855   2.225   3.891   2.071  0.1228 -0.0917  0.8421
 2798SOL    HW119856   2.270   3.811   2.046 -0.6513 -0.1798 -0.3157
 2798SOL    HW219857   2.190   3.929   1.990  1.3069 -5.1684 -1.9823
 2799SOL     OW19858   2.160   3.301   7.181 -0.4334 -0.0248  0.2088
 2799SOL    HW119859   2.175   3.317   7.088  0.7114  0.3783  0.4576
 2799SOL    HW219860   2.135   3.386   7.216  1.8444  0.6976  0.0838
 2800SOL     OW19861   3.030   0.507  10.737 -0.1677 -0.2919  0.6516
 2800SOL    HW119862   2.981   0.484  10.816  0.4264  0.3229  1.1977
 2800SOL    HW219863   3.078   0.586  10.761  2.0625 -0.7569 -2.3305
 2801SOL     OW19864   1.078   0.228  11.075 -0.4070  0.0120  0.2089
 2801SOL    HW119865   1.040   0.281  11.145 -2.0807  0.0821 -0.7338
 2801SOL    HW219866   1.001   0.234  11.017 -0.3657 -0.6318  0.0806
 2802SOL     OW19867   2.678   4.186   2.737 -0.0630  0.4089  0.4260
 2802SOL    HW119868   2.772   4.204   2.727  0.1479 -0.4808  0.7761
 2802SOL    HW219869   2.651   4.259   2.682 -1.1007 -0.6276 -0.4329
 2803SOL     OW19870   2.288   3.845   5.465 -0.2500  0.6065 -0.5374
 2803SOL    HW119871   2.363   3.848   5.405 -0.2061 -2.4560 -0.6427
 2803SOL    HW219872   2.321   3.891   5.541 -1.0369 -0.2301  0.3125
 2804SOL     OW19873   4.119   3.924   5.575  0.3667 -0.3741  0.1643
 2804SOL    HW119874   4.061   3.849   5.559  1.6252 -1.4577  0.6199
 2804SOL    HW219875   4.047   3.984   5.554 -0.3577 -1.0913  0.5595
 2805SOL     OW19876   1.185   2.960   6.963  0.0254 -0.0481 -0.2166
 2805SOL    HW119877   1.139   3.010   7.030  0.0741  0.1865 -0.3570
 2805SOL    HW219878   1.179   2.876   7.008  0.5217 -2.2805 -4.2269
 2806SOL     OW19879   0.678   2.113   1.636  0.2382 -0.5664 -0.0216
 2806SOL    HW119880   0.639   2.090   1.552  1.4404  0.4252 -0.8554
 2806SOL    HW219881   0.598   2.105   1.687 -0.0163 -1.2994 -0.5304
 2807SOL     OW19882   4.370   1.946   6.956 -0.0867  0.4410  0.4224
 2807SOL    HW119883   4.328   1.909   6.879 -0.7200  0.5684  0.7079
 2807SOL    HW219884   4.335   2.034   6.947 -2.7734 -0.8762 -1.9746
 2808SOL     OW19885   0.406   3.773   2.411  0.4018 -0.2859  0.2949
 2808SOL    HW119886   0.385   3.862   2.382  0.9247 -0.3231 -0.1767
 2808SOL    HW219887   0.501   3.764   2.406  0.3680 -0.1214 -0.5843
 2809SOL     OW19888   2.530   2.332   5.482  0.0003  1.0926 -0.7094
 2809SOL    HW119889   2.460   2.372   5.431 -1.9756 -0.2447  0.9283
 2809SOL    HW219890   2.556   2.395   5.549  0.7671  0.1656 -0.1247
 2810SOL     OW19891   1.278   3.531  10.395 -0.5697  0.3968  0.0994
 2810SOL    HW119892   1.371   3.552  10.403 -0.7783  1.4809 -0.2869
 2810SOL    HW219893   1.245   3.606  10.444 -1.2431  1.2187 -1.5864
 2811SOL     OW19894   2.009   2.459   2.947  0.5148 -0.1646  0.0854
 2811SOL    HW119895   1.981   2.372   2.918  0.4746  0.4061 -1.6132
 2811SOL    HW219896   2.001   2.448   3.041 -1.6831  0.8263  0.0159
 2812SOL     OW19897   2.397   1.749   4.628 -0.1066  0.0762 -0.6849
 2812SOL    HW119898   2.371   1.818   4.690 -0.0837  0.8036 -1.4925
 2812SOL    HW219899   2.370   1.672   4.678  0.3947  1.1172  1.1895
 2813SOL     OW19900   2.433   3.302   3.957 -0.1426 -0.0363  0.3088
 2813SOL    HW119901   2.478   3.380   3.991 -2.1085  0.5654  1.5522
 2813SOL    HW219902   2.362   3.344   3.908  1.6927  0.8617 -1.5707
 2814SOL     OW19903   4.235   1.277   2.934 -0.7296 -0.0600 -0.1960
 2814SOL    HW119904   4.289   1.222   2.877 -1.6357  0.0220 -1.1489
 2814SOL    HW219905   4.228   1.352   2.874  0.8981  1.9382  2.1088
 2815SOL     OW19906   4.666   1.961   5.421 -0.0927  0.1735 -0.0465
 2815SOL    HW119907   4.647   1.996   5.334  1.2744  0.2657 -0.3129
 2815SOL    HW219908   4.631   2.033   5.474  0.6057 -0.1558  0.8578
 2816SOL     OW19909   1.520   0.931   9.387  0.6158  0.3079 -0.2226
 2816SOL    HW119910   1.453   0.875   9.426  0.8525 -0.3807 -0.8142
 2816SOL    HW219911   1.571   0.940   9.467 -0.2583  1.1031  0.2514
 2817SOL     OW19912   3.212   2.367   4.410  0.8012 -0.2503  0.0152
 2817SOL    HW119913   3.261   2.296   4.452  0.8790 -0.6127 -0.6853
 2817SOL    HW219914   3.211   2.435   4.477  1.2387 -0.6369  0.4189
 2818SOL     OW19915   0.489   0.042   7.859 -0.0167 -0.2079 -0.1918
 2818SOL    HW119916   0.560   4.717   7.812  0.3594  0.9431 -0.6626
 2818SOL    HW219917   0.425   4.689   7.848 -0.0208 -0.3047  0.4433
 2819SOL     OW19918   3.208   0.278   4.528  0.4841  0.4279 -0.5870
 2819SOL    HW119919   3.207   0.374   4.536 -2.4617  0.4176 -0.7565
 2819SOL    HW219920   3.289   0.280   4.478  0.7103  0.3588 -0.2243
 2820SOL     OW19921   0.906   3.976   4.217 -0.5877 -0.4400  0.2747
 2820SOL    HW119922   0.817   3.956   4.248 -0.4266  2.7206  2.7074
 2820SOL    HW219923   0.961   3.909   4.258  0.0679  0.7422  1.3160
 2821SOL     OW19924   2.655   1.936  16.442 -0.1941 -0.4830  0.3083
 2821SOL    HW119925   2.719   1.867  16.423  0.5118  0.7705 -1.8517
 2821SOL    HW219926   2.572   1.896  16.418 -0.5871 -0.0585  0.9649
 2822SOL     OW19927   4.582   0.310  14.266  0.1774 -0.0399 -0.3754
 2822SOL    HW119928   4.669   0.281  14.294 -0.0729  0.4235  0.8955
 2822SOL    HW219929   4.533   0.253  14.325  0.3291 -0.4636 -0.6605
 2823SOL     OW19930   0.990   4.525   9.887  0.5595  0.2534 -0.3353
 2823SOL    HW119931   1.063   4.511   9.947 -1.1261 -0.8973  1.4046
 2823SOL    HW219932   1.032   4.583   9.823  1.9919 -1.8898 -1.3509
 2824SOL     OW19933   1.863   3.431   2.312 -0.1176 -0.4783 -0.1175
 2824SOL    HW119934   1.948   3.471   2.295  0.1020  0.4708  3.2923
 2824SOL    HW219935   1.852   3.435   2.407 -1.2113 -0.8944 -0.2190
 2825SOL     OW19936   3.698   3.033  15.365  0.0577  0.7716 -0.3693
 2825SOL    HW119937   3.752   2.992  15.432 -1.5795 -1.6389 -0.5102
 2825SOL    HW219938   3.713   2.972  15.293  2.2615  0.2370  0.5538
 2826SOL     OW19939   4.325   0.875   4.515 -0.8435 -0.3038 -0.3223
 2826SOL    HW119940   4.297   0.831   4.434 -0.2931 -0.2587 -0.5367
 2826SOL    HW219941   4.358   0.802   4.568 -1.3410 -0.3229 -0.0375
 2827SOL     OW19942   3.201   4.641   2.930 -0.1177  0.3981 -0.4499
 2827SOL    HW119943   3.202   4.671   2.839  0.4914  0.2510 -0.4911
 2827SOL    HW219944   3.295   4.640   2.945 -0.5485 -1.3313  2.1979
 2828SOL     OW19945   2.293   3.428   6.728 -0.4165  0.1050 -0.2611
 2828SOL    HW119946   2.295   3.435   6.632  0.3691 -0.9720 -0.3253
 2828SOL    HW219947   2.255   3.340   6.737  1.2146 -0.8537 -2.6063
 2829SOL     OW19948   3.086   2.538  12.736  0.0677  0.2849  0.1633
 2829SOL    HW119949   3.152   2.603  12.713  0.2339  0.3980  0.9603
 2829SOL    HW219950   3.081   2.553  12.830 -1.3349 -0.9942  0.2906
 2830SOL     OW19951   1.953   0.403  15.279  0.6935  0.0723 -0.0091
 2830SOL    HW119952   1.913   0.319  15.302 -0.6296  0.8420  0.4686
 2830SOL    HW219953   1.908   0.460  15.340 -0.5010 -1.2218  0.3283
 2831SOL     OW19954   1.745   3.119   4.694  0.3128  0.1888 -0.7287
 2831SOL    HW119955   1.789   3.203   4.684 -2.9757  1.9573 -0.3899
 2831SOL    HW219956   1.746   3.088   4.604  1.3422 -1.6186 -0.0927
 2832SOL     OW19957   2.668   3.787   1.574 -0.6923 -0.4772 -0.2702
 2832SOL    HW119958   2.736   3.817   1.634  0.7529 -1.7181 -1.2701
 2832SOL    HW219959   2.652   3.697   1.603 -1.4188  0.1221  1.1420
 2833SOL     OW19960   4.025   2.229   0.529 -0.0959  0.6157  0.4052
 2833SOL    HW119961   4.048   2.168   0.599  1.0649  1.3306  0.6434
 2833SOL    HW219962   3.990   2.168   0.464  0.0407  2.0589 -1.0289
 2834SOL     OW19963   2.428   3.157  11.486 -0.0728 -0.1745  0.0629
 2834SOL    HW119964   2.388   3.072  11.470 -0.4538 -0.0910  0.5824
 2834SOL    HW219965   2.506   3.150  11.430 -0.8502 -0.9461 -0.9183
 2835SOL     OW19966   0.011   1.580   3.076  0.2533 -0.8699 -0.4567
 2835SOL    HW119967   4.644   1.616   3.051  0.4164 -1.4246 -1.8156
 2835SOL    HW219968   0.061   1.626   3.008  0.9295  1.1486  1.4062
 2836SOL     OW19969   2.958   4.433   7.620  0.0901 -0.2322 -0.3987
 2836SOL    HW119970   3.007   4.476   7.551 -2.4355  2.3975 -0.5371
 2836SOL    HW219971   3.029   4.413   7.681 -1.8802 -2.7777  1.0360
 2837SOL     OW19972   2.538   2.010   5.836 -0.2448  0.8197  0.5814
 2837SOL    HW119973   2.558   2.061   5.914  0.1093  0.8974  0.4412
 2837SOL    HW219974   2.601   1.940   5.853 -2.0350 -1.0709 -0.5283
 2838SOL     OW19975   2.401   1.451  12.260 -0.5925 -0.2600 -0.3935
 2838SOL    HW119976   2.445   1.367  12.243  0.2736 -0.1657  1.3465
 2838SOL    HW219977   2.349   1.430  12.338  1.3524 -0.1424  0.9563
 2839SOL     OW19978   2.414   4.041   5.604  0.2975 -0.0642  0.1543
 2839SOL    HW119979   2.379   4.118   5.560  0.8889  0.6242  0.9142
 2839SOL    HW219980   2.409   4.061   5.697  2.1742 -0.6408  0.3825
 2840SOL     OW19981   1.212   2.349   2.128  0.5158 -0.1817 -0.2424
 2840SOL    HW119982   1.224   2.261   2.091 -1.2094 -0.0977 -0.9723
 2840SOL    HW219983   1.265   2.400   2.066 -2.3629  2.3790 -0.5800
 2841SOL     OW19984   3.681   3.187   8.135 -0.2017 -0.5266  0.1155
 2841SOL    HW119985   3.686   3.099   8.097  1.1735 -0.0376 -0.8331
 2841SOL    HW219986   3.593   3.206   8.103  0.6192  1.9466 -0.6692
 2842SOL     OW19987   2.707   2.114   7.477  0.6035  0.2270  0.3287
 2842SOL    HW119988   2.749   2.068   7.404  0.0445 -0.3667  0.3896
 2842SOL    HW219989   2.647   2.050   7.515  0.3295  0.1553 -0.2284
 2843SOL     OW19990   2.255   3.600   6.276 -0.6672  0.4880  0.1609
 2843SOL    HW119991   2.188   3.669   6.277  0.4813  1.6201 -1.7596
 2843SOL    HW219992   2.325   3.636   6.222  0.6417 -2.8333 -0.3852
 2844SOL     OW19993   0.075   3.997  10.987  0.1897  0.3113  0.5512
 2844SOL    HW119994   0.168   3.978  10.970  0.1217 -0.0670  0.6006
 2844SOL    HW219995   0.093   4.004  11.080  1.8341 -1.6129  0.3774
 2845SOL     OW19996   2.857   2.155   3.381 -0.2915 -1.0406 -0.2483
 2845SOL    HW119997   2.784   2.174   3.441 -0.0590  1.3172 -0.7082
 2845SOL    HW219998   2.933   2.202   3.417 -0.5104 -1.4478  0.7648
 2846SOL     OW19999   4.326   1.803   5.461 -0.1101  0.6701 -0.3402
 2846SOL    HW120000   4.404   1.843   5.501 -1.7823  0.5970  2.9802
 2846SOL    HW220001   4.347   1.799   5.368 -2.7158 -0.0825 -0.8952
 2847SOL     OW20002   3.634   0.328   2.414  0.3276 -0.0888  0.5739
 2847SOL    HW120003   3.648   0.419   2.440 -1.4260  1.0250 -2.3814
 2847SOL    HW220004   3.725   0.298   2.417  0.2320 -0.9145 -3.9280
 2848SOL     OW20005   2.930   3.349  13.507  0.4292 -0.0991  0.0746
 2848SOL    HW120006   2.890   3.370  13.423  0.5814  0.8529  0.2379
 2848SOL    HW220007   2.895   3.263  13.531 -0.5415  0.4616  0.6784
 2849SOL     OW20008   1.051   4.531  14.596  0.3419  0.0401 -0.5718
 2849SOL    HW120009   1.069   4.438  14.582  1.4974  0.1084  0.4966
 2849SOL    HW220010   0.955   4.527  14.590  0.1545  1.1132  1.7147
 2850SOL     OW20011   3.568   0.544   3.714 -0.4062 -0.0584 -0.7219
 2850SOL    HW120012   3.583   0.456   3.680  2.8568  0.5776 -0.9040
 2850SOL    HW220013   3.548   0.529   3.806 -0.7346  0.0536 -0.7742
 2851SOL     OW20014   2.934   3.911   3.009 -0.0425  0.2712 -0.2106
 2851SOL    HW120015   2.957   3.831   3.056  0.0041 -0.6159 -1.7241
 2851SOL    HW220016   2.994   3.973   3.049 -0.4780 -0.3741  1.4200
 2852SOL     OW20017   2.049   3.468   7.853 -0.2243  0.6314 -0.0147
 2852SOL    HW120018   2.075   3.545   7.804 -1.8199  0.8866 -0.4485
 2852SOL    HW220019   2.058   3.498   7.944  2.6644  1.0552 -0.4493
 2853SOL     OW20020   3.090   3.366  11.250 -0.0134 -0.5476  0.1621
 2853SOL    HW120021   3.051   3.302  11.311 -0.7048 -0.1033  0.1796
 2853SOL    HW220022   3.178   3.330  11.239 -0.4077 -0.1705 -4.1390
 2854SOL     OW20023   2.392   4.499   6.594  0.2639 -0.1946  0.0426
 2854SOL    HW120024   2.415   4.408   6.576  1.6292 -0.0510  1.0113
 2854SOL    HW220025   2.301   4.483   6.616  0.3664  0.1238  0.7011
 2855SOL     OW20026   4.261   0.733   4.285 -0.3514  0.2135  0.2071
 2855SOL    HW120027   4.197   0.678   4.240 -1.6015  2.4873 -0.8001
 2855SOL    HW220028   4.287   0.798   4.220  1.1041 -0.2182  0.3714
 2856SOL     OW20029   3.030   0.062   4.434 -0.1445  0.0481 -0.0027
 2856SOL    HW120030   3.097   0.124   4.464  0.2116  0.3354 -1.3615
 2856SOL    HW220031   3.082   0.001   4.382  0.9390  1.0585 -0.1136
 2857SOL     OW20032   1.070   4.337   2.016 -0.7041 -0.1666  0.5499
 2857SOL    HW120033   1.079   4.426   1.981  0.4876 -0.2401  0.6630
 2857SOL    HW220034   1.043   4.290   1.938 -0.6864  0.2665  0.2848
 2858SOL     OW20035   3.391   2.518  14.070  0.4256  0.2915 -0.4909
 2858SOL    HW120036   3.386   2.504  14.164 -3.4329 -1.5212 -0.9894
 2858SOL    HW220037   3.374   2.611  14.063  3.4900  0.6589 -3.4702
 2859SOL     OW20038   3.231   2.796   0.035 -0.3336 -0.9072 -0.6570
 2859SOL    HW120039   3.213   2.888   0.014  1.3377 -0.4637 -0.1351
 2859SOL    HW220040   3.199   2.750  17.633  0.3486 -1.3715 -0.6613
 2860SOL     OW20041   4.006   1.625   8.239 -0.1319 -0.1689  0.1532
 2860SOL    HW120042   4.037   1.710   8.269  0.7343 -1.6042  3.3930
 2860SOL    HW220043   3.911   1.631   8.228  0.1037 -1.3979 -2.6290
 2861SOL     OW20044   2.710   2.474  11.150  0.0172  0.1379  0.1186
 2861SOL    HW120045   2.772   2.427  11.095  0.5387 -0.0451  0.8731
 2861SOL    HW220046   2.661   2.530  11.089  0.6964  0.3113 -0.2706
 2862SOL     OW20047   0.937   3.347  16.070 -0.5821 -0.0594  0.1911
 2862SOL    HW120048   0.983   3.297  16.137 -0.8553  0.6264  0.8767
 2862SOL    HW220049   1.014   3.402  16.053 -1.2129  1.6198  2.9158
 2863SOL     OW20050   3.535   3.875  15.276  0.7721 -0.2763  0.1810
 2863SOL    HW120051   3.513   3.919  15.358  2.9099  1.2258 -0.0578
 2863SOL    HW220052   3.470   3.909  15.215  0.4316  0.4016  0.9173
 2864SOL     OW20053   2.476   3.872   0.429  0.3156 -0.2000  0.1785
 2864SOL    HW120054   2.556   3.908   0.390 -0.9259  3.4324  0.9838
 2864SOL    HW220055   2.447   3.805   0.367  2.3446 -1.1607  0.2803
 2865SOL     OW20056   3.984   3.874   5.058  0.1775  1.5746 -0.4498
 2865SOL    HW120057   3.910   3.913   5.103 -1.3482 -1.2895 -0.4928
 2865SOL    HW220058   4.027   3.947   5.013  1.6944  0.4654 -0.7973
 2866SOL     OW20059   2.166   0.132   6.036  0.3437 -0.6029 -0.2429
 2866SOL    HW120060   2.190   0.220   6.067 -0.7623 -0.5474  0.4515
 2866SOL    HW220061   2.193   0.079   6.111 -0.4067  1.0050  1.1764
 2867SOL     OW20062   1.773   2.680   5.333  0.9630  0.1314 -0.2705
 2867SOL    HW120063   1.810   2.724   5.409 -1.0163 -1.2790  1.5085
 2867SOL    HW220064   1.682   2.709   5.331  0.4788 -1.3084  0.3826
 2868SOL     OW20065   4.710   1.287   4.731  0.6417  0.2674 -0.3861
 2868SOL    HW120066   4.616   1.293   4.751  0.0904 -2.0168 -2.2762
 2868SOL    HW220067   4.700   1.285   4.636  1.4489 -1.3338 -0.4307
 2869SOL     OW20068   1.739   0.143   2.068 -0.5017  0.3085  0.2770
 2869SOL    HW120069   1.673   0.135   1.999  1.4679 -0.3867 -1.5100
 2869SOL    HW220070   1.770   0.055   2.090 -1.2009  0.0098  0.0706
 2870SOL     OW20071   3.008   4.317   1.703  0.2940 -0.2081 -0.2376
 2870SOL    HW120072   3.058   4.241   1.674 -2.1251 -2.1125  0.5613
 2870SOL    HW220073   2.938   4.301   1.639  0.9480  0.5337 -1.1370
 2871SOL     OW20074   0.040   2.775  10.134  0.2355 -0.3676 -0.4437
 2871SOL    HW120075   0.030   2.869  10.148  2.1111 -0.6395  2.7217
 2871SOL    HW220076   0.130   2.762  10.164 -1.0408 -1.6304  2.9355
 2872SOL     OW20077   4.658   4.184   3.291 -0.1329  0.1677  0.6069
 2872SOL    HW120078   4.598   4.129   3.240  0.5799 -0.0309  0.0001
 2872SOL    HW220079   4.648   4.256   3.229  1.1580  0.1682  0.4085
 2873SOL     OW20080   0.125   1.210  13.370  0.0097  0.4541  0.0738
 2873SOL    HW120081   0.115   1.253  13.455  0.9942 -3.2162  2.0500
 2873SOL    HW220082   0.032   1.190  13.358 -0.2545  0.8074  1.5581
 2874SOL     OW20083   2.057   4.392   2.079  0.0083 -0.4582  1.1432
 2874SOL    HW120084   2.102   4.470   2.047 -1.4282  1.2351  3.2539
 2874SOL    HW220085   2.025   4.369   1.992  1.8919 -0.8241  0.5558
 2875SOL     OW20086   4.586   4.262   6.572  0.2815  0.2582  0.7064
 2875SOL    HW120087   4.628   4.232   6.491 -0.1994 -1.7264  1.1972
 2875SOL    HW220088   4.577   4.179   6.619 -0.9290  1.3561  2.3931
 2876SOL     OW20089   1.883   1.564   3.632 -0.3637 -0.2915  0.0317
 2876SOL    HW120090   1.823   1.619   3.682 -0.6772 -1.1941  0.6512
 2876SOL    HW220091   1.864   1.480   3.674  0.3275 -0.6863 -0.4324
 2877SOL     OW20092   0.296   0.202   8.335  0.6514  0.2846  0.0653
 2877SOL    HW120093   0.348   0.279   8.355 -0.6507  1.1555  0.0990
 2877SOL    HW220094   0.365   0.137   8.342 -2.0138 -2.5117  0.3405
 2878SOL     OW20095   2.733   0.118   7.108  0.1991 -0.7924  0.1322
 2878SOL    HW120096   2.789   0.113   7.030  0.4076  0.0508  0.2262
 2878SOL    HW220097   2.650   0.076   7.086  0.8646 -2.3292  0.5501
 2879SOL     OW20098   4.573   0.757   2.793 -0.2277  0.4437 -0.3794
 2879SOL    HW120099   4.639   0.819   2.764 -0.3951  0.3795 -0.8855
 2879SOL    HW220100   4.565   0.770   2.888  1.9494 -2.0949  0.1559
 2880SOL     OW20101   4.603   3.009  13.563 -0.0786  0.2570 -0.1739
 2880SOL    HW120102   4.539   2.953  13.520 -0.9819  1.2203 -0.0920
 2880SOL    HW220103   4.692   2.977  13.550 -0.0333 -0.3871  1.6321
 2881SOL     OW20104   0.824   4.468  13.871  0.0341 -0.3493  0.1907
 2881SOL    HW120105   0.754   4.420  13.917 -0.4515  0.5665  0.4221
 2881SOL    HW220106   0.802   4.446  13.781 -0.8006  1.3424 -0.0273
 2882SOL     OW20107   0.192   4.518   3.723 -0.0456  0.2853  0.1440
 2882SOL    HW120108   0.198   4.555   3.811  2.6625 -1.0214  0.4982
 2882SOL    HW220109   0.221   4.427   3.735  1.6646  0.8947  0.5456
 2883SOL     OW20110   2.599   2.299  16.208  0.3403  0.0767  0.2407
 2883SOL    HW120111   2.520   2.256  16.240  0.5081 -2.3032 -2.5303
 2883SOL    HW220112   2.569   2.346  16.131  0.8281  1.3764  0.8329
 2884SOL     OW20113   4.437   1.141  16.907  0.8659 -0.1400  0.6502
 2884SOL    HW120114   4.459   1.201  16.978  0.3656  1.2254 -0.3599
 2884SOL    HW220115   4.499   1.070  16.924  0.9466 -0.3415 -0.4867
 2885SOL     OW20116   2.859   0.629   2.713  0.3735 -0.1542 -0.0583
 2885SOL    HW120117   2.882   0.718   2.688  1.4786 -0.8037 -1.3574
 2885SOL    HW220118   2.811   0.612   2.632 -0.1788  2.3547 -0.2480
 2886SOL     OW20119   1.360   1.724   4.501  0.0912  0.3587 -0.2993
 2886SOL    HW120120   1.349   1.812   4.536  0.0165  0.3280 -0.2462
 2886SOL    HW220121   1.312   1.668   4.563 -0.0738 -0.0783 -0.8188
 2887SOL     OW20122   0.206   1.931  12.784  0.2771 -0.4047  0.2228
 2887SOL    HW120123   0.200   1.837  12.801 -1.7619 -0.4427 -0.8193
 2887SOL    HW220124   0.127   1.959  12.739 -0.4977 -1.9032  0.6730
 2888SOL     OW20125   2.420   1.171  14.348  0.3554  0.4256  0.7998
 2888SOL    HW120126   2.410   1.088  14.301  2.1068  2.0663 -2.4162
 2888SOL    HW220127   2.345   1.159  14.407 -2.1048  0.5602 -2.2817
 2889SOL     OW20128   1.775   0.999   2.403 -0.1082 -0.5268  0.3097
 2889SOL    HW120129   1.767   1.003   2.307 -1.4259  0.9813  0.4884
 2889SOL    HW220130   1.859   1.038   2.427  0.4756 -1.3727 -0.3479
 2890SOL     OW20131   2.815   1.861  11.596  0.5895  0.1655  0.5274
 2890SOL    HW120132   2.860   1.944  11.580  0.9578 -0.2304 -0.4964
 2890SOL    HW220133   2.893   1.811  11.622  0.9570  1.0562  1.1104
 2891SOL     OW20134   2.325   3.971  13.077  0.5703  0.2645  0.3902
 2891SOL    HW120135   2.401   3.944  13.128 -0.0005 -0.9165  0.6299
 2891SOL    HW220136   2.251   3.962  13.137  0.8973  1.5179  0.9726
 2892SOL     OW20137   1.232   2.172   4.273  0.2231 -0.2430 -0.1755
 2892SOL    HW120138   1.283   2.208   4.345  2.0527 -2.8575 -0.1559
 2892SOL    HW220139   1.271   2.085   4.260 -2.4250 -1.1636 -1.8980
 2893SOL     OW20140   0.249   3.527   7.684 -0.7502 -0.0327  0.7739
 2893SOL    HW120141   0.223   3.540   7.593  0.7639 -0.2410  0.3174
 2893SOL    HW220142   0.235   3.432   7.692  1.6973 -0.4331  0.3198
 2894SOL     OW20143   2.370   0.099   8.630 -0.1513  0.0956  0.0215
 2894SOL    HW120144   2.275   0.083   8.628 -0.4243  1.4095  1.7441
 2894SOL    HW220145   2.363   0.142   8.716  0.0022  1.5328 -0.6793
 2895SOL     OW20146   2.769   0.525   7.200  0.4025  0.3759 -0.1541
 2895SOL    HW120147   2.720   0.578   7.136  1.1631  0.1155 -0.9580
 2895SOL    HW220148   2.754   0.570   7.283 -2.0546  0.3562 -0.5632
 2896SOL     OW20149   2.297   4.618  14.043  0.1079 -0.3953 -0.3234
 2896SOL    HW120150   2.352   4.599  14.119  1.0562  1.1593 -0.6092
 2896SOL    HW220151   2.356   4.584  13.976 -0.6293 -1.4887 -0.4079
 2897SOL     OW20152   0.727   1.818   4.829  0.0113  0.0683  0.1063
 2897SOL    HW120153   0.726   1.852   4.740  0.6670  2.2532  0.9339
 2897SOL    HW220154   0.816   1.841   4.855 -0.3242  2.1749 -0.6967
 2898SOL     OW20155   3.475   2.974   0.061  0.5704  0.2988  0.0408
 2898SOL    HW120156   3.478   2.995  17.643 -0.1449 -0.2212 -0.0963
 2898SOL    HW220157   3.554   3.017   0.093 -0.7390  1.7227  1.3950
 2899SOL     OW20158   4.302   4.471   5.569  0.4702 -0.2537 -0.1480
 2899SOL    HW120159   4.305   4.478   5.474  0.8562  2.0803  0.0487
 2899SOL    HW220160   4.264   4.384   5.584  0.5721  0.0693  2.0350
 2900SOL     OW20161   3.262   0.423   7.525 -0.1148  0.2094 -0.6447
 2900SOL    HW120162   3.324   0.413   7.597 -2.5004  3.2008  1.8325
 2900SOL    HW220163   3.282   0.343   7.477 -0.2874 -1.0256  1.3834
 2901SOL     OW20164   1.169   2.181   5.297 -0.8255  0.4125 -0.1598
 2901SOL    HW120165   1.211   2.100   5.326  0.0574  0.9944  0.1646
 2901SOL    HW220166   1.162   2.170   5.202 -1.0783  1.1035 -0.2213
 2902SOL     OW20167   3.811   2.693   4.173 -0.0201 -0.4472  0.4538
 2902SOL    HW120168   3.763   2.630   4.120 -0.0324  0.0663 -0.1475
 2902SOL    HW220169   3.778   2.672   4.260  0.0468 -1.2243  0.2879
 2903SOL     OW20170   0.807   1.025   2.687  0.3625 -0.3644  0.4436
 2903SOL    HW120171   0.815   1.116   2.714 -0.1254  0.6154 -2.7089
 2903SOL    HW220172   0.890   0.991   2.719 -1.5551 -4.1938  1.3624
 2904SOL     OW20173   3.205   3.428   3.872 -1.1888  0.3559 -0.1168
 2904SOL    HW120174   3.269   3.430   3.801 -1.0376 -0.5483 -0.0020
 2904SOL    HW220175   3.120   3.426   3.828 -0.5638 -0.8375 -1.2709
 2905SOL     OW20176   4.456   4.374  16.406 -0.1261  0.1839  0.3054
 2905SOL    HW120177   4.411   4.452  16.436 -0.5902  0.8147 -2.0262
 2905SOL    HW220178   4.383   4.312  16.405 -0.5891  0.7343  0.0328
 2906SOL     OW20179   1.601   3.290   4.527  0.0943  0.0989 -0.2743
 2906SOL    HW120180   1.669   3.357   4.528 -0.7115  0.9131 -1.1348
 2906SOL    HW220181   1.562   3.305   4.614  0.2541 -0.8607 -0.0332
 2907SOL     OW20182   0.751   0.582   7.658  0.5433 -0.0649 -0.3936
 2907SOL    HW120183   0.672   0.617   7.617  0.3851 -0.4999 -0.4527
 2907SOL    HW220184   0.761   0.491   7.630 -0.1743  0.5552 -2.6676
 2908SOL     OW20185   1.114   1.068  12.780 -0.7367 -0.3396 -0.0406
 2908SOL    HW120186   1.194   1.053  12.729 -0.1425  3.1784 -0.1496
 2908SOL    HW220187   1.156   1.075  12.865  0.9441  1.8967 -1.0425
 2909SOL     OW20188   3.739   0.398   3.026  0.0704 -0.3124  0.4537
 2909SOL    HW120189   3.671   0.349   2.980 -2.3589  2.3174  1.2488
 2909SOL    HW220190   3.752   0.338   3.099 -0.2368  0.3505  1.0549
 2910SOL     OW20191   3.024   0.900   5.425 -0.5100 -0.3141  0.4739
 2910SOL    HW120192   2.983   0.813   5.435  0.5810 -0.8733  0.0630
 2910SOL    HW220193   3.108   0.895   5.470  0.3221 -1.0961 -1.1502
 2911SOL     OW20194   3.580   1.801   6.958 -0.0090 -0.4090 -0.3085
 2911SOL    HW120195   3.531   1.853   7.021  0.0418 -1.3173  0.4805
 2911SOL    HW220196   3.579   1.715   6.999 -1.2327  0.1060  0.7413
 2912SOL     OW20197   1.573   0.500   4.448  0.0349 -0.0293 -0.2842
 2912SOL    HW120198   1.549   0.492   4.540  2.6681 -2.7618  0.1514
 2912SOL    HW220199   1.669   0.492   4.451  0.0545  0.6700  1.1187
 2913SOL     OW20200   3.600   0.538   6.757  0.6884 -0.2493 -0.1970
 2913SOL    HW120201   3.628   0.457   6.800 -1.1289 -0.3606  0.7656
 2913SOL    HW220202   3.533   0.560   6.822  0.4518 -1.6017  0.0103
 2914SOL     OW20203   2.796   0.457   8.954  0.0911  0.2470 -0.1470
 2914SOL    HW120204   2.868   0.400   8.981  0.7335  1.3962  0.5766
 2914SOL    HW220205   2.717   0.406   8.969 -1.9353  3.1315 -0.9227
 2915SOL     OW20206   0.935   1.372   3.563 -0.1418  0.8212 -0.4054
 2915SOL    HW120207   1.023   1.361   3.597 -1.3182  1.8893  3.0190
 2915SOL    HW220208   0.947   1.449   3.507 -0.1955  0.1705 -1.3148
 2916SOL     OW20209   2.381   3.401   2.369  0.2997  0.3021  0.5045
 2916SOL    HW120210   2.342   3.487   2.354 -0.1366  0.1771  0.9265
 2916SOL    HW220211   2.307   3.347   2.394 -1.0707  1.5498 -0.9119
 2917SOL     OW20212   0.595   1.412   9.200  0.1271 -0.4794  0.3160
 2917SOL    HW120213   0.546   1.494   9.195 -0.1173 -0.7592 -1.5708
 2917SOL    HW220214   0.673   1.457   9.167 -0.7267  1.4348  0.8782
 2918SOL     OW20215   4.465   2.374   7.471  0.2544  0.8652 -1.4213
 2918SOL    HW120216   4.385   2.346   7.426 -0.5970 -0.0617  0.6762
 2918SOL    HW220217   4.524   2.300   7.458 -2.7737 -2.0666  1.5265
 2919SOL     OW20218   0.158   2.444   5.730  0.1450 -0.3742  0.0507
 2919SOL    HW120219   0.095   2.473   5.663 -0.2976  0.8103  0.9749
 2919SOL    HW220220   0.098   2.405   5.793 -0.2153 -1.3328 -0.8986
 2920SOL     OW20221   1.920   2.776  16.091 -0.2749  0.2710  0.1367
 2920SOL    HW120222   1.917   2.863  16.132  0.2613 -0.1896  1.1516
 2920SOL    HW220223   2.012   2.787  16.069 -0.4074 -1.6175 -1.3017
 2921SOL     OW20224   3.457   0.122   7.579 -0.0321 -0.0394  0.0895
 2921SOL    HW120225   3.388   0.137   7.644  0.3136  2.4209 -0.1359
 2921SOL    HW220226   3.408   0.132   7.498  1.3154 -1.0911 -0.8727
 2922SOL     OW20227   0.017   0.446   0.461  0.6883 -0.4865 -0.7478
 2922SOL    HW120228   0.094   0.395   0.485  1.1153  0.6282  0.2880
 2922SOL    HW220229   4.688   0.442   0.545  0.5839 -3.4459 -0.9549
 2923SOL     OW20230   0.242   2.181   4.289  0.2221  0.1684 -0.3165
 2923SOL    HW120231   0.229   2.275   4.305  0.6237 -0.0907  1.5301
 2923SOL    HW220232   0.170   2.166   4.227  1.4765 -1.8747 -1.2862
 2924SOL     OW20233   4.262   1.006   6.270 -0.2258  0.3762  0.1141
 2924SOL    HW120234   4.331   1.069   6.293 -0.6674  0.7502  0.4041
 2924SOL    HW220235   4.314   0.931   6.239  0.5068  1.4544 -1.2426
 2925SOL     OW20236   3.149   2.141   8.709 -0.1644  0.5537  0.3686
 2925SOL    HW120237   3.167   2.078   8.779 -0.0821 -0.0651 -0.2083
 2925SOL    HW220238   3.149   2.220   8.763 -0.4489  2.4405 -2.4232
 2926SOL     OW20239   4.488   1.063   4.402  0.1347  0.1555  0.5545
 2926SOL    HW120240   4.452   1.004   4.469  2.2375 -1.8372 -0.0777
 2926SOL    HW220241   4.442   1.022   4.329 -2.2952  1.8218  1.1580
 2927SOL     OW20242   2.429   2.097   8.002  0.1049  0.0991  0.6278
 2927SOL    HW120243   2.477   2.078   8.082 -2.0114  1.5544  2.2303
 2927SOL    HW220244   2.352   2.041   8.007  1.7444 -2.1388  0.4637
 2928SOL     OW20245   2.467   2.423   2.787  0.1200 -0.0408  0.3309
 2928SOL    HW120246   2.522   2.351   2.755 -1.1240 -1.5343  1.6344
 2928SOL    HW220247   2.524   2.500   2.785 -0.5853  0.4690 -0.2089
 2929SOL     OW20248   2.366   4.103   3.596 -0.8299  0.1294 -0.1413
 2929SOL    HW120249   2.393   4.070   3.681 -0.0418  0.2078 -0.3532
 2929SOL    HW220250   2.305   4.170   3.626 -0.7074  1.5328 -3.0153
 2930SOL     OW20251   1.835   4.124  10.567  0.2530 -0.2431 -0.1287
 2930SOL    HW120252   1.768   4.060  10.543 -1.3369  1.2823  0.2018
 2930SOL    HW220253   1.910   4.087  10.521  1.5673  0.8922  1.0581
 2931SOL     OW20254   3.481   2.302  10.533  0.1522 -0.3248 -0.3372
 2931SOL    HW120255   3.403   2.324  10.584 -0.5443 -1.3378 -0.9846
 2931SOL    HW220256   3.451   2.227  10.481  2.1782 -1.3700  0.0210
 2932SOL     OW20257   4.371   1.360   5.932 -0.6310  0.1992 -0.4135
 2932SOL    HW120258   4.457   1.385   5.900  0.5786  0.3585  2.9162
 2932SOL    HW220259   4.400   1.296   5.997  0.0318 -0.2475 -1.1522
 2933SOL     OW20260   2.208   2.796   5.088  0.3232  0.5581 -0.1804
 2933SOL    HW120261   2.218   2.876   5.037 -0.8371  1.5322  1.1246
 2933SOL    HW220262   2.123   2.812   5.127 -0.2477 -0.7715 -0.8910
 2934SOL     OW20263   3.239   2.579   4.009 -0.3628 -0.6324 -0.1695
 2934SOL    HW120264   3.295   2.550   4.081  0.0440 -2.3616 -1.1767
 2934SOL    HW220265   3.154   2.561   4.049 -1.1690  0.5828 -1.3492
 2935SOL     OW20266   2.269   1.384  16.511  0.5565  0.2059 -0.3298
 2935SOL    HW120267   2.295   1.365  16.601 -0.5841  0.5047  0.0574
 2935SOL    HW220268   2.201   1.450  16.526  0.9376 -0.2965  3.4694
 2936SOL     OW20269   4.344   3.453   7.191  0.0364 -0.1537  0.3110
 2936SOL    HW120270   4.423   3.453   7.137 -0.7342 -1.6236 -0.8417
 2936SOL    HW220271   4.362   3.392   7.262  2.7661 -1.1671 -1.2755
 2937SOL     OW20272   2.264   2.958   4.841  0.0430 -0.0586  0.1173
 2937SOL    HW120273   2.330   2.972   4.774 -0.5352 -1.3601 -0.7195
 2937SOL    HW220274   2.186   2.995   4.800  1.2377  0.7498 -1.3957
 2938SOL     OW20275   0.116   1.109   0.312  0.7377  0.2285  0.2085
 2938SOL    HW120276   0.108   1.178   0.378  1.7601  0.8847 -0.3466
 2938SOL    HW220277   0.069   1.044   0.364  0.5201  0.0474 -0.2190
 2939SOL     OW20278   0.656   0.571   5.666  0.1332 -0.0163  0.2606
 2939SOL    HW120279   0.614   0.518   5.733  1.6643 -0.8481  0.5713
 2939SOL    HW220280   0.746   0.537   5.670  1.3121  2.9094 -0.7490
 2940SOL     OW20281   1.988   4.217   3.058  0.8527 -0.0904  0.5712
 2940SOL    HW120282   1.896   4.230   3.082  0.9865 -3.8286  3.0403
 2940SOL    HW220283   2.001   4.129   3.023 -1.5925 -0.6385  1.0105
 2941SOL     OW20284   0.379   1.323   8.226 -0.1369  0.4783  0.5717
 2941SOL    HW120285   0.453   1.321   8.288  1.4242 -3.9224 -1.3855
 2941SOL    HW220286   0.422   1.271   8.158  0.6496  0.5509  0.9997
 2942SOL     OW20287   3.918   2.226   4.739  0.3263  0.9520 -0.1407
 2942SOL    HW120288   3.956   2.180   4.814  2.3810 -0.5622 -2.1065
 2942SOL    HW220289   3.884   2.309   4.772  0.8879  1.3566 -0.5671
 2943SOL     OW20290   4.443   4.548   0.776  0.1110  0.3522 -0.2806
 2943SOL    HW120291   4.363   4.574   0.730 -0.2575 -1.1036 -0.4612
 2943SOL    HW220292   4.500   4.546   0.699 -0.8169  0.9523 -0.9928
 2944SOL     OW20293   3.614   1.327   7.049  0.5943  0.5860 -0.4013
 2944SOL    HW120294   3.582   1.409   7.013 -0.4582  0.3062 -0.0990
 2944SOL    HW220295   3.669   1.356   7.121  0.6074  0.8144 -0.5046
 2945SOL     OW20296   1.960   3.634  13.002  0.2037  0.0232  0.1294
 2945SOL    HW120297   1.989   3.571  12.936  0.5716 -0.2579  0.5541
 2945SOL    HW220298   1.873   3.603  13.026 -0.4452  0.5076 -1.6598
 2946SOL     OW20299   0.372   3.518   8.770  0.2507  0.1618 -0.0748
 2946SOL    HW120300   0.428   3.576   8.718 -0.6306  2.0857  1.1318
 2946SOL    HW220301   0.314   3.476   8.706 -0.1229  0.7500 -0.1263
 2947SOL     OW20302   2.201   3.009   2.725 -0.7587 -0.1007 -0.8916
 2947SOL    HW120303   2.217   3.064   2.648  0.5762  2.1039  0.9728
 2947SOL    HW220304   2.221   2.922   2.689 -3.9174 -0.9427 -0.5630
 2948SOL     OW20305   0.887   4.085   5.986  0.4605  0.1178  0.0062
 2948SOL    HW120306   0.940   4.020   5.939 -1.1239 -0.9714 -0.2756
 2948SOL    HW220307   0.934   4.090   6.069  0.3994  0.8089  0.0007
 2949SOL     OW20308   1.114   2.900  13.695 -0.1620  0.1590  0.0996
 2949SOL    HW120309   1.149   2.949  13.770  0.1274 -1.4248  0.9964
 2949SOL    HW220310   1.160   2.930  13.616  2.0850 -0.5465  1.1231
 2950SOL     OW20311   2.750   0.761   3.199  0.0896 -0.2389 -0.3026
 2950SOL    HW120312   2.682   0.694   3.198  1.2031 -1.3905  1.1505
 2950SOL    HW220313   2.694   0.835   3.177  0.1792  0.8779  3.2413
 2951SOL     OW20314   0.798   2.150   2.227 -0.2927  0.1835 -0.2085
 2951SOL    HW120315   0.825   2.242   2.237 -2.4997  0.6597  1.2416
 2951SOL    HW220316   0.703   2.153   2.228 -0.3470 -1.9023 -0.0289
 2952SOL     OW20317   2.629   3.185  15.020  0.3121 -0.2237  0.2913
 2952SOL    HW120318   2.692   3.253  15.045  1.7048 -1.6632  0.7088
 2952SOL    HW220319   2.610   3.205  14.928  1.7422 -1.3904 -0.2597
 2953SOL     OW20320   3.877   2.861  17.169  0.0064  0.1940 -0.5812
 2953SOL    HW120321   3.804   2.804  17.147 -2.0854  2.3869  0.7327
 2953SOL    HW220322   3.831   2.914  17.233  1.3498  0.4599  0.1749
 2954SOL     OW20323   2.939   1.833   0.790 -0.0613 -0.9820  0.5143
 2954SOL    HW120324   2.955   1.741   0.810  1.0358 -1.1034 -0.9752
 2954SOL    HW220325   3.031   1.861   0.798 -0.3026 -0.2656  0.8374
 2955SOL     OW20326   2.885   2.565   4.371  0.2173  0.1920 -0.2568
 2955SOL    HW120327   2.967   2.609   4.347 -0.5194  1.4940 -0.3801
 2955SOL    HW220328   2.826   2.639   4.385  1.1471  0.9001 -0.0794
 2956SOL     OW20329   4.092   0.028   4.843 -0.3802 -0.1787 -0.3936
 2956SOL    HW120330   4.141   4.667   4.865  3.2426  1.7275 -1.5940
 2956SOL    HW220331   4.084   0.006   4.750  2.2416  0.7892 -0.8249
 2957SOL     OW20332   1.332   2.014   1.187  0.6361 -0.0001  0.0615
 2957SOL    HW120333   1.244   1.984   1.207  1.0093  0.7758  2.8549
 2957SOL    HW220334   1.307   2.096   1.144 -0.4980 -0.1370  0.4707
 2958SOL     OW20335   0.869   2.901   2.380  0.1795  0.3040 -0.5755
 2958SOL    HW120336   0.786   2.871   2.419  0.2658 -0.4950 -1.0094
 2958SOL    HW220337   0.862   2.850   2.299 -0.2901  0.5510 -0.6923
 2959SOL     OW20338   4.277   2.288  14.621 -0.3488  0.7313  0.1114
 2959SOL    HW120339   4.265   2.377  14.653 -0.8045 -0.2090  2.6070
 2959SOL    HW220340   4.258   2.231  14.696 -0.1804  2.8830  1.7752
 2960SOL     OW20341   3.496   3.007   4.195 -0.0443 -0.0479 -0.1256
 2960SOL    HW120342   3.435   2.951   4.243  0.8168  0.4618  1.6088
 2960SOL    HW220343   3.471   3.096   4.219 -0.7746  0.1462 -1.6810
 2961SOL     OW20344   0.940   0.028   2.941  0.2822 -0.3396 -0.4735
 2961SOL    HW120345   0.886   4.668   2.929  1.2049 -0.9842 -0.3675
 2961SOL    HW220346   0.879   0.085   2.990 -1.6050 -1.4926 -1.4761
 2962SOL     OW20347   1.891   3.189  15.296  0.5469  0.1587  0.6808
 2962SOL    HW120348   1.834   3.177  15.220  0.0379  0.4739  1.0179
 2962SOL    HW220349   1.912   3.096  15.304  2.1796  0.3524 -1.2575
 2963SOL     OW20350   3.606   0.890   6.910  0.0566 -0.6131  0.4659
 2963SOL    HW120351   3.545   0.963   6.915  0.7264  0.0497 -1.0711
 2963SOL    HW220352   3.620   0.879   6.815  1.0598  2.1482  0.3077
 2964SOL     OW20353   3.759   2.769   2.039 -0.2948 -0.1839  0.5006
 2964SOL    HW120354   3.682   2.804   1.993 -0.8646 -3.2388 -0.8914
 2964SOL    HW220355   3.734   2.797   2.127  0.5411 -1.7056  1.2287
 2965SOL     OW20356   3.540   0.361   5.029  0.3186 -0.1012  0.1264
 2965SOL    HW120357   3.447   0.375   5.007  0.5791  2.4325  0.6246
 2965SOL    HW220358   3.587   0.401   4.956  0.4063 -1.3064 -0.4795
 2966SOL     OW20359   2.565   2.744  11.437  0.4737  0.0337  0.5430
 2966SOL    HW120360   2.640   2.789  11.477 -2.0200  3.6601  1.1977
 2966SOL    HW220361   2.493   2.802  11.462  0.5422  0.2817  0.1692
 2967SOL     OW20362   4.386   2.658  14.354 -0.0592  0.1771  0.1506
 2967SOL    HW120363   4.347   2.573  14.334 -1.1544  0.1878  2.1924
 2967SOL    HW220364   4.313   2.719  14.339  2.4742  3.1486  0.0576
 2968SOL     OW20365   4.433   0.693   4.668  0.3468  0.4582  0.0680
 2968SOL    HW120366   4.474   0.686   4.754  1.0788  0.3505 -0.2899
 2968SOL    HW220367   4.443   0.604   4.635  2.1070  0.4187  0.7416
 2969SOL     OW20368   4.160   3.584   2.732 -0.0585  0.2888  0.1517
 2969SOL    HW120369   4.129   3.619   2.648 -1.8248  1.0935  1.1540
 2969SOL    HW220370   4.140   3.492   2.716 -2.7745  0.6031  1.7965
 2970SOL     OW20371   2.988   3.079   8.241  0.6792  0.0232  0.5358
 2970SOL    HW120372   3.043   3.001   8.244  1.7534  0.7290 -0.8262
 2970SOL    HW220373   3.043   3.124   8.176 -0.4766 -0.2352 -0.6182
 2971SOL     OW20374   4.431   2.849  12.079  0.1915  0.4023  0.5619
 2971SOL    HW120375   4.515   2.878  12.117 -0.5518  1.1369  1.6381
 2971SOL    HW220376   4.378   2.845  12.159 -1.1260  1.1562 -0.2889
 2972SOL     OW20377   1.592   3.527   2.374 -0.3214 -0.2656  0.0647
 2972SOL    HW120378   1.581   3.475   2.454 -0.3187 -0.1312  0.1535
 2972SOL    HW220379   1.673   3.484   2.346 -0.8456 -1.0991 -0.1841
 2973SOL     OW20380   1.933   4.134   1.664 -0.7630 -0.1206  0.5943
 2973SOL    HW120381   1.988   4.090   1.599  0.1031  1.2715  0.3763
 2973SOL    HW220382   1.883   4.188   1.602  0.4972 -2.5655 -2.5818
 2974SOL     OW20383   3.996   2.238   6.843  0.0196 -0.7186 -0.8955
 2974SOL    HW120384   3.984   2.333   6.854 -0.3179 -0.5191 -2.9696
 2974SOL    HW220385   3.920   2.205   6.889 -0.1418 -0.4065 -0.9375
 2975SOL     OW20386   2.627   3.786  13.032  0.2498 -0.4023  0.1067
 2975SOL    HW120387   2.674   3.855  12.985  0.6258 -0.6376  0.1411
 2975SOL    HW220388   2.584   3.831  13.104 -0.6448  0.0228 -0.6953
 2976SOL     OW20389   1.036   3.507  11.925  0.3064 -0.0448 -0.7100
 2976SOL    HW120390   1.107   3.464  11.876 -0.0157  0.2313 -1.4236
 2976SOL    HW220391   1.031   3.594  11.885 -0.5199 -1.0012 -2.7146
 2977SOL     OW20392   2.077   1.787  13.777  0.8259  0.1305 -0.2216
 2977SOL    HW120393   2.167   1.811  13.798  0.8684  0.2732 -0.5632
 2977SOL    HW220394   2.031   1.823  13.854  0.4881 -1.3931  0.2851
 2978SOL     OW20395   0.641   0.496   2.976  0.0320  0.1675 -0.1516
 2978SOL    HW120396   0.708   0.468   2.913 -0.9039 -2.6651  0.1123
 2978SOL    HW220397   0.576   0.511   2.907 -0.9032  1.1248  0.9551
 2979SOL     OW20398   0.948   4.213   5.373 -0.0794 -0.0109  0.3935
 2979SOL    HW120399   1.017   4.249   5.428 -1.6254  1.8637  1.1276
 2979SOL    HW220400   0.920   4.295   5.334  1.2949  0.7084  0.9200
 2980SOL     OW20401   1.957   1.628   0.352 -0.0681  0.1469  1.0924
 2980SOL    HW120402   1.994   1.714   0.369 -0.2732  0.8100 -1.8364
 2980SOL    HW220403   1.937   1.657   0.263  0.9114  2.0697  1.4911
 2981SOL     OW20404   1.503   0.426   5.167  0.6616 -0.0668 -0.1846
 2981SOL    HW120405   1.570   0.371   5.208  0.6633  0.7825  0.9599
 2981SOL    HW220406   1.548   0.508   5.187 -1.1946  1.5001 -2.4007
 2982SOL     OW20407   0.693   4.155  13.678 -0.0593  0.4452  0.3262
 2982SOL    HW120408   0.785   4.130  13.668 -0.0015  1.1654 -0.9230
 2982SOL    HW220409   0.693   4.229  13.618 -0.8877  0.8462  0.8155
 2983SOL     OW20410   0.455   4.024   2.601 -0.2326 -0.1897  0.4873
 2983SOL    HW120411   0.545   4.001   2.624  1.0970  2.1596 -2.4652
 2983SOL    HW220412   0.468   4.105   2.552 -1.3128 -0.3715 -0.0872
 2984SOL     OW20413   1.542   1.344   6.000  0.3964  0.1677  0.5270
 2984SOL    HW120414   1.501   1.359   5.915  0.0857  0.3854  0.7151
 2984SOL    HW220415   1.624   1.393   5.993  0.6564 -0.4451 -0.8143
 2985SOL     OW20416   3.756   0.267  10.921  0.1833 -0.0353 -0.7773
 2985SOL    HW120417   3.821   0.211  10.964 -1.7201  0.3154  2.6091
 2985SOL    HW220418   3.686   0.282  10.985 -0.2649 -1.3149 -0.9577
 2986SOL     OW20419   1.278   0.768   3.012 -0.1811  0.6489 -0.6756
 2986SOL    HW120420   1.235   0.712   2.947 -0.3775  0.0262 -0.0094
 2986SOL    HW220421   1.202   0.820   3.039  0.7536  2.4872 -1.5451
 2987SOL     OW20422   1.241   1.027   8.236 -0.1657 -0.1480  0.4705
 2987SOL    HW120423   1.163   1.074   8.206  0.0853  1.6078  2.5732
 2987SOL    HW220424   1.220   1.024   8.329 -0.2958 -0.3471  0.4337
 2988SOL     OW20425   0.594   1.699  13.555 -0.6595  0.1737  1.0243
 2988SOL    HW120426   0.513   1.697  13.605 -1.5963  1.8798 -0.4435
 2988SOL    HW220427   0.569   1.769  13.495 -1.8741 -0.7815  0.4117
 2989SOL     OW20428   4.676   2.486   4.800  0.5618  0.3110  0.2996
 2989SOL    HW120429   4.652   2.436   4.722 -1.0325 -0.4427  1.2918
 2989SOL    HW220430   4.695   2.571   4.761  2.2624 -0.2669 -0.1405
 2990SOL     OW20431   3.224   4.436   1.865 -0.5471 -0.6589 -0.4303
 2990SOL    HW120432   3.132   4.432   1.839  0.2410  2.0557 -3.6472
 2990SOL    HW220433   3.249   4.344   1.856  1.0964 -0.3274  0.6362
 2991SOL     OW20434   3.886   4.694   5.634 -0.0455 -0.4729  0.3881
 2991SOL    HW120435   3.881   0.019   5.549  0.3604  1.9350  1.5965
 2991SOL    HW220436   3.871   0.039   5.704 -1.3891  0.6520 -0.9294
 2992SOL     OW20437   3.153   2.358   8.880  0.2038 -0.0029  0.0411
 2992SOL    HW120438   3.190   2.390   8.962  1.5055 -0.5206 -0.3397
 2992SOL    HW220439   3.145   2.438   8.828 -1.5812 -0.6051 -0.6251
 2993SOL     OW20440   3.315   2.897  10.280 -0.3156  0.0619 -0.1318
 2993SOL    HW120441   3.336   2.837  10.351 -1.2276  1.2667  1.1602
 2993SOL    HW220442   3.267   2.970  10.318 -0.6070  0.3520 -1.0592
 2994SOL     OW20443   3.951   3.413   7.613 -0.6619 -0.5043 -0.4897
 2994SOL    HW120444   3.985   3.445   7.696  1.2812 -2.0698 -0.7001
 2994SOL    HW220445   3.871   3.464   7.598 -2.1611 -2.7731 -0.2931
 2995SOL     OW20446   0.312   1.776   3.674  0.3067 -0.0439  0.0509
 2995SOL    HW120447   0.323   1.871   3.671 -0.2806  0.0773  2.1225
 2995SOL    HW220448   0.403   1.761   3.701  1.1652  2.5718 -1.3823
 2996SOL     OW20449   2.664   1.105   5.277 -0.0583  0.0167 -0.2820
 2996SOL    HW120450   2.660   1.137   5.368 -1.3579 -0.1746 -0.2699
 2996SOL    HW220451   2.578   1.127   5.241  1.0329  0.0627 -2.8671
 2997SOL     OW20452   0.484   2.024   4.214 -0.0901  0.0515 -0.7556
 2997SOL    HW120453   0.420   2.094   4.229 -1.7964 -1.4299 -1.1570
 2997SOL    HW220454   0.427   1.950   4.192 -0.5466  0.2333 -0.2034
 2998SOL     OW20455   2.327   1.464   7.746 -0.2155 -0.7389  0.1415
 2998SOL    HW120456   2.239   1.500   7.755 -0.1532 -0.2054 -1.2507
 2998SOL    HW220457   2.366   1.500   7.666 -1.3400 -0.4565 -0.2812
 2999SOL     OW20458   2.989   3.442  17.165  0.2326  0.2683 -0.1492
 2999SOL    HW120459   2.962   3.411  17.078 -0.1943 -1.2249  0.5292
 2999SOL    HW220460   3.081   3.464  17.150  0.7192 -0.7881  1.3568
 3000SOL     OW20461   4.181   3.982   3.652 -0.5682  0.3732 -0.1279
 3000SOL    HW120462   4.255   4.020   3.699 -1.5922  0.3279  1.4978
 3000SOL    HW220463   4.123   4.058   3.646  0.2251  0.9527 -0.4671
 3001SOL     OW20464   4.218   2.055   8.559  0.2231 -0.4534  0.2243
 3001SOL    HW120465   4.148   2.036   8.621 -0.4553 -0.3985 -0.5270
 3001SOL    HW220466   4.257   1.968   8.553  1.2621 -0.0299  0.8483
 3002SOL     OW20467   2.671   2.245  14.895  0.2179 -0.2551 -0.0584
 3002SOL    HW120468   2.618   2.324  14.891  0.1967 -0.2767 -0.2008
 3002SOL    HW220469   2.671   2.221  14.802  1.8107  0.5075 -0.2648
 3003SOL     OW20470   1.732   1.567   4.457 -0.4701  0.0969 -0.3926
 3003SOL    HW120471   1.723   1.491   4.515 -1.4581  0.1704 -0.4463
 3003SOL    HW220472   1.764   1.523   4.379  0.0373 -1.0484  0.4601
 3004SOL     OW20473   1.585   1.228   7.696 -0.4826 -0.2550 -0.7741
 3004SOL    HW120474   1.537   1.310   7.690  0.1944  0.0572 -1.6922
 3004SOL    HW220475   1.665   1.248   7.648 -0.9733  0.1766 -1.3975
 3005SOL     OW20476   2.566   1.181   7.349  0.5349  0.2347  0.1814
 3005SOL    HW120477   2.571   1.136   7.434  1.3721  0.0452  0.0311
 3005SOL    HW220478   2.472   1.198   7.349  0.4590 -0.1970 -1.8803
 3006SOL     OW20479   4.599   4.274   2.433  0.2591 -0.4177 -0.1702
 3006SOL    HW120480   4.680   4.254   2.480  0.9242  3.8131  0.5076
 3006SOL    HW220481   4.634   4.277   2.344  0.5932 -1.3333 -0.0687
 3007SOL     OW20482   2.822   0.994   7.445 -0.1405 -0.3424  0.4317
 3007SOL    HW120483   2.835   1.084   7.414 -0.5559 -0.1583  0.7991
 3007SOL    HW220484   2.746   0.997   7.502 -0.5949  0.2824 -0.2055
 3008SOL     OW20485   3.390   0.161   7.970  0.2011 -0.6960  0.0981
 3008SOL    HW120486   3.461   0.190   8.028 -0.7126  2.0768 -0.1997
 3008SOL    HW220487   3.320   0.187   8.029 -0.1319 -0.9859 -0.1714
 3009SOL     OW20488   2.887   3.499  12.120 -0.2833  0.2553  0.1409
 3009SOL    HW120489   2.948   3.564  12.156 -0.2421  1.3184 -1.8857
 3009SOL    HW220490   2.942   3.422  12.111 -1.0471 -0.1656 -0.8383
 3010SOL     OW20491   4.011   4.017   8.623 -0.2382  0.4966  0.0142
 3010SOL    HW120492   3.963   3.956   8.566 -2.3161  0.6639  1.5833
 3010SOL    HW220493   4.067   4.071   8.567 -0.6132  0.8677 -0.0008
 3011SOL     OW20494   3.357   3.643  14.871  0.2715 -0.1690  0.2329
 3011SOL    HW120495   3.426   3.706  14.893  0.9464 -0.9917  0.4759
 3011SOL    HW220496   3.367   3.636  14.776 -1.6486 -1.1849  0.1134
 3012SOL     OW20497   1.203   1.580   1.586 -0.2419  0.1626 -1.5786
 3012SOL    HW120498   1.207   1.490   1.556  0.4112 -0.0201 -0.9274
 3012SOL    HW220499   1.110   1.592   1.566 -0.8170 -1.8762 -0.0544
 3013SOL     OW20500   4.155   4.261  11.089  0.1883  0.1298  0.1317
 3013SOL    HW120501   4.118   4.288  11.005  0.5640 -0.4415 -0.2184
 3013SOL    HW220502   4.079   4.209  11.117  0.1023  0.4943  0.5805
 3014SOL     OW20503   2.413   2.905  13.598  0.2071  0.3170  0.0794
 3014SOL    HW120504   2.479   2.905  13.528  0.9620 -0.6642  0.7845
 3014SOL    HW220505   2.375   2.817  13.594 -2.3977  1.4631  0.0825
 3015SOL     OW20506   4.043   3.768   7.578 -0.0232  0.0101 -0.2178
 3015SOL    HW120507   4.032   3.710   7.503  2.9412 -1.4875  0.5093
 3015SOL    HW220508   4.034   3.707   7.651 -0.0408 -2.1304 -2.0201
 3016SOL     OW20509   3.570   0.735  14.499  0.9904 -0.3344 -0.0315
 3016SOL    HW120510   3.545   0.735  14.592  1.5657  1.3311  0.1190
 3016SOL    HW220511   3.560   0.642  14.476 -0.2527  0.1212 -1.2989
 3017SOL     OW20512   3.166   4.638  11.930 -0.2920  0.1975 -0.5543
 3017SOL    HW120513   3.222   4.563  11.909 -2.1891 -1.1604 -0.7151
 3017SOL    HW220514   3.082   4.595  11.945 -0.9577  0.4245 -3.6351
 3018SOL     OW20515   0.139   0.339   3.240  0.6883  0.3168  0.1160
 3018SOL    HW120516   0.056   0.385   3.230  0.3089 -0.5904 -0.8410
 3018SOL    HW220517   0.205   0.376   3.181 -0.1943  1.0233 -0.4198
 3019SOL     OW20518   0.772   3.431   7.334 -0.4320 -0.3338  0.5101
 3019SOL    HW120519   0.841   3.426   7.401  1.5330 -1.5653 -1.6214
 3019SOL    HW220520   0.717   3.499   7.373  2.3738  2.3144 -0.2190
 3020SOL     OW20521   3.570   1.115  14.334 -0.0434 -0.3854  0.3838
 3020SOL    HW120522   3.611   1.074  14.258 -0.3796  0.6994 -0.3821
 3020SOL    HW220523   3.584   1.207  14.315  0.5808 -0.1356  2.0985
 3021SOL     OW20524   1.477   0.572   5.447 -0.2712  0.0521  0.3528
 3021SOL    HW120525   1.549   0.604   5.501 -0.6026 -1.8087  1.8937
 3021SOL    HW220526   1.495   0.598   5.356  1.7512 -2.4248  0.0289
 3022SOL     OW20527   2.266   1.034   3.437 -0.2918 -0.1687 -0.2533
 3022SOL    HW120528   2.230   1.057   3.523 -0.6262 -1.2859 -0.0954
 3022SOL    HW220529   2.191   0.988   3.399 -1.2248  1.4660 -0.3848
 3023SOL     OW20530   3.200   0.233   2.511  0.5346 -0.4531  0.5681
 3023SOL    HW120531   3.198   0.319   2.553  1.4224  0.4543 -1.1877
 3023SOL    HW220532   3.163   0.245   2.423  0.0668 -0.6017  0.7478
 3024SOL     OW20533   4.418   2.718   5.112 -0.3138  0.0415 -0.1723
 3024SOL    HW120534   4.325   2.704   5.093 -0.6194  1.4628  0.2569
 3024SOL    HW220535   4.458   2.649   5.060 -0.3870  1.8740 -2.6523
 3025SOL     OW20536   3.355   0.788   8.698 -0.1152  0.6539 -0.2412
 3025SOL    HW120537   3.432   0.843   8.711  0.9185 -1.0045  0.6893
 3025SOL    HW220538   3.329   0.812   8.610  0.6531 -0.3339 -0.7376
 3026SOL     OW20539   2.680   4.146   7.696 -0.1398 -0.2424 -0.5707
 3026SOL    HW120540   2.733   4.067   7.691 -1.9414 -1.4146 -1.0325
 3026SOL    HW220541   2.729   4.203   7.636  2.1721 -1.8265 -0.1899
 3027SOL     OW20542   1.508   2.039   6.947  0.0991  0.1504  0.8995
 3027SOL    HW120543   1.549   2.108   6.896  0.8233 -0.1497  1.0800
 3027SOL    HW220544   1.587   2.020   6.997  2.0301  1.8925 -1.4570
 3028SOL     OW20545   0.135   1.003   6.700 -0.3008  0.2710 -0.0014
 3028SOL    HW120546   0.043   0.991   6.675 -0.5018  1.3515  0.2567
 3028SOL    HW220547   0.163   1.078   6.648  3.2901 -0.6670  0.5682
 3029SOL     OW20548   0.354   0.712   9.440 -0.5572 -0.0838 -0.0931
 3029SOL    HW120549   0.315   0.706   9.528  1.2505 -0.9935  0.6306
 3029SOL    HW220550   0.439   0.669   9.442 -0.7024 -0.4852 -2.4991
 3030SOL     OW20551   3.749   2.481   3.195  0.7641  0.1849 -0.1589
 3030SOL    HW120552   3.678   2.439   3.146  1.0974 -1.5222  0.8316
 3030SOL    HW220553   3.700   2.526   3.263  0.5969  0.7479 -0.6542
 3031SOL     OW20554   2.998   2.554   0.186  0.2601 -0.4095 -0.0392
 3031SOL    HW120555   2.925   2.540   0.125  0.6744  1.6137 -1.0077
 3031SOL    HW220556   2.953   2.518   0.262  0.7796 -0.7655  0.1001
 3032SOL     OW20557   3.135   0.660  10.478  0.2238  0.3630 -0.5327
 3032SOL    HW120558   3.197   0.619  10.538 -1.5211  0.4440  1.3267
 3032SOL    HW220559   3.123   0.580  10.427 -1.1150  0.4401 -0.3208
 3033SOL     OW20560   3.960   4.301   7.104  0.0545  0.2974  0.3650
 3033SOL    HW120561   4.008   4.222   7.078  3.1765  2.4549 -0.4763
 3033SOL    HW220562   3.913   4.255   7.173 -0.6205  0.4849  0.0254
 3034SOL     OW20563   0.556   3.878   8.720 -0.2883  0.2720  0.2152
 3034SOL    HW120564   0.643   3.838   8.722  0.4587  1.7607 -1.9695
 3034SOL    HW220565   0.556   3.931   8.799  2.0930  0.4550  0.1013
 3035SOL     OW20566   1.141   1.148   7.586  0.3364  1.1561 -0.2899
 3035SOL    HW120567   1.166   1.189   7.503  0.7515  0.4807 -0.5026
 3035SOL    HW220568   1.124   1.057   7.560  4.6237  0.5369 -0.8000
 3036SOL     OW20569   1.474   4.481   5.338  0.2343 -0.9005  0.6285
 3036SOL    HW120570   1.455   4.573   5.359  1.5573 -0.4134 -0.2408
 3036SOL    HW220571   1.520   4.456   5.418 -0.2086 -0.7601  0.9285
 3037SOL     OW20572   0.380   2.453   3.335 -0.2748  0.4682 -0.2523
 3037SOL    HW120573   0.436   2.445   3.258 -1.2498  0.2565 -0.9472
 3037SOL    HW220574   0.318   2.519   3.305  0.5689  1.4011  0.0739
 3038SOL     OW20575   2.349   0.914  14.484 -0.0539 -0.1139 -0.2842
 3038SOL    HW120576   2.354   0.835  14.538 -1.0483  0.2599  0.3498
 3038SOL    HW220577   2.255   0.931  14.477  0.1728 -0.0091 -3.0035
 3039SOL     OW20578   0.901   0.917   0.779  0.3325 -0.1933 -0.3563
 3039SOL    HW120579   0.892   0.862   0.701  3.0510 -0.5657 -0.4172
 3039SOL    HW220580   0.978   0.967   0.751 -0.4024  1.5768  0.7783
 3040SOL     OW20581   4.454   0.200   9.671 -0.3215 -0.4963  0.3024
 3040SOL    HW120582   4.450   0.209   9.767  1.6919 -2.3215  0.5719
 3040SOL    HW220583   4.471   0.289   9.640  1.6915 -1.7701 -2.1879
 3041SOL     OW20584   3.456   2.414   3.132  0.2063  0.1157 -0.3401
 3041SOL    HW120585   3.413   2.482   3.185  0.7356 -0.2548  0.5517
 3041SOL    HW220586   3.478   2.461   3.052  1.2418 -0.6013 -0.4727
 3042SOL     OW20587   3.098   1.314   8.671  0.6400  0.4915  0.2518
 3042SOL    HW120588   3.167   1.248   8.661 -0.5481 -0.6678 -0.2940
 3042SOL    HW220589   3.108   1.330   8.764 -0.1658  1.3336  0.1971
 3043SOL     OW20590   0.564   0.602   4.295 -0.3315  0.0988  0.4717
 3043SOL    HW120591   0.477   0.566   4.315 -0.6679  0.6855  0.0533
 3043SOL    HW220592   0.598   0.525   4.249 -2.9696  0.3399 -1.8979
 3044SOL     OW20593   3.095   3.663   3.971  0.6687  0.8244 -0.2901
 3044SOL    HW120594   3.160   3.613   3.921 -0.5486 -0.1961 -0.8731
 3044SOL    HW220595   3.147   3.709   4.037 -0.2878  0.2312  0.8812
 3045SOL     OW20596   4.447   4.327  15.429  0.0073  0.6740 -0.1701
 3045SOL    HW120597   4.515   4.327  15.361  0.0836  3.3712 -0.1062
 3045SOL    HW220598   4.492   4.351  15.510 -0.7716  0.1036  0.4328
 3046SOL     OW20599   4.443   1.103  14.694 -0.1028  0.8842  0.5758
 3046SOL    HW120600   4.418   1.195  14.697  1.2374  1.1974  2.3090
 3046SOL    HW220601   4.363   1.058  14.665  0.3862 -1.6570  3.1538
 3047SOL     OW20602   2.960   3.703   1.898 -0.0312 -0.6121  0.0352
 3047SOL    HW120603   2.895   3.759   1.939 -0.0663  0.7447 -1.8501
 3047SOL    HW220604   3.040   3.711   1.950 -1.2724  0.5436  1.7501
 3048SOL     OW20605   0.643   3.212   9.144  0.7435  0.0875 -0.4524
 3048SOL    HW120606   0.731   3.241   9.120  1.0316 -1.1996 -0.9514
 3048SOL    HW220607   0.602   3.298   9.151  0.0316 -0.3439  0.8214
 3049SOL     OW20608   2.581   4.210  12.225  0.3767 -0.5408  0.1359
 3049SOL    HW120609   2.545   4.298  12.211  0.1471 -0.7462 -0.5749
 3049SOL    HW220610   2.670   4.232  12.253  0.4418 -0.1002 -0.4137
 3050SOL     OW20611   2.475   4.116   1.646 -0.1301  0.1568 -0.1134
 3050SOL    HW120612   2.551   4.146   1.597  0.9850 -1.4378  0.6521
 3050SOL    HW220613   2.441   4.054   1.581 -0.1827  0.1997 -0.1273
 3051SOL     OW20614   0.537   3.049   2.453  0.5502  0.8909  0.0467
 3051SOL    HW120615   0.532   3.075   2.545 -2.1695  0.4447  0.0302
 3051SOL    HW220616   0.546   2.953   2.456 -0.3411  0.8442  1.1839
 3052SOL     OW20617   0.438   0.047   5.979 -0.0822 -0.1148  0.1147
 3052SOL    HW120618   0.461   4.711   6.054  1.6028 -1.3230 -1.3017
 3052SOL    HW220619   0.434   4.708   5.903  0.6820  3.4656 -2.6437
 3053SOL     OW20620   2.149   0.587   7.550 -0.3723  0.3272 -0.5004
 3053SOL    HW120621   2.091   0.537   7.608  0.6297 -1.5427 -1.0875
 3053SOL    HW220622   2.087   0.645   7.507 -1.6624  0.4560  1.5077
 3054SOL     OW20623   0.581   4.544   4.078  0.3452 -0.0036  0.0034
 3054SOL    HW120624   0.644   4.475   4.099 -1.1063 -0.1627  3.7730
 3054SOL    HW220625   0.502   4.499   4.109  1.0695 -0.5686  1.0163
 3055SOL     OW20626   2.598   1.270   4.198  0.0414 -0.3990 -0.3247
 3055SOL    HW120627   2.621   1.312   4.281  0.5954 -0.6657 -0.3403
 3055SOL    HW220628   2.555   1.338   4.147  0.0571  1.0416  1.5970
 3056SOL     OW20629   1.302   3.943  17.055 -0.1085 -0.3189 -0.2965
 3056SOL    HW120630   1.259   4.015  17.102  0.0775 -1.6084  1.8669
 3056SOL    HW220631   1.314   3.874  17.120 -1.6116 -2.1106 -1.8998
 3057SOL     OW20632   2.912   3.520   2.886  0.2108 -0.0039  0.5527
 3057SOL    HW120633   2.898   3.525   2.791  1.3647  2.4085  0.5261
 3057SOL    HW220634   2.838   3.467   2.917  0.6605  0.5301  2.5522
 3058SOL     OW20635   3.885   4.220   2.941  0.0634  0.4871 -0.0212
 3058SOL    HW120636   3.969   4.265   2.929 -0.4596  1.9100  1.5884
 3058SOL    HW220637   3.905   4.134   2.906  0.9789  0.2623  1.0710
 3059SOL     OW20638   1.332   1.196   5.574  0.3993  0.3750  0.3682
 3059SOL    HW120639   1.299   1.106   5.566  0.1227  0.5628 -0.6045
 3059SOL    HW220640   1.253   1.242   5.546 -1.2230 -2.5125  0.2140
 3060SOL     OW20641   4.409   2.677  15.722 -0.5119 -0.5093 -0.3228
 3060SOL    HW120642   4.323   2.638  15.741  0.4645 -2.2000  0.6518
 3060SOL    HW220643   4.444   2.636  15.643 -0.6134  2.1393 -1.7391
 3061SOL     OW20644   0.560   0.653   1.325 -0.0160 -0.0189 -1.0375
 3061SOL    HW120645   0.503   0.606   1.264 -2.7417  1.6356  0.2850
 3061SOL    HW220646   0.503   0.705   1.381 -0.3812 -0.5529 -0.9078
 3062SOL     OW20647   4.375   2.406   7.041 -0.3190 -0.3571 -0.2053
 3062SOL    HW120648   4.433   2.338   7.076  0.4441 -0.0151 -0.8256
 3062SOL    HW220649   4.438   2.475   7.060  1.3653 -1.6958 -0.9709
 3063SOL     OW20650   0.570   4.230   5.212 -0.2371  0.2082  0.0663
 3063SOL    HW120651   0.540   4.275   5.291 -1.5824 -1.6680  0.6277
 3063SOL    HW220652   0.610   4.148   5.242  1.3766  0.5326 -1.1824
 3064SOL     OW20653   2.464   4.537   6.955  0.4549 -0.4276  0.4794
 3064SOL    HW120654   2.430   4.553   6.868 -0.2350 -3.6735  0.1232
 3064SOL    HW220655   2.382   4.513   6.998  2.1766 -1.6688  3.1445
 3065SOL     OW20656   3.074   0.073   9.231  0.1579  0.0029 -0.8317
 3065SOL    HW120657   3.011   0.019   9.279 -0.8567  0.0423 -2.1305
 3065SOL    HW220658   3.092   0.019   9.154 -0.3212 -1.2902 -0.0374
 3066SOL     OW20659   2.015   0.545   5.510 -0.6355  0.1854 -0.1473
 3066SOL    HW120660   2.085   0.494   5.469  0.4835  1.7892 -0.2098
 3066SOL    HW220661   2.072   0.604   5.560  1.5593 -1.5144 -0.6484
 3067SOL     OW20662   1.626   0.261   3.063  0.0607  0.6040 -0.1282
 3067SOL    HW120663   1.568   0.322   3.110 -0.9115 -0.0307 -0.5079
 3067SOL    HW220664   1.594   0.178   3.098  0.0078 -0.4190 -2.6333
 3068SOL     OW20665   1.853   4.224   2.680  0.7174  0.7216 -0.2236
 3068SOL    HW120666   1.908   4.293   2.714  0.4649  0.4790  0.6668
 3068SOL    HW220667   1.856   4.253   2.589 -0.9175  0.8047 -0.2555
 3069SOL     OW20668   3.405   1.646   3.591 -0.2333  0.0237  0.0034
 3069SOL    HW120669   3.318   1.614   3.616 -0.1912  0.7149  1.0400
 3069SOL    HW220670   3.425   1.563   3.547 -1.0114 -0.3985  0.4350
 3070SOL     OW20671   1.818   1.392   8.175 -0.4052 -0.2766 -0.2095
 3070SOL    HW120672   1.787   1.457   8.112  0.5244 -0.4669 -0.8610
 3070SOL    HW220673   1.752   1.325   8.159 -0.5213 -0.0175 -0.8326
 3071SOL     OW20674   1.992   0.624   5.932 -0.4601  0.9552  0.9043
 3071SOL    HW120675   2.006   0.715   5.905  0.1240  0.5889 -0.0717
 3071SOL    HW220676   2.066   0.596   5.986  0.7574 -1.2395 -1.8658
 3072SOL     OW20677   4.700   0.334   6.222 -0.2498  0.4189 -0.2576
 3072SOL    HW120678   0.044   0.354   6.152  0.9990  0.8032  0.9606
 3072SOL    HW220679   0.010   0.256   6.271 -1.6269 -1.2888 -2.1720
 3073SOL     OW20680   0.758   1.924   1.838 -0.1221 -0.5079 -0.1675
 3073SOL    HW120681   0.754   1.995   1.775  1.0983  0.5125  0.8953
 3073SOL    HW220682   0.671   1.886   1.842  0.0813 -1.2976 -3.2902
 3074SOL     OW20683   0.347   2.341  11.281  0.9446  0.0878 -0.6443
 3074SOL    HW120684   0.394   2.315  11.360  1.1379  1.6010 -0.2525
 3074SOL    HW220685   0.391   2.423  11.255 -0.2054  0.9206  0.0489
 3075SOL     OW20686   2.049   2.180   5.757 -0.5108 -0.1804 -0.2408
 3075SOL    HW120687   2.065   2.175   5.851  1.8004  0.7623 -0.5647
 3075SOL    HW220688   2.123   2.235   5.729  2.0490 -1.6393  3.7219
 3076SOL     OW20689   3.308   1.285   5.605  0.1107  0.1707  0.5336
 3076SOL    HW120690   3.313   1.223   5.678  3.2500  2.2978  2.1778
 3076SOL    HW220691   3.402   1.282   5.585 -0.3303  0.1813 -1.5120
 3077SOL     OW20692   0.879   1.313   8.832 -0.2201 -0.9074 -0.0039
 3077SOL    HW120693   0.893   1.324   8.738 -1.7923  0.3031 -0.0813
 3077SOL    HW220694   0.788   1.341   8.841 -0.1481 -1.3524  2.1235
 3078SOL     OW20695   0.496   1.417   3.037 -0.2010 -0.1386  0.1241
 3078SOL    HW120696   0.498   1.378   2.949  0.7356  3.8918 -1.6751
 3078SOL    HW220697   0.440   1.491   3.014 -0.6560 -0.4150  0.3542
 3079SOL     OW20698   1.532   2.099  10.339  0.2072  0.2134  0.4166
 3079SOL    HW120699   1.621   2.102  10.376 -0.7322  2.0848  2.4996
 3079SOL    HW220700   1.546   2.156  10.263 -1.0756  1.2231  0.9468
 3080SOL     OW20701   4.254   2.743   6.668 -0.0169 -0.3711  0.6238
 3080SOL    HW120702   4.291   2.687   6.736 -0.9913 -1.3676  0.3361
 3080SOL    HW220703   4.331   2.759   6.612 -0.0159  0.8736  0.9898
 3081SOL     OW20704   1.210   3.912   7.560 -0.0089  0.6694 -0.3201
 3081SOL    HW120705   1.255   3.829   7.544  0.6276  1.1504 -1.0122
 3081SOL    HW220706   1.147   3.889   7.629  0.4596  1.5696  0.4214
 3082SOL     OW20707   3.542   4.134  10.017  0.1047 -0.5187 -0.2667
 3082SOL    HW120708   3.548   4.229  10.012  0.2854 -0.3845  2.1839
 3082SOL    HW220709   3.566   4.104   9.929  0.5235  0.3912 -0.4592
 3083SOL     OW20710   0.808   1.797   5.994  0.4662  0.5048  0.2497
 3083SOL    HW120711   0.785   1.714   5.953  0.0192 -0.1852  1.9093
 3083SOL    HW220712   0.825   1.852   5.917  1.1894 -2.4563 -1.7215
 3084SOL     OW20713   0.076   2.831   2.831 -0.3422 -0.3374 -0.0666
 3084SOL    HW120714   0.108   2.911   2.789 -1.0541 -0.5141 -0.9407
 3084SOL    HW220715   0.041   2.803   2.747 -0.7715  0.4119 -0.1448
 3085SOL     OW20716   3.561   1.368   3.904  0.4097  0.3534 -0.2505
 3085SOL    HW120717   3.562   1.279   3.938 -1.2253 -0.8505 -3.3217
 3085SOL    HW220718   3.469   1.391   3.917  0.8304  2.1208 -0.3293
 3086SOL     OW20719   0.465   0.008   2.714  0.3922 -0.0485  0.1581
 3086SOL    HW120720   0.450   4.636   2.684  0.0661 -0.5441  1.8173
 3086SOL    HW220721   0.548   0.030   2.673  0.7379 -0.0259  0.8760
 3087SOL     OW20722   2.545   1.881  11.545  0.0525 -0.2538 -0.6268
 3087SOL    HW120723   2.516   1.883  11.454 -2.3846 -0.4235  0.1473
 3087SOL    HW220724   2.637   1.855  11.551 -0.3779 -1.7662 -0.4729
 3088SOL     OW20725   3.713   0.113   0.794 -0.3793 -0.0997 -0.1532
 3088SOL    HW120726   3.676   0.200   0.806  1.6060  0.6083  0.8844
 3088SOL    HW220727   3.657   0.076   0.726 -2.2449  0.8027  0.9030
 3089SOL     OW20728   4.040   3.255   1.588 -0.8051 -0.0441  0.0731
 3089SOL    HW120729   3.985   3.333   1.597 -1.2069 -0.2731 -0.4157
 3089SOL    HW220730   3.977   3.196   1.546  1.6532 -0.2698 -3.2786
 3090SOL     OW20731   1.758   3.859  14.285 -0.0572 -0.0327  0.0240
 3090SOL    HW120732   1.730   3.797  14.353 -0.7932 -0.6896 -0.8893
 3090SOL    HW220733   1.701   3.928  14.318  2.0475  2.0917 -0.7647
 3091SOL     OW20734   4.223   1.591   4.074  0.0146  0.2522 -0.0137
 3091SOL    HW120735   4.297   1.647   4.097 -0.3328  0.6753  0.0977
 3091SOL    HW220736   4.269   1.517   4.036 -0.3718  0.6708 -1.3137
 3092SOL     OW20737   3.439   3.931  17.473 -0.0179  0.1442 -0.3479
 3092SOL    HW120738   3.488   3.900  17.397  1.0167  0.4452  0.2068
 3092SOL    HW220739   3.481   4.016  17.482 -1.6161  0.7929  0.9731
 3093SOL     OW20740   3.646   3.837   8.695  0.0681 -0.0561  0.4115
 3093SOL    HW120741   3.670   3.790   8.615  0.1575  0.1921  0.2934
 3093SOL    HW220742   3.560   3.864   8.663 -0.3612 -0.4085  1.2706
 3094SOL     OW20743   3.290   1.871  17.450  0.1513 -0.6281  0.1413
 3094SOL    HW120744   3.315   1.783  17.477  2.3296 -0.2920 -0.7941
 3094SOL    HW220745   3.257   1.868  17.360 -2.4743  0.8891  1.0320
 3095SOL     OW20746   0.164   1.589   3.557  0.6262  0.3034  0.2903
 3095SOL    HW120747   0.238   1.639   3.593 -0.7481  1.4217  1.6062
 3095SOL    HW220748   0.165   1.620   3.467  1.6212 -0.0912  0.1628
 3096SOL     OW20749   1.599   3.453   1.789  0.1855 -0.2193  0.8254
 3096SOL    HW120750   1.548   3.435   1.868  0.1758  1.5578  1.2394
 3096SOL    HW220751   1.615   3.362   1.763 -0.8464 -0.2442  0.2673
 3097SOL     OW20752   0.724   1.373  13.945  0.0022 -0.0277 -0.1104
 3097SOL    HW120753   0.722   1.381  14.040  1.9407 -3.9667  0.2419
 3097SOL    HW220754   0.809   1.412  13.926  0.0235 -0.4043 -0.7754
 3098SOL     OW20755   2.752   4.603   7.677  0.3944  1.2901 -0.1461
 3098SOL    HW120756   2.695   4.547   7.730 -0.2556  3.2721  1.2504
 3098SOL    HW220757   2.828   4.545   7.667 -1.4777 -1.1881  0.1177
 3099SOL     OW20758   0.831   3.047  12.487  0.1820 -0.2618 -0.7248
 3099SOL    HW120759   0.912   3.024  12.441  0.4537  2.7737 -1.7786
 3099SOL    HW220760   0.784   2.964  12.487  0.7611 -0.5791 -1.9777
 3100SOL     OW20761   4.475   2.766  13.781  0.6110 -0.3876 -0.0986
 3100SOL    HW120762   4.540   2.832  13.805  0.6702  0.2800 -2.0702
 3100SOL    HW220763   4.463   2.722  13.865 -2.1836  3.4694  1.5575
 3101SOL     OW20764   2.147   0.932   8.531  0.5273 -0.7240  0.6992
 3101SOL    HW120765   2.210   0.950   8.601 -0.5517 -0.7897  1.6807
 3101SOL    HW220766   2.169   0.849   8.488  0.0575 -0.6916  0.3953
 3102SOL     OW20767   4.637   0.007  13.016  0.5821  0.1852 -0.1685
 3102SOL    HW120768   4.647   0.028  13.109 -1.6170 -0.3305  0.1645
 3102SOL    HW220769   4.716   4.671  13.014 -0.3503 -1.2300  1.9450
 3103SOL     OW20770   2.139   1.670   6.543  0.0487  0.5861  0.2762
 3103SOL    HW120771   2.081   1.621   6.601 -1.0793 -0.2861 -1.5781
 3103SOL    HW220772   2.091   1.747   6.512 -2.6044 -0.4974  1.6802
 3104SOL     OW20773   1.075   0.278   5.531 -0.2276  0.0375  0.3998
 3104SOL    HW120774   1.003   0.215   5.538 -0.2038  0.0590  0.8219
 3104SOL    HW220775   1.141   0.228   5.579  0.3903  0.2704 -0.2170
 3105SOL     OW20776   2.933   2.525   6.098  0.3138 -0.4010 -0.0849
 3105SOL    HW120777   3.014   2.477   6.117  0.2586 -0.0940  0.9454
 3105SOL    HW220778   2.933   2.579   6.177  1.3522 -1.4303  0.6255
 3106SOL     OW20779   0.076   3.543   3.399 -0.0739 -0.4891  0.7780
 3106SOL    HW120780   0.142   3.502   3.455 -0.8857 -1.3245  1.1200
 3106SOL    HW220781   0.087   3.499   3.315 -0.4131  0.4809  0.2275
 3107SOL     OW20782   0.531   3.065  15.594 -0.1568 -0.5818 -0.2466
 3107SOL    HW120783   0.546   3.047  15.686  1.1202 -0.9774 -0.5392
 3107SOL    HW220784   0.507   3.158  15.603 -0.4785 -0.7299  0.4014
 3108SOL     OW20785   1.368   4.034  15.819  0.2117  0.2064 -0.1746
 3108SOL    HW120786   1.391   3.950  15.779  0.2039  1.7283 -3.3066
 3108SOL    HW220787   1.451   4.052  15.864  0.3556  0.1714 -0.4264
 3109SOL     OW20788   1.049   2.442   2.999  0.1237 -0.1008 -0.0452
 3109SOL    HW120789   0.960   2.465   2.972  0.7663  2.9611  0.4719
 3109SOL    HW220790   1.036   2.370   3.061 -2.4004 -0.1560 -0.6107
 3110SOL     OW20791   3.297   3.469   2.394 -0.3537  0.1636 -0.0915
 3110SOL    HW120792   3.332   3.412   2.326  0.9403 -0.2161  0.8903
 3110SOL    HW220793   3.366   3.452   2.459 -0.1408 -3.0515 -1.1562
 3111SOL     OW20794   1.028   2.225   5.617  0.7562 -0.2916  0.1278
 3111SOL    HW120795   0.990   2.165   5.553 -0.4839 -1.6413  2.1437
 3111SOL    HW220796   1.121   2.202   5.618  1.0665  1.0675  3.7710
 3112SOL     OW20797   4.183   2.984   5.930  0.2949  0.0699 -0.3224
 3112SOL    HW120798   4.195   3.070   5.891 -1.4026  0.0718 -0.8554
 3112SOL    HW220799   4.092   2.986   5.960  0.9189 -0.4547  1.5980
 3113SOL     OW20800   0.250   0.913   9.261  0.0065 -0.0657 -0.4391
 3113SOL    HW120801   0.164   0.955   9.265 -1.1434 -2.4460 -0.1569
 3113SOL    HW220802   0.257   0.856   9.337 -2.5583 -0.5684 -0.5848
 3114SOL     OW20803   1.066   0.661  15.299 -0.2218  1.1513  0.0391
 3114SOL    HW120804   1.110   0.721  15.239 -0.2875  1.1984  0.0387
 3114SOL    HW220805   1.030   0.601  15.234 -1.8996  1.6886  0.4579
 3115SOL     OW20806   4.145   2.032   1.295 -0.2116  0.6824 -0.0123
 3115SOL    HW120807   4.233   2.034   1.334 -0.7614  2.7991  1.1279
 3115SOL    HW220808   4.103   2.102   1.346  1.0709  1.1397  0.4217
 3116SOL     OW20809   3.774   2.308   7.893  0.1399 -0.1488 -0.8322
 3116SOL    HW120810   3.779   2.334   7.801 -0.7940  0.8740 -0.5933
 3116SOL    HW220811   3.848   2.252   7.916 -1.3281 -1.6448  0.2267
 3117SOL     OW20812   1.107   0.350   3.997  0.0709  0.0096 -0.5167
 3117SOL    HW120813   1.045   0.399   4.050  0.1285  1.0852 -1.4404
 3117SOL    HW220814   1.129   0.423   3.938  0.4736  0.0653 -0.3025
 3118SOL     OW20815   0.178   3.716   8.892  0.3768 -0.8991 -0.6916
 3118SOL    HW120816   0.100   3.666   8.918 -2.2615  3.6495  0.2189
 3118SOL    HW220817   0.225   3.649   8.843 -1.1083 -3.9436  2.0036
 3119SOL     OW20818   3.858   1.185   3.925 -0.3265  0.0312 -0.1110
 3119SOL    HW120819   3.893   1.160   3.839  1.0229 -3.5262  1.4789
 3119SOL    HW220820   3.854   1.281   3.921 -0.8986  0.0996  2.3041
 3120SOL     OW20821   3.810   2.209   9.499  0.2911 -0.2658 -0.5783
 3120SOL    HW120822   3.790   2.297   9.467  2.2252 -0.2684 -1.7247
 3120SOL    HW220823   3.806   2.228   9.593 -0.0466  3.8229 -1.4399
 3121SOL     OW20824   0.462   2.850   3.652 -0.2001 -0.0351 -0.0490
 3121SOL    HW120825   0.381   2.900   3.646  0.1346  0.3759 -1.2141
 3121SOL    HW220826   0.494   2.888   3.734  2.1733  1.0282 -1.4556
 3122SOL     OW20827   1.163   4.032   8.802  0.2459 -0.3954  0.3339
 3122SOL    HW120828   1.143   3.952   8.754 -3.0133  1.7169 -1.8223
 3122SOL    HW220829   1.075   4.067   8.819 -0.2234 -0.8364 -1.2293
 3123SOL     OW20830   2.885   1.052   1.902  0.0738 -0.4779  0.5005
 3123SOL    HW120831   2.860   1.127   1.956 -1.6337 -0.0605 -0.8807
 3123SOL    HW220832   2.980   1.055   1.909  0.1641  0.4834 -1.3222
 3124SOL     OW20833   2.440   3.988   2.925 -0.4909  0.2767  0.6576
 3124SOL    HW120834   2.533   4.011   2.921  0.5410 -3.7218  1.5419
 3124SOL    HW220835   2.446   3.936   3.006  0.1033 -1.4205 -0.4710
 3125SOL     OW20836   3.885   4.536   2.310 -0.0159 -0.1476 -0.4765
 3125SOL    HW120837   3.950   4.530   2.240  0.6942 -0.1946  0.1848
 3125SOL    HW220838   3.833   4.613   2.288 -0.6519  0.5745  3.5134
 3126SOL     OW20839   3.976   3.688   0.058  0.0366 -0.0796 -0.2120
 3126SOL    HW120840   3.949   3.714   0.146 -0.1991  0.0099 -0.3121
 3126SOL    HW220841   4.063   3.650   0.074  0.0830  0.7339  1.4972
 3127SOL     OW20842   0.824   1.881   0.598 -0.1779 -0.1913  0.2135
 3127SOL    HW120843   0.826   1.817   0.527  0.9432 -0.1915  0.2367
 3127SOL    HW220844   0.907   1.928   0.590 -0.0132 -0.1107  2.3870
 3128SOL     OW20845   3.910   4.463   0.361  0.1075 -0.2661 -0.2131
 3128SOL    HW120846   3.926   4.460   0.266  0.1766 -1.2613 -0.1729
 3128SOL    HW220847   3.815   4.455   0.360  0.0053  0.9941 -0.0714
 3129SOL     OW20848   0.596   3.564   5.094 -0.1875 -0.1429  0.4408
 3129SOL    HW120849   0.670   3.613   5.058  0.3689 -1.7726 -0.6119
 3129SOL    HW220850   0.617   3.478   5.059 -0.7084 -0.4897  0.9876
 3130SOL     OW20851   3.249   1.502   5.288 -0.1620 -0.4792  0.1055
 3130SOL    HW120852   3.206   1.580   5.321  2.7129  0.0726  2.6058
 3130SOL    HW220853   3.263   1.473   5.378 -0.3469 -2.7246 -0.5835
 3131SOL     OW20854   1.483   0.759   3.191  0.1974 -0.2851  0.5214
 3131SOL    HW120855   1.493   0.848   3.226 -1.2206  0.3778 -0.7274
 3131SOL    HW220856   1.429   0.767   3.112  0.8702 -1.4876 -0.0476
 3132SOL     OW20857   2.788   4.328   7.425  0.1200 -0.2321 -0.1171
 3132SOL    HW120858   2.827   4.369   7.502  0.8203  0.2759 -0.7418
 3132SOL    HW220859   2.711   4.381   7.405  0.4440  0.1658 -0.3112
 3133SOL     OW20860   3.804   1.396  16.287  0.1124  0.9567 -0.8792
 3133SOL    HW120861   3.877   1.438  16.242  0.5260  1.4925  0.2689
 3133SOL    HW220862   3.813   1.304  16.265 -0.4068  0.8659 -0.7304
 3134SOL     OW20863   1.286   1.105   5.883  0.2448 -0.5172  0.7478
 3134SOL    HW120864   1.376   1.118   5.854 -0.3616 -1.2820 -1.4484
 3134SOL    HW220865   1.265   1.033   5.823  0.8466  0.4821 -0.6484
 3135SOL     OW20866   3.091   0.586  15.221 -0.0066  0.0944  0.1029
 3135SOL    HW120867   3.000   0.608  15.243  0.2120 -0.0628  1.1685
 3135SOL    HW220868   3.139   0.648  15.277  1.6936 -2.1159  1.0784
 3136SOL     OW20869   0.148   1.701  17.098  0.5046  0.6462  0.4998
 3136SOL    HW120870   0.223   1.657  17.138  1.2791  1.1557 -0.3626
 3136SOL    HW220871   0.148   1.789  17.136  1.5425  0.8396  0.0799
 3137SOL     OW20872   1.421   0.778   7.212  0.3284  0.4328  0.2279
 3137SOL    HW120873   1.507   0.796   7.173  0.8585 -2.8128 -0.0759
 3137SOL    HW220874   1.425   0.782   7.308 -1.1220 -0.1543  0.3105
 3138SOL     OW20875   2.113   3.323   0.500  0.1214 -0.3704 -0.4106
 3138SOL    HW120876   2.172   3.282   0.436  0.3881 -3.0298  1.5272
 3138SOL    HW220877   2.144   3.288   0.583 -0.4231  0.2788  0.0650
 3139SOL     OW20878   2.062   1.345   3.948  0.9075  0.6450 -0.9415
 3139SOL    HW120879   2.011   1.319   3.872 -1.2527 -0.3781  0.8343
 3139SOL    HW220880   2.079   1.435   3.923  1.9328  1.5076  2.8240
 3140SOL     OW20881   4.110   3.620   5.334 -0.1594  0.1454 -0.0669
 3140SOL    HW120882   4.186   3.678   5.325 -1.0905  1.6437  1.6805
 3140SOL    HW220883   4.070   3.654   5.414  0.2731  0.4631  0.0172
 3141SOL     OW20884   2.578   2.989   5.758 -0.2401  0.0190 -0.0352
 3141SOL    HW120885   2.537   3.075   5.764 -0.6153 -0.1187 -0.6493
 3141SOL    HW220886   2.499   2.934   5.764 -0.7982  1.0541  2.2146
 3142SOL     OW20887   2.284   2.459   5.413  0.0845  0.1510 -0.6135
 3142SOL    HW120888   2.306   2.552   5.412  3.8847 -0.7418  1.1434
 3142SOL    HW220889   2.269   2.438   5.321 -2.5320 -1.4687  0.1762
 3143SOL     OW20890   1.552   3.597   9.479  0.0118  0.1048 -0.0985
 3143SOL    HW120891   1.560   3.587   9.574  1.0129  0.8331 -0.0962
 3143SOL    HW220892   1.624   3.660   9.468 -0.7721  0.9062 -0.6002
 3144SOL     OW20893   2.015   0.863   6.178 -0.1541 -0.2828  0.2058
 3144SOL    HW120894   1.935   0.814   6.197 -0.0201 -0.0145  1.4856
 3144SOL    HW220895   2.065   0.803   6.233 -0.7069 -0.7110  0.2366
 3145SOL     OW20896   0.835   1.246   8.339  0.1608  0.5141 -0.3964
 3145SOL    HW120897   0.807   1.169   8.290  2.3910 -0.1057 -0.6850
 3145SOL    HW220898   0.899   1.285   8.279  0.8752  0.8918  0.6056
 3146SOL     OW20899   4.522   1.984   1.667  0.2073 -0.1204 -0.6737
 3146SOL    HW120900   4.536   2.001   1.760  2.5697  2.1855 -1.4536
 3146SOL    HW220901   4.608   1.979   1.626 -0.4205  0.9979 -2.0951
 3147SOL     OW20902   0.440   2.136   1.750  0.1031 -0.0443  0.8517
 3147SOL    HW120903   0.373   2.168   1.690  1.0067  0.7922  0.2982
 3147SOL    HW220904   0.388   2.077   1.805 -0.8316  0.0054  0.0141
 3148SOL     OW20905   3.740   0.429   6.471 -0.7314 -0.0863  0.3914
 3148SOL    HW120906   3.715   0.341   6.443  0.2260 -1.2613  3.2200
 3148SOL    HW220907   3.810   0.408   6.533  0.3134 -0.7518 -1.0169
 3149SOL     OW20908   0.239   4.191  10.589  0.4434  0.7331 -0.4866
 3149SOL    HW120909   0.211   4.234  10.670  0.6191 -1.3492  0.6900
 3149SOL    HW220910   0.254   4.104  10.626 -0.3525  1.6170  1.9098
 3150SOL     OW20911   2.788   4.650  12.477  0.0201 -0.3159  0.1139
 3150SOL    HW120912   2.807   4.564  12.515 -1.5725 -1.5366 -1.8794
 3150SOL    HW220913   2.866   4.659  12.423  0.6609  1.2846  1.3054
 3151SOL     OW20914   2.268   2.206   8.623 -0.0207  0.3212 -0.1515
 3151SOL    HW120915   2.176   2.194   8.600 -0.0465  0.3010 -0.0396
 3151SOL    HW220916   2.307   2.217   8.536 -1.2372  0.9749 -0.6100
 3152SOL     OW20917   4.052   0.146   0.180  0.5810 -0.5188 -0.7540
 3152SOL    HW120918   3.981   0.206   0.204  1.4437 -0.5367  1.8533
 3152SOL    HW220919   4.115   0.217   0.195 -0.1700 -0.2411  1.1403
 3153SOL     OW20920   3.723   3.518   7.559  0.0850  0.1728 -0.5008
 3153SOL    HW120921   3.676   3.442   7.525 -0.3548  0.4187 -0.4563
 3153SOL    HW220922   3.651   3.577   7.580 -0.3307 -0.2655 -0.6922
 3154SOL     OW20923   1.963   2.313   2.360 -0.2972 -0.3509  0.3508
 3154SOL    HW120924   1.920   2.399   2.354  1.4303  0.6581  2.5269
 3154SOL    HW220925   2.017   2.324   2.438  1.1519  2.2057 -1.0002
 3155SOL     OW20926   4.535   4.106   5.700  0.2667 -0.4258 -0.6536
 3155SOL    HW120927   4.581   4.167   5.643 -0.2980 -1.3661 -2.1108
 3155SOL    HW220928   4.499   4.046   5.634 -1.5356  0.5795 -0.5854
 3156SOL     OW20929   4.154   0.749  11.007 -0.0973 -0.2373 -0.1907
 3156SOL    HW120930   4.244   0.764  10.979 -1.1095  2.4100 -2.0628
 3156SOL    HW220931   4.156   0.786  11.096  0.6795 -0.9295  0.0778
 3157SOL     OW20932   4.151   1.663  10.893  0.2005 -0.6390 -0.1309
 3157SOL    HW120933   4.191   1.598  10.950  1.7602  0.0894 -0.4079
 3157SOL    HW220934   4.063   1.673  10.930  0.6172  2.7458 -0.0300
 3158SOL     OW20935   3.058   3.162   0.463 -0.0100  0.8730  0.1672
 3158SOL    HW120936   3.127   3.221   0.431  0.9244 -0.4101 -0.1792
 3158SOL    HW220937   3.067   3.092   0.398  0.4147  0.8047  0.2971
 3159SOL     OW20938   1.778   3.832  14.714 -0.4632 -0.5492 -0.3211
 3159SOL    HW120939   1.780   3.916  14.760 -0.3469 -2.0709  2.4835
 3159SOL    HW220940   1.713   3.782  14.763 -0.4981 -2.0335 -1.8895
 3160SOL     OW20941   1.333   1.989   3.363  0.0835  0.6238  0.5607
 3160SOL    HW120942   1.270   2.061   3.352 -1.6930 -0.8472  1.0627
 3160SOL    HW220943   1.345   1.961   3.272  0.9894  0.0004  0.8741
 3161SOL     OW20944   3.536   1.490  12.288 -0.5179  0.1831  0.2102
 3161SOL    HW120945   3.554   1.405  12.250  1.6852  1.1828 -0.9729
 3161SOL    HW220946   3.557   1.541  12.210  0.5287  0.9000  0.9484
 3162SOL     OW20947   0.618   4.676  15.845  0.0148 -0.6599 -1.0758
 3162SOL    HW120948   0.651   4.590  15.869  1.0389 -0.5907 -2.2360
 3162SOL    HW220949   0.688   4.711  15.791  1.7743 -1.0978  0.9370
 3163SOL     OW20950   4.682   4.518   2.532 -0.0091  0.1537  0.3976
 3163SOL    HW120951   4.613   4.577   2.560  0.1030  1.8871 -2.9687
 3163SOL    HW220952   4.628   4.458   2.480  1.4791  0.3188 -1.3518
 3164SOL     OW20953   3.190   2.221   5.239 -0.1384  0.7667  0.2142
 3164SOL    HW120954   3.220   2.210   5.329  0.8949 -0.8157 -0.3215
 3164SOL    HW220955   3.109   2.266   5.263 -0.7702  0.2103 -0.9098
 3165SOL     OW20956   2.889   3.800  11.906  0.1389  0.0757 -0.2203
 3165SOL    HW120957   2.862   3.738  11.838 -2.2196 -1.0483  1.7547
 3165SOL    HW220958   2.978   3.775  11.928 -0.3767 -0.3805  1.3280
 3166SOL     OW20959   4.135   3.810   4.581  0.9484  0.1296  0.2839
 3166SOL    HW120960   4.098   3.737   4.531  1.3812 -0.1587  0.3757
 3166SOL    HW220961   4.218   3.770   4.607  1.0371 -1.0778 -1.8643
 3167SOL     OW20962   0.002   0.243  13.465  0.4419 -0.0875 -0.0045
 3167SOL    HW120963   0.083   0.192  13.476  0.7355  0.8870  2.4153
 3167SOL    HW220964   4.676   0.197  13.394  1.5246 -0.8377 -0.2025
 3168SOL     OW20965   2.855   2.219   8.822  0.1180 -0.2539  0.1202
 3168SOL    HW120966   2.794   2.156   8.784  1.5395 -0.3209 -2.0562
 3168SOL    HW220967   2.894   2.166   8.891 -0.4914  1.6380  1.8991
 3169SOL     OW20968   4.713   4.614  10.849 -0.3300 -0.0678  0.0447
 3169SOL    HW120969   4.626   4.574  10.839  0.6236 -2.0514 -0.3998
 3169SOL    HW220970   4.684   4.681  10.911 -0.9125 -0.6536  0.4099
 3170SOL     OW20971   4.385   1.874   8.309 -0.0305  0.2882 -0.1682
 3170SOL    HW120972   4.414   1.783   8.320  2.1216  0.8703 -0.9380
 3170SOL    HW220973   4.447   1.914   8.369  2.5526 -2.1487 -1.2139
 3171SOL     OW20974   0.791   0.885  13.094  0.5860  1.1520 -0.5193
 3171SOL    HW120975   0.811   0.976  13.071  1.0767  0.5222 -2.5413
 3171SOL    HW220976   0.726   0.863  13.028 -1.2589  1.8213  1.0593
 3172SOL     OW20977   3.766   3.951   3.732 -0.8409 -0.0179 -0.2334
 3172SOL    HW120978   3.692   3.921   3.681 -0.9973 -0.4289  0.2337
 3172SOL    HW220979   3.740   4.043   3.745  3.1471  1.2176 -0.9397
 3173SOL     OW20980   4.042   4.005   1.889 -0.0639  0.0967 -0.5743
 3173SOL    HW120981   4.039   3.919   1.847 -2.6679  0.0995 -0.3936
 3173SOL    HW220982   4.007   4.072   1.830  1.0843  1.3942  0.2088
 3174SOL     OW20983   1.583   1.252   2.813 -0.1508  0.3421  0.2893
 3174SOL    HW120984   1.607   1.279   2.901 -0.3211  0.5937  0.2591
 3174SOL    HW220985   1.669   1.276   2.779 -1.3636  0.5075 -2.7380
 3175SOL     OW20986   0.756   2.677  16.522  0.1589 -0.1620  0.0521
 3175SOL    HW120987   0.814   2.697  16.449 -0.2215  1.5430  0.2242
 3175SOL    HW220988   0.700   2.614  16.476  1.6753  1.7084 -4.3068
 3176SOL     OW20989   1.552   3.530  12.855 -0.1693  0.3238 -0.0437
 3176SOL    HW120990   1.512   3.614  12.833 -0.1943  0.5157  0.7539
 3176SOL    HW220991   1.611   3.558  12.925  0.4623  2.1279 -1.2985
 3177SOL     OW20992   2.689   0.411  15.076 -0.1333  0.3813  0.0200
 3177SOL    HW120993   2.676   0.389  14.984  4.6828  0.4873 -0.7064
 3177SOL    HW220994   2.632   0.356  15.129 -0.0102 -0.5543 -0.8190
 3178SOL     OW20995   4.361   2.761   2.598 -0.6056 -0.5524  0.2452
 3178SOL    HW120996   4.454   2.763   2.574 -1.0557 -0.7305 -1.4866
 3178SOL    HW220997   4.321   2.738   2.514 -0.1752  0.6112 -0.2742
 3179SOL     OW20998   2.432   3.111   6.169 -0.0895  0.5956  0.4797
 3179SOL    HW120999   2.377   3.142   6.241 -2.6611  0.2630 -1.3306
 3179SOL    HW221000   2.392   3.148   6.090 -2.1172  0.0125  1.2099
 3180SOL     OW21001   1.336   3.959   7.957  0.4706 -0.1575 -0.0862
 3180SOL    HW121002   1.279   3.883   7.969  0.4178 -0.2553 -0.9217
 3180SOL    HW221003   1.274   4.031   7.966 -0.4613 -0.9089 -0.5415
 3181SOL     OW21004   4.351   0.480   6.634 -0.0894 -0.3269 -0.0673
 3181SOL    HW121005   4.409   0.508   6.563  0.3258 -1.4974 -0.1929
 3181SOL    HW221006   4.265   0.519   6.617 -0.9378 -1.9907  0.3081
 3182SOL     OW21007   1.228   3.410  12.921  0.9182 -0.0774 -0.0837
 3182SOL    HW121008   1.142   3.436  12.954  0.9261 -0.1009 -0.0445
 3182SOL    HW221009   1.260   3.348  12.986 -0.0017 -2.9179 -2.3257
 3183SOL     OW21010   3.718   2.586  12.162 -0.4424 -0.4516  0.1330
 3183SOL    HW121011   3.637   2.629  12.132  0.5215  1.3471  0.1004
 3183SOL    HW221012   3.677   2.517  12.214 -0.1990 -1.6160 -1.2332
 3184SOL     OW21013   0.856   2.095   8.772  0.2326 -0.3436  0.1850
 3184SOL    HW121014   0.898   2.175   8.740 -1.6735  0.6212  0.0796
 3184SOL    HW221015   0.915   2.028   8.737  1.0094 -0.3489  1.5094
 3185SOL     OW21016   3.033   0.509  17.328 -0.1641 -0.2698  0.2841
 3185SOL    HW121017   3.067   0.591  17.365 -0.0527 -0.1387 -0.1037
 3185SOL    HW221018   3.098   0.446  17.360 -0.2869 -0.4211  0.2326
 3186SOL     OW21019   1.473   3.811  11.378  0.5021  0.5754  0.3672
 3186SOL    HW121020   1.554   3.841  11.419  1.6454 -0.8824 -0.8220
 3186SOL    HW221021   1.516   3.777  11.300 -0.0977  1.1601 -0.2135
 3187SOL     OW21022   0.241   0.903  10.901  0.0717 -0.1653  0.2272
 3187SOL    HW121023   0.328   0.916  10.864 -1.6778  5.4474 -1.9100
 3187SOL    HW221024   0.256   0.905  10.995 -0.2339  0.8871  0.2572
 3188SOL     OW21025   1.956   2.510   1.756 -0.5514 -0.2139  0.8446
 3188SOL    HW121026   1.966   2.420   1.789 -1.3493  0.0691  1.8598
 3188SOL    HW221027   1.910   2.506   1.672 -0.5863  1.1233  0.8006
 3189SOL     OW21028   1.040   0.313   0.715  0.3383 -0.3398  0.3162
 3189SOL    HW121029   1.100   0.368   0.664  1.2178 -1.1120  0.5169
 3189SOL    HW221030   1.091   0.233   0.727  1.0610  0.2315  1.0231
 3190SOL     OW21031   0.784   1.999   3.598 -0.5870  0.2816 -0.1193
 3190SOL    HW121032   0.863   1.949   3.618 -0.4692  0.6747  0.4192
 3190SOL    HW221033   0.765   2.059   3.671  1.3365  1.0005 -0.1904
 3191SOL     OW21034   2.420   2.458   8.622  0.2412 -0.1077  1.1585
 3191SOL    HW121035   2.396   2.454   8.530  0.2432 -1.5655  1.2247
 3191SOL    HW221036   2.506   2.416   8.624  0.9146  1.2835  1.0306
 3192SOL     OW21037   2.143   3.952  12.423  0.0704 -0.3034  0.6117
 3192SOL    HW121038   2.191   3.892  12.479  0.6291  0.6920  1.1970
 3192SOL    HW221039   2.120   4.027  12.477 -0.1833 -0.7561  1.1332
 3193SOL     OW21040   0.066   2.023   8.659 -0.1947 -0.5667 -0.2920
 3193SOL    HW121041   0.057   2.106   8.705 -0.6245 -1.4063  1.1137
 3193SOL    HW221042   0.129   2.055   8.594 -0.5272 -2.3774 -1.5022
 3194SOL     OW21043   1.569   2.774  12.997 -0.2295  0.4038  0.1286
 3194SOL    HW121044   1.554   2.867  12.978 -1.5374 -0.0791 -1.1025
 3194SOL    HW221045   1.574   2.778  13.093 -1.4731  2.4539  0.1191
 3195SOL     OW21046   1.788   2.492   0.581 -0.0607  0.4383  0.2060
 3195SOL    HW121047   1.808   2.584   0.601 -0.8197  0.7556 -0.4771
 3195SOL    HW221048   1.716   2.473   0.640 -2.0424  1.8650 -1.7518
 3196SOL     OW21049   3.672   2.728   9.068  0.6075  0.0950 -0.5023
 3196SOL    HW121050   3.701   2.780   8.993  0.3224  0.0897 -0.6163
 3196SOL    HW221051   3.602   2.785   9.101  0.0467 -1.3587  0.8046
 3197SOL     OW21052   2.481   1.288   0.432 -0.4983  0.5874  0.6084
 3197SOL    HW121053   2.505   1.353   0.366 -1.9727  1.2797  0.7592
 3197SOL    HW221054   2.387   1.303   0.429  0.1763  4.5663 -0.7639
 3198SOL     OW21055   4.534   3.735   0.096 -0.3053 -0.2411 -0.3739
 3198SOL    HW121056   4.625   3.707   0.090 -0.0673  0.8007 -1.4938
 3198SOL    HW221057   4.488   3.654   0.073 -1.2648  0.7924 -2.0873
 3199SOL     OW21058   4.027   1.122   4.862  0.1671  0.5897 -0.0083
 3199SOL    HW121059   3.951   1.096   4.913 -0.1772  1.1817 -0.2069
 3199SOL    HW221060   4.030   1.056   4.794 -0.1875  1.5028 -0.9178
 3200SOL     OW21061   1.616   3.195   1.178  0.0168  0.5098  0.5152
 3200SOL    HW121062   1.576   3.214   1.263 -0.0961 -1.2095  0.8492
 3200SOL    HW221063   1.543   3.215   1.119  0.0412  2.1250  1.0436
 3201SOL     OW21064   1.825   0.137  11.684  0.0347 -0.4103  0.4526
 3201SOL    HW121065   1.813   0.156  11.591  0.3251  0.1065  0.5172
 3201SOL    HW221066   1.819   0.042  11.685  1.0287 -0.4857 -1.1289
 3202SOL     OW21067   3.316   4.170   6.736  0.1251  0.0176 -0.0274
 3202SOL    HW121068   3.264   4.250   6.729  0.2740  0.1300  0.1444
 3202SOL    HW221069   3.370   4.190   6.660 -0.7531 -2.7034 -1.3211
 3203SOL     OW21070   4.087   0.105   3.226 -0.2498  0.0717 -0.5337
 3203SOL    HW121071   4.026   0.043   3.267  0.1262  0.1435  0.1239
 3203SOL    HW221072   4.048   0.192   3.238 -2.1004 -0.7509 -0.5110
 3204SOL     OW21073   3.772   3.085   5.850  0.3102  0.0479 -0.1083
 3204SOL    HW121074   3.743   3.138   5.776 -0.2686  0.6093  0.5328
 3204SOL    HW221075   3.840   3.144   5.883 -0.4922 -0.3741  2.2634
 3205SOL     OW21076   0.519   1.940   1.145  0.6476 -0.4378  0.5595
 3205SOL    HW121077   0.525   2.036   1.148  0.1338 -0.4203  1.1700
 3205SOL    HW221078   0.505   1.935   1.051  1.3168 -0.5628  0.4696
 3206SOL     OW21079   2.874   3.188  12.281 -0.2102  0.1716 -0.2083
 3206SOL    HW121080   2.861   3.190  12.375  1.5703  2.0980 -0.0015
 3206SOL    HW221081   2.796   3.223  12.238 -0.1063 -0.4240 -0.8854
 3207SOL     OW21082   2.731   3.056  12.570 -0.4900 -0.0094 -0.1754
 3207SOL    HW121083   2.679   3.120  12.521  0.9629  2.2674  1.2509
 3207SOL    HW221084   2.660   3.004  12.609 -1.1162 -0.2655 -1.6427
 3208SOL     OW21085   1.582   3.189   6.827  0.3228 -0.1324  0.2236
 3208SOL    HW121086   1.657   3.247   6.839  0.1638 -0.3027  2.0401
 3208SOL    HW221087   1.553   3.214   6.739 -0.0395  1.6140  0.8310
 3209SOL     OW21088   3.181   0.849   8.076  0.0652 -0.2528  0.3494
 3209SOL    HW121089   3.155   0.795   8.151 -0.1246 -0.8952 -0.1812
 3209SOL    HW221090   3.104   0.836   8.020 -1.3857  0.4722  2.1835
 3210SOL     OW21091   1.986   1.053  17.670  0.0096 -0.2755  0.4857
 3210SOL    HW121092   1.983   1.117   0.066  0.8515  1.8143 -1.3436
 3210SOL    HW221093   1.915   1.082  17.612  2.0043  2.4814 -0.5477
 3211SOL     OW21094   3.865   1.149  13.048  0.5688  0.2634 -0.3297
 3211SOL    HW121095   3.921   1.134  12.971 -0.0437  0.3357 -0.7855
 3211SOL    HW221096   3.858   1.063  13.088  2.6457 -0.9855 -2.6077
 3212SOL     OW21097   4.702   3.659   7.542 -0.2037 -0.3759  0.3005
 3212SOL    HW121098   4.708   3.738   7.489  1.0986 -1.4428 -1.1566
 3212SOL    HW221099   0.039   3.596   7.494  0.1028 -0.4243  0.7131
 3213SOL     OW21100   2.279   3.464   8.147  0.0518 -0.1529 -0.1984
 3213SOL    HW121101   2.267   3.409   8.224  0.8798  0.6777  0.5128
 3213SOL    HW221102   2.239   3.544   8.181  0.6922  0.5692 -1.1308
 3214SOL     OW21103   4.510   4.532   8.600 -0.0282  0.7434  0.8838
 3214SOL    HW121104   4.601   4.529   8.629  0.7278  1.5498 -1.4552
 3214SOL    HW221105   4.473   4.488   8.677 -0.3712 -1.0256 -0.2858
 3215SOL     OW21106   4.649   0.527   3.393  0.1097 -0.2006 -0.7648
 3215SOL    HW121107   4.635   0.508   3.486  1.7008  1.8759 -0.0789
 3215SOL    HW221108   0.027   0.530   3.390  0.0586  1.1337 -1.4137
 3216SOL     OW21109   4.364   0.400   3.300  0.4639  0.6575  0.3598
 3216SOL    HW121110   4.356   0.354   3.217  0.3052  1.1107  0.1221
 3216SOL    HW221111   4.417   0.477   3.279 -1.2178  2.3684  2.3896
 3217SOL     OW21112   2.700   2.299  11.919 -0.1688 -0.4077  0.1691
 3217SOL    HW121113   2.676   2.382  11.879  0.6636 -0.0691  0.3823
 3217SOL    HW221114   2.659   2.238  11.857  0.9934 -0.5557 -0.4581
 3218SOL     OW21115   1.403   2.686   3.689  0.5113  0.3193 -0.3633
 3218SOL    HW121116   1.428   2.595   3.676 -1.2285 -0.2926  0.6660
 3218SOL    HW221117   1.473   2.729   3.640 -0.5107  2.8320  0.3897
 3219SOL     OW21118   0.216   1.499   1.119 -0.2444  0.3407  0.0698
 3219SOL    HW121119   0.217   1.580   1.068  1.5512  0.1808 -0.1798
 3219SOL    HW221120   0.208   1.429   1.054  1.7636  1.3500 -1.2670
 3220SOL     OW21121   3.350   0.222   7.360  0.2617 -0.2474  0.3819
 3220SOL    HW121122   3.428   0.181   7.323 -1.1245 -0.2049 -2.6650
 3220SOL    HW221123   3.296   0.242   7.282 -2.9541  0.3581  2.7533
 3221SOL     OW21124   1.207   0.825   6.082 -0.7358  0.4622  0.3602
 3221SOL    HW121125   1.177   0.878   6.156  1.3919 -0.3713  1.8141
 3221SOL    HW221126   1.163   0.742   6.098  1.6724 -1.0274 -0.7886
 3222SOL     OW21127   3.826   2.070   5.781  0.3679  0.3480 -0.2489
 3222SOL    HW121128   3.870   2.128   5.843 -1.2286  0.1617  1.0491
 3222SOL    HW221129   3.798   2.135   5.717 -1.2571 -1.3921 -1.3224
 3223SOL     OW21130   0.795   2.456   2.866 -0.1533 -0.3139 -0.7479
 3223SOL    HW121131   0.797   2.373   2.818 -0.2716 -0.2190 -0.9187
 3223SOL    HW221132   0.750   2.435   2.948  1.4957 -0.3718  0.1361
 3224SOL     OW21133   4.657   4.264   8.042  0.1985 -0.3106 -0.0699
 3224SOL    HW121134   4.616   4.350   8.038 -1.7046 -1.0645  3.2948
 3224SOL    HW221135   4.597   4.231   8.109 -0.1701  3.0365  1.2632
 3225SOL     OW21136   0.830   4.390  16.795  0.2947  0.4779 -0.0106
 3225SOL    HW121137   0.791   4.403  16.709  0.6907  3.7390  0.3047
 3225SOL    HW221138   0.922   4.408  16.776 -0.1823  0.3094 -2.4446
 3226SOL     OW21139   0.827   2.326   8.555  0.3717 -0.1156  0.1100
 3226SOL    HW121140   0.764   2.285   8.496  1.0897 -1.5128  0.3321
 3226SOL    HW221141   0.814   2.419   8.535  0.0507 -0.1827  0.0066
 3227SOL     OW21142   4.514   3.224   9.390 -0.3193 -0.6336  0.0067
 3227SOL    HW121143   4.545   3.219   9.481 -0.0603  0.5346 -0.0177
 3227SOL    HW221144   4.464   3.305   9.387 -2.0113 -1.6739  0.0820
 3228SOL     OW21145   4.521   0.614   4.934  0.0558  0.0499 -0.0894
 3228SOL    HW121146   4.600   0.561   4.941  1.2740  1.8291 -0.3375
 3228SOL    HW221147   4.517   0.621   5.029  0.6362 -3.0650  0.1647
 3229SOL     OW21148   0.092   4.138  13.977  0.1902  0.4845  0.3995
 3229SOL    HW121149   0.046   4.058  13.952 -0.2268  0.4000  1.4505
 3229SOL    HW221150   0.035   4.210  13.949 -3.8613 -3.3444 -1.2174
 3230SOL     OW21151   1.850   3.032   8.861  1.0122 -0.1566  0.6983
 3230SOL    HW121152   1.781   3.077   8.911 -0.9132 -1.9458 -0.3200
 3230SOL    HW221153   1.852   3.089   8.784 -2.6775 -0.7921  0.1300
 3231SOL     OW21154   0.479   1.438  10.353 -0.1976 -0.4261  0.1454
 3231SOL    HW121155   0.461   1.345  10.366 -1.1832 -0.0964  1.1231
 3231SOL    HW221156   0.509   1.435  10.262  1.9725 -1.3252  0.8720
 3232SOL     OW21157   3.205   2.048   8.977  0.2908  0.0085 -0.4993
 3232SOL    HW121158   3.267   2.105   9.022  1.1276 -0.0829 -1.5455
 3232SOL    HW221159   3.253   1.969   8.957 -0.3965 -0.3146 -0.8797
 3233SOL     OW21160   3.814   0.533   4.520 -0.5793 -0.0327  0.4555
 3233SOL    HW121161   3.803   0.600   4.588  2.8943  2.1412 -1.1123
 3233SOL    HW221162   3.730   0.533   4.473 -0.6876 -0.5118  0.6494
 3234SOL     OW21163   1.290   3.824  12.603 -0.0732 -0.7353  0.0632
 3234SOL    HW121164   1.286   3.774  12.684  0.6869 -0.1994  0.4332
 3234SOL    HW221165   1.380   3.856  12.605 -0.6344  0.8290  0.6197
 3235SOL     OW21166   0.394   1.877   6.850  0.1941  0.0046 -0.2824
 3235SOL    HW121167   0.432   1.908   6.932  0.6725 -2.0779  0.2779
 3235SOL    HW221168   0.300   1.879   6.868 -0.0818 -1.1877 -1.5986
 3236SOL     OW21169   2.527   2.646  16.071  0.2320 -0.3867  0.4961
 3236SOL    HW121170   2.594   2.676  16.009  0.2266 -0.0770  0.6396
 3236SOL    HW221171   2.555   2.688  16.152 -0.5911  0.4030  0.3697
 3237SOL     OW21172   3.725   1.145   8.843 -0.0453 -0.4076 -0.1371
 3237SOL    HW121173   3.788   1.217   8.832  1.3880 -1.5877  0.3652
 3237SOL    HW221174   3.771   1.069   8.807 -0.6198 -0.1628 -1.3955
 3238SOL     OW21175   4.469   1.624   3.033  0.2575 -0.2184 -0.3540
 3238SOL    HW121176   4.422   1.685   3.089  1.4122 -1.3070  1.8291
 3238SOL    HW221177   4.398   1.603   2.973 -1.9158  3.3235  1.0052
 3239SOL     OW21178   1.887   1.831  11.051  0.1674  0.1150  0.0875
 3239SOL    HW121179   1.884   1.847  11.145  0.2475  1.3553 -0.1212
 3239SOL    HW221180   1.810   1.877  11.019  0.5424  0.3321 -0.5046
 3240SOL     OW21181   2.918   1.155  11.157  0.0861  0.2540  0.5504
 3240SOL    HW121182   2.928   1.250  11.151  2.2510  0.0167  0.3623
 3240SOL    HW221183   2.970   1.129  11.234  0.7313 -1.7320 -0.5607
 3241SOL     OW21184   2.312   3.819  10.838  0.0500 -0.0677 -0.4738
 3241SOL    HW121185   2.325   3.844  10.929  0.0689 -0.1628 -0.4505
 3241SOL    HW221186   2.367   3.740  10.831 -1.6232 -1.1491 -1.5838
 3242SOL     OW21187   2.084   3.392   2.833  0.4129 -0.4189  0.2062
 3242SOL    HW121188   1.996   3.408   2.797  0.8604 -1.6370 -1.4620
 3242SOL    HW221189   2.070   3.327   2.902  0.2723 -0.7882 -0.1641
 3243SOL     OW21190   1.674   0.300   5.468  0.6650 -0.1404  0.0186
 3243SOL    HW121191   1.707   0.389   5.481  0.5358 -0.1443  0.3851
 3243SOL    HW221192   1.691   0.285   5.375  0.2272  1.8307 -0.3893
 3244SOL     OW21193   2.198   2.661   7.367 -0.3234 -0.9239  0.2917
 3244SOL    HW121194   2.194   2.610   7.286 -2.1290 -1.6492  0.8424
 3244SOL    HW221195   2.289   2.691   7.368  0.1486 -2.3588 -0.5406
 3245SOL     OW21196   3.400   0.699   5.195  0.2071  0.1927 -0.4664
 3245SOL    HW121197   3.435   0.767   5.253 -2.0875  0.0599  1.0797
 3245SOL    HW221198   3.338   0.652   5.250  0.0692 -0.8353 -1.5016
 3246SOL     OW21199   2.680   2.847  12.158  0.5352  0.3433 -0.3024
 3246SOL    HW121200   2.591   2.835  12.193  1.0088 -0.0256  0.7781
 3246SOL    HW221201   2.668   2.915  12.092 -0.3127  2.5383  2.1204
 3247SOL     OW21202   4.353   2.317   6.258  0.5281 -0.3726  0.0792
 3247SOL    HW121203   4.371   2.356   6.173 -0.0982  0.9688  0.5694
 3247SOL    HW221204   4.259   2.334   6.261 -0.0738 -3.6586  0.6524
 3248SOL     OW21205   0.800   1.362   0.067  0.1811 -0.4558 -0.5378
 3248SOL    HW121206   0.756   1.443   0.095  0.4400 -1.3163  2.4315
 3248SOL    HW221207   0.718   1.315   0.049 -0.8258  1.0608  0.0408
 3249SOL     OW21208   0.680   4.155   8.195  0.9124  0.3272  0.1432
 3249SOL    HW121209   0.691   4.120   8.283  2.7351  0.4076 -0.0572
 3249SOL    HW221210   0.592   4.193   8.204  0.3930 -0.6968 -0.5637
 3250SOL     OW21211   1.690   4.463   1.175 -0.2070  0.1338  0.4375
 3250SOL    HW121212   1.711   4.545   1.130  0.5036  1.5478  3.3484
 3250SOL    HW221213   1.718   4.488   1.263 -0.0063  0.8469  0.1644
 3251SOL     OW21214   4.114   1.273  16.221 -0.5155 -0.0363 -0.0755
 3251SOL    HW121215   4.052   1.227  16.278 -0.6944 -1.0469 -1.0710
 3251SOL    HW221216   4.183   1.299  16.282  0.1134 -0.7054 -0.5072
 3252SOL     OW21217   3.272   3.419  15.325  0.0555  0.0875  0.0018
 3252SOL    HW121218   3.247   3.445  15.236 -0.4997  0.5868  0.3042
 3252SOL    HW221219   3.237   3.330  15.321  0.3150 -0.1626  3.3294
 3253SOL     OW21220   4.030   2.394   5.432  0.0783 -0.1328  0.2700
 3253SOL    HW121221   4.072   2.473   5.397  0.0605  0.4892  1.6465
 3253SOL    HW221222   3.988   2.363   5.352  0.7565  1.1917 -0.5993
 3254SOL     OW21223   1.915   1.530   9.593 -0.2154  0.0418  0.1206
 3254SOL    HW121224   1.873   1.481   9.664 -1.8720 -0.3723 -1.1285
 3254SOL    HW221225   1.922   1.619   9.626  0.0813  0.3825 -0.8848
 3255SOL     OW21226   3.077   4.433  10.016  0.3385  0.5751 -0.3561
 3255SOL    HW121227   3.032   4.420  10.100 -0.7815  3.0557 -0.5687
 3255SOL    HW221228   3.161   4.468  10.047  0.8396 -0.2958 -0.7353
 3256SOL     OW21229   4.016   0.826   2.271 -0.3308 -0.1542 -0.1151
 3256SOL    HW121230   3.978   0.740   2.251 -0.7734 -0.0412  0.2126
 3256SOL    HW221231   3.949   0.860   2.331 -0.6224  1.6350 -1.4696
 3257SOL     OW21232   3.182   4.695   0.093  0.1052  0.4936  0.3327
 3257SOL    HW121233   3.187   0.067   0.061  0.7583  0.3320 -0.0236
 3257SOL    HW221234   3.201   4.711   0.185 -1.3938  3.0311  0.1824
 3258SOL     OW21235   0.492   2.660  13.324  0.5915  0.5092 -0.2846
 3258SOL    HW121236   0.515   2.571  13.352  0.0566  0.2437 -0.7096
 3258SOL    HW221237   0.397   2.660  13.322  0.6141  0.1695 -1.4794
 3259SOL     OW21238   1.068   0.316   9.079  0.9072  0.0604 -0.2233
 3259SOL    HW121239   1.096   0.255   9.011  0.5856 -0.4192  0.0748
 3259SOL    HW221240   1.156   0.345   9.105  0.5764  0.3619  0.5602
 3260SOL     OW21241   2.392   1.460   9.667 -0.2595  0.4246 -0.2843
 3260SOL    HW121242   2.401   1.466   9.572  1.1256 -0.5582 -0.2236
 3260SOL    HW221243   2.432   1.544   9.688 -1.6449  0.6716  1.2807
 3261SOL     OW21244   4.465   0.885   3.001 -0.4965 -0.0294  0.5817
 3261SOL    HW121245   4.436   0.886   3.093  0.0826 -2.4108  0.8021
 3261SOL    HW221246   4.382   0.871   2.954 -0.5731  1.4341  0.2920
 3262SOL     OW21247   0.274   4.480   4.195  0.3712 -0.3445 -0.5744
 3262SOL    HW121248   0.354   4.441   4.231 -0.9374 -0.3001  2.4138
 3262SOL    HW221249   0.215   4.406   4.212  0.0309  0.8517  3.2949
 3263SOL     OW21250   2.832   0.805   3.500  0.7828  0.4502 -0.1921
 3263SOL    HW121251   2.774   0.792   3.425 -0.1694 -0.1801  0.6459
 3263SOL    HW221252   2.767   0.853   3.552 -0.0462 -0.2065 -0.6093
 3264SOL     OW21253   0.535   2.077   2.243 -0.2066  0.3058 -0.3794
 3264SOL    HW121254   0.443   2.105   2.245 -0.7379 -1.4048 -1.0299
 3264SOL    HW221255   0.539   2.043   2.154  0.5686  0.2459 -0.3140
 3265SOL     OW21256   2.239   3.813   4.596  0.0091 -0.0906 -0.3128
 3265SOL    HW121257   2.213   3.902   4.569  0.4194 -0.5307 -2.1789
 3265SOL    HW221258   2.155   3.767   4.604  0.0073 -0.0085  0.1632
 3266SOL     OW21259   0.436   1.865   4.471 -0.0912  0.0450  0.2537
 3266SOL    HW121260   0.409   1.825   4.389 -0.4753  1.7338 -0.4573
 3266SOL    HW221261   0.372   1.936   4.473  0.4108  0.4914  0.6352
 3267SOL     OW21262   1.408   2.589   4.370  0.4730  0.0329  0.0898
 3267SOL    HW121263   1.376   2.608   4.458  1.6941 -1.3590  0.8334
 3267SOL    HW221264   1.502   2.579   4.386  0.3183  1.2125  1.7259
 3268SOL     OW21265   1.671   0.532   9.115  0.1386 -0.4350  0.5566
 3268SOL    HW121266   1.690   0.580   9.035  1.2455 -0.8026  0.5971
 3268SOL    HW221267   1.601   0.581   9.159 -0.7021 -2.0931  1.0559
 3269SOL     OW21268   3.258   0.561   0.816 -0.0768  0.1103 -0.0699
 3269SOL    HW121269   3.280   0.575   0.908 -1.3239  0.2778  0.2018
 3269SOL    HW221270   3.167   0.585   0.834 -0.5611 -0.7571 -1.4020
 3270SOL     OW21271   4.247   1.147   3.183  0.1877  0.2848 -0.0785
 3270SOL    HW121272   4.266   1.190   3.100 -1.1476  2.0597  0.5191
 3270SOL    HW221273   4.152   1.157   3.193 -0.0278 -1.2707 -0.5673
 3271SOL     OW21274   4.338   2.027   9.216 -1.0229  0.4145  0.9028
 3271SOL    HW121275   4.260   1.979   9.244 -1.8243  0.4159 -1.2965
 3271SOL    HW221276   4.408   1.965   9.239 -1.5810 -0.4812  0.2246
 3272SOL     OW21277   2.112   4.439   3.155  0.7178  0.4888  0.2376
 3272SOL    HW121278   2.049   4.372   3.126  1.5558 -0.4453  0.5791
 3272SOL    HW221279   2.192   4.386   3.156  0.3600  0.0480  4.2259
 3273SOL     OW21280   4.440   2.551   1.766  0.7652  0.0504 -0.3821
 3273SOL    HW121281   4.494   2.567   1.844  0.0320  2.6156 -0.4103
 3273SOL    HW221282   4.421   2.457   1.770 -0.1675  0.2286 -0.4714
 3274SOL     OW21283   3.969   2.905  14.558 -0.1812 -0.2553  0.5223
 3274SOL    HW121284   3.943   2.996  14.576  0.3756  0.6290 -3.0877
 3274SOL    HW221285   3.928   2.902  14.471  3.0005 -0.0685 -0.9743
 3275SOL     OW21286   3.270   1.562   5.602  0.8266 -0.7288 -0.4853
 3275SOL    HW121287   3.281   1.472   5.634 -1.3453 -0.9252 -0.2552
 3275SOL    HW221288   3.352   1.605   5.627  0.2051 -0.8052  1.7181
 3276SOL     OW21289   4.343   2.092   1.504 -0.5519  0.1486 -0.3246
 3276SOL    HW121290   4.276   2.156   1.529 -1.9096 -1.5840  0.4976
 3276SOL    HW221291   4.404   2.080   1.576 -1.2778 -2.5569 -0.1556
 3277SOL     OW21292   0.434   3.236   7.545 -0.0922 -0.1751  0.3537
 3277SOL    HW121293   0.419   3.266   7.635  1.1178  0.8099  0.2244
 3277SOL    HW221294   0.520   3.194   7.553  0.1127  0.1802 -0.0587
 3278SOL     OW21295   3.312   4.178   3.590 -0.0662  0.1652 -0.9288
 3278SOL    HW121296   3.363   4.240   3.642 -0.3085  1.4334 -2.2146
 3278SOL    HW221297   3.288   4.231   3.514 -0.9630 -1.0764 -1.5266
 3279SOL     OW21298   4.100   2.640  13.223 -0.0818  0.1955  0.2668
 3279SOL    HW121299   4.099   2.647  13.128 -1.1229 -1.0148  0.2069
 3279SOL    HW221300   4.006   2.629  13.233 -0.1443 -0.2811 -0.9599
 3280SOL     OW21301   2.026   2.839   2.091 -0.6690  0.2129  0.9767
 3280SOL    HW121302   2.024   2.930   2.062  2.2355 -0.2091 -0.5664
 3280SOL    HW221303   2.048   2.792   2.010  2.8065  1.4098  1.2183
 3281SOL     OW21304   2.691   2.208   9.769 -0.1123  0.5527 -0.1749
 3281SOL    HW121305   2.683   2.148   9.695  1.2338 -0.3947  0.4475
 3281SOL    HW221306   2.697   2.292   9.724  0.6626  0.2440 -0.6355
 3282SOL     OW21307   3.033   3.916   2.625  0.6458  0.4925  0.3157
 3282SOL    HW121308   3.092   3.901   2.699 -0.6954  0.5295  1.3903
 3282SOL    HW221309   3.076   3.864   2.557 -1.1714 -0.8540  0.2093
 3283SOL     OW21310   1.322   4.079   2.604  0.4142 -0.1962  0.5139
 3283SOL    HW121311   1.363   4.020   2.541 -0.6979  0.6031 -0.9356
 3283SOL    HW221312   1.401   4.130   2.622 -1.1037  2.3605 -0.0436
 3284SOL     OW21313   3.784   0.223   1.778 -0.1856  0.2320  0.4618
 3284SOL    HW121314   3.695   0.257   1.786 -0.1323 -0.5339  4.6338
 3284SOL    HW221315   3.838   0.294   1.812 -0.3428  0.8013 -0.4758
 3285SOL     OW21316   2.068   3.677   2.877  0.0790  0.5590 -0.6922
 3285SOL    HW121317   2.139   3.735   2.851  0.2882 -0.3695 -2.2248
 3285SOL    HW221318   2.105   3.590   2.888 -0.9904  0.4386  1.8803
 3286SOL     OW21319   0.878   2.940   3.728 -0.3946 -0.0013  0.6076
 3286SOL    HW121320   0.889   2.992   3.807  0.7006 -1.0542  1.1603
 3286SOL    HW221321   0.847   2.857   3.764 -0.3276  0.4771  1.7697
 3287SOL     OW21322   1.148   0.868  15.104 -0.1147 -0.0886  0.4672
 3287SOL    HW121323   1.129   0.915  15.023  3.3022 -0.8531 -0.7821
 3287SOL    HW221324   1.244   0.867  15.099 -0.1158  0.9660  0.1515
 3288SOL     OW21325   2.459   0.749   7.665  0.0834  0.5569  0.3485
 3288SOL    HW121326   2.445   0.712   7.578  0.7163 -0.7256  0.8031
 3288SOL    HW221327   2.404   0.685   7.709  0.1075  0.4022  0.1530
 3289SOL     OW21328   1.781   3.273   3.867 -0.2749  0.3092  0.5064
 3289SOL    HW121329   1.783   3.326   3.787 -2.4981  1.3030  1.1065
 3289SOL    HW221330   1.748   3.337   3.930 -0.6932  1.0883 -0.5241
 3290SOL     OW21331   1.603   1.663  10.651  0.3107  0.3046  0.0584
 3290SOL    HW121332   1.666   1.604  10.611  0.6856 -1.5941  3.4601
 3290SOL    HW221333   1.644   1.662  10.738  2.7024 -0.5450 -1.0645
 3291SOL     OW21334   2.866   1.046   0.769 -0.2379 -0.4193  0.5071
 3291SOL    HW121335   2.890   1.010   0.854 -1.7435 -2.5472  0.0383
 3291SOL    HW221336   2.771   1.054   0.781 -0.1799  4.1312 -2.1837
 3292SOL     OW21337   2.235   3.575   9.724 -1.3910  0.3024  1.0133
 3292SOL    HW121338   2.268   3.495   9.766 -0.0454 -0.6350 -1.7976
 3292SOL    HW221339   2.246   3.565   9.629  1.0090 -2.2017  1.5214
 3293SOL     OW21340   4.667   3.816   7.330 -0.6927  0.4583 -0.1743
 3293SOL    HW121341   4.614   3.797   7.252 -1.2123  0.5523  0.1558
 3293SOL    HW221342   4.638   3.904   7.353 -0.4734  0.6414 -0.6035
 3294SOL     OW21343   3.065   3.064   3.811  0.4509  0.5796 -0.2249
 3294SOL    HW121344   3.051   3.054   3.716 -0.6446 -1.2686  0.1265
 3294SOL    HW221345   3.066   2.971   3.834 -2.9709  0.9505  1.4434
 3295SOL     OW21346   3.535   4.169   1.046  0.0227  0.2582  0.1818
 3295SOL    HW121347   3.559   4.183   1.138  0.5327 -2.9865  0.5293
 3295SOL    HW221348   3.607   4.190   0.987  2.2611 -2.1068  2.0897
 3296SOL     OW21349   3.053   3.137   1.894  0.3251  0.3825  0.3281
 3296SOL    HW121350   2.960   3.161   1.891  0.2866 -0.0367 -1.5798
 3296SOL    HW221351   3.049   3.042   1.890  3.9063  0.1778  1.8696
 3297SOL     OW21352   0.849   4.184   9.195  0.0924 -0.1899 -0.4050
 3297SOL    HW121353   0.852   4.092   9.220  0.5231 -0.3442 -1.0225
 3297SOL    HW221354   0.761   4.187   9.158  0.1137  0.6701 -0.3955
 3298SOL     OW21355   2.002   3.101   3.332  0.7385 -0.2138  0.1263
 3298SOL    HW121356   2.007   3.025   3.390 -2.1750 -0.1928  0.3856
 3298SOL    HW221357   2.089   3.093   3.292  0.0856  0.4005 -1.4249
 3299SOL     OW21358   3.282   3.200   6.834 -0.0391 -0.0008  0.0987
 3299SOL    HW121359   3.202   3.187   6.885 -0.7745  0.0807 -1.0199
 3299SOL    HW221360   3.293   3.109   6.807  0.7750  0.6032 -1.5698
 3300SOL     OW21361   2.106   1.199   4.843  0.4342  0.1147  0.3173
 3300SOL    HW121362   2.199   1.217   4.830  0.3464  1.3686  1.4424
 3300SOL    HW221363   2.071   1.239   4.763  1.1346  2.0782  0.9976
 3301SOL     OW21364   2.462   0.439   4.324  0.0208 -0.2600  0.2129
 3301SOL    HW121365   2.541   0.478   4.287 -2.0259  1.2969 -2.4838
 3301SOL    HW221366   2.470   0.444   4.419  0.5962  2.4550  0.0218
 3302SOL     OW21367   0.024   0.874   4.181  0.2090  0.2015  0.2109
 3302SOL    HW121368   4.671   0.814   4.205 -0.2027  0.0093 -1.4805
 3302SOL    HW221369   0.088   0.805   4.164 -2.6696 -2.6729  0.9171
 3303SOL     OW21370   2.986   3.032   7.803 -0.4594 -0.7864 -0.2822
 3303SOL    HW121371   2.995   3.052   7.709  0.2411  1.1312  0.1853
 3303SOL    HW221372   3.018   2.942   7.804 -2.2081 -1.4191 -0.8031
 3304SOL     OW21373   3.026   2.304  15.270 -0.5158 -0.1535  0.1267
 3304SOL    HW121374   3.072   2.264  15.344  0.1984  2.6419  1.1920
 3304SOL    HW221375   2.971   2.372  15.309 -1.4650  0.0782 -1.6530
 3305SOL     OW21376   1.925   4.596   4.080 -0.1006  0.4906  0.3865
 3305SOL    HW121377   2.006   4.647   4.075 -0.1691  0.5155 -0.5402
 3305SOL    HW221378   1.864   4.667   4.059 -0.5456  0.1547  0.5158
 3306SOL     OW21379   2.550   3.353   5.848  0.3720  0.0939 -0.0985
 3306SOL    HW121380   2.554   3.438   5.803 -0.6254 -0.6604 -1.5984
 3306SOL    HW221381   2.472   3.313   5.811  0.4210  0.7128 -0.8834
 3307SOL     OW21382   1.261   3.050   9.093 -0.4966  0.2254 -0.0473
 3307SOL    HW121383   1.273   2.967   9.046  0.8800  0.4336 -0.0809
 3307SOL    HW221384   1.286   3.024   9.182 -0.7517 -0.2384 -0.1102
 3308SOL     OW21385   1.668   2.752   4.846 -0.0024  0.3419  0.5007
 3308SOL    HW121386   1.734   2.705   4.897 -0.6400 -3.2337 -1.9823
 3308SOL    HW221387   1.590   2.697   4.847  0.0328  0.3055  1.1741
 3309SOL     OW21388   1.150   0.139  13.402 -0.3405  0.1035 -0.1583
 3309SOL    HW121389   1.118   0.060  13.447  0.8402  0.4234  1.2481
 3309SOL    HW221390   1.071   0.167  13.356 -0.4157  1.3036  0.7209
 3310SOL     OW21391   0.653   1.121   5.076  0.0366 -0.0832  0.8905
 3310SOL    HW121392   0.609   1.157   4.999  0.9334  0.9972  0.8965
 3310SOL    HW221393   0.609   1.037   5.092 -1.7336  0.3015 -2.0279
 3311SOL     OW21394   3.568   4.204  15.235 -0.1062 -0.0005 -0.0524
 3311SOL    HW121395   3.558   4.145  15.310 -0.8815  0.5148  0.2537
 3311SOL    HW221396   3.480   4.238  15.220  0.2168  0.8289 -0.1028
 3312SOL     OW21397   1.388   1.182  14.661  0.3781 -0.0369 -0.0804
 3312SOL    HW121398   1.321   1.134  14.613  0.0900 -0.8638  1.1826
 3312SOL    HW221399   1.445   1.192  14.584 -1.4453  0.7952 -1.3364
 3313SOL     OW21400   4.690   4.390   3.978  0.9490 -0.5066  0.6001
 3313SOL    HW121401   4.709   4.407   3.886  1.1329 -2.3869  0.2886
 3313SOL    HW221402   4.613   4.334   3.976  1.2095 -0.7880 -1.5177
 3314SOL     OW21403   3.055   0.971  10.969 -0.0143  0.2727  0.1746
 3314SOL    HW121404   3.090   0.948  11.055 -1.5563 -1.4211  0.3429
 3314SOL    HW221405   2.962   0.965  10.993 -0.5613  1.1034 -1.7439
 3315SOL     OW21406   3.291   2.033  14.490 -0.3893 -0.3271 -0.3039
 3315SOL    HW121407   3.319   1.946  14.518 -0.4659 -0.1908  0.1966
 3315SOL    HW221408   3.373   2.076  14.465  0.2822 -2.0740 -1.1117
 3316SOL     OW21409   0.691   1.174   5.333 -0.3954  0.2579 -0.0972
 3316SOL    HW121410   0.685   1.150   5.241  1.4476 -0.8911  0.0846
 3316SOL    HW221411   0.599   1.169   5.360 -0.3246 -0.2455  0.0500
 3317SOL     OW21412   3.468   0.042   6.261  0.9576  0.5988  0.4430
 3317SOL    HW121413   3.463   4.664   6.257 -1.9675  0.6554  2.2359
 3317SOL    HW221414   3.421   0.063   6.180  1.2616 -0.8949 -0.1187
 3318SOL     OW21415   3.070   0.816   3.338  0.1966 -0.3609 -0.0702
 3318SOL    HW121416   2.982   0.829   3.374 -0.2212 -1.8911 -0.5450
 3318SOL    HW221417   3.118   0.759   3.397  1.2533  1.1243  0.5024
 3319SOL     OW21418   2.834   3.060  11.984  0.3297 -0.0315 -0.9594
 3319SOL    HW121419   2.844   3.099  11.897 -0.9016  0.4947 -0.8725
 3319SOL    HW221420   2.738   3.054  11.985  0.3445 -0.6217 -2.1735
 3320SOL     OW21421   3.183   2.028   8.039  0.0930 -0.4520 -0.4038
 3320SOL    HW121422   3.237   2.013   8.117 -1.3232 -0.5816  0.5736
 3320SOL    HW221423   3.118   2.083   8.083  2.6065  0.4701  2.1568
 3321SOL     OW21424   1.478   0.965   4.809  0.6765 -0.1888  0.3662
 3321SOL    HW121425   1.405   1.011   4.767 -0.3651 -1.1745  1.1085
 3321SOL    HW221426   1.436   0.927   4.886  1.2558  0.9316  1.2297
 3322SOL     OW21427   2.395   3.620  13.285  0.0707  0.5317 -0.1186
 3322SOL    HW121428   2.481   3.631  13.324 -0.2836 -0.2404  0.8934
 3322SOL    HW221429   2.417   3.600  13.194  2.0060 -1.2617  0.7370
 3323SOL     OW21430   3.128   3.017   9.144  0.1273 -0.0133  0.2220
 3323SOL    HW121431   3.053   2.970   9.109  1.8704 -2.2666 -0.4717
 3323SOL    HW221432   3.097   3.108   9.143 -0.6999 -0.2898  0.5836
 3324SOL     OW21433   3.754   3.912  17.518 -0.4156  0.1410  0.5481
 3324SOL    HW121434   3.837   3.933  17.561 -0.1540 -0.8796  0.5448
 3324SOL    HW221435   3.745   3.817  17.527 -2.1014  0.1372 -1.1828
 3325SOL     OW21436   2.797   2.682   3.233 -0.0556 -0.7846  0.7762
 3325SOL    HW121437   2.858   2.609   3.221  0.6968 -0.0507  0.1919
 3325SOL    HW221438   2.862   2.748   3.254  1.0461 -0.8389 -2.5050
 3326SOL     OW21439   2.223   4.197  12.254 -0.0522 -0.4771 -0.2499
 3326SOL    HW121440   2.236   4.249  12.333  2.7488  1.9563 -2.3121
 3326SOL    HW221441   2.251   4.252  12.180  0.6945 -0.2050  0.2379
 3327SOL     OW21442   4.362   0.631   0.679  0.2070 -0.2991  0.2503
 3327SOL    HW121443   4.307   0.697   0.720 -0.3932 -0.6117 -0.0452
 3327SOL    HW221444   4.348   0.558   0.740  1.6520 -0.5204  0.3266
 3328SOL     OW21445   0.066   4.067   8.238 -0.2831 -0.1214 -0.1913
 3328SOL    HW121446   0.048   4.003   8.169 -0.4651 -1.3313  0.9713
 3328SOL    HW221447   0.046   4.152   8.199  0.2105 -0.6175 -1.5277
 3329SOL     OW21448   2.600   0.978   7.619  0.2244  0.6386 -0.0615
 3329SOL    HW121449   2.542   1.045   7.655 -2.0763 -1.8708  0.9735
 3329SOL    HW221450   2.556   0.900   7.653  1.4267  0.1558  0.3854
 3330SOL     OW21451   1.511   3.956   3.454  0.0737 -0.1094  0.9135
 3330SOL    HW121452   1.484   4.032   3.505  1.0527  0.8133  0.0502
 3330SOL    HW221453   1.569   3.989   3.386  0.0982  1.5808  1.7499
 3331SOL     OW21454   0.367   0.346   6.936 -0.4712 -0.1783  0.2280
 3331SOL    HW121455   0.354   0.263   6.890 -4.0111  0.9616 -0.7946
 3331SOL    HW221456   0.281   0.387   6.936 -0.5055 -0.2573  1.8262
 3332SOL     OW21457   1.788   2.814   9.386  0.2198  0.2603 -0.0365
 3332SOL    HW121458   1.859   2.799   9.447 -0.6027 -0.0485  0.8438
 3332SOL    HW221459   1.715   2.822   9.448  1.3980 -0.5260  1.4308
 3333SOL     OW21460   4.210   1.997   7.481 -0.6896  0.0446  0.3415
 3333SOL    HW121461   4.247   2.055   7.547 -2.4908  0.7164  0.7431
 3333SOL    HW221462   4.157   2.052   7.423  1.6716  0.2619 -1.6219
 3334SOL     OW21463   4.311   1.052   7.434  1.0151 -0.0482  0.1266
 3334SOL    HW121464   4.315   1.070   7.340  1.9234  0.5920  0.2824
 3334SOL    HW221465   4.284   1.138   7.467  3.7589  1.6323 -1.9937
 3335SOL     OW21466   2.992   1.238   4.203  0.7744 -0.2747 -0.3385
 3335SOL    HW121467   2.932   1.220   4.275 -0.2830 -0.7497 -1.3474
 3335SOL    HW221468   3.071   1.188   4.225  0.6906 -0.8615 -1.3825
 3336SOL     OW21469   0.227   0.287   0.500 -0.0269 -0.2977 -0.3404
 3336SOL    HW121470   0.296   0.324   0.446 -0.2513  1.9257  0.8969
 3336SOL    HW221471   0.234   0.193   0.486 -3.1430 -0.2824 -2.0516
 3337SOL     OW21472   2.616   3.307   5.148  0.1243 -0.0925  0.1894
 3337SOL    HW121473   2.662   3.250   5.210 -1.2567 -1.0147  0.3471
 3337SOL    HW221474   2.596   3.242   5.081  0.3382  1.4172 -1.3367
 3338SOL     OW21475   4.381   4.100   3.777 -0.1058  0.1095  0.0706
 3338SOL    HW121476   4.434   4.143   3.710 -2.3681 -0.4694 -2.1067
 3338SOL    HW221477   4.404   4.149   3.856  1.3419  3.3401 -2.3925
 3339SOL     OW21478   1.265   3.367   7.998  0.2250 -0.1579 -0.3401
 3339SOL    HW121479   1.348   3.336   8.033 -0.4879 -1.0808  0.5437
 3339SOL    HW221480   1.224   3.284   7.975  0.8539 -1.0387  1.7472
 3340SOL     OW21481   4.302   4.527   2.059 -0.4646  0.1024 -0.3070
 3340SOL    HW121482   4.227   4.573   2.097  0.3181  0.4453  0.7989
 3340SOL    HW221483   4.278   4.537   1.966  2.1272  0.6754 -0.8971
 3341SOL     OW21484   2.856   1.867  14.761  0.3747  0.4591 -0.4776
 3341SOL    HW121485   2.921   1.837  14.825  0.2152  1.5117  0.1676
 3341SOL    HW221486   2.905   1.855  14.680 -1.8444 -1.0652 -1.5901
 3342SOL     OW21487   3.998   2.601   4.485  0.0365 -0.4051  0.2640
 3342SOL    HW121488   4.011   2.509   4.464  1.3938 -0.4926  1.4870
 3342SOL    HW221489   3.909   2.599   4.521  0.8952  1.8801  2.5129
 3343SOL     OW21490   3.655   2.343   5.418 -0.0962  0.4595 -0.6240
 3343SOL    HW121491   3.724   2.361   5.482 -0.7380  0.1350  0.1687
 3343SOL    HW221492   3.671   2.410   5.352  2.9174 -1.8688 -2.2137
 3344SOL     OW21493   2.067   3.171   2.271 -0.3720 -0.4229 -0.0913
 3344SOL    HW121494   2.000   3.104   2.255  1.9745 -2.7781 -0.0877
 3344SOL    HW221495   2.058   3.238   2.203  0.1526 -0.6734 -0.4101
 3345SOL     OW21496   4.415   3.254   6.549  0.4441 -0.5149  0.4592
 3345SOL    HW121497   4.361   3.176   6.565  2.0405 -1.9748 -1.3569
 3345SOL    HW221498   4.468   3.224   6.475  0.1687 -0.5831  0.2889
 3346SOL     OW21499   2.322   2.713   2.082 -1.1744 -0.5189 -0.5593
 3346SOL    HW121500   2.284   2.628   2.101 -0.9326 -0.7419 -1.0639
 3346SOL    HW221501   2.246   2.769   2.097 -0.6891 -0.2208  0.7742
 3347SOL     OW21502   0.544   2.746   5.406  0.3511 -0.4537 -0.3571
 3347SOL    HW121503   0.572   2.787   5.488 -0.3831 -0.1758 -0.2483
 3347SOL    HW221504   0.581   2.657   5.408  1.4385 -0.0093 -0.3037
 3348SOL     OW21505   4.522   2.662   6.752 -0.2882  0.6282  0.1325
 3348SOL    HW121506   4.559   2.648   6.664 -0.5632 -3.0203  0.5964
 3348SOL    HW221507   4.559   2.588   6.800  1.1334  0.4013 -1.3191
 3349SOL     OW21508   2.513   1.790   9.029 -0.6439 -0.2599 -0.0179
 3349SOL    HW121509   2.569   1.784   9.106 -0.7260  0.7819  0.1295
 3349SOL    HW221510   2.426   1.786   9.069 -0.4145 -1.5311  0.3428
 3350SOL     OW21511   3.583   1.516   2.709  0.4864 -0.3741  0.3259
 3350SOL    HW121512   3.534   1.460   2.769  0.5957  1.5878  2.2280
 3350SOL    HW221513   3.570   1.464   2.630 -0.5985  0.4519 -0.0268
 3351SOL     OW21514   1.727   4.347   7.489 -0.1788  0.1996  0.1675
 3351SOL    HW121515   1.781   4.269   7.476  0.3782  0.5373  0.4747
 3351SOL    HW221516   1.768   4.383   7.567 -1.8458 -0.5980  1.4309
 3352SOL     OW21517   2.554   4.622   4.678 -0.2950 -0.2274  0.1664
 3352SOL    HW121518   2.579   4.672   4.756 -0.4559  0.8868 -0.5105
 3352SOL    HW221519   2.642   4.615   4.642 -0.2515 -0.9224  0.3882
 3353SOL     OW21520   3.466   1.252   1.271  0.6718  0.0903 -0.0987
 3353SOL    HW121521   3.442   1.160   1.258 -0.1110 -0.0127  2.1031
 3353SOL    HW221522   3.443   1.299   1.191  0.1498 -0.9683 -0.5716
 3354SOL     OW21523   3.597   0.033  16.788 -0.1140  0.0605  0.2140
 3354SOL    HW121524   3.581   0.118  16.746 -2.6115 -0.3910  0.2560
 3354SOL    HW221525   3.691   0.020  16.775  0.0396  0.8852  0.5740
 3355SOL     OW21526   2.534   2.411   2.235  0.0511  0.6750  0.2219
 3355SOL    HW121527   2.548   2.328   2.189  0.8070  1.4601 -0.9660
 3355SOL    HW221528   2.608   2.469   2.217 -0.5543  1.1075 -0.8220
 3356SOL     OW21529   1.677   4.358   5.777 -0.3231 -0.7370  0.4740
 3356SOL    HW121530   1.602   4.415   5.760  2.4634  3.0991  1.0859
 3356SOL    HW221531   1.647   4.279   5.732  0.8894 -0.1649 -1.3809
 3357SOL     OW21532   1.992   0.904   3.108  0.2189 -0.4227 -0.1315
 3357SOL    HW121533   1.932   0.937   3.041  1.6884  0.5160 -0.9711
 3357SOL    HW221534   2.070   0.887   3.055 -0.9062 -0.4791 -1.7554
 3358SOL     OW21535   0.422   4.067   1.637  0.6081  0.1495  0.1377
 3358SOL    HW121536   0.430   4.162   1.626 -2.0658  0.4439  0.7552
 3358SOL    HW221537   0.430   4.050   1.731  0.2098  3.9854  0.8495
 3359SOL     OW21538   3.397   1.910   3.229 -1.2156  0.7170 -0.8766
 3359SOL    HW121539   3.459   1.899   3.156 -1.2390  1.5815 -1.0269
 3359SOL    HW221540   3.450   1.902   3.309 -1.3249  1.8696 -0.6955
 3360SOL     OW21541   4.644   0.615   4.298 -0.1042  0.7333 -0.3743
 3360SOL    HW121542   4.572   0.580   4.246 -0.4657  1.1704 -0.1728
 3360SOL    HW221543   4.600   0.600   4.382 -0.0997  0.4662 -0.4195
 3361SOL     OW21544   1.418   3.791   0.984  0.0540 -0.6413 -0.3699
 3361SOL    HW121545   1.404   3.884   0.969  2.5861 -0.3644 -0.9399
 3361SOL    HW221546   1.459   3.786   1.070  0.7441 -0.3402 -0.6863
 3362SOL     OW21547   4.060   3.704   2.958  0.0001 -0.0710  0.1693
 3362SOL    HW121548   4.016   3.782   2.923 -0.0184  0.5316  1.5500
 3362SOL    HW221549   4.075   3.648   2.882 -0.5218 -0.2552  0.1984
 3363SOL     OW21550   0.011   2.970  14.265  0.1277 -0.3104 -0.3611
 3363SOL    HW121551   0.013   3.065  14.259  0.3683 -0.4080 -1.7663
 3363SOL    HW221552   0.104   2.950  14.260  0.7248  1.7559  2.3812
 3364SOL     OW21553   1.013   0.894   7.549 -0.0089  0.1159  0.0917
 3364SOL    HW121554   0.986   0.817   7.598  0.6504  0.4689  0.9969
 3364SOL    HW221555   0.926   0.928   7.528 -0.2370  0.4457  1.5594
 3365SOL     OW21556   4.185   1.436   4.402  0.3532 -0.1777 -0.1840
 3365SOL    HW121557   4.254   1.431   4.336  1.3803 -0.5202  0.9072
 3365SOL    HW221558   4.152   1.347   4.396  0.3100 -0.0564 -1.8911
 3366SOL     OW21559   0.492   1.987  14.682 -0.5754 -0.3888 -0.8707
 3366SOL    HW121560   0.444   1.929  14.624  0.3158 -2.0193  0.0258
 3366SOL    HW221561   0.460   1.957  14.767  1.6133  1.1767  0.5059
 3367SOL     OW21562   4.630   2.192   2.721 -0.3664 -0.5008  0.7098
 3367SOL    HW121563   4.581   2.253   2.667  1.6397  1.7536  1.4095
 3367SOL    HW221564   4.564   2.160   2.782 -0.2434  1.2284  1.7489
 3368SOL     OW21565   0.199   4.550   2.777  0.0425 -0.3294 -0.3023
 3368SOL    HW121566   0.155   4.551   2.692 -0.6087 -0.7933  0.0313
 3368SOL    HW221567   0.291   4.527   2.760 -0.5755 -2.6269 -0.4515
 3369SOL     OW21568   1.495   2.948   3.061  0.8106 -0.2557 -0.3699
 3369SOL    HW121569   1.511   2.885   3.130 -1.2876  0.0150  0.3410
 3369SOL    HW221570   1.583   2.979   3.037 -0.2637  0.4753 -3.4949
 3370SOL     OW21571   0.212   3.437   3.690 -0.7932 -0.0320 -0.5723
 3370SOL    HW121572   0.173   3.525   3.689  0.8162  0.7015 -0.2369
 3370SOL    HW221573   0.305   3.456   3.677 -0.9074  1.5514  0.8741
 3371SOL     OW21574   3.496   1.882   3.502 -0.2116  0.2984 -0.1328
 3371SOL    HW121575   3.461   1.797   3.527 -0.3952 -0.2283 -2.1299
 3371SOL    HW221576   3.589   1.868   3.520  0.5389  3.5007 -1.3551
 3372SOL     OW21577   4.642   4.461   9.218  0.0260 -0.0726  0.2239
 3372SOL    HW121578   4.584   4.408   9.274  0.7307 -0.9525  0.1193
 3372SOL    HW221579   4.600   4.546   9.205  0.4031 -0.1165 -1.1846
 3373SOL     OW21580   1.566   0.869  11.825 -0.0461 -0.3861 -0.0258
 3373SOL    HW121581   1.507   0.824  11.764  0.0314  0.7591 -0.9526
 3373SOL    HW221582   1.559   0.806  11.897  1.6201 -0.5822 -0.0338
 3374SOL     OW21583   2.493   2.159   7.688 -0.1244  0.3605  0.1893
 3374SOL    HW121584   2.553   2.188   7.756  0.8773 -1.3480  0.0416
 3374SOL    HW221585   2.557   2.124   7.626 -0.1238 -1.9258  1.5014
 3375SOL     OW21586   4.139   0.035  17.090 -0.1147  0.0093 -0.2933
 3375SOL    HW121587   4.119   0.119  17.131 -1.3789 -1.2065  1.5965
 3375SOL    HW221588   4.222   0.015  17.134 -1.4605 -2.7048  0.9990
 3376SOL     OW21589   1.851   1.276   2.720  0.3883  0.1155  0.0821
 3376SOL    HW121590   1.804   1.272   2.636 -2.2848  2.1217  1.4741
 3376SOL    HW221591   1.935   1.233   2.706 -0.1623 -1.2148  0.7974
 3377SOL     OW21592   2.189   2.735   9.060 -0.8443 -0.0425 -0.2719
 3377SOL    HW121593   2.188   2.748   8.965 -3.4858  1.1090 -0.0959
 3377SOL    HW221594   2.102   2.774   9.072 -0.7612 -0.0611  0.4065
 3378SOL     OW21595   2.622   0.691   6.675  0.1521  0.4123 -0.3303
 3378SOL    HW121596   2.667   0.644   6.605 -0.9085  0.8499 -1.2952
 3378SOL    HW221597   2.614   0.776   6.634 -1.9915 -0.1902 -1.1630
 3379SOL     OW21598   0.772   0.405   4.715  0.1848 -0.0959  0.0864
 3379SOL    HW121599   0.756   0.494   4.683 -0.7985 -1.0459 -2.1399
 3379SOL    HW221600   0.848   0.377   4.663 -0.6066 -1.7652 -0.1915
 3380SOL     OW21601   1.048   0.670   9.396 -0.2705 -0.2102  0.2164
 3380SOL    HW121602   1.019   0.696   9.484 -0.7329 -2.9875  0.8958
 3380SOL    HW221603   0.993   0.591   9.391 -0.3341 -0.1981  0.7371
 3381SOL     OW21604   3.268   0.221   0.668  0.2929 -0.5835  0.1323
 3381SOL    HW121605   3.229   0.186   0.748 -0.6221 -0.7110 -0.3687
 3381SOL    HW221606   3.252   0.313   0.690 -2.5348 -1.4399  1.6462
 3382SOL     OW21607   1.923   0.275  16.292  0.1128  0.0136 -0.0548
 3382SOL    HW121608   1.843   0.327  16.287  0.1662  0.2253  1.3148
 3382SOL    HW221609   1.923   0.218  16.369 -1.7464 -2.3912 -1.8027
 3383SOL     OW21610   4.103   3.356   5.003  0.6482 -0.1510 -0.0795
 3383SOL    HW121611   4.181   3.352   5.058  0.8601 -2.2032 -0.5178
 3383SOL    HW221612   4.116   3.286   4.938  1.5313 -1.0070  1.0362
 3384SOL     OW21613   0.992   2.379  10.680 -0.1060 -0.6648  0.0536
 3384SOL    HW121614   1.052   2.451  10.700  1.0496 -1.6402  0.1016
 3384SOL    HW221615   1.017   2.318  10.749 -0.4350 -2.4834 -1.4313
 3385SOL     OW21616   2.280   1.924   6.825 -0.3833  0.8047 -0.4295
 3385SOL    HW121617   2.191   1.899   6.802 -0.9381  1.0508  1.4132
 3385SOL    HW221618   2.340   1.865   6.780  0.2502 -0.7146  2.3649
 3386SOL     OW21619   2.542   0.583   1.329  0.0736 -0.0454 -0.1411
 3386SOL    HW121620   2.467   0.549   1.279 -0.2393  0.4153  0.0197
 3386SOL    HW221621   2.520   0.676   1.330  0.1750 -0.0003 -1.3010
 3387SOL     OW21622   3.793   2.027   9.828  0.1190  0.3340 -0.3923
 3387SOL    HW121623   3.843   1.946   9.837 -0.8122 -0.2765 -0.6707
 3387SOL    HW221624   3.706   1.989   9.842  0.3881  0.6829  2.3598
 3388SOL     OW21625   4.651   1.643   0.518 -0.2151  0.8726 -0.1992
 3388SOL    HW121626   4.599   1.723   0.528 -1.2653  0.1470  0.0375
 3388SOL    HW221627   4.591   1.570   0.526  0.7951 -0.0865 -1.3202
 3389SOL     OW21628   1.931   0.053   4.445  0.2048  0.2411  0.0585
 3389SOL    HW121629   1.980   4.705   4.494 -1.3009  0.6504  2.1189
 3389SOL    HW221630   1.838   0.048   4.465 -1.1279  1.0069 -5.9602
 3390SOL     OW21631   4.517   2.093   6.341 -0.6905 -0.5812 -0.8418
 3390SOL    HW121632   4.468   2.170   6.313 -1.3167 -0.0500  1.7563
 3390SOL    HW221633   4.479   2.023   6.287 -1.5945 -0.1497 -0.7723
 3391SOL     OW21634   0.443   4.500   8.923 -0.1318  0.0959 -0.6134
 3391SOL    HW121635   0.528   4.490   8.880  1.3814  2.7179  1.7652
 3391SOL    HW221636   0.382   4.460   8.861 -0.6047 -1.0680  0.6169
 3392SOL     OW21637   3.038   0.756   1.565  0.6713  0.1537 -0.0701
 3392SOL    HW121638   2.959   0.766   1.617  0.2823 -1.5820 -0.3180
 3392SOL    HW221639   3.007   0.706   1.489  0.7568  0.3476 -0.2336
 3393SOL     OW21640   3.713   1.963   7.234 -0.2261  0.0252 -0.1974
 3393SOL    HW121641   3.782   2.027   7.218 -0.2116 -0.1441 -0.8136
 3393SOL    HW221642   3.648   1.994   7.172 -1.9101  1.8760  2.4898
 3394SOL     OW21643   3.284   0.038  16.095  0.7172  0.2267  0.2845
 3394SOL    HW121644   3.299   4.662  16.087 -0.2054  0.2192 -1.3273
 3394SOL    HW221645   3.292   0.042  16.190 -1.2384 -0.2230  0.4724
 3395SOL     OW21646   3.020   0.889  14.541 -0.0301 -0.7866 -0.1925
 3395SOL    HW121647   2.990   0.850  14.459  3.1414 -1.8353 -0.8685
 3395SOL    HW221648   3.005   0.805  14.584  0.1581 -0.2927  0.8302
 3396SOL     OW21649   0.465   0.004   9.136  0.0868  0.1479 -0.1083
 3396SOL    HW121650   0.503   0.034   9.218  0.6741 -1.2505  0.1242
 3396SOL    HW221651   0.519   0.056   9.076  0.2634  0.5467  0.3993
 3397SOL     OW21652   2.952   0.825   7.959 -0.6446  0.6042  0.0984
 3397SOL    HW121653   2.892   0.872   8.017 -1.6326  1.4068 -1.5845
 3397SOL    HW221654   2.898   0.772   7.901  1.1378 -1.1657  0.0821
 3398SOL     OW21655   1.156   3.421  15.474  0.3074  0.1212  0.4105
 3398SOL    HW121656   1.185   3.380  15.393 -1.5109 -0.3785  0.0166
 3398SOL    HW221657   1.073   3.457  15.443  1.0028  0.7281 -0.7516
 3399SOL     OW21658   3.467   0.872   5.396 -0.4945  0.3400 -0.3950
 3399SOL    HW121659   3.393   0.883   5.456 -0.3028  2.7660 -0.5742
 3399SOL    HW221660   3.523   0.938   5.439  0.1960  0.3120 -1.2427
 3400SOL     OW21661   1.143   3.162   9.651 -0.3616  0.6272  0.5616
 3400SOL    HW121662   1.180   3.092   9.705 -0.3437  0.9443  0.9569
 3400SOL    HW221663   1.101   3.115   9.578 -1.7844  0.8394  1.2543
 3401SOL     OW21664   3.655   3.727   3.535  0.3777 -0.1604 -0.1018
 3401SOL    HW121665   3.743   3.697   3.513  0.0619  0.6865 -2.5477
 3401SOL    HW221666   3.620   3.731   3.446  1.4692  3.3301 -0.3750
 3402SOL     OW21667   3.564   2.760   6.184  0.3293  0.3699 -0.1872
 3402SOL    HW121668   3.630   2.715   6.132  0.7279 -0.3618  0.9411
 3402SOL    HW221669   3.488   2.752   6.127 -0.3130 -0.1101  0.7202
 3403SOL     OW21670   4.068   3.556   0.364  0.1918 -0.0714  1.0645
 3403SOL    HW121671   4.103   3.629   0.415 -3.4876  1.5742  1.1965
 3403SOL    HW221672   4.126   3.554   0.287 -1.5076  0.5850 -0.2255
 3404SOL     OW21673   2.498   1.766  15.698 -0.1495  0.0296  0.1265
 3404SOL    HW121674   2.514   1.773  15.604 -0.5600  0.2732  0.0775
 3404SOL    HW221675   2.589   1.743  15.718  0.5224  1.0550 -1.7740
 3405SOL     OW21676   1.746   4.661   7.339 -0.5553  0.1313  0.1094
 3405SOL    HW121677   1.701   4.606   7.403  1.6455 -1.4872  0.3024
 3405SOL    HW221678   1.815   4.601   7.308 -0.3753 -0.1043  0.9787
 3406SOL     OW21679   2.783   2.932   2.111 -0.5998  0.1809  0.4161
 3406SOL    HW121680   2.727   3.008   2.124 -0.1082  0.7408 -0.7576
 3406SOL    HW221681   2.822   2.937   2.199  0.4942  0.3817 -0.0728
 3407SOL     OW21682   2.048   4.138   8.016 -0.5043  0.4933 -0.0997
 3407SOL    HW121683   2.107   4.169   8.085  1.2330 -0.2169 -1.2707
 3407SOL    HW221684   2.066   4.044   8.021  1.3697  0.8911  0.4950
 3408SOL     OW21685   2.200   2.399   2.509 -0.0530  0.4079 -0.3665
 3408SOL    HW121686   2.177   2.455   2.584 -0.8596  1.2025 -1.2045
 3408SOL    HW221687   2.254   2.331   2.549 -1.9904 -1.2523 -0.5766
 3409SOL     OW21688   0.769   1.372   3.766  0.4076  0.2978 -0.2179
 3409SOL    HW121689   0.818   1.356   3.686  0.2090  0.0707 -0.2939
 3409SOL    HW221690   0.781   1.289   3.812 -0.1772  0.2814 -0.0886
 3410SOL     OW21691   4.481   2.776   3.931  0.2391  0.0188  0.6502
 3410SOL    HW121692   4.476   2.769   4.026  0.4065  0.4685  0.6907
 3410SOL    HW221693   4.392   2.747   3.911 -0.0526  0.7637  0.8813
 3411SOL     OW21694   0.379   0.582  11.007 -1.0756 -0.4309 -0.0536
 3411SOL    HW121695   0.358   0.672  11.031  0.7553 -0.2117  0.6736
 3411SOL    HW221696   0.446   0.561  11.072  1.0322  3.2015 -1.0367
 3412SOL     OW21697   4.006   2.933   8.027 -0.4125  0.1866 -0.3790
 3412SOL    HW121698   3.924   2.906   8.068  1.1841 -0.5560  2.3182
 3412SOL    HW221699   4.074   2.904   8.087 -0.9333  1.2915  0.7462
 3413SOL     OW21700   3.564   0.707   1.732 -0.7986  0.2660  0.0799
 3413SOL    HW121701   3.618   0.770   1.779  0.1977 -0.1603 -0.4991
 3413SOL    HW221702   3.622   0.631   1.721  0.4826  1.2602  0.0704
 3414SOL     OW21703   0.137   3.207  10.982 -0.1488  0.2937 -0.2756
 3414SOL    HW121704   0.129   3.299  11.009 -1.1863  0.1711 -0.1731
 3414SOL    HW221705   0.233   3.204  10.983 -0.0775  1.4100 -2.5218
 3415SOL     OW21706   1.391   2.314   2.732 -0.1829 -0.2020  0.6658
 3415SOL    HW121707   1.468   2.354   2.773  0.3581 -1.7377  1.1371
 3415SOL    HW221708   1.388   2.352   2.644 -0.3808 -0.5204  0.5358
 3416SOL     OW21709   0.761   1.022   8.202  0.3518  0.2713 -0.2636
 3416SOL    HW121710   0.786   0.956   8.267 -1.1068  0.1190  0.1586
 3416SOL    HW221711   0.716   0.966   8.138  0.2843  0.2758 -0.2201
 3417SOL     OW21712   2.935   1.520  12.332  0.4229  0.0633 -0.0832
 3417SOL    HW121713   2.957   1.448  12.273  1.9108 -0.4184  1.0367
 3417SOL    HW221714   2.840   1.514  12.322  0.6988 -2.7968 -0.8576
 3418SOL     OW21715   2.631   2.581   6.167 -0.2688  0.3206  0.0382
 3418SOL    HW121716   2.677   2.615   6.243  0.0804  2.9642 -1.3530
 3418SOL    HW221717   2.543   2.611   6.189 -0.5773 -0.3750 -0.2570
 3419SOL     OW21718   0.089   1.763   8.783  0.0140 -0.2932  0.1891
 3419SOL    HW121719   0.115   1.849   8.750  2.3012 -0.8356  0.5745
 3419SOL    HW221720   0.021   1.786   8.846  0.6156  0.8485  0.4150
 3420SOL     OW21721   2.409   3.323  10.990  0.1280  0.1714 -0.3147
 3420SOL    HW121722   2.435   3.231  10.994 -0.0747  0.1740  1.1855
 3420SOL    HW221723   2.495   3.358  11.016  0.3922  0.2346 -1.2966
 3421SOL     OW21724   1.973   1.964   7.044  0.0366 -0.3615 -0.3550
 3421SOL    HW121725   1.955   1.885   6.993  0.4576  0.5081 -1.8534
 3421SOL    HW221726   2.018   1.918   7.114 -2.4398  2.0366  2.7802
 3422SOL     OW21727   3.784   0.749   6.005 -0.3603 -0.3234  0.0305
 3422SOL    HW121728   3.743   0.688   6.067  1.0335 -2.4359 -1.1255
 3422SOL    HW221729   3.711   0.810   5.997 -0.7710 -0.8566 -0.3310
 3423SOL     OW21730   2.787   2.264   6.782  0.5370  0.3660  0.1512
 3423SOL    HW121731   2.874   2.305   6.789  0.8188 -0.3950  1.0095
 3423SOL    HW221732   2.737   2.322   6.725  1.2549  0.9066  0.0676
 3424SOL     OW21733   2.193   1.112  17.179 -0.3356 -0.0504  0.1643
 3424SOL    HW121734   2.275   1.091  17.223  0.0534 -1.3071 -1.1599
 3424SOL    HW221735   2.225   1.193  17.141  1.6293 -0.1831  1.5572
 3425SOL     OW21736   3.769   4.468   0.763  0.4891  0.3052  0.0077
 3425SOL    HW121737   3.725   4.505   0.686 -0.4443  1.9108  1.3192
 3425SOL    HW221738   3.768   4.376   0.738  1.7179  0.8153 -1.9499
 3426SOL     OW21739   3.253   1.269   3.737  0.4199  0.8137  0.3631
 3426SOL    HW121740   3.225   1.189   3.692  1.2418  0.3027  0.7422
 3426SOL    HW221741   3.300   1.319   3.671  2.4621  0.8590  1.8415
 3427SOL     OW21742   4.318   0.917  11.184 -0.1692  0.2574  0.2362
 3427SOL    HW121743   4.276   0.994  11.146 -0.1435  1.7668  3.2219
 3427SOL    HW221744   4.386   0.885  11.125 -0.2182  1.1725 -0.3157
 3428SOL     OW21745   0.167   1.774  11.243  0.0818 -0.4483 -0.0344
 3428SOL    HW121746   0.224   1.821  11.304  1.6154 -0.4393 -1.4690
 3428SOL    HW221747   0.089   1.757  11.294  0.0363  0.8566  0.3213
 3429SOL     OW21748   4.457   2.773   4.198  0.1061 -0.5684 -0.0184
 3429SOL    HW121749   4.402   2.798   4.272  2.5458  0.0561  1.5981
 3429SOL    HW221750   4.541   2.777   4.245  1.1502 -3.1061 -1.6402
 3430SOL     OW21751   2.578   1.611   2.539  0.2840 -0.3069 -0.4632
 3430SOL    HW121752   2.634   1.541   2.573 -0.4480 -1.6502 -1.9927
 3430SOL    HW221753   2.640   1.684   2.535  0.1459 -0.1238  0.8857
 3431SOL     OW21754   1.403   0.152  11.140 -0.6478 -0.4991  0.2027
 3431SOL    HW121755   1.483   0.103  11.121  0.6396  1.6291  0.1961
 3431SOL    HW221756   1.385   0.185  11.052  1.3717  0.9907  0.3682
 3432SOL     OW21757   4.555   2.076  13.130  0.1925  0.6651 -0.1746
 3432SOL    HW121758   4.615   2.101  13.061 -0.3399  1.4524 -0.3545
 3432SOL    HW221759   4.583   2.126  13.207  0.8160  1.0179 -0.6336
 3433SOL     OW21760   2.744   0.481   6.023  0.6248  0.1564 -0.8262
 3433SOL    HW121761   2.787   0.463   6.107  1.9646  1.2513 -1.2926
 3433SOL    HW221762   2.711   0.568   6.042 -1.9597 -1.0052  0.0943
 3434SOL     OW21763   1.214   1.308   7.305  0.4417 -0.0882 -0.1872
 3434SOL    HW121764   1.144   1.373   7.307  0.7379  0.2255 -0.1502
 3434SOL    HW221765   1.178   1.236   7.252  2.2779 -1.5623  0.5622
 3435SOL     OW21766   0.498   3.005   0.820 -0.3517  0.0311  0.3207
 3435SOL    HW121767   0.528   3.049   0.740 -0.5346 -0.7457 -0.1746
 3435SOL    HW221768   0.578   2.965   0.855 -0.3649  1.2551  1.7181
 3436SOL     OW21769   3.159   4.046   5.748 -0.5626 -0.2061  0.3668
 3436SOL    HW121770   3.088   3.999   5.704  2.2168 -2.1590 -2.0775
 3436SOL    HW221771   3.233   4.030   5.690 -0.3539  2.3190 -0.0231
 3437SOL     OW21772   4.576   0.305   7.631 -0.1932 -0.3362  0.6009
 3437SOL    HW121773   4.648   0.280   7.689 -0.7251 -0.2327  1.2993
 3437SOL    HW221774   4.563   0.226   7.579 -0.8192 -0.2254  0.5925
 3438SOL     OW21775   3.813   1.108  16.641  0.2601  0.5424  0.4547
 3438SOL    HW121776   3.799   1.016  16.663 -1.4595  0.3228 -1.5246
 3438SOL    HW221777   3.859   1.109  16.556  0.2633 -2.5662  0.3910
 3439SOL     OW21778   1.156   3.145  11.711 -0.4347  0.2038 -0.1314
 3439SOL    HW121779   1.182   3.183  11.627 -3.2719 -2.2174 -2.1317
 3439SOL    HW221780   1.227   3.082  11.724  0.8473  2.4132  3.4453
 3440SOL     OW21781   0.573   0.774   1.962 -0.5416 -0.3968  0.1631
 3440SOL    HW121782   0.631   0.808   2.031  2.0756 -1.4322 -1.5136
 3440SOL    HW221783   0.537   0.853   1.921  1.9620  0.2253 -0.8886
 3441SOL     OW21784   2.596   2.994   7.131 -0.1316 -0.8087  0.3317
 3441SOL    HW121785   2.589   2.926   7.199 -0.4363 -2.1076 -1.0020
 3441SOL    HW221786   2.543   2.954   7.062 -1.0814 -0.9485  1.1402
 3442SOL     OW21787   4.362   1.899   2.043  0.4163  0.2597  0.3480
 3442SOL    HW121788   4.406   1.984   2.046 -1.0154  1.0288 -0.2180
 3442SOL    HW221789   4.366   1.867   2.133  1.0887 -0.6327 -0.0065
 3443SOL     OW21790   1.076   0.963  17.675  0.1083  0.9000 -0.3173
 3443SOL    HW121791   1.015   0.890  17.669  0.2200  0.7325  0.6224
 3443SOL    HW221792   1.056   1.008  17.593 -1.1873 -0.5194 -0.7663
 3444SOL     OW21793   4.213   2.066   4.364  0.1452 -0.2442  0.5228
 3444SOL    HW121794   4.143   2.064   4.299 -1.5731 -0.9305  2.3881
 3444SOL    HW221795   4.163   2.073   4.445 -3.1628 -0.5877 -1.5051
 3445SOL     OW21796   3.183   3.089   9.957  0.3100 -0.0523 -0.7532
 3445SOL    HW121797   3.150   2.999   9.956  1.4705 -0.4705 -0.0737
 3445SOL    HW221798   3.145   3.128   9.878  0.6767  1.7295 -0.0592
 3446SOL     OW21799   4.253   3.528  11.907 -0.4508 -0.7868 -0.7316
 3446SOL    HW121800   4.291   3.440  11.910  1.6827  0.1566 -0.2523
 3446SOL    HW221801   4.186   3.523  11.975  2.1638  2.6380  2.0842
 3447SOL     OW21802   1.081   1.889  13.979 -0.2291  0.3264  0.0701
 3447SOL    HW121803   1.023   1.937  14.038  1.3637  1.3798  0.7829
 3447SOL    HW221804   1.039   1.908  13.894 -0.2189  0.0326  0.0001
 3448SOL     OW21805   2.761   3.648   8.171  0.3476  0.4080 -0.0406
 3448SOL    HW121806   2.727   3.561   8.152 -0.6940  0.7574  0.2335
 3448SOL    HW221807   2.811   3.636   8.251 -0.7135 -0.0157  0.5575
 3449SOL     OW21808   2.047   1.012   7.213 -0.3618 -0.0950 -0.3406
 3449SOL    HW121809   2.138   1.030   7.189 -0.5077 -1.2582 -1.7436
 3449SOL    HW221810   2.039   0.921   7.186  2.3521 -0.4304 -0.0030
 3450SOL     OW21811   0.993   1.694   5.538 -0.0974  0.3148 -0.4392
 3450SOL    HW121812   0.898   1.696   5.551 -0.2145  1.4324 -1.3957
 3450SOL    HW221813   1.019   1.681   5.629  0.4870  1.1457 -0.4859
 3451SOL     OW21814   4.367   0.790   9.831 -0.0382 -0.1528 -0.2421
 3451SOL    HW121815   4.430   0.838   9.777 -2.6741  0.1183 -3.0953
 3451SOL    HW221816   4.286   0.802   9.780 -0.3784  1.3974  0.6367
 3452SOL     OW21817   0.856   1.726   7.531  0.7349 -0.4208  0.2649
 3452SOL    HW121818   0.765   1.698   7.541  1.8677 -3.2414  2.9118
 3452SOL    HW221819   0.849   1.808   7.482 -2.0289 -1.1737 -0.6091
 3453SOL     OW21820   2.175   2.093  16.619  0.7158 -0.5828  0.2090
 3453SOL    HW121821   2.181   2.146  16.699  1.1386  1.8381 -1.4069
 3453SOL    HW221822   2.266   2.102  16.592  0.7616  0.3788  0.6679
 3454SOL     OW21823   4.026   3.256   3.392 -0.1122  0.2917 -0.1093
 3454SOL    HW121824   4.068   3.281   3.474  1.0985  0.8585 -0.9127
 3454SOL    HW221825   4.061   3.319   3.329 -1.0928  0.6914 -0.2703
 3455SOL     OW21826   0.383   2.301  14.701 -0.4334 -0.1134  0.2547
 3455SOL    HW121827   0.356   2.345  14.781 -0.8884  1.3776 -0.7387
 3455SOL    HW221828   0.424   2.219  14.730  0.3433 -0.9682 -3.2265
 3456SOL     OW21829   2.134   0.232   4.685  0.1112  0.7109 -0.2275
 3456SOL    HW121830   2.223   0.257   4.663 -0.3675  3.0832  0.5734
 3456SOL    HW221831   2.088   0.219   4.601  0.2200  0.2470 -0.2151
 3457SOL     OW21832   2.631   4.415   8.478 -0.1149 -0.5612  0.2186
 3457SOL    HW121833   2.690   4.340   8.470  0.3958  0.1257 -2.7366
 3457SOL    HW221834   2.669   4.455   8.556  1.6663 -1.0831 -0.3899
 3458SOL     OW21835   4.549   4.710  16.997 -0.2435  0.3650 -0.1662
 3458SOL    HW121836   4.640   4.678  16.993 -0.2916  0.3553 -1.2168
 3458SOL    HW221837   4.521   4.697  17.088  2.7303  0.3506  0.7588
 3459SOL     OW21838   1.140   1.937   5.141  0.3607  0.0895 -0.0665
 3459SOL    HW121839   1.123   1.890   5.223  1.3669  0.5914  0.4240
 3459SOL    HW221840   1.160   1.863   5.083  0.2923 -0.5238  0.6991
 3460SOL     OW21841   3.938   1.507  13.022 -0.7025  0.1793 -0.0763
 3460SOL    HW121842   3.863   1.449  13.009  1.1528 -2.7865  2.5604
 3460SOL    HW221843   3.917   1.590  12.978  2.0179 -0.0793 -1.8728
 3461SOL     OW21844   0.856   0.485   9.368  0.0624  0.0793 -0.0863
 3461SOL    HW121845   0.834   0.403   9.413  1.8627  0.8179  2.1698
 3461SOL    HW221846   0.835   0.447   9.283  1.3988 -0.3105 -0.2360
 3462SOL     OW21847   0.198   4.624   9.272 -0.2415 -0.1287 -0.6132
 3462SOL    HW121848   0.219   4.626   9.366  0.0171  0.3291 -0.6789
 3462SOL    HW221849   0.128   4.690   9.268 -0.6475 -0.7099 -3.0668
 3463SOL     OW21850   0.195   1.139   6.438  0.3714 -0.3060 -0.2890
 3463SOL    HW121851   0.138   1.208   6.473 -0.5308  0.0265 -2.3942
 3463SOL    HW221852   0.128   1.097   6.383 -0.6318  0.1340  0.5910
 3464SOL     OW21853   1.063   1.096  14.922  0.3823  0.0988  0.0490
 3464SOL    HW121854   0.975   1.132  14.907 -0.8866 -1.9251  2.6429
 3464SOL    HW221855   1.076   1.038  14.847  1.8282 -0.0772  0.4344
 3465SOL     OW21856   3.093   2.574   8.413  0.4645 -0.1196 -0.2761
 3465SOL    HW121857   3.075   2.626   8.492 -1.9322  2.5371 -2.5573
 3465SOL    HW221858   3.011   2.525   8.419 -0.8536  2.0344 -0.7759
 3466SOL     OW21859   3.968   1.311   8.887  0.3327  0.2005 -0.2858
 3466SOL    HW121860   4.005   1.226   8.865 -1.5024 -0.5776 -0.3077
 3466SOL    HW221861   4.035   1.369   8.849 -1.3222  1.4048 -1.3991
 3467SOL     OW21862   2.027   3.400  15.372  0.3683  0.0731 -0.7030
 3467SOL    HW121863   2.095   3.388  15.306 -0.7335 -0.7163 -1.6893
 3467SOL    HW221864   1.961   3.334  15.350 -1.2724  1.5048 -0.0660
 3468SOL     OW21865   1.073   1.009  12.447  0.3162  0.4983  0.3337
 3468SOL    HW121866   1.148   0.996  12.504  0.6175  1.7064  0.2305
 3468SOL    HW221867   1.004   1.023  12.512 -0.1109  0.9039 -0.2020
 3469SOL     OW21868   1.784   1.408   0.413 -0.0666  0.1105  0.0168
 3469SOL    HW121869   1.700   1.429   0.372  0.2913  2.2074  0.4044
 3469SOL    HW221870   1.835   1.478   0.374 -3.0187  2.1748 -0.1715
 3470SOL     OW21871   1.433   4.240  11.443 -0.1550 -0.9612 -0.6335
 3470SOL    HW121872   1.444   4.224  11.349 -0.1671  0.1880 -0.8266
 3470SOL    HW221873   1.381   4.164  11.469  0.7694 -1.5775 -0.5844
 3471SOL     OW21874   1.139   2.168   4.873  0.0816 -0.7441 -1.2221
 3471SOL    HW121875   1.233   2.162   4.887 -0.0156  0.1729 -0.1259
 3471SOL    HW221876   1.144   2.222   4.794  2.1491  0.6210 -0.1604
 3472SOL     OW21877   1.057   3.850   7.763  0.4627  0.1982  0.2780
 3472SOL    HW121878   1.088   3.805   7.842 -1.7660 -0.5558  0.7250
 3472SOL    HW221879   0.969   3.811   7.766 -1.1718  3.6682 -2.6245
 3473SOL     OW21880   0.893   4.450   8.184 -0.2330  0.1007 -0.1023
 3473SOL    HW121881   0.983   4.479   8.171  0.6358 -3.0715 -1.0132
 3473SOL    HW221882   0.898   4.411   8.271  0.7304 -1.0163 -0.6551
 3474SOL     OW21883   0.445   1.290   3.618  0.2894 -0.1235 -0.1882
 3474SOL    HW121884   0.526   1.241   3.622  0.2926 -0.3745 -3.0891
 3474SOL    HW221885   0.440   1.311   3.524 -1.6882 -1.6827 -0.4425
 3475SOL     OW21886   1.417   4.628   7.467  0.4525 -0.1974  0.6734
 3475SOL    HW121887   1.428   4.533   7.457  1.6744 -0.0245  0.3610
 3475SOL    HW221888   1.326   4.637   7.494  0.7636 -1.3857  2.1509
 3476SOL     OW21889   3.717   4.133   0.173 -0.4624 -0.6061 -0.3100
 3476SOL    HW121890   3.752   4.052   0.136  1.8949  0.2953 -0.0417
 3476SOL    HW221891   3.746   4.125   0.263 -0.7547  1.6709 -0.0308
 3477SOL     OW21892   0.955   3.343   4.991 -0.3300  0.4553 -0.6989
 3477SOL    HW121893   1.025   3.354   4.927  0.8133 -4.2334 -0.2194
 3477SOL    HW221894   1.000   3.305   5.066  0.8819 -1.7761 -2.5688
 3478SOL     OW21895   3.972   1.673   2.575  0.4444 -0.3770  0.0232
 3478SOL    HW121896   3.974   1.611   2.501  0.5890  0.9775 -1.0954
 3478SOL    HW221897   3.903   1.733   2.547 -0.9154 -1.2703  1.4464
 3479SOL     OW21898   0.216   0.688  14.286 -0.0705 -0.3182  0.1788
 3479SOL    HW121899   0.166   0.679  14.204 -1.1839  1.2700  0.6740
 3479SOL    HW221900   0.146   0.730  14.335  0.6712  0.7439  0.3187
 3480SOL     OW21901   0.651   0.895  12.845 -0.1757 -0.2789  0.4565
 3480SOL    HW121902   0.686   0.979  12.817 -1.1266 -0.2720 -0.7164
 3480SOL    HW221903   0.617   0.857  12.764  1.3046  1.2072 -0.8434
 3481SOL     OW21904   1.460   1.986   2.940  0.1608  0.6177  0.8338
 3481SOL    HW121905   1.406   2.029   2.873 -3.2234 -2.7217  1.4001
 3481SOL    HW221906   1.418   2.009   3.022  0.7553  1.8182  0.7930
 3482SOL     OW21907   2.274   4.144   1.853 -0.4027 -0.0492 -0.0622
 3482SOL    HW121908   2.343   4.112   1.795 -0.8808  2.0949 -1.8323
 3482SOL    HW221909   2.329   4.184   1.920  0.7003  0.6953 -1.4131
 3483SOL     OW21910   3.134   3.604   4.455 -0.0920 -0.0938 -0.2035
 3483SOL    HW121911   3.112   3.556   4.534 -0.5509  0.5764  0.0755
 3483SOL    HW221912   3.189   3.541   4.408 -2.2640 -2.1957  0.0914
 3484SOL     OW21913   2.330   0.288  12.678 -0.1616 -0.1786  0.2933
 3484SOL    HW121914   2.242   0.257  12.700 -0.3302 -0.3824 -0.6752
 3484SOL    HW221915   2.302   0.346  12.607  0.8593  1.7470  1.4505
 3485SOL     OW21916   0.896   1.222   0.440  0.6829 -0.4118 -0.3924
 3485SOL    HW121917   0.881   1.128   0.443 -3.3564  0.2682  0.1265
 3485SOL    HW221918   0.992   1.218   0.446  0.7854 -0.1053 -1.7171
 3486SOL     OW21919   3.288   3.227  11.142 -0.0445  0.6141 -0.3032
 3486SOL    HW121920   3.271   3.212  11.049  0.2914 -0.5346 -0.1756
 3486SOL    HW221921   3.272   3.136  11.164 -1.5329  0.6501 -1.1851
 3487SOL     OW21922   4.539   3.263   1.037 -0.7623 -0.5222  0.1959
 3487SOL    HW121923   4.580   3.305   0.961 -0.5373 -0.1916  0.4980
 3487SOL    HW221924   4.446   3.273   1.015 -0.3709  2.8659  0.0365
 3488SOL     OW21925   2.372   0.747   4.074 -0.6504  0.0801 -0.5532
 3488SOL    HW121926   2.437   0.808   4.108 -1.2271  3.2170 -5.0566
 3488SOL    HW221927   2.422   0.667   4.062  0.1750  0.1673  2.4164
 3489SOL     OW21928   0.754   0.126   4.531 -0.3706 -0.5240  0.0070
 3489SOL    HW121929   0.833   0.179   4.517 -1.1777  0.4135 -0.9862
 3489SOL    HW221930   0.724   0.152   4.618 -3.9420  0.8691 -1.6614
 3490SOL     OW21931   4.181   0.902   2.906  0.1915 -0.5033 -0.0961
 3490SOL    HW121932   4.117   0.875   2.972 -0.2695 -0.3683 -0.4839
 3490SOL    HW221933   4.157   0.994   2.889 -0.4411 -0.7648 -0.6126
 3491SOL     OW21934   2.396   3.085   1.323 -0.0072  0.0633  0.1947
 3491SOL    HW121935   2.387   3.069   1.229 -2.9784  3.0403 -0.0138
 3491SOL    HW221936   2.321   3.141   1.339  0.6648  1.0815 -0.1751
 3492SOL     OW21937   2.596   0.457   7.495 -0.0389 -0.2099  0.7114
 3492SOL    HW121938   2.526   0.392   7.497  0.0747 -0.3146  1.5396
 3492SOL    HW221939   2.556   0.531   7.449  0.8076 -0.8125 -0.9522
 3493SOL     OW21940   2.821   3.060   5.603  0.2640 -0.4512  0.0013
 3493SOL    HW121941   2.874   3.116   5.660 -0.4643  0.4437 -0.1962
 3493SOL    HW221942   2.756   3.030   5.665  1.3925 -0.0016  1.3947
 3494SOL     OW21943   1.862   4.390  16.544  0.8950 -0.4507  0.2532
 3494SOL    HW121944   1.918   4.402  16.467 -0.2386 -0.4669 -0.5798
 3494SOL    HW221945   1.851   4.481  16.573  0.3349 -0.5604  0.4035
 3495SOL     OW21946   4.651   4.241   0.133  0.6160 -0.1143  0.4312
 3495SOL    HW121947   4.577   4.183   0.117 -0.5841  1.2534  1.0804
 3495SOL    HW221948   4.615   4.327   0.116  1.6603  0.2139 -0.1229
 3496SOL     OW21949   0.259   4.654   9.539 -0.4180  0.6169 -0.4654
 3496SOL    HW121950   0.171   4.641   9.575 -0.2876 -0.2097 -0.4565
 3496SOL    HW221951   0.311   4.591   9.589 -0.1872  1.9890  1.0146
 3497SOL     OW21952   3.686   4.379   2.620  0.1706  0.6282  0.8353
 3497SOL    HW121953   3.697   4.286   2.643  0.7573  0.2495 -1.0154
 3497SOL    HW221954   3.592   4.395   2.627  0.1857 -0.2737  3.2417
 3498SOL     OW21955   2.908   3.611   6.487 -0.1950  0.6767 -0.1121
 3498SOL    HW121956   2.923   3.519   6.508 -0.2685  0.0636 -2.7540
 3498SOL    HW221957   2.864   3.635   6.569 -0.3726  1.5151 -0.4530
 3499SOL     OW21958   1.109   3.441   0.969 -0.2176  0.0556 -0.1061
 3499SOL    HW121959   1.139   3.523   0.930  1.9906 -0.1521  1.2150
 3499SOL    HW221960   1.156   3.440   1.052 -1.3790  0.6973  0.5640
 3500SOL     OW21961   3.929   3.683   3.470  0.3916  0.1086 -0.6497
 3500SOL    HW121962   3.937   3.658   3.378  1.1049  0.5344 -0.7032
 3500SOL    HW221963   3.997   3.748   3.486  3.0936 -3.0832  0.8679
 3501SOL     OW21964   0.602   0.881   8.032  0.4181 -0.1920 -0.2444
 3501SOL    HW121965   0.509   0.903   8.037 -0.2589 -3.2579  1.1868
 3501SOL    HW221966   0.613   0.788   8.054  4.5725 -0.2050 -2.3740
 3502SOL     OW21967   0.490   1.716   5.853 -0.0959  0.2332  0.7847
 3502SOL    HW121968   0.495   1.741   5.761 -0.0130  0.7778  0.9380
 3502SOL    HW221969   0.470   1.800   5.895 -0.3728  0.2909  0.5402
 3503SOL     OW21970   4.122   0.398   6.033  0.0221 -0.3548  0.2086
 3503SOL    HW121971   4.119   0.494   6.032  3.7475 -0.2343  3.5496
 3503SOL    HW221972   4.205   0.390   5.986  0.3239 -0.9945  0.8438
 3504SOL     OW21973   2.558   1.585  10.097 -0.1456 -0.0392  0.5831
 3504SOL    HW121974   2.629   1.528  10.067  1.9559  1.6373  2.4012
 3504SOL    HW221975   2.559   1.559  10.189  0.5216 -0.4676  0.4541
 3505SOL     OW21976   1.867   3.078   0.672  0.3860  0.6768  0.4913
 3505SOL    HW121977   1.954   3.107   0.701  1.5961 -0.5130 -1.9495
 3505SOL    HW221978   1.841   3.020   0.743 -2.6276 -1.4111 -2.3243
 3506SOL     OW21979   1.848   4.610   6.478 -0.5879 -0.3328 -0.0449
 3506SOL    HW121980   1.889   4.697   6.481  0.6211 -0.9851  3.1625
 3506SOL    HW221981   1.753   4.623   6.477 -0.1110  3.2755  0.4419
 3507SOL     OW21982   3.411   2.439  11.540  0.1811  0.6973  0.7380
 3507SOL    HW121983   3.417   2.386  11.460  2.0350  1.2267  0.5169
 3507SOL    HW221984   3.423   2.528  11.506  2.3525  0.4110  0.7548
 3508SOL     OW21985   4.054   1.095  12.875 -0.0302 -0.0622 -0.0965
 3508SOL    HW121986   4.139   1.138  12.882 -0.8317  1.8965 -2.1601
 3508SOL    HW221987   4.066   1.004  12.849 -1.9818  0.1892 -1.9214
 3509SOL     OW21988   2.105   3.221  16.266 -0.1334 -0.0280 -0.5284
 3509SOL    HW121989   2.152   3.228  16.349 -1.8474 -0.8246  0.4968
 3509SOL    HW221990   2.050   3.147  16.290  0.4417  0.7117  3.0371
 3510SOL     OW21991   0.209   1.047   7.579  0.7071  0.1076 -0.4577
 3510SOL    HW121992   0.165   0.985   7.636  0.2228 -1.1196 -2.1422
 3510SOL    HW221993   0.143   1.113   7.559 -0.9193 -1.5835 -0.6707
 3511SOL     OW21994   1.076   3.248   6.789  0.4919  0.2229 -0.7251
 3511SOL    HW121995   1.065   3.299   6.870 -1.8437 -0.8050 -0.3904
 3511SOL    HW221996   1.112   3.165   6.820 -0.1356 -0.8117 -2.8089
 3512SOL     OW21997   4.158   2.425   5.692 -0.0628  0.3377  0.0338
 3512SOL    HW121998   4.181   2.517   5.700  1.6059  0.0811 -1.8798
 3512SOL    HW221999   4.139   2.406   5.600 -2.2028 -3.4765  1.2698
 3513SOL     OW22000   4.063   3.027   7.194 -0.4331  0.2333  0.4777
 3513SOL    HW122001   4.096   3.083   7.124 -0.7644  0.9589  0.9006
 3513SOL    HW222002   4.024   3.088   7.257 -1.7537  2.4752 -2.5163
 3514SOL     OW22003   2.701   0.484   0.291 -0.0983 -0.2171 -0.1114
 3514SOL    HW122004   2.620   0.525   0.321  0.8384  1.6605 -0.1466
 3514SOL    HW222005   2.745   0.563   0.258  0.3606 -0.9980 -1.3894
 3515SOL     OW22006   1.983   1.758   8.093 -0.8723 -0.1217  0.2947
 3515SOL    HW122007   1.897   1.783   8.059 -0.2521  0.1692 -1.0757
 3515SOL    HW222008   1.958   1.763   8.185 -0.2958 -2.8221  0.5892
 3516SOL     OW22009   4.350   3.362   5.129  0.2569 -0.6090 -0.8156
 3516SOL    HW122010   4.432   3.313   5.129  0.9118  0.4845  1.2459
 3516SOL    HW222011   4.377   3.452   5.142 -0.2667 -0.3444 -1.5746
 3517SOL     OW22012   0.009   1.243   7.907  0.0890  0.3663 -0.0192
 3517SOL    HW122013   0.103   1.258   7.909  0.1953  0.0700 -4.0758
 3517SOL    HW222014   4.700   1.270   7.995 -1.4609 -1.1145 -0.0415
 3518SOL     OW22015   0.759   0.061   5.844  0.1129 -0.0026 -0.0432
 3518SOL    HW122016   0.803   0.097   5.921 -0.3041 -2.0574  1.1467
 3518SOL    HW222017   0.777   4.687   5.860 -0.2717 -0.2037 -0.7456
 3519SOL     OW22018   4.070   2.098   3.352  0.2557  0.6009  0.3630
 3519SOL    HW122019   4.060   2.074   3.444 -0.0671 -2.3381 -0.4225
 3519SOL    HW222020   4.150   2.057   3.321  0.6218  1.7924 -0.2338
 3520SOL     OW22021   2.093   0.468   0.922 -0.1007 -0.1543 -0.4122
 3520SOL    HW122022   2.179   0.442   0.891 -0.1797  0.8885 -1.4934
 3520SOL    HW222023   2.096   0.563   0.920  2.8128 -0.2815 -1.1561
 3521SOL     OW22024   3.806   1.447   4.048  0.5146 -0.0137  0.0443
 3521SOL    HW122025   3.809   1.382   4.119  2.1221 -1.0521 -0.9830
 3521SOL    HW222026   3.712   1.455   4.030  0.7447  2.0027 -0.1646
 3522SOL     OW22027   2.303   4.128   4.157  0.3642 -0.5931 -0.0851
 3522SOL    HW122028   2.390   4.102   4.188  1.1582  1.4013 -0.5950
 3522SOL    HW222029   2.292   4.070   4.082 -1.4122 -2.2927  1.5069
 3523SOL     OW22030   4.575   2.014  13.456 -0.4793 -0.0984  0.1964
 3523SOL    HW122031   4.596   2.097  13.414 -3.6059 -0.4418 -2.0091
 3523SOL    HW222032   4.498   2.046  13.503 -1.5368 -0.1805 -1.4867
 3524SOL     OW22033   1.552   1.599  10.319 -0.4164  0.1468 -0.1644
 3524SOL    HW122034   1.617   1.664  10.346  0.6787 -0.4050 -1.4637
 3524SOL    HW222035   1.480   1.628  10.375 -0.1682 -0.5704  0.5177
 3525SOL     OW22036   1.985   0.631  11.501 -0.2653 -0.0377 -0.3413
 3525SOL    HW122037   1.897   0.670  11.505 -1.0609 -1.8515 -0.3369
 3525SOL    HW222038   2.015   0.642  11.411 -1.9642 -0.8273 -1.0031
 3526SOL     OW22039   1.070   3.040   7.210 -0.4773  0.2163  0.0168
 3526SOL    HW122040   1.136   2.990   7.258 -0.7807 -1.0459 -0.8947
 3526SOL    HW222041   0.991   3.024   7.260 -0.0918  0.8497  0.8350
 3527SOL     OW22042   0.489   0.919  10.349 -0.5708 -0.0968 -0.7769
 3527SOL    HW122043   0.472   0.847  10.287  0.5962 -0.3465 -0.8034
 3527SOL    HW222044   0.582   0.938  10.344 -0.7370  0.8671 -0.0719
 3528SOL     OW22045   1.482   0.669  12.034 -0.5020  0.4585 -0.1075
 3528SOL    HW122046   1.407   0.643  11.980 -0.1647  0.4048 -0.5474
 3528SOL    HW222047   1.550   0.612  11.999 -0.0890  0.4606  0.6916
 3529SOL     OW22048   3.429   4.322   3.785  0.1973  0.7335  0.2891
 3529SOL    HW122049   3.408   4.403   3.739  2.5007  1.0587 -0.2097
 3529SOL    HW222050   3.353   4.316   3.843 -0.8139  1.1825 -0.9883
 3530SOL     OW22051   4.096   1.919   3.591  0.0867 -0.7417 -0.2434
 3530SOL    HW122052   4.072   1.878   3.674  2.6282  1.5134  1.5783
 3530SOL    HW222053   4.191   1.915   3.603  0.0301  1.2017  0.8462
 3531SOL     OW22054   2.132   0.785   6.621  0.3111 -0.0630  0.4811
 3531SOL    HW122055   2.178   0.857   6.666  0.0382  0.1622  0.3984
 3531SOL    HW222056   2.050   0.825   6.593  0.3828 -0.0275  0.3181
 3532SOL     OW22057   2.971   1.841   1.296  0.2598 -0.4479 -0.0879
 3532SOL    HW122058   2.949   1.880   1.211 -1.7384 -0.5465  0.4005
 3532SOL    HW222059   2.891   1.805   1.334  0.4068  0.2840  0.9160
 3533SOL     OW22060   1.052   1.525   0.768 -0.0380  0.6496  0.6403
 3533SOL    HW122061   1.138   1.483   0.773  0.6569  2.0792  0.7051
 3533SOL    HW222062   1.016   1.483   0.690 -0.4233 -0.4289  1.3967
 3534SOL     OW22063   2.354   0.376  15.053  0.4218  0.5322  0.2913
 3534SOL    HW122064   2.280   0.339  15.101 -0.0578  0.6820 -0.3307
 3534SOL    HW222065   2.425   0.335  15.103  1.3983  1.6012 -0.2297
 3535SOL     OW22066   1.931   3.640  12.089 -0.6780 -0.6269 -0.0506
 3535SOL    HW122067   1.972   3.690  12.159 -1.6286  1.2808 -0.8595
 3535SOL    HW222068   1.957   3.551  12.113  1.8772 -0.2022 -1.2343
 3536SOL     OW22069   1.746   3.120  14.592  0.1648  0.2474 -0.5690
 3536SOL    HW122070   1.788   3.180  14.531  2.1383 -0.4220  0.1216
 3536SOL    HW222071   1.828   3.074  14.608  0.2722  1.1153  1.3867
 3537SOL     OW22072   1.353   3.816   5.022  0.2098 -0.1877  0.3392
 3537SOL    HW122073   1.332   3.723   5.033  0.4988 -0.1451  1.2951
 3537SOL    HW222074   1.319   3.837   4.935  0.1403 -1.2899  0.1021
 3538SOL     OW22075   3.711   3.470   6.115 -0.0566 -0.3613  0.3151
 3538SOL    HW122076   3.795   3.427   6.134  0.1407  0.3883  1.1281
 3538SOL    HW222077   3.661   3.446   6.193  0.9754 -0.4438  0.9529
 3539SOL     OW22078   4.702   4.234   9.531 -0.4271  0.3898 -0.5549
 3539SOL    HW122079   0.071   4.256   9.498 -0.9239  1.9813 -0.8042
 3539SOL    HW222080   4.650   4.251   9.453 -2.3703 -2.9091  0.0343
 3540SOL     OW22081   3.133   4.007   5.407  0.2987  0.3291 -0.1156
 3540SOL    HW122082   3.077   3.962   5.343 -1.1768  0.5893  1.0057
 3540SOL    HW222083   3.067   4.053   5.459  0.4113  0.9940 -0.5642
 3541SOL     OW22084   2.745   1.077   8.376  0.4903 -0.2821  0.4553
 3541SOL    HW122085   2.785   1.064   8.291 -0.6794 -0.6777 -0.0368
 3541SOL    HW222086   2.804   1.136   8.423  1.2671 -1.4676  0.9709
 3542SOL     OW22087   1.151   1.389   2.980 -0.2540 -0.1664  0.1595
 3542SOL    HW122088   1.197   1.446   2.919  0.0672 -2.8700 -2.0969
 3542SOL    HW222089   1.220   1.361   3.041 -1.2802  0.5185  1.6513
 3543SOL     OW22090   2.417   3.799   6.160 -0.2758 -0.2175  0.3022
 3543SOL    HW122091   2.328   3.806   6.126  0.2992  0.4058 -1.0752
 3543SOL    HW222092   2.406   3.862   6.232 -0.8615  0.1039 -0.0753
 3544SOL     OW22093   0.342   4.166   5.574 -0.0116  0.2989  0.7406
 3544SOL    HW122094   0.307   4.247   5.612 -1.6986 -0.0668 -0.0095
 3544SOL    HW222095   0.274   4.107   5.541  1.2135 -0.0598 -1.1147
 3545SOL     OW22096   1.992   3.680   9.821  0.3016  0.1746 -0.3204
 3545SOL    HW122097   2.079   3.649   9.795 -0.7361 -0.0377 -3.5333
 3545SOL    HW222098   1.946   3.670   9.738  0.8918  0.9798 -0.7593
 3546SOL     OW22099   4.686   1.816   8.120  0.2769 -0.3510  0.4416
 3546SOL    HW122100   4.708   1.905   8.146  1.6134 -0.5792  0.1053
 3546SOL    HW222101   4.609   1.831   8.065  0.3153  0.5743  0.6518
 3547SOL     OW22102   2.512   1.701   8.761 -0.2260  0.0355 -0.5016
 3547SOL    HW122103   2.433   1.749   8.736  0.1854  1.5296  1.0773
 3547SOL    HW222104   2.529   1.745   8.844  0.1428  0.2372 -0.6831
 3548SOL     OW22105   2.539   0.019   3.482 -0.0541  0.1583  0.2451
 3548SOL    HW122106   2.462   0.074   3.495  0.5117  1.4046 -1.6648
 3548SOL    HW222107   2.605   0.081   3.451  0.5523 -0.9852 -0.7523
 3549SOL     OW22108   1.893   0.880   9.951  0.3405  0.6060 -0.2993
 3549SOL    HW122109   1.866   0.972   9.957  0.4361  0.5457  1.0610
 3549SOL    HW222110   1.814   0.827   9.966 -0.3023  1.0790 -2.0425
 3550SOL     OW22111   1.661   3.621  10.951  0.8236 -0.4813  0.0773
 3550SOL    HW122112   1.606   3.654  10.880  2.4051 -0.1108 -0.9860
 3550SOL    HW222113   1.725   3.693  10.955  0.7785 -0.5346  1.5897
 3551SOL     OW22114   2.109   0.476   4.836 -0.0142  0.5832 -0.1908
 3551SOL    HW122115   2.016   0.464   4.819 -0.1478 -0.1658  1.0912
 3551SOL    HW222116   2.139   0.481   4.745 -1.4075 -0.0144 -0.6875
 3552SOL     OW22117   0.473   1.856   7.383  0.1734  0.4511  0.7210
 3552SOL    HW122118   0.410   1.919   7.419 -0.9725 -1.0595  1.4005
 3552SOL    HW222119   0.552   1.909   7.393  1.2849 -0.8816 -1.1814
 3553SOL     OW22120   2.404   0.874   8.251 -0.1237  0.2543 -0.0338
 3553SOL    HW122121   2.428   0.817   8.178 -1.2120  0.5125 -0.5987
 3553SOL    HW222122   2.359   0.948   8.210 -0.7268 -1.7527 -2.9758
 3554SOL     OW22123   2.026   2.387   3.928  0.5959  1.1502  0.6109
 3554SOL    HW122124   2.075   2.418   4.004  2.3174  2.3439 -0.9891
 3554SOL    HW222125   2.083   2.429   3.864 -1.2093  0.5677 -1.4186
 3555SOL     OW22126   2.438   3.342  11.977  0.4967  0.2418 -0.2457
 3555SOL    HW122127   2.355   3.389  11.971  0.5898  0.3126 -1.0475
 3555SOL    HW222128   2.500   3.414  11.969  0.4120  0.3378 -0.0475
 3556SOL     OW22129   2.576   0.392   1.878 -0.6375 -0.4108  0.2172
 3556SOL    HW122130   2.545   0.394   1.787  0.9217 -1.1488 -0.3384
 3556SOL    HW222131   2.657   0.442   1.868  0.5397 -2.2126  0.7005
 3557SOL     OW22132   2.046   2.715  13.182 -0.4584  0.0281 -0.1001
 3557SOL    HW122133   2.108   2.786  13.198  1.6027 -1.9827  0.7331
 3557SOL    HW222134   1.964   2.762  13.200  1.6194  3.7224 -0.2485
 3558SOL     OW22135   2.723   4.002   3.217 -0.0556 -0.0046  0.3791
 3558SOL    HW122136   2.659   4.045   3.274  0.0836  1.9721 -0.9754
 3558SOL    HW222137   2.731   4.066   3.146 -3.0564  0.8386  0.8047
 3559SOL     OW22138   0.246   0.110   9.904  0.1988 -0.1280 -0.5594
 3559SOL    HW122139   0.173   0.100   9.843 -0.1400 -1.2837  0.0451
 3559SOL    HW222140   0.267   0.017   9.908  0.4144  0.0605  2.7167
 3560SOL     OW22141   2.513   3.020  17.469  0.4799 -0.6289 -0.5070
 3560SOL    HW122142   2.426   3.044  17.501  1.0144 -0.5603  0.9014
 3560SOL    HW222143   2.543   3.105  17.436  2.0524 -0.5662  1.1021
 3561SOL     OW22144   2.819   0.365   9.883 -0.5528  0.3208 -0.3755
 3561SOL    HW122145   2.889   0.344   9.944 -0.7871  3.1064  0.8745
 3561SOL    HW222146   2.768   0.285   9.869  0.6994 -0.3424 -1.1398
 3562SOL     OW22147   3.730   1.756   3.975 -0.6823  0.1408 -0.1924
 3562SOL    HW122148   3.663   1.723   4.034  0.2369 -0.2288  0.6476
 3562SOL    HW222149   3.681   1.821   3.924 -1.1746  0.0514  0.1679
 3563SOL     OW22150   1.748   0.541   5.547 -0.2808 -0.2322  0.4114
 3563SOL    HW122151   1.733   0.580   5.633  1.9154  2.4842 -0.4328
 3563SOL    HW222152   1.839   0.566   5.529 -0.4907 -0.9234 -1.6279
 3564SOL     OW22153   1.122   3.685   6.838 -0.2365  0.1219 -0.3899
 3564SOL    HW122154   1.152   3.603   6.878  0.8257 -0.1037 -1.6587
 3564SOL    HW222155   1.105   3.741   6.915  0.2760 -0.6843  0.3122
 3565SOL     OW22156   0.002   1.285  13.659  0.1497 -0.1884 -0.3992
 3565SOL    HW122157   4.680   1.365  13.627 -1.5363 -0.1644  1.7819
 3565SOL    HW222158   0.094   1.311  13.656  0.0431  0.2969  0.7026
 3566SOL     OW22159   2.287   3.732  14.679  0.2390 -0.1025  0.4097
 3566SOL    HW122160   2.192   3.742  14.666  0.0575 -1.0721  0.9835
 3566SOL    HW222161   2.300   3.650  14.629 -1.0913  0.6677 -1.2075
 3567SOL     OW22162   3.194   4.559  17.313 -0.2171 -0.0619  0.6312
 3567SOL    HW122163   3.220   4.637  17.362 -1.4761  0.7997 -0.1000
 3567SOL    HW222164   3.158   4.503  17.382  0.5419 -1.1120  0.1753
 3568SOL     OW22165   4.357   0.841   2.632  0.5229  0.2365  0.0800
 3568SOL    HW122166   4.372   0.778   2.561  0.7615  1.5786 -1.0527
 3568SOL    HW222167   4.435   0.826   2.685  0.9019  0.2620 -0.4647
 3569SOL     OW22168   2.856   2.271   6.100 -0.0928 -0.3672  0.2311
 3569SOL    HW122169   2.864   2.366   6.093  1.7001 -0.5012  0.4692
 3569SOL    HW222170   2.948   2.247   6.103  0.4713  1.5455 -2.1256
 3570SOL     OW22171   2.202   1.339   6.673  0.0369 -0.3389  0.1778
 3570SOL    HW122172   2.231   1.412   6.619  1.4881 -0.5147  0.7307
 3570SOL    HW222173   2.272   1.280   6.647  0.4241 -0.5250  1.6645
 3571SOL     OW22174   1.370   1.308   9.075 -0.3928  0.0321  0.7332
 3571SOL    HW122175   1.454   1.264   9.066 -1.6119 -2.2235  0.4362
 3571SOL    HW222176   1.317   1.229   9.086 -1.1474  0.5214  0.6435
 3572SOL     OW22177   2.705   0.210  16.726 -0.0203 -0.4011  0.1606
 3572SOL    HW122178   2.680   0.284  16.781  2.8609  1.9366 -1.7461
 3572SOL    HW222179   2.760   0.249  16.658  1.4358  0.3602  1.7735
 3573SOL     OW22180   2.649   4.633   2.500 -0.5030 -0.0833 -0.1525
 3573SOL    HW122181   2.673   4.540   2.496 -0.1370 -0.0070  0.2796
 3573SOL    HW222182   2.602   4.646   2.582 -3.2999  0.3573 -1.8221
 3574SOL     OW22183   3.813   4.092   7.326 -0.9392 -0.4992 -0.1331
 3574SOL    HW122184   3.732   4.122   7.367 -1.8776 -2.0816 -0.8591
 3574SOL    HW222185   3.843   4.046   7.404  0.5203  0.0664 -0.3565
 3575SOL     OW22186   4.475   1.956   4.295 -0.6540  0.0445  0.1881
 3575SOL    HW122187   4.394   1.992   4.259 -1.0512  0.5707  1.6210
 3575SOL    HW222188   4.526   1.944   4.215 -1.2109  0.3992 -0.2195
 3576SOL     OW22189   1.776   2.612   7.670  1.0283  0.2256 -0.6878
 3576SOL    HW122190   1.698   2.666   7.658  0.2427 -0.4175  1.4909
 3576SOL    HW222191   1.750   2.533   7.623 -0.9557  0.5130 -0.0588
 3577SOL     OW22192   0.120   3.220  11.363 -0.1089 -0.0582  0.2083
 3577SOL    HW122193   0.198   3.248  11.316 -0.0520 -1.4033 -0.4920
 3577SOL    HW222194   0.059   3.284  11.327 -0.5540 -0.7380 -0.2169
 3578SOL     OW22195   3.557   0.359   1.718  0.0457  0.2012 -0.1929
 3578SOL    HW122196   3.519   0.402   1.641  0.1930  2.0178  0.7571
 3578SOL    HW222197   3.491   0.367   1.788 -0.0931 -0.2873 -0.2642
 3579SOL     OW22198   3.443   0.266   4.333 -0.2997 -0.3946  0.5888
 3579SOL    HW122199   3.518   0.286   4.276 -1.1801  0.6115 -0.2167
 3579SOL    HW222200   3.493   0.203   4.385 -0.9351 -0.4908  1.0746
 3580SOL     OW22201   4.258   3.691  15.540  0.9833  0.0096 -0.1361
 3580SOL    HW122202   4.291   3.729  15.622  3.0756 -0.2821 -0.8422
 3580SOL    HW222203   4.242   3.774  15.494 -0.8857  0.6352  1.6505
 3581SOL     OW22204   0.900   3.460  11.212 -1.0732  0.3855  0.2655
 3581SOL    HW122205   0.899   3.506  11.128 -0.1813 -3.0527 -1.6103
 3581SOL    HW222206   0.885   3.374  11.172  4.0090 -0.5294  0.3109
 3582SOL     OW22207   2.167   0.788   3.791  0.2190 -0.1010 -0.1903
 3582SOL    HW122208   2.088   0.797   3.737  1.6774  3.4469 -1.7570
 3582SOL    HW222209   2.215   0.730   3.732  1.9573  0.5886  0.5252
 3583SOL     OW22210   3.945   1.491  11.675  0.7020  0.2569 -0.0948
 3583SOL    HW122211   3.975   1.403  11.698  0.0188  0.2654  0.8395
 3583SOL    HW222212   3.894   1.471  11.596 -1.2236 -2.5820  1.8570
 3584SOL     OW22213   1.872   1.013   2.895 -0.3136 -0.2371  0.0706
 3584SOL    HW122214   1.829   0.950   2.836 -1.2576 -0.1297  0.6416
 3584SOL    HW222215   1.899   1.083   2.836  2.8552 -2.4825 -1.1147
 3585SOL     OW22216   2.264   4.584   3.705 -0.3512  0.1203 -0.3015
 3585SOL    HW122217   2.252   4.493   3.677  3.2010 -0.2690 -0.5434
 3585SOL    HW222218   2.270   4.576   3.800 -1.2617  2.3056 -0.0755
 3586SOL     OW22219   3.499   1.334   4.974  0.2946  0.4382 -0.3278
 3586SOL    HW122220   3.557   1.366   5.043  0.2847 -2.1428  0.8808
 3586SOL    HW222221   3.468   1.417   4.937 -0.4350  0.1763 -0.3129
 3587SOL     OW22222   1.752   3.822   9.734 -0.5632 -0.0769 -0.0406
 3587SOL    HW122223   1.718   3.733   9.723  2.0021 -0.8871 -1.2236
 3587SOL    HW222224   1.841   3.814   9.769 -1.1286 -0.8142  1.2128
 3588SOL     OW22225   2.558   2.578  12.311 -0.4568  0.1194 -0.2042
 3588SOL    HW122226   2.515   2.511  12.258 -0.4139 -0.5849  0.6361
 3588SOL    HW222227   2.610   2.514  12.360 -0.1533  1.1866  0.8743
 3589SOL     OW22228   3.056   0.164  12.256  0.2152 -0.8039 -0.0614
 3589SOL    HW122229   3.027   0.077  12.230  0.0399 -0.6795 -0.2810
 3589SOL    HW222230   2.976   0.214  12.239  0.0248 -0.9305  0.4837
 3590SOL     OW22231   0.118   4.080   2.368 -0.2592 -0.0531  0.0590
 3590SOL    HW122232   0.050   4.028   2.412  2.9624 -2.4031  2.2221
 3590SOL    HW222233   0.161   4.131   2.437  1.5298  0.7368 -1.6321
 3591SOL     OW22234   3.402   4.249   4.166  0.2391 -0.0518 -0.3582
 3591SOL    HW122235   3.486   4.293   4.176  1.5392 -2.8889  1.1278
 3591SOL    HW222236   3.434   4.167   4.128 -0.7974  0.2026 -1.7934
 3592SOL     OW22237   3.712   1.064   7.691 -1.0668 -0.3946 -0.3853
 3592SOL    HW122238   3.759   1.030   7.615 -0.2868 -3.9872  1.6729
 3592SOL    HW222239   3.699   1.153   7.659 -2.1869 -0.0533  1.0354
 3593SOL     OW22240   3.391   3.557   4.772  0.3555 -0.1674  0.0078
 3593SOL    HW122241   3.403   3.465   4.750 -1.6554 -0.2036 -0.9198
 3593SOL    HW222242   3.472   3.567   4.823  0.6727  3.3199 -1.1990
 3594SOL     OW22243   0.154   0.196   5.442 -0.0817  0.1977 -0.0295
 3594SOL    HW122244   0.086   0.261   5.461  0.7847  1.2944 -0.6884
 3594SOL    HW222245   0.189   0.220   5.357  0.3733 -0.4032 -0.0091
 3595SOL     OW22246   4.207   3.698   6.042  0.3716  0.5114  0.4696
 3595SOL    HW122247   4.202   3.755   5.965  0.4950 -0.1805 -0.0530
 3595SOL    HW222248   4.291   3.719   6.082  0.5578  0.0629  0.3091
 3596SOL     OW22249   2.033   1.542  15.101 -0.1751  0.0376  0.4028
 3596SOL    HW122250   1.991   1.459  15.122 -1.1176  0.6950  1.1428
 3596SOL    HW222251   1.961   1.605  15.106 -1.1794 -1.1262  0.6297
 3597SOL     OW22252   0.772   2.946  10.042  0.4002 -0.2195  0.2587
 3597SOL    HW122253   0.748   2.877   9.980  1.9291 -1.5268  1.0911
 3597SOL    HW222254   0.807   3.007   9.978 -4.3167  1.8120 -0.3631
 3598SOL     OW22255   3.121   2.347   5.826 -0.0478 -0.4901 -0.1848
 3598SOL    HW122256   3.144   2.374   5.915 -0.8541  2.4884 -0.8506
 3598SOL    HW222257   3.157   2.420   5.775  1.2913  0.2222  1.7897
 3599SOL     OW22258   4.705   2.784   8.200  0.1067  0.1265  0.1224
 3599SOL    HW122259   4.707   2.761   8.293  3.4703 -1.0493 -0.2313
 3599SOL    HW222260   4.612   2.789   8.177  0.1111 -1.2989 -0.1797
 3600SOL     OW22261   3.861   1.350   4.522 -0.2269 -0.2411 -0.1839
 3600SOL    HW122262   3.794   1.392   4.578  0.0478  0.4335 -0.3615
 3600SOL    HW222263   3.913   1.428   4.503  0.3693 -0.9683 -1.4738
 3601SOL     OW22264   1.347   2.897  17.038 -0.2117  0.5782  0.3120
 3601SOL    HW122265   1.368   2.804  17.027  0.1402  0.7521 -0.4546
 3601SOL    HW222266   1.322   2.910  17.129  1.8963 -0.1181  0.9973
 3602SOL     OW22267   0.911   3.249   1.068 -0.0968 -0.3650  0.2321
 3602SOL    HW122268   0.862   3.220   0.992  2.5711 -0.1798 -1.5672
 3602SOL    HW222269   0.962   3.323   1.036 -0.5200 -0.4468 -0.6310
 3603SOL     OW22270   4.434   1.459   4.821 -0.1190 -0.0664 -0.3124
 3603SOL    HW122271   4.341   1.470   4.801 -0.2784 -1.9366 -0.5838
 3603SOL    HW222272   4.441   1.394   4.891  2.3959 -0.0837 -0.5541
 3604SOL     OW22273   0.137   0.452   4.165 -0.1792  0.4452 -0.5674
 3604SOL    HW122274   0.160   0.523   4.105  1.2496  1.1230  0.7816
 3604SOL    HW222275   0.047   0.481   4.177 -0.2193 -0.7725  2.0631
 3605SOL     OW22276   0.452   0.455   2.469  0.0765 -0.2032 -0.2333
 3605SOL    HW122277   0.443   0.384   2.533  1.7715 -0.1584  0.0405
 3605SOL    HW222278   0.455   0.400   2.390  1.3795 -0.3000 -0.1218
 3606SOL     OW22279   3.590   3.334   5.427  0.1688  0.1208 -0.4590
 3606SOL    HW122280   3.594   3.373   5.339 -1.4279  1.2147 -0.0535
 3606SOL    HW222281   3.619   3.409   5.480 -0.1797 -0.0139 -0.0747
 3607SOL     OW22282   4.663   1.722   2.214 -0.1127  0.1729  0.2324
 3607SOL    HW122283   4.618   1.770   2.283 -0.4505  1.6799 -1.0579
 3607SOL    HW222284   4.582   1.701   2.167  1.5961 -1.4271 -2.0228
 3608SOL     OW22285   4.631   2.760  14.542 -0.3737  0.0964  0.0003
 3608SOL    HW122286   4.716   2.723  14.522 -0.4015  0.1299 -0.1752
 3608SOL    HW222287   4.626   2.774  14.637  0.7613  0.0925  0.0541
 3609SOL     OW22288   4.539   3.601  11.689 -0.0350 -0.0425 -0.5440
 3609SOL    HW122289   4.617   3.545  11.690 -0.0867 -0.1153 -0.6487
 3609SOL    HW222290   4.514   3.600  11.782 -1.0682 -0.0701 -0.8228
 3610SOL     OW22291   3.920   2.512   6.413  0.3384  0.0951 -0.6120
 3610SOL    HW122292   3.847   2.471   6.367  1.8302 -0.5167 -2.4710
 3610SOL    HW222293   3.886   2.545   6.496  0.5381  0.7754 -0.8028
 3611SOL     OW22294   2.824   3.925   6.759 -0.0751 -0.0823 -0.8247
 3611SOL    HW122295   2.739   3.906   6.798 -0.2618  0.1429 -1.1234
 3611SOL    HW222296   2.823   4.021   6.750  0.6502 -0.1021 -1.1349
 3612SOL     OW22297   4.602   2.926   5.145  0.2744 -0.1680 -0.3783
 3612SOL    HW122298   4.675   2.883   5.190  0.3738 -0.9980 -1.3149
 3612SOL    HW222299   4.540   2.859   5.115  0.8864 -1.1649  0.6087
 3613SOL     OW22300   1.123   2.426   8.868 -0.2940  0.0451 -0.7148
 3613SOL    HW122301   1.160   2.375   8.796 -0.2439 -0.5029 -0.2976
 3613SOL    HW222302   1.092   2.503   8.820  1.9979  1.7028  0.4200
 3614SOL     OW22303   3.156   2.425   1.959 -0.0090  0.0365 -0.0168
 3614SOL    HW122304   3.230   2.387   1.912  0.5685  0.5182  0.4988
 3614SOL    HW222305   3.134   2.362   2.028 -0.1931  0.0239 -0.0873
 3615SOL     OW22306   0.163   1.248   5.744 -0.1313  0.2516  0.3981
 3615SOL    HW122307   0.105   1.321   5.722 -1.8361 -1.3730 -0.4465
 3615SOL    HW222308   0.128   1.218   5.829 -0.0383  2.4133  1.1978
 3616SOL     OW22309   1.073   3.525   3.486 -0.2247 -0.2540 -0.1432
 3616SOL    HW122310   1.138   3.454   3.489  2.0500  1.8412  0.8237
 3616SOL    HW222311   1.119   3.588   3.431 -1.6787  0.6914 -0.2641
 3617SOL     OW22312   4.486   1.110   6.408 -0.1803 -0.1617  0.7463
 3617SOL    HW122313   4.494   1.077   6.498  0.8453  1.4954  1.2504
 3617SOL    HW222314   4.561   1.062   6.373 -2.0872 -2.3283 -0.4203
 3618SOL     OW22315   3.925   4.486   5.056  0.7537 -0.0583  0.2569
 3618SOL    HW122316   3.898   4.473   4.965 -0.9425  0.0049  0.7339
 3618SOL    HW222317   4.017   4.503   5.037  0.9259  0.0580  1.2312
 3619SOL     OW22318   1.814   1.999   5.141 -0.2104  0.3486 -0.1912
 3619SOL    HW122319   1.886   2.050   5.104 -2.0894  2.3481 -1.0733
 3619SOL    HW222320   1.828   1.913   5.101 -2.0866  1.1667 -2.5722
 3620SOL     OW22321   1.576   0.695   5.227  0.3018  0.4611 -0.3144
 3620SOL    HW122322   1.512   0.764   5.214  0.2602  0.5577  0.3963
 3620SOL    HW222323   1.663   0.730   5.208  0.4670 -0.3198 -1.0349
 3621SOL     OW22324   0.079   2.829   5.268  0.4576 -0.2731 -0.3285
 3621SOL    HW122325   0.097   2.773   5.344 -1.1679 -1.0682 -0.5421
 3621SOL    HW222326   0.158   2.884   5.270 -0.3002  0.9032 -2.1374
 3622SOL     OW22327   3.731   2.567   4.579  0.3979  0.2214 -0.0322
 3622SOL    HW122328   3.709   2.628   4.509  0.0996  1.7964  1.4295
 3622SOL    HW222329   3.731   2.479   4.542  1.6809  0.9167 -1.6837
 3623SOL     OW22330   2.791   3.951  12.135  0.4058 -0.2779  0.1433
 3623SOL    HW122331   2.819   3.909  12.217  0.6646 -1.6273 -0.6473
 3623SOL    HW222332   2.840   3.909  12.065  2.8561  1.5438  0.7906
 3624SOL     OW22333   2.682   0.781   2.907 -0.9546 -0.2212  0.3974
 3624SOL    HW122334   2.626   0.843   2.953  0.1159 -0.6159  2.2516
 3624SOL    HW222335   2.708   0.836   2.834 -1.3365 -1.4548 -0.6670
 3625SOL     OW22336   0.089   0.311   2.731 -0.2057 -0.2214  0.3229
 3625SOL    HW122337   0.171   0.285   2.690  0.2679  1.1893  0.3877
 3625SOL    HW222338   0.065   0.384   2.674  1.3157  0.1918  0.2177
 3626SOL     OW22339   4.329   2.340   0.669  0.0916  0.4296 -1.0096
 3626SOL    HW122340   4.335   2.417   0.727 -1.2982 -0.9731  0.9818
 3626SOL    HW222341   4.249   2.354   0.618  0.2443 -1.0985 -1.6666
 3627SOL     OW22342   0.970   1.431  13.085 -0.0475 -0.6540  0.0460
 3627SOL    HW122343   0.883   1.422  13.047 -0.1400 -1.1358  0.3750
 3627SOL    HW222344   1.012   1.488  13.020 -1.3135 -1.6313 -1.6326
 3628SOL     OW22345   3.240   1.517  12.046 -0.4684  0.3315 -0.0741
 3628SOL    HW122346   3.258   1.450  12.112 -0.8055  0.3056 -0.0091
 3628SOL    HW222347   3.232   1.589  12.108  3.2058 -0.6357  1.5314
 3629SOL     OW22348   2.155   0.391   1.182  0.3040 -0.0602 -0.3985
 3629SOL    HW122349   2.138   0.440   1.101  1.6658  0.5771 -0.2988
 3629SOL    HW222350   2.151   0.465   1.242 -1.6511  1.1129 -1.9705
 3630SOL     OW22351   3.699   2.686   8.759  0.1027  0.6989 -0.2360
 3630SOL    HW122352   3.740   2.605   8.727 -0.5009  0.4200 -0.3196
 3630SOL    HW222353   3.622   2.643   8.797 -0.5567  1.2939 -0.9156
 3631SOL     OW22354   2.228   4.614  10.471  0.4339  0.2407 -0.4061
 3631SOL    HW122355   2.293   4.611  10.400  0.9311  0.6880  0.0235
 3631SOL    HW222356   2.284   4.628  10.548 -1.6281  1.3502  0.8942
 3632SOL     OW22357   2.737   4.701   7.433  0.0689  0.3220 -0.6761
 3632SOL    HW122358   2.736   4.634   7.501 -1.4762 -0.4659 -1.4789
 3632SOL    HW222359   2.644   4.701   7.409 -0.1847 -3.5157  0.4196
 3633SOL     OW22360   0.027   2.856   8.490  0.7342  0.0237  0.0896
 3633SOL    HW122361   0.076   2.877   8.570  1.1702  1.7880 -0.6532
 3633SOL    HW222362   0.068   2.925   8.438  2.1248  0.0691  1.2243
 3634SOL     OW22363   1.084   2.468  15.757  0.3471  0.3930 -0.0420
 3634SOL    HW122364   1.121   2.434  15.675 -0.9394  0.1832 -0.5237
 3634SOL    HW222365   0.989   2.464  15.747 -0.0040 -0.5043  3.5173
 3635SOL     OW22366   2.634   2.883   3.915  0.0472 -0.4720  0.5305
 3635SOL    HW122367   2.647   2.973   3.946 -1.3973 -0.5155  1.2685
 3635SOL    HW222368   2.598   2.836   3.990 -0.2010 -0.7728  0.2231
 3636SOL     OW22369   4.535   1.797   7.119  0.3506 -0.2280 -0.0964
 3636SOL    HW122370   4.470   1.808   7.050 -1.6629 -0.7822  1.7318
 3636SOL    HW222371   4.522   1.874   7.173 -0.4814 -0.2267 -0.2953
 3637SOL     OW22372   3.596   4.474   7.375  0.0422 -0.5026 -0.0809
 3637SOL    HW122373   3.623   4.425   7.298  0.8428 -0.0230 -0.0950
 3637SOL    HW222374   3.503   4.497   7.364  0.3527 -0.0326 -1.6456
 3638SOL     OW22375   4.522   1.869   0.654 -0.3808  0.5449 -0.0997
 3638SOL    HW122376   4.458   1.939   0.662 -0.7330  0.0789  1.2254
 3638SOL    HW222377   4.511   1.818   0.734  0.0641 -1.0673 -1.0654
 3639SOL     OW22378   2.675   0.072  12.985 -0.6931 -0.4559 -0.6703
 3639SOL    HW122379   2.605   0.017  13.020 -0.5528 -0.9364 -1.1497
 3639SOL    HW222380   2.668   0.040  12.895  1.3807 -1.7349 -0.3772
 3640SOL     OW22381   3.149   4.498  14.165 -0.3037  0.6501  0.4600
 3640SOL    HW122382   3.149   4.442  14.242  2.1110  1.4098  0.9917
 3640SOL    HW222383   3.068   4.479  14.116 -0.4294 -0.8380  1.2284
 3641SOL     OW22384   0.501   0.282   7.741 -0.4540  0.6207 -0.1813
 3641SOL    HW122385   0.529   0.262   7.651  3.5932  0.9583  1.0148
 3641SOL    HW222386   0.460   0.197   7.755 -1.2701  0.9960 -0.3290
 3642SOL     OW22387   2.050   3.723   5.848 -0.4514  0.2072 -0.1733
 3642SOL    HW122388   2.107   3.666   5.796  1.9359  1.9888  0.5141
 3642SOL    HW222389   2.023   3.784   5.780  1.6337 -1.9009 -2.8962
 3643SOL     OW22390   0.626   0.549   6.080 -0.1935 -0.3678  0.2959
 3643SOL    HW122391   0.636   0.631   6.031 -1.5958 -1.7648 -2.3169
 3643SOL    HW222392   0.697   0.494   6.044 -1.9776 -1.7549 -1.1037
 3644SOL     OW22393   2.835   0.446   7.649 -0.1285 -0.4021 -0.1243
 3644SOL    HW122394   2.845   0.355   7.621 -1.1804 -0.4247 -0.4134
 3644SOL    HW222395   2.753   0.463   7.603 -0.6360 -0.9206  0.5795
 3645SOL     OW22396   4.411   0.636   7.149  0.2008 -0.2260  0.7740
 3645SOL    HW122397   4.428   0.730   7.144  2.7651 -0.6728  0.9875
 3645SOL    HW222398   4.384   0.610   7.061  0.5075 -1.8788  1.1634
 3646SOL     OW22399   1.829   1.314   3.778 -0.6124 -0.1437  0.6408
 3646SOL    HW122400   1.734   1.325   3.776 -0.4204  1.4431 -0.2696
 3646SOL    HW222401   1.845   1.234   3.729 -0.0438  0.1437  0.3519
 3647SOL     OW22402   3.934   0.567  11.092 -0.5872 -0.0568 -0.3517
 3647SOL    HW122403   3.971   0.505  11.155  1.1404  1.8376  0.5002
 3647SOL    HW222404   4.013   0.591  11.044 -2.1038  3.4405 -1.0810
 3648SOL     OW22405   1.550   1.167   8.407  0.1572  0.0764 -0.2046
 3648SOL    HW122406   1.476   1.149   8.465  0.0748 -1.4061 -0.7735
 3648SOL    HW222407   1.555   1.084   8.360 -2.1915  1.3162 -2.6558
 3649SOL     OW22408   3.178   3.433   7.321 -0.6331  0.3152  0.0392
 3649SOL    HW122409   3.117   3.503   7.344 -1.6078 -0.0992 -1.2931
 3649SOL    HW222410   3.112   3.364   7.318  0.3755 -0.6167 -0.6707
 3650SOL     OW22411   2.696   4.133   7.217 -0.0180 -0.8248  0.4482
 3650SOL    HW122412   2.771   4.118   7.160 -0.0377 -0.3811  0.3109
 3650SOL    HW222413   2.682   4.226   7.203  1.6772 -1.0263 -2.4753
 3651SOL     OW22414   4.063   4.171  15.585  0.3606 -0.2205 -0.6823
 3651SOL    HW122415   4.144   4.132  15.554  1.7024  0.9451  1.3307
 3651SOL    HW222416   4.039   4.099  15.643 -0.3942  0.3299 -0.3104
 3652SOL     OW22417   1.077   4.136   7.722  0.4922  0.0669  0.1146
 3652SOL    HW122418   0.986   4.107   7.711  0.7162 -0.4002 -0.4569
 3652SOL    HW222419   1.103   4.052   7.759 -1.4565 -0.8992 -0.6976
 3653SOL     OW22420   2.779   0.292   3.933  0.0255 -0.2848  0.3935
 3653SOL    HW122421   2.764   0.334   3.848 -1.0710 -1.2523  0.1098
 3653SOL    HW222422   2.707   0.229   3.923 -0.1267 -0.4078  2.2597
 3654SOL     OW22423   1.991   1.724   5.785  0.0680 -0.1110 -0.2233
 3654SOL    HW122424   1.971   1.648   5.731  0.4368 -0.7875  0.6037
 3654SOL    HW222425   1.949   1.798   5.740  0.9658  0.8642  0.5304
 3655SOL     OW22426   2.116   0.580   8.133  0.1439 -0.1863 -0.3839
 3655SOL    HW122427   2.187   0.518   8.120 -0.2176 -1.0844  1.8118
 3655SOL    HW222428   2.044   0.542   8.083 -1.6188  0.2410  1.7926
 3656SOL     OW22429   0.509   4.379   5.456 -0.1492 -0.3201 -0.3968
 3656SOL    HW122430   0.446   4.321   5.498  0.5527  0.1154  1.2652
 3656SOL    HW222431   0.464   4.447   5.406  0.5682  0.9693  0.6982
 3657SOL     OW22432   0.556   2.339  11.049 -0.4514 -0.0407 -0.0973
 3657SOL    HW122433   0.542   2.423  11.092 -0.4152  1.4361 -2.9897
 3657SOL    HW222434   0.470   2.328  11.009 -1.6507 -0.6481  2.5910
 3658SOL     OW22435   2.653   3.014   5.135 -0.2882  0.4762 -0.3169
 3658SOL    HW122436   2.619   2.934   5.174  1.0390  0.3769  0.6400
 3658SOL    HW222437   2.723   3.023   5.199  0.4460 -0.9803 -0.9202
 3659SOL     OW22438   3.062   2.801   8.219  0.0547  0.1519 -0.2926
 3659SOL    HW122439   3.056   2.771   8.128  1.1353 -0.9082 -0.0179
 3659SOL    HW222440   3.096   2.723   8.262  0.7803  0.1047 -0.9444
 3660SOL     OW22441   2.326   2.221   5.074 -0.1897 -0.0534  0.1447
 3660SOL    HW122442   2.366   2.153   5.021 -2.8514 -0.9814 -0.6348
 3660SOL    HW222443   2.324   2.181   5.161  0.4394  1.2895  0.7898
 3661SOL     OW22444   1.905   4.386   6.286 -0.0734 -0.1090  0.6460
 3661SOL    HW122445   1.964   4.428   6.348  1.8373 -0.1383 -1.1714
 3661SOL    HW222446   1.966   4.363   6.216 -0.8720 -1.0529  0.2503
 3662SOL     OW22447   0.746   0.058   0.184  0.2446  0.3177  0.3743
 3662SOL    HW122448   0.684   0.130   0.180  1.6947  1.4657 -1.7406
 3662SOL    HW222449   0.744   0.029   0.275 -1.4752  1.1024  0.5774
 3663SOL     OW22450   3.072   2.612   3.743 -0.4978  0.6984  0.3646
 3663SOL    HW122451   3.089   2.545   3.809 -1.6240  0.8877  0.8335
 3663SOL    HW222452   3.136   2.682   3.757  0.4151 -0.0058 -0.2457
 3664SOL     OW22453   2.625   0.128  12.381  0.3926 -0.7202 -0.6311
 3664SOL    HW122454   2.686   0.198  12.360  0.3832 -0.3904  0.4329
 3664SOL    HW222455   2.685   0.063  12.419  0.2230  0.2307  1.2724
 3665SOL     OW22456   4.211   0.980  16.879  0.3616 -0.6437  0.9556
 3665SOL    HW122457   4.275   1.048  16.898 -0.5035  0.8674 -1.4804
 3665SOL    HW222458   4.240   0.967  16.788 -0.3606  1.9658  0.3613
 3666SOL     OW22459   4.632   0.564   2.219 -0.7044  0.1735  0.1756
 3666SOL    HW122460   4.677   0.527   2.295 -0.8592  1.1397  0.7435
 3666SOL    HW222461   4.687   0.641   2.202  0.8750 -0.6297  1.5906
 3667SOL     OW22462   3.528   1.157   7.317  0.2277 -0.3224 -0.7591
 3667SOL    HW122463   3.524   1.138   7.223  0.6364  0.9793 -1.0453
 3667SOL    HW222464   3.531   1.253   7.317  2.1813 -0.3911  1.1211
 3668SOL     OW22465   3.201   0.685   7.304  0.6309 -0.1092  0.4289
 3668SOL    HW122466   3.284   0.642   7.323  1.9849  1.6246 -1.5502
 3668SOL    HW222467   3.183   0.735   7.384  0.4934 -0.7516  0.7979
 3669SOL     OW22468   0.975   0.299   3.444  0.8989 -0.2325 -0.0407
 3669SOL    HW122469   0.969   0.364   3.374  1.3335 -1.4421 -1.2034
 3669SOL    HW222470   0.917   0.341   3.508 -0.5962 -0.4609 -1.2505
 3670SOL     OW22471   1.548   3.981   1.488 -0.6830  0.0128 -0.9025
 3670SOL    HW122472   1.571   3.991   1.581  0.2753  0.7487 -1.2187
 3670SOL    HW222473   1.454   3.998   1.482 -0.9448 -0.7416  0.8652
 3671SOL     OW22474   3.776   3.108   3.403  0.4019  0.4876 -0.9372
 3671SOL    HW122475   3.827   3.186   3.424  2.5591 -0.6249 -2.0040
 3671SOL    HW222476   3.775   3.118   3.307 -2.0576  2.4720 -0.6945
 3672SOL     OW22477   2.680   3.988   5.124 -0.4156 -0.0349 -0.0893
 3672SOL    HW122478   2.679   4.004   5.030 -0.0722  2.0067  0.2651
 3672SOL    HW222479   2.697   4.077   5.155  0.3441 -0.3277  0.3448
 3673SOL     OW22480   0.474   3.530   3.658 -0.5613  0.0833 -0.4866
 3673SOL    HW122481   0.547   3.592   3.669 -0.9208  0.4595 -0.2292
 3673SOL    HW222482   0.498   3.499   3.570  1.0022 -2.3346  0.7944
 3674SOL     OW22483   4.537   4.189   3.582 -0.7290 -0.3750  0.1492
 3674SOL    HW122484   4.591   4.268   3.574 -2.7763  1.1523  1.2359
 3674SOL    HW222485   4.555   4.141   3.502  1.2001 -1.0828  1.0033
 3675SOL     OW22486   3.124   4.320  14.360  0.0029  0.5591 -0.1648
 3675SOL    HW122487   3.157   4.313  14.450 -1.6511  1.7447  0.5418
 3675SOL    HW222488   3.046   4.264  14.365  0.9775 -0.9393 -1.7957
 3676SOL     OW22489   4.025   0.857   4.092  0.0900  0.8317 -0.0045
 3676SOL    HW122490   4.021   0.845   4.186  0.2456  1.9030  0.1367
 3676SOL    HW222491   4.056   0.948   4.083  1.2334  0.4770  0.2826
 3677SOL     OW22492   2.245   1.386   7.134 -0.4425  0.2969 -0.2032
 3677SOL    HW122493   2.232   1.320   7.202  2.5078 -1.0743 -0.9719
 3677SOL    HW222494   2.336   1.413   7.151 -0.4865 -1.4603  2.8836
 3678SOL     OW22495   3.457   3.579   2.788  0.1100  0.2179 -0.2726
 3678SOL    HW122496   3.380   3.531   2.756  0.3180 -0.5416  0.3529
 3678SOL    HW222497   3.522   3.563   2.720 -0.7447 -1.0655 -0.7899
 3679SOL     OW22498   3.210   2.110   3.346 -0.3593  0.2894  0.3811
 3679SOL    HW122499   3.161   2.168   3.288  0.6275 -0.1127 -0.8591
 3679SOL    HW222500   3.285   2.079   3.295 -0.2563 -0.8385  1.2392
 3680SOL     OW22501   0.669   0.109   9.292  0.8516  0.0641  0.5553
 3680SOL    HW122502   0.748   0.163   9.296  0.2362  0.9263  1.0659
 3680SOL    HW222503   0.694   0.043   9.356  0.3863  1.6012  2.3188
 3681SOL     OW22504   4.651   0.802   5.227  0.4866 -0.3249  0.1103
 3681SOL    HW122505   4.634   0.882   5.277 -3.0485 -0.7563 -0.4082
 3681SOL    HW222506   4.660   0.736   5.295  0.6027 -1.8251 -1.3529
 3682SOL     OW22507   0.790   1.912   2.561 -0.1280  0.3773 -0.0210
 3682SOL    HW122508   0.814   1.821   2.578  2.6549  1.1776  0.3260
 3682SOL    HW222509   0.812   1.922   2.468 -0.4080  1.9690  0.0772
 3683SOL     OW22510   0.681   1.112   9.510 -0.0985  0.2701  0.3187
 3683SOL    HW122511   0.769   1.091   9.478 -0.7488 -1.2213 -0.5229
 3683SOL    HW222512   0.627   1.089   9.434  0.2334 -2.0343  0.7555
 3684SOL     OW22513   4.179   3.852   3.413  0.4812 -0.7242  0.1272
 3684SOL    HW122514   4.188   3.932   3.361 -0.0235  0.1274  1.3443
 3684SOL    HW222515   4.152   3.891   3.496 -0.5218 -1.6142  0.2093
 3685SOL     OW22516   2.125   4.568   4.522 -0.3425  0.1151 -0.5771
 3685SOL    HW122517   2.208   4.520   4.528 -2.0494 -2.3591  2.5337
 3685SOL    HW222518   2.094   4.568   4.612 -1.7177  1.0298 -1.0644
 3686SOL     OW22519   0.551   0.269   5.848  0.4974 -0.2097 -0.2237
 3686SOL    HW122520   0.503   0.199   5.892  0.2964 -0.4450 -0.8143
 3686SOL    HW222521   0.638   0.240   5.875  0.3482 -1.9410 -1.6425
 3687SOL     OW22522   4.298   0.802   9.342  0.1921  0.0660 -0.3780
 3687SOL    HW122523   4.284   0.883   9.391  2.3030  1.1323 -1.5193
 3687SOL    HW222524   4.331   0.837   9.259  2.0822  1.6092  1.0088
 3688SOL     OW22525   3.698   0.991   9.464  0.2433  0.0960  0.3094
 3688SOL    HW122526   3.686   1.055   9.394 -0.7286  1.7406  1.9776
 3688SOL    HW222527   3.604   0.987   9.475  0.2766 -2.1248 -0.1724
 3689SOL     OW22528   1.303   4.567   5.056  0.3439 -0.1818 -0.0575
 3689SOL    HW122529   1.220   4.558   5.008 -0.6096  3.2530  0.9298
 3689SOL    HW222530   1.313   4.477   5.088 -0.4759 -0.0792  0.4916
 3690SOL     OW22531   3.308   0.107  10.383  0.0711 -0.3608  0.0284
 3690SOL    HW122532   3.276   0.035  10.438 -2.2810  1.2277  0.7722
 3690SOL    HW222533   3.393   0.079  10.350  0.2288  0.4353 -0.2310
 3691SOL     OW22534   1.796   1.055   5.997 -0.2554 -0.2576 -0.2468
 3691SOL    HW122535   1.870   1.008   5.958  0.2791  1.3713 -1.1580
 3691SOL    HW222536   1.772   1.110   5.923 -0.6594  2.3203  1.7908
 3692SOL     OW22537   3.495   1.739   3.022 -0.0159 -0.0772 -0.7618
 3692SOL    HW122538   3.455   1.694   3.096 -1.7467 -0.9272 -2.2186
 3692SOL    HW222539   3.517   1.664   2.966 -0.2340 -2.2026  1.9987
 3693SOL     OW22540   0.243   0.515   9.239  0.0775  0.0722 -0.2608
 3693SOL    HW122541   0.327   0.474   9.219  0.7946  2.4195 -2.0728
 3693SOL    HW222542   0.260   0.581   9.306 -0.1830 -0.7972  0.6567
 3694SOL     OW22543   1.734   0.221   9.175 -0.2494 -0.6775  0.0028
 3694SOL    HW122544   1.730   0.151   9.110  0.5879  1.5762 -2.4982
 3694SOL    HW222545   1.654   0.268   9.155 -1.4524 -2.0830  1.5273
 3695SOL     OW22546   1.209   4.528   6.074  0.1253 -0.1011 -0.3271
 3695SOL    HW122547   1.137   4.477   6.111 -0.5235  0.2127 -1.1429
 3695SOL    HW222548   1.269   4.454   6.061 -0.9389 -1.1002  0.3788
 3696SOL     OW22549   2.749   0.596   4.801 -0.8599 -0.0196 -0.3305
 3696SOL    HW122550   2.700   0.529   4.755  0.1818 -0.7830 -0.3355
 3696SOL    HW222551   2.723   0.581   4.892  3.7854  0.7664  1.1387
 3697SOL     OW22552   0.488   0.922   3.746  0.2731  0.1756  0.8400
 3697SOL    HW122553   0.506   0.828   3.746 -1.9041 -0.2404  2.2638
 3697SOL    HW222554   0.402   0.928   3.788  0.0578 -0.6860  0.5323
 3698SOL     OW22555   2.419   2.377   3.824 -0.2540  0.1577  0.1397
 3698SOL    HW122556   2.356   2.443   3.852 -1.5417 -1.0572  0.1036
 3698SOL    HW222557   2.490   2.433   3.793  0.7770  0.3725  2.8919
 3699SOL     OW22558   4.394   4.347   6.364  0.2101 -0.6035 -0.4550
 3699SOL    HW122559   4.332   4.276   6.348  0.0395  0.1277 -2.8964
 3699SOL    HW222560   4.446   4.303   6.432  1.1620 -1.7765 -1.9481
 3700SOL     OW22561   1.982   3.732   1.220 -0.3901 -0.0945 -0.5184
 3700SOL    HW122562   1.911   3.683   1.261 -0.4677 -0.4926 -1.1260
 3700SOL    HW222563   2.011   3.794   1.286 -2.7872  0.1303  0.2971
 3701SOL     OW22564   4.679   1.125   0.094  0.1162  0.2580  0.6249
 3701SOL    HW122565   0.001   1.141   0.179  0.6939 -0.6677  0.5268
 3701SOL    HW222566   4.590   1.160   0.097  0.4080  0.8740  2.0344
 3702SOL     OW22567   4.342   0.577  17.413  0.4273 -0.6874  0.0701
 3702SOL    HW122568   4.256   0.615  17.433  0.8028  1.2449 -1.8693
 3702SOL    HW222569   4.314   0.540  17.329  1.3841 -2.0147  0.3362
 3703SOL     OW22570   1.587   1.780   4.060  0.0421  0.4478  0.7269
 3703SOL    HW122571   1.604   1.771   4.154  0.2274 -2.0096  0.4520
 3703SOL    HW222572   1.611   1.869   4.035 -0.6014 -0.0145 -1.5177
 3704SOL     OW22573   0.738   1.841   9.006  0.1735  0.0964 -0.2642
 3704SOL    HW122574   0.823   1.841   9.050  0.4487 -0.7153 -0.7870
 3704SOL    HW222575   0.677   1.875   9.072 -0.9652 -1.0579 -0.7078
 3705SOL     OW22576   1.311   3.482   6.249  0.5633  0.3213  0.0511
 3705SOL    HW122577   1.264   3.409   6.289  0.6955  0.1338 -0.1366
 3705SOL    HW222578   1.286   3.475   6.157 -0.8815  0.6356  0.4190
 3706SOL     OW22579   0.969   2.071   1.612 -0.2529 -0.1709  0.2413
 3706SOL    HW122580   0.876   2.062   1.632 -0.5316  2.9468  0.3213
 3706SOL    HW222581   1.011   2.059   1.697 -0.7623 -1.8161  0.2520
 3707SOL     OW22582   2.036   0.624   6.844 -0.7614 -0.6136  0.3496
 3707SOL    HW122583   2.053   0.681   6.769 -0.5705 -0.8793  0.1888
 3707SOL    HW222584   1.948   0.590   6.825 -1.8715  2.5626 -0.1288
 3708SOL     OW22585   3.293   3.555   0.158 -0.2820  0.2612  0.2304
 3708SOL    HW122586   3.327   3.578   0.071 -1.0055 -0.7721 -0.3326
 3708SOL    HW222587   3.377   3.545   0.203  0.3735 -0.7780 -1.2276
 3709SOL     OW22588   3.155   4.418  15.490  0.0826  0.2362 -0.0049
 3709SOL    HW122589   3.097   4.471  15.544 -0.8061 -1.7229  0.9604
 3709SOL    HW222590   3.202   4.495  15.457 -1.7302  0.2153 -2.6715
 3710SOL     OW22591   0.286   3.782   7.247 -0.2683  0.3694 -0.0500
 3710SOL    HW122592   0.229   3.844   7.292  3.0955  2.8998  0.6677
 3710SOL    HW222593   0.263   3.811   7.159  0.3692 -0.2151 -0.4111
 3711SOL     OW22594   4.200   4.446  15.453  0.3644 -0.4328 -0.5986
 3711SOL    HW122595   4.274   4.392  15.425  0.2637 -2.2529  2.6728
 3711SOL    HW222596   4.229   4.491  15.532  3.1496  0.6483 -2.2426
 3712SOL     OW22597   2.551   1.090   1.832 -0.9680 -0.5642 -0.1895
 3712SOL    HW122598   2.478   1.056   1.780 -0.0195 -0.5706 -1.5151
 3712SOL    HW222599   2.537   1.184   1.846  0.9150 -0.8362  3.4872
 3713SOL     OW22600   2.322   1.736   0.120 -0.4285 -0.2988  1.0702
 3713SOL    HW122601   2.405   1.785   0.126 -1.5547  1.5707  1.2780
 3713SOL    HW222602   2.317   1.718   0.027  0.1243 -0.1307  1.0058
 3714SOL     OW22603   3.769   3.986   5.213 -0.1757 -0.3039  0.8744
 3714SOL    HW122604   3.685   4.026   5.191 -1.2084 -1.9542  1.8327
 3714SOL    HW222605   3.828   4.062   5.209 -1.6592  0.6803 -1.7603
 3715SOL     OW22606   1.963   0.496   7.767  0.1351 -0.4453 -0.3337
 3715SOL    HW122607   1.926   0.583   7.779  0.8576 -0.5031  2.3583
 3715SOL    HW222608   1.967   0.478   7.861  1.0468 -1.1418 -0.5006
 3716SOL     OW22609   2.561   4.569   0.574  0.1164  0.1471  0.0698
 3716SOL    HW122610   2.620   4.566   0.499 -2.6960 -0.9421 -2.0724
 3716SOL    HW222611   2.610   4.613   0.644 -0.5867 -0.2601  0.8210
 3717SOL     OW22612   0.535   4.611  14.244 -0.0792  0.1032 -0.8472
 3717SOL    HW122613   0.520   4.531  14.194  0.4074 -0.7793  0.4145
 3717SOL    HW222614   0.446   4.643  14.255  0.6963  1.6232  0.9248
 3718SOL     OW22615   2.777   0.326  13.831  0.3536 -0.3695 -0.3799
 3718SOL    HW122616   2.715   0.347  13.760  0.5117  1.9422  0.1653
 3718SOL    HW222617   2.727   0.351  13.908  1.9202  1.6841 -0.0162
 3719SOL     OW22618   3.138   3.363   6.259 -0.8247  0.0784  0.2340
 3719SOL    HW122619   3.043   3.353   6.263 -0.6794 -1.1200  0.5768
 3719SOL    HW222620   3.161   3.340   6.349 -0.3276 -0.4338 -0.0319
 3720SOL     OW22621   3.181   4.716   8.170  0.6349 -0.3378  0.1339
 3720SOL    HW122622   3.176   0.026   8.078 -0.4851  0.2575  0.3798
 3720SOL    HW222623   3.132   0.066   8.216 -1.8485 -1.3398 -1.0265
 3721SOL     OW22624   1.038   0.709   1.742 -0.4293 -0.6305  0.0178
 3721SOL    HW122625   1.066   0.681   1.654 -0.3638  1.3101 -0.5700
 3721SOL    HW222626   0.976   0.777   1.719  0.3020 -0.1093 -0.4435
 3722SOL     OW22627   3.630   0.973   9.031  0.4322  0.1772 -0.0691
 3722SOL    HW122628   3.537   0.992   9.019  0.1747 -1.0613 -0.0149
 3722SOL    HW222629   3.673   1.058   9.023  1.0723  0.1154  2.4926
 3723SOL     OW22630   1.754   0.609  10.650 -0.2489 -0.4734 -0.0290
 3723SOL    HW122631   1.826   0.649  10.698  0.2764  1.4136 -2.3703
 3723SOL    HW222632   1.682   0.665  10.679 -0.3843 -0.5321 -0.2541
 3724SOL     OW22633   0.211   2.461   6.524  0.1118 -0.5529 -0.7686
 3724SOL    HW122634   0.213   2.386   6.465 -2.2161 -0.1221 -1.4017
 3724SOL    HW222635   0.157   2.436   6.598  1.8867  1.5563  1.2624
 3725SOL     OW22636   2.988   2.181  14.704  0.3440  0.1249  0.0457
 3725SOL    HW122637   3.027   2.108  14.655  0.8591 -1.2283  2.4700
 3725SOL    HW222638   2.896   2.176  14.677  0.6024 -3.0079 -0.3484
 3726SOL     OW22639   2.589   0.001  10.423 -0.4881 -0.6441  0.3877
 3726SOL    HW122640   2.662   0.030  10.477 -0.6658 -1.7778  1.2378
 3726SOL    HW222641   2.563   4.645  10.478  1.2295  0.5112  2.7636
 3727SOL     OW22642   3.353   0.131   5.990 -0.0349 -0.0886  0.3877
 3727SOL    HW122643   3.292   0.106   5.921  0.6246  1.2464 -0.6718
 3727SOL    HW222644   3.330   0.222   6.011  0.0930  0.0265  0.0317
 3728SOL     OW22645   3.286   4.314   7.401  0.2011  0.1327  0.0276
 3728SOL    HW122646   3.341   4.308   7.323 -3.1085  1.0184 -2.3387
 3728SOL    HW222647   3.233   4.234   7.396  0.4389 -0.1094  1.1823
 3729SOL     OW22648   2.634   3.678  17.586 -0.1038  0.0911  0.3149
 3729SOL    HW122649   2.653   3.642  17.673 -4.2907 -3.8362 -0.3934
 3729SOL    HW222650   2.560   3.621  17.564 -0.8297  0.4921  1.6631
 3730SOL     OW22651   1.655   1.606   5.256  0.6911 -0.3120  0.1961
 3730SOL    HW122652   1.601   1.538   5.214 -0.1984  1.0937 -0.9293
 3730SOL    HW222653   1.645   1.678   5.194 -1.8902 -1.1768 -0.3795
 3731SOL     OW22654   4.281   3.183   1.446  0.1544 -0.0722  0.6887
 3731SOL    HW122655   4.264   3.091   1.468  0.2378  0.1503  1.6861
 3731SOL    HW222656   4.220   3.221   1.509 -0.5817 -0.6676  0.3374
 3732SOL     OW22657   3.265   3.754   5.614  0.1967  0.4620 -0.1948
 3732SOL    HW122658   3.220   3.702   5.682 -0.1929 -0.5733 -1.2381
 3732SOL    HW222659   3.250   3.698   5.537  1.1827 -0.0602 -0.0046
 3733SOL     OW22660   4.623   3.408  17.026  0.4944 -0.9093 -0.2331
 3733SOL    HW122661   4.709   3.445  17.008  0.1492 -0.9193 -1.9233
 3733SOL    HW222662   4.646   3.329  17.075 -3.2406 -1.7268  0.2222
 3734SOL     OW22663   0.936   3.592   9.391  0.0711  0.5818  0.8031
 3734SOL    HW122664   1.013   3.567   9.442  1.6108  2.1544 -0.7322
 3734SOL    HW222665   0.864   3.533   9.415 -0.5808  0.7117 -0.8416
 3735SOL     OW22666   0.144   2.221   2.855 -0.1565 -0.0791 -0.5215
 3735SOL    HW122667   0.063   2.223   2.804 -0.7974 -2.6141  0.3654
 3735SOL    HW222668   0.195   2.293   2.819 -0.5373  0.1868 -0.5266
 3736SOL     OW22669   0.647   0.649   4.613 -0.2469  0.2691 -0.3258
 3736SOL    HW122670   0.646   0.742   4.637  0.4525  0.1296  0.2147
 3736SOL    HW222671   0.680   0.660   4.524  0.6626  2.4241  0.2880
 3737SOL     OW22672   4.272   2.208  15.074 -0.1547  0.3385  0.2359
 3737SOL    HW122673   4.289   2.228  15.165 -1.2153  1.1784  0.2482
 3737SOL    HW222674   4.339   2.263  15.033 -0.2744 -1.2177 -2.0531
 3738SOL     OW22675   3.465   4.034  16.786  0.7187  0.2495  0.2885
 3738SOL    HW122676   3.423   3.965  16.733 -1.2184  1.8617 -0.2867
 3738SOL    HW222677   3.460   4.001  16.875  0.5422 -0.7542 -0.0874
 3739SOL     OW22678   0.844   3.211  11.145 -0.7252  0.2212 -0.2542
 3739SOL    HW122679   0.933   3.180  11.162  0.3976  2.1938 -2.5445
 3739SOL    HW222680   0.787   3.138  11.169 -0.2041 -0.3601 -0.7911
 3740SOL     OW22681   2.816   1.088   1.617  0.3179 -0.4086 -0.4667
 3740SOL    HW122682   2.834   1.087   1.711 -1.8062  1.7771 -0.0512
 3740SOL    HW222683   2.877   1.155   1.585  1.5485 -0.8709  0.9596
 3741SOL     OW22684   3.515   0.461   0.375  0.0372  0.4575 -0.4403
 3741SOL    HW122685   3.493   0.527   0.442  1.6191 -0.0529  0.5994
 3741SOL    HW222686   3.469   0.385   0.410 -0.6907  1.5883  1.0709
 3742SOL     OW22687   0.749   0.065  15.235 -0.2584 -0.3596  0.0160
 3742SOL    HW122688   0.786   0.117  15.305  0.1351 -0.2973 -0.2404
 3742SOL    HW222689   0.657   0.092  15.228  0.6445  2.4498 -0.8236
 3743SOL     OW22690   2.649   0.873   1.981  0.0972  0.0055  0.3231
 3743SOL    HW122691   2.561   0.865   2.017 -0.5488  0.3155 -1.1928
 3743SOL    HW222692   2.630   0.944   1.919 -0.7097 -1.5234 -1.1833
 3744SOL     OW22693   4.101   2.869  17.012  0.2799 -0.3696 -0.4829
 3744SOL    HW122694   4.126   2.947  17.062 -2.4405 -0.8161  1.5605
 3744SOL    HW222695   4.013   2.855  17.047 -0.0082 -1.7372 -1.7623
 3745SOL     OW22696   1.499   3.333   0.767 -0.2308  0.2943  0.2119
 3745SOL    HW122697   1.452   3.288   0.837  2.2132  1.7852  2.8331
 3745SOL    HW222698   1.459   3.420   0.772  0.4257  0.8376 -3.8255
 3746SOL     OW22699   0.334   0.197   4.463 -0.3464  0.1235 -0.0417
 3746SOL    HW122700   0.401   0.130   4.461 -0.7606 -0.3532  2.4164
 3746SOL    HW222701   0.267   0.130   4.464 -0.5834  0.3192 -2.1684
 3747SOL     OW22702   0.117   1.516   8.900 -0.0327  0.6376  0.1560
 3747SOL    HW122703   0.093   1.531   8.991  0.5019  0.7200  0.2816
 3747SOL    HW222704   0.110   1.604   8.864 -0.2538  1.0953  1.3237
 3748SOL     OW22705   0.975   2.373   7.310 -0.4503  0.1305 -0.3424
 3748SOL    HW122706   0.954   2.463   7.286 -0.1635  0.7496  1.6983
 3748SOL    HW222707   1.030   2.380   7.389  0.3193  0.1207 -0.8704
 3749SOL     OW22708   1.829   3.538   5.555 -0.1358  0.6617  0.2784
 3749SOL    HW122709   1.920   3.566   5.549  0.8215 -2.8219 -1.6668
 3749SOL    HW222710   1.832   3.477   5.481  0.1581 -0.0540  0.8813
 3750SOL     OW22711   0.938   0.347   7.444  0.0661 -0.5044  0.4571
 3750SOL    HW122712   0.897   0.331   7.359  0.8493  2.1588 -0.4329
 3750SOL    HW222713   0.865   0.331   7.503  0.8416 -0.8011  1.3309
 3751SOL     OW22714   0.344   1.180  10.408 -0.1692  0.3820  0.1693
 3751SOL    HW122715   0.390   1.096  10.409 -2.0063 -0.6438 -1.2048
 3751SOL    HW222716   0.270   1.149  10.357 -0.1075 -2.0676  1.5981
 3752SOL     OW22717   1.299   0.995   6.806  0.2941 -0.1950  0.2768
 3752SOL    HW122718   1.218   0.949   6.830  0.8803  0.0265  2.6535
 3752SOL    HW222719   1.369   0.933   6.824 -1.7026 -2.4112  0.4332
 3753SOL     OW22720   1.690   2.304   1.141  0.0357 -0.7228 -0.3997
 3753SOL    HW122721   1.708   2.302   1.235  0.0316  0.4987 -0.3666
 3753SOL    HW222722   1.598   2.331   1.142 -0.1150 -1.2769  0.3045
 3754SOL     OW22723   2.277   1.342   4.538 -0.2581  0.1082 -0.2398
 3754SOL    HW122724   2.301   1.399   4.465  2.5146  0.0100  0.5924
 3754SOL    HW222725   2.259   1.258   4.496 -0.6087  0.6728 -1.2231
 3755SOL     OW22726   3.862   4.529  15.352 -0.6050 -0.8139 -0.4123
 3755SOL    HW122727   3.782   4.578  15.374  0.0281 -0.1929  0.5160
 3755SOL    HW222728   3.839   4.488  15.269 -0.1127 -2.0789  0.0796
 3756SOL     OW22729   1.726   0.973   2.124  0.4655  0.0804  0.2539
 3756SOL    HW122730   1.693   0.891   2.087 -1.0088  1.2528 -1.0720
 3756SOL    HW222731   1.684   1.040   2.070 -2.5473 -1.3809  0.7444
 3757SOL     OW22732   3.464   4.562   7.774  0.0545  0.5484 -0.1702
 3757SOL    HW122733   3.560   4.561   7.772  0.0116 -2.8403  0.2710
 3757SOL    HW222734   3.447   4.641   7.722 -0.3163  0.0716 -0.7801
 3758SOL     OW22735   3.511   1.142   9.851  0.3232  0.3067 -0.1271
 3758SOL    HW122736   3.598   1.178   9.834 -0.7555  3.1378  0.3676
 3758SOL    HW222737   3.533   1.049   9.844  2.3090  0.9545 -2.5672
 3759SOL     OW22738   2.319   2.793   9.920 -0.3190 -0.3769 -0.0204
 3759SOL    HW122739   2.275   2.771  10.002 -1.0833 -2.4938 -1.0154
 3759SOL    HW222740   2.389   2.728   9.918 -0.1881 -0.2148 -0.6910
 3760SOL     OW22741   0.228   4.718   8.946 -0.4910  0.1452 -0.0608
 3760SOL    HW122742   0.147   0.035   8.909 -1.1848 -1.8694 -0.4885
 3760SOL    HW222743   0.266   0.075   8.990 -2.1741  2.7654 -3.0543
 3761SOL     OW22744   1.066   3.212   7.447 -0.3973  0.4680 -0.8042
 3761SOL    HW122745   1.143   3.195   7.393  1.0535 -1.6364  1.9291
 3761SOL    HW222746   0.997   3.171   7.396  0.4474 -1.7000 -0.1686
 3762SOL     OW22747   3.016   3.681  14.197  0.3091  0.8853  0.5692
 3762SOL    HW122748   2.928   3.717  14.205  0.0037 -0.0265  1.3788
 3762SOL    HW222749   3.021   3.692  14.102 -1.3213  1.8871  0.5951
 3763SOL     OW22750   2.850   3.624   7.681  0.2777 -0.1963  0.2186
 3763SOL    HW122751   2.815   3.672   7.756  1.3890  0.2567  0.4406
 3763SOL    HW222752   2.931   3.586   7.713  0.7609 -0.5476 -1.3994
 3764SOL     OW22753   4.470   3.094   3.047  0.1959  0.8018 -0.0597
 3764SOL    HW122754   4.557   3.120   3.015 -0.1380  2.5772  0.4694
 3764SOL    HW222755   4.423   3.101   2.964  1.1936 -2.2433 -0.8830
 3765SOL     OW22756   0.446   0.890   0.361 -0.0848 -0.4992  0.6832
 3765SOL    HW122757   0.456   0.834   0.439 -1.9230 -1.0501  0.5339
 3765SOL    HW222758   0.533   0.878   0.323 -0.3522 -1.6868  0.4346
 3766SOL     OW22759   0.296   2.222   5.544 -0.4984 -0.6884  0.7635
 3766SOL    HW122760   0.382   2.188   5.522  0.1309  0.5768  1.3088
 3766SOL    HW222761   0.321   2.307   5.580  0.3165 -0.1516 -1.1126
 3767SOL     OW22762   3.883   1.549   4.951 -0.4755 -0.4909  0.0463
 3767SOL    HW122763   3.942   1.593   5.013 -0.2134 -1.7116  0.6556
 3767SOL    HW222764   3.828   1.494   5.006 -0.4557 -0.4463  0.1112
 3768SOL     OW22765   0.120   4.714   8.423 -0.2094  0.2345 -0.0500
 3768SOL    HW122766   0.145   0.082   8.388  2.9211 -0.3861  0.6768
 3768SOL    HW222767   0.184   4.704   8.494  1.1004  0.1460 -1.2331
 3769SOL     OW22768   0.681   3.739   2.401 -0.2547  0.5589  0.6076
 3769SOL    HW122769   0.681   3.662   2.458  3.2261  0.1203  0.0031
 3769SOL    HW222770   0.772   3.765   2.400 -0.0729 -0.1407 -1.1321
 3770SOL     OW22771   4.539   1.299  10.213  0.0006  0.6742 -0.8314
 3770SOL    HW122772   4.588   1.318  10.133 -1.1281 -3.6819 -2.5735
 3770SOL    HW222773   4.525   1.204  10.214 -0.2051  0.6973 -1.4488
 3771SOL     OW22774   1.110   0.364   3.102  0.0689 -1.1221  0.0867
 3771SOL    HW122775   1.127   0.407   3.018 -1.4528 -1.0341 -0.1741
 3771SOL    HW222776   1.188   0.311   3.119  1.1319  0.5003  0.2562
 3772SOL     OW22777   2.851   0.918  16.068  0.1181 -0.1425 -0.0939
 3772SOL    HW122778   2.801   0.962  15.999  1.3500  3.1732  1.1450
 3772SOL    HW222779   2.938   0.946  16.039 -0.1095  0.5657 -0.0897
 3773SOL     OW22780   0.975   0.519   5.395 -0.2480  0.3580  0.5409
 3773SOL    HW122781   0.897   0.464   5.396  1.7869 -2.5078  1.5235
 3773SOL    HW222782   1.038   0.452   5.420 -1.2921 -0.7898  0.0975
 3774SOL     OW22783   1.222   4.599   5.595  0.4908 -0.1083 -0.3569
 3774SOL    HW122784   1.144   4.564   5.638 -1.6055  2.0114 -2.4887
 3774SOL    HW222785   1.190   4.617   5.507  1.6504  0.8041 -0.5835
 3775SOL     OW22786   0.660   1.729   4.542  0.7383  0.1113  0.5063
 3775SOL    HW122787   0.569   1.754   4.526  0.0036 -1.3906  2.3820
 3775SOL    HW222788   0.703   1.814   4.557  0.4410  0.6500 -1.7349
 3776SOL     OW22789   3.280   3.297   1.936 -0.1027  0.3195  1.2205
 3776SOL    HW122790   3.206   3.236   1.944 -1.3384  1.6585  0.0410
 3776SOL    HW222791   3.232   3.377   1.915 -1.6346 -0.7839  0.4722
 3777SOL     OW22792   1.805   3.735   2.758  0.4401 -0.0183 -0.0872
 3777SOL    HW122793   1.895   3.713   2.784  0.3686  0.6047  0.6953
 3777SOL    HW222794   1.814   3.767   2.669 -1.9569  2.9409  0.7455
 3778SOL     OW22795   4.439   3.994  14.940  0.1781  0.2747 -0.0600
 3778SOL    HW122796   4.508   3.933  14.915  0.6740  1.1845 -0.9009
 3778SOL    HW222797   4.437   4.038  14.855 -0.2294  0.1702 -0.1073
 3779SOL     OW22798   4.298   3.476  12.994 -0.2628 -0.1518 -0.3939
 3779SOL    HW122799   4.229   3.454  13.056  0.4462 -1.9023 -0.2269
 3779SOL    HW222800   4.279   3.563  12.957 -0.1222 -0.8020 -1.9683
 3780SOL     OW22801   1.693   0.575  12.563 -0.1635  0.5265 -0.1039
 3780SOL    HW122802   1.782   0.601  12.539  0.0368 -0.4858 -0.4571
 3780SOL    HW222803   1.660   0.559  12.474  2.0180 -2.2330 -0.4164
 3781SOL     OW22804   1.697   3.414  17.104 -0.2794  0.0945 -0.1533
 3781SOL    HW122805   1.713   3.460  17.022  0.4882  0.5802  0.2684
 3781SOL    HW222806   1.632   3.349  17.078 -0.5091  0.5885 -0.8256
 3782SOL     OW22807   0.343   1.780  14.572 -0.1281 -0.0024  0.3739
 3782SOL    HW122808   0.384   1.704  14.530  0.5573  0.8460 -0.5057
 3782SOL    HW222809   0.257   1.744  14.595 -0.4474  1.1109  0.8903
 3783SOL     OW22810   3.911   3.591   3.879 -0.0315 -0.6734  0.0256
 3783SOL    HW122811   3.949   3.662   3.828 -3.6801  2.3462  1.5436
 3783SOL    HW222812   3.822   3.586   3.844  0.7521 -3.0907 -1.6410
 3784SOL     OW22813   2.785   1.018  17.087 -0.2825  0.0884  0.3988
 3784SOL    HW122814   2.733   0.939  17.103 -0.4803  0.0811 -0.2945
 3784SOL    HW222815   2.804   1.062  17.170  1.1387  1.2631 -0.5471
 3785SOL     OW22816   0.056   0.489   4.927 -0.0176  0.3129 -0.4233
 3785SOL    HW122817   0.080   0.396   4.928  2.4267  0.9724  2.6019
 3785SOL    HW222818   0.138   0.537   4.935  1.4606 -2.4795  1.0437
 3786SOL     OW22819   1.964   3.182   7.467  0.4931 -0.5997 -1.0357
 3786SOL    HW122820   1.924   3.110   7.418 -0.5192 -0.2502 -0.7057
 3786SOL    HW222821   2.037   3.144   7.518  0.3327  0.5415  0.0426
 3787SOL     OW22822   2.525   4.053  14.827  0.0537 -0.5028 -0.6469
 3787SOL    HW122823   2.579   4.111  14.774 -0.5934  2.1328  1.5823
 3787SOL    HW222824   2.583   4.040  14.901  0.7334 -1.4909 -1.3552
 3788SOL     OW22825   0.816   1.053   7.446 -0.1673 -0.7600 -0.5123
 3788SOL    HW122826   0.757   1.129   7.437  0.3062 -0.4550 -1.0466
 3788SOL    HW222827   0.807   1.021   7.357  0.0122 -0.5971 -0.5895
 3789SOL     OW22828   2.781   2.614   7.352  0.2097 -0.1557  0.3327
 3789SOL    HW122829   2.754   2.534   7.397  0.6819 -2.0386 -2.7071
 3789SOL    HW222830   2.877   2.613   7.350  0.2433 -0.9392  1.7048
 3790SOL     OW22831   0.833   4.628  17.640  0.6647  0.1493  0.2198
 3790SOL    HW122832   0.856   4.707  17.592  1.5965  1.0005  2.0713
 3790SOL    HW222833   0.821   4.659   0.054 -0.0031  1.7654 -0.4392
 3791SOL     OW22834   1.765   1.566   7.951 -0.8447  0.1849 -0.2764
 3791SOL    HW122835   1.767   1.662   7.951 -0.6929  0.1825 -0.9269
 3791SOL    HW222836   1.726   1.553   7.864 -0.9176 -0.6511 -0.1215
 3792SOL     OW22837   1.124   1.730   7.451  0.2596 -0.1894  0.3986
 3792SOL    HW122838   1.041   1.755   7.492 -0.3134 -0.1347 -0.8122
 3792SOL    HW222839   1.092   1.717   7.362 -0.3594  0.6656  0.4895
 3793SOL     OW22840   4.681   4.405   3.562 -0.3688 -0.3091  0.3064
 3793SOL    HW122841   4.687   4.430   3.470  0.2988  0.3634  0.5270
 3793SOL    HW222842   0.054   4.428   3.581 -0.7044  0.7899  0.6268
 3794SOL     OW22843   2.101   0.465  12.253 -0.0854  0.3705  0.0622
 3794SOL    HW122844   2.134   0.554  12.263 -0.2349  0.3993  0.3168
 3794SOL    HW222845   2.035   0.479  12.184 -0.5581 -0.7479  0.2966
 3795SOL     OW22846   4.485   2.851  14.122  0.1623 -0.4900 -0.1919
 3795SOL    HW122847   4.432   2.929  14.105  0.3128 -0.9955 -2.8895
 3795SOL    HW222848   4.558   2.869  14.064 -0.1670 -2.4588 -1.2259
 3796SOL     OW22849   0.603   1.717  17.467 -0.4725  0.1682 -0.3134
 3796SOL    HW122850   0.623   1.801  17.426 -0.0861  0.2673  0.0863
 3796SOL    HW222851   0.523   1.745  17.512  0.3050  0.9448  0.5812
 3797SOL     OW22852   3.821   1.764   6.274  0.3789 -0.2961  0.5139
 3797SOL    HW122853   3.808   1.686   6.328  2.4778 -0.6970  0.4182
 3797SOL    HW222854   3.806   1.825   6.346  2.4273 -0.5981  1.1841
 3798SOL     OW22855   3.855   1.332   6.228 -0.1708 -0.2477  0.2862
 3798SOL    HW122856   3.797   1.393   6.182 -1.9404 -1.2006  1.2432
 3798SOL    HW222857   3.936   1.344   6.178 -0.2116 -0.3773  0.1896
 3799SOL     OW22858   1.661   0.721  16.961  0.3222  0.2773 -0.1715
 3799SOL    HW122859   1.717   0.773  16.903 -1.0556 -1.2681 -2.8611
 3799SOL    HW222860   1.717   0.644  16.971  2.0276  1.9334  3.0537
 3800SOL     OW22861   1.791   0.382   1.833  0.5860 -0.0052 -0.0265
 3800SOL    HW122862   1.816   0.316   1.897  1.8762  1.2485  0.7614
 3800SOL    HW222863   1.858   0.448   1.848  0.8013 -0.0228 -0.9014
 3801SOL     OW22864   3.854   1.598   5.688 -0.1765  0.4221  0.5879
 3801SOL    HW122865   3.803   1.673   5.719  0.0584 -0.3184  2.7465
 3801SOL    HW222866   3.787   1.543   5.648  1.0912 -1.7695  1.4579
 3802SOL     OW22867   0.298   0.511  11.396  0.3302  0.6196  0.7241
 3802SOL    HW122868   0.279   0.494  11.488  0.7160  0.5110  0.7834
 3802SOL    HW222869   0.259   0.439  11.347  2.4248  1.4749 -2.2137
 3803SOL     OW22870   2.779   0.117   3.394  0.4275  0.1701 -0.5380
 3803SOL    HW122871   2.859   0.131   3.446  0.5867  1.4024 -1.1128
 3803SOL    HW222872   2.815   0.087   3.311  1.1131 -0.9617  0.1588
 3804SOL     OW22873   2.540   3.083  12.041  0.2242 -0.6113 -0.0860
 3804SOL    HW122874   2.447   3.060  12.039  0.6550 -2.2801 -0.3827
 3804SOL    HW222875   2.536   3.174  12.009  1.3932 -0.3756  0.4132
 3805SOL     OW22876   0.554   1.024   4.364  0.0688 -0.0862 -0.1777
 3805SOL    HW122877   0.519   1.106   4.398  2.2261  0.5649  0.4846
 3805SOL    HW222878   0.480   0.980   4.323  0.9332 -0.5782 -1.2421
 3806SOL     OW22879   4.215   1.588   9.222  0.5626  0.5032  0.4988
 3806SOL    HW122880   4.146   1.566   9.160  1.1231  0.3513 -0.0737
 3806SOL    HW222881   4.270   1.644   9.167 -0.8388 -0.9645 -2.3781
 3807SOL     OW22882   0.531   0.614   0.979 -0.1041 -0.2986 -0.9065
 3807SOL    HW122883   0.587   0.547   1.018 -0.8139 -1.8421 -2.5232
 3807SOL    HW222884   0.546   0.695   1.027  2.0248 -1.1365 -0.1967
 3808SOL     OW22885   2.416   3.310   3.230  0.0107 -0.3872 -0.0608
 3808SOL    HW122886   2.406   3.259   3.149  0.8394  0.0754 -0.4590
 3808SOL    HW222887   2.327   3.345   3.226  0.3344  0.9288  4.3685
 3809SOL     OW22888   3.790   3.742   7.274  0.1522  0.0481 -0.4519
 3809SOL    HW122889   3.724   3.759   7.207  0.3671  0.9082 -0.4449
 3809SOL    HW222890   3.736   3.741   7.353  1.1917 -0.5775  0.2480
 3810SOL     OW22891   0.264   2.934  11.563  0.1165  0.1773  0.4192
 3810SOL    HW122892   0.298   2.846  11.580  1.2709  0.6541  0.5628
 3810SOL    HW222893   0.337   2.963  11.508  0.0108  2.2418  1.3758
 3811SOL     OW22894   2.725   3.115  13.273 -0.0461  0.6014  0.3843
 3811SOL    HW122895   2.749   3.075  13.190  0.4463 -1.4811  1.5148
 3811SOL    HW222896   2.727   3.210  13.262  0.5227  0.2771 -2.1325
 3812SOL     OW22897   2.343   2.122   6.468 -0.6817  0.0269 -0.1717
 3812SOL    HW122898   2.416   2.168   6.510  0.3936 -0.8210 -1.0879
 3812SOL    HW222899   2.387   2.091   6.389 -2.6770 -0.2820 -1.1603
 3813SOL     OW22900   4.057   3.315  10.480 -0.8137  0.0708 -0.1313
 3813SOL    HW122901   4.076   3.232  10.523  0.5528  1.2588  1.5695
 3813SOL    HW222902   4.137   3.339  10.432 -0.9554 -0.2985 -0.5407
 3814SOL     OW22903   2.497   0.205   0.274 -0.2013  0.2721  0.6278
 3814SOL    HW122904   2.465   0.254   0.198 -1.0937 -2.3570 -0.6790
 3814SOL    HW222905   2.583   0.246   0.279  1.1794 -2.5198 -0.4862
 3815SOL     OW22906   0.699   3.902   3.616  0.3568  0.7595  0.4800
 3815SOL    HW122907   0.666   3.943   3.536  0.2410  0.1817  0.2368
 3815SOL    HW222908   0.759   3.836   3.582 -2.3476 -0.0385 -2.7149
 3816SOL     OW22909   3.391   3.455  10.201  0.0102 -0.0816 -0.7146
 3816SOL    HW122910   3.365   3.530  10.149 -0.1896  0.3356 -0.0174
 3816SOL    HW222911   3.486   3.457  10.189  0.1112 -0.0859  0.0577
 3817SOL     OW22912   2.863   3.905   8.366  0.5013 -0.2288  0.7977
 3817SOL    HW122913   2.817   3.892   8.450  0.6980  1.9044  1.2547
 3817SOL    HW222914   2.786   3.895   8.310  0.3440  0.1457  0.9426
 3818SOL     OW22915   0.387   1.977   3.363  0.6544 -0.5354 -0.2506
 3818SOL    HW122916   0.398   1.986   3.268 -0.5115  2.1680 -0.1493
 3818SOL    HW222917   0.469   1.932   3.383  1.4720  0.7930 -0.5452
 3819SOL     OW22918   1.015   1.624   3.461 -0.8598 -0.1150  0.1417
 3819SOL    HW122919   0.965   1.703   3.440 -0.9620 -0.3354 -0.4370
 3819SOL    HW222920   1.039   1.595   3.373  0.1194  2.0801 -0.3081
 3820SOL     OW22921   2.043   3.042   2.969  0.4274 -0.3195  0.5615
 3820SOL    HW122922   2.081   3.019   2.885 -0.4427  2.2269 -0.5552
 3820SOL    HW222923   2.050   2.966   3.026  0.3518 -0.0175  0.9745
 3821SOL     OW22924   2.432   1.095   5.959 -0.3081 -0.1218  0.0832
 3821SOL    HW122925   2.480   1.035   5.902 -0.5733 -0.4183  0.1722
 3821SOL    HW222926   2.386   1.154   5.900 -0.6731  0.6291  1.1070
 3822SOL     OW22927   1.222   4.144   4.993  0.0930 -0.2456  0.4168
 3822SOL    HW122928   1.292   4.083   4.972  1.8382  1.4978  1.2198
 3822SOL    HW222929   1.277   4.215   5.026  2.2420 -1.3331 -0.8406
 3823SOL     OW22930   2.829   4.655   9.212  0.0666  0.1617  0.3918
 3823SOL    HW122931   2.747   4.685   9.251  0.2215  0.4374  0.5019
 3823SOL    HW222932   2.809   4.621   9.125  1.6592  2.0578 -0.7108
 3824SOL     OW22933   1.013   4.614   4.164 -0.3420  0.0524  0.3675
 3824SOL    HW122934   1.022   4.547   4.231  1.6784 -0.7257 -0.6889
 3824SOL    HW222935   1.039   4.552   4.096  2.1457  0.3885  1.0074
 3825SOL     OW22936   3.808   1.009   3.008  0.0339 -0.2503 -0.6118
 3825SOL    HW122937   3.869   0.954   3.058 -0.4107  1.1327  1.4664
 3825SOL    HW222938   3.868   1.079   2.983  0.9814 -0.7061  0.3986
 3826SOL     OW22939   3.273   1.275   5.947 -0.2955 -0.2153 -0.3005
 3826SOL    HW122940   3.195   1.308   5.992 -1.2633 -1.9448 -0.6903
 3826SOL    HW222941   3.343   1.337   5.964  0.8429 -1.9580  1.3271
 3827SOL     OW22942   0.360   0.351   3.762 -0.5797  0.2922 -0.0278
 3827SOL    HW122943   0.395   0.283   3.819 -1.0512 -1.0710 -1.3828
 3827SOL    HW222944   0.438   0.378   3.712 -0.4850 -1.0060 -0.5720
 3828SOL     OW22945   0.774   0.004  13.932  0.7372 -0.0594 -0.2557
 3828SOL    HW122946   0.865   0.029  13.915  0.3301  0.4378 -1.7839
 3828SOL    HW222947   0.770   4.628  13.913  1.6786 -0.7338  2.8927
 3829SOL     OW22948   3.805   4.195   0.656  0.3641 -0.3102  0.1512
 3829SOL    HW122949   3.865   4.133   0.698  0.9499  1.0054  1.2263
 3829SOL    HW222950   3.768   4.144   0.584 -1.0636 -0.0897  0.7334
 3830SOL     OW22951   0.753   3.552  14.270  0.4198  0.2719 -0.2669
 3830SOL    HW122952   0.680   3.499  14.237  0.9228  1.0094 -2.5083
 3830SOL    HW222953   0.824   3.491  14.250 -1.1026 -0.2962 -4.0447
 3831SOL     OW22954   1.074   2.377   4.458  0.0734  0.4600  0.1121
 3831SOL    HW122955   1.023   2.345   4.384  0.0277  2.3148 -0.6605
 3831SOL    HW222956   1.089   2.468   4.432  0.8992 -0.1693 -1.6132
 3832SOL     OW22957   0.214   2.654   3.198  0.1959 -0.0810 -0.1713
 3832SOL    HW122958   0.154   2.727   3.183  1.3886  1.2413  1.4960
 3832SOL    HW222959   0.179   2.587   3.139  0.9692 -1.1921  0.6312
 3833SOL     OW22960   1.005   1.824   1.732 -0.0908  0.4884 -0.2277
 3833SOL    HW122961   0.920   1.818   1.775  1.0072  0.3737  1.8895
 3833SOL    HW222962   0.984   1.844   1.640  1.6384  0.0208 -0.7369
 3834SOL     OW22963   1.979   1.691   4.125 -0.5187  0.3144 -0.1245
 3834SOL    HW122964   1.937   1.772   4.095 -0.7494 -0.5355 -2.1341
 3834SOL    HW222965   2.061   1.703   4.077 -0.7922 -1.6434 -1.1159
 3835SOL     OW22966   2.578   4.576   0.978 -0.4599  0.1347 -0.0496
 3835SOL    HW122967   2.502   4.608   0.928 -0.5037 -0.2809 -0.2509
 3835SOL    HW222968   2.566   4.628   1.057 -1.1883  1.8306 -1.2682
 3836SOL     OW22969   3.774   1.349  11.471  0.4614 -0.2156 -0.1087
 3836SOL    HW122970   3.747   1.427  11.423  0.3955  0.0318  0.3265
 3836SOL    HW222971   3.700   1.289  11.465 -0.3989  0.7247  1.1841
 3837SOL     OW22972   3.632   4.631   1.756 -0.0835 -0.2405  0.6519
 3837SOL    HW122973   3.649   4.623   1.662  0.6198 -2.8209  1.0038
 3837SOL    HW222974   3.553   4.685   1.755  0.0824  0.0084  1.3315
 3838SOL     OW22975   1.834   4.228   7.171  0.6156  0.2314 -0.7885
 3838SOL    HW122976   1.844   4.199   7.261 -0.8514  1.5165 -0.2138
 3838SOL    HW222977   1.811   4.146   7.127 -2.8258  0.9425 -0.2717
 3839SOL     OW22978   0.331   2.991   1.202  0.3547  0.1223 -0.0457
 3839SOL    HW122979   0.415   3.037   1.193 -0.1877  0.7700 -1.7722
 3839SOL    HW222980   0.343   2.945   1.285  0.1228  0.7131  0.3121
 3840SOL     OW22981   3.041   2.787   8.601 -0.0382 -0.8739  0.3328
 3840SOL    HW122982   3.058   2.858   8.540 -2.0401 -0.0707  0.7167
 3840SOL    HW222983   2.953   2.808   8.632  0.3863 -0.6214  1.3984
 3841SOL     OW22984   3.694   4.063  14.879  0.2188 -0.4005 -0.6892
 3841SOL    HW122985   3.668   4.102  14.795  0.9620  1.2937 -0.1417
 3841SOL    HW222986   3.743   4.138  14.913  0.3878 -1.5123  1.5183
 3842SOL     OW22987   0.363   4.326   7.915  0.1267 -0.2255 -0.2600
 3842SOL    HW122988   0.288   4.267   7.929 -1.3238  1.4734 -0.8023
 3842SOL    HW222989   0.391   4.340   8.005 -1.9383  3.4494 -0.2121
 3843SOL     OW22990   0.352   2.511  17.240  0.4278 -0.3545  0.5038
 3843SOL    HW122991   0.262   2.482  17.254 -0.8585  1.9974 -2.9544
 3843SOL    HW222992   0.392   2.429  17.268  2.3308  0.2357 -0.4810
 3844SOL     OW22993   3.500   1.260   8.719 -0.1209  0.2341  0.1815
 3844SOL    HW122994   3.548   1.191   8.765  2.5181  0.2274 -2.6072
 3844SOL    HW222995   3.571   1.318   8.692  0.4462 -1.0431 -1.0381
 3845SOL     OW22996   3.093   1.942   5.231 -0.0037 -0.4554  0.1434
 3845SOL    HW122997   3.068   1.994   5.308 -1.6566  1.6188 -1.8169
 3845SOL    HW222998   3.058   1.987   5.155 -1.0672 -1.2310  0.1877
 3846SOL     OW22999   3.094   1.742   8.324 -0.3783 -0.0091  0.1022
 3846SOL    HW123000   3.096   1.707   8.413 -0.3487 -2.3965 -0.8551
 3846SOL    HW223001   3.157   1.815   8.321  1.2986 -1.4091  0.9353
 3847SOL     OW23002   0.870   1.326   6.997  0.2802  0.4075  0.0524
 3847SOL    HW123003   0.826   1.320   6.913  0.7756  2.0466 -0.3318
 3847SOL    HW223004   0.906   1.238   6.995 -0.1819  0.2952 -3.1550
 3848SOL     OW23005   3.416   3.174  10.115 -0.6516 -0.7347 -0.2750
 3848SOL    HW123006   3.381   3.263  10.124 -1.6983 -0.9982 -1.7266
 3848SOL    HW223007   3.359   3.132  10.051 -0.2519 -0.6864 -0.6658
 3849SOL     OW23008   4.021   3.530   6.424 -0.1656 -0.2720 -0.4521
 3849SOL    HW123009   3.957   3.557   6.489 -1.7541  2.0081 -2.9627
 3849SOL    HW223010   4.103   3.520   6.473 -0.5494  2.2719  0.7115
 3850SOL     OW23011   1.898   1.361   6.326 -0.2336 -0.0638  0.1886
 3850SOL    HW123012   1.903   1.456   6.329  0.1067 -0.0788 -0.0533
 3850SOL    HW223013   1.808   1.340   6.353 -0.6525 -0.8619 -1.8110
 3851SOL     OW23014   2.428   0.808  11.106 -0.1694  0.0518 -0.3423
 3851SOL    HW123015   2.337   0.832  11.121 -0.0533  0.5029 -0.3318
 3851SOL    HW223016   2.473   0.812  11.191 -0.1552  1.2153 -0.4065
 3852SOL     OW23017   2.245   2.275   9.069  0.6193  0.3034  0.0641
 3852SOL    HW123018   2.188   2.199   9.077  0.9201  0.0615 -0.1077
 3852SOL    HW223019   2.298   2.238   8.998  0.0691  1.1859 -0.8115
 3853SOL     OW23020   4.625   1.685   6.011  0.0582 -0.3910 -0.0447
 3853SOL    HW123021   4.622   1.617   5.944  2.0522  0.4600 -0.9826
 3853SOL    HW223022   4.706   1.732   5.990 -0.0628 -0.2011 -0.0758
 3854SOL     OW23023   2.110   0.051   7.868 -0.2135 -0.5123  0.3781
 3854SOL    HW123024   2.059   0.057   7.949  1.3355 -0.6603  1.3512
 3854SOL    HW223025   2.063   0.116   7.814  1.3677  1.5941  1.5537
 3855SOL     OW23026   4.327   0.240   5.534  0.2237  0.5127 -0.0528
 3855SOL    HW123027   4.278   0.271   5.458 -0.8891 -2.0360 -0.3700
 3855SOL    HW223028   4.281   0.156   5.539 -1.3040  1.3542 -0.0487
 3856SOL     OW23029   3.948   3.616   3.200 -0.2911 -0.6161 -0.1754
 3856SOL    HW123030   3.860   3.623   3.163  0.4715 -0.3694 -1.9614
 3856SOL    HW223031   3.995   3.646   3.122 -1.3854  0.5932 -0.3794
 3857SOL     OW23032   0.842   1.686   7.915  0.0147  0.0191 -0.0104
 3857SOL    HW123033   0.918   1.646   7.872  0.3813  1.0003 -0.2779
 3857SOL    HW223034   0.778   1.617   7.897 -2.0502  1.6647  1.0297
 3858SOL     OW23035   2.274   2.992   3.822  0.1943  0.3031 -0.4407
 3858SOL    HW123036   2.232   2.993   3.907  0.5162 -0.1624 -0.2793
 3858SOL    HW223037   2.334   3.065   3.839  0.7671 -0.1799 -0.4105
 3859SOL     OW23038   3.817   2.289   9.750  0.1711  0.5195  0.0290
 3859SOL    HW123039   3.835   2.205   9.791  2.4378  0.8036 -0.3823
 3859SOL    HW223040   3.887   2.343   9.787  1.2744  1.0064 -2.7667
 3860SOL     OW23041   1.598   2.880   9.063  0.4297 -0.0767 -0.5813
 3860SOL    HW123042   1.614   2.947   9.129  2.0930 -0.3171 -0.7313
 3860SOL    HW223043   1.614   2.800   9.114  1.9323  0.0318 -0.8595
 3861SOL     OW23044   1.718   2.562  15.474 -0.3269  0.1344 -0.0249
 3861SOL    HW123045   1.807   2.549  15.507  0.8115  2.3941 -2.1908
 3861SOL    HW223046   1.733   2.565  15.379  0.4583  0.8573  0.1175
 3862SOL     OW23047   2.673   4.094   5.836  0.0628 -0.2217  0.1909
 3862SOL    HW123048   2.755   4.107   5.883  0.4264 -0.3649 -0.4035
 3862SOL    HW223049   2.706   4.105   5.747 -0.2572 -0.8561 -0.0067
 3863SOL     OW23050   1.390   2.723   5.856 -0.0875  0.5556 -0.0941
 3863SOL    HW123051   1.324   2.695   5.792 -0.8580  1.6031  0.2265
 3863SOL    HW223052   1.457   2.656   5.853 -0.6869 -0.1205  1.6020
 3864SOL     OW23053   1.721   4.158  11.463 -0.1683  0.6973 -0.2883
 3864SOL    HW123054   1.647   4.205  11.424  0.1580  0.3779 -1.2957
 3864SOL    HW223055   1.743   4.215  11.537 -0.6717 -1.1909  1.3221
 3865SOL     OW23056   2.584   1.463   2.259 -0.2741 -0.0513  0.4035
 3865SOL    HW123057   2.574   1.492   2.350  0.2464 -0.0409  0.4610
 3865SOL    HW223058   2.609   1.540   2.208 -0.9294  1.0528  1.7562
 3866SOL     OW23059   0.565   1.301   4.893 -0.0355  0.3104  0.1431
 3866SOL    HW123060   0.506   1.347   4.952  0.7450  1.8231 -0.2657
 3866SOL    HW223061   0.647   1.349   4.896 -2.0385  3.6928  1.5072
 3867SOL     OW23062   3.261   3.396   4.340  0.2487 -0.3775 -0.1767
 3867SOL    HW123063   3.318   3.327   4.373 -0.2088 -1.0741 -0.8580
 3867SOL    HW223064   3.303   3.399   4.255  0.0807  0.8179 -0.2204
 3868SOL     OW23065   2.919   0.270  17.553 -0.2162 -0.1269 -0.2046
 3868SOL    HW123066   2.866   0.270  17.473  1.5874  0.4715 -1.4115
 3868SOL    HW223067   2.937   0.364  17.550  1.0519 -0.3304  1.0521
 3869SOL     OW23068   1.563   4.528   9.180  0.3159  0.5970 -0.6271
 3869SOL    HW123069   1.550   4.443   9.137  1.7696 -0.4616  1.0515
 3869SOL    HW223070   1.648   4.557   9.148  1.1861  0.6319  1.7535
 3870SOL     OW23071   1.504   2.340   2.189  0.0307  0.0976  0.1094
 3870SOL    HW123072   1.509   2.397   2.112  2.6698 -0.5389 -0.1681
 3870SOL    HW223073   1.591   2.301   2.198 -1.0862 -1.8149  2.8443
 3871SOL     OW23074   2.920   3.069   6.197  0.3478 -0.4576 -0.5965
 3871SOL    HW123075   2.859   3.139   6.223  0.2917 -1.1117  1.0136
 3871SOL    HW223076   2.951   3.098   6.111  1.5367 -0.6582 -0.2284
 3872SOL     OW23077   1.649   1.478   7.441 -0.4154  0.5270 -0.8151
 3872SOL    HW123078   1.561   1.509   7.417 -0.2566  0.2813 -1.7188
 3872SOL    HW223079   1.666   1.398   7.391  2.0508  0.4857  0.1285
 3873SOL     OW23080   3.146   2.379   0.548 -0.6675 -0.0121  0.1167
 3873SOL    HW123081   3.057   2.397   0.517 -0.3979 -0.8946 -1.1708
 3873SOL    HW223082   3.129   2.303   0.604 -1.1354  0.0607  0.0744
 3874SOL     OW23083   4.598   4.198   4.740  0.1003  0.3267  0.3777
 3874SOL    HW123084   4.512   4.177   4.776  0.0755  1.7028  1.1426
 3874SOL    HW223085   4.637   4.111   4.741  0.1773  0.3342 -0.9719
 3875SOL     OW23086   3.801   2.774   0.841  0.7602 -0.8582 -0.3109
 3875SOL    HW123087   3.846   2.780   0.925  0.8283  2.0430 -0.5537
 3875SOL    HW223088   3.716   2.817   0.848  0.3758 -1.9067  1.5013
 3876SOL     OW23089   2.227   4.280   0.060  0.4566  0.7121 -0.2508
 3876SOL    HW123090   2.295   4.225   0.099 -0.6416 -0.1075  0.5253
 3876SOL    HW223091   2.148   4.258   0.111  0.5427 -0.8627 -0.8236
 3877SOL     OW23092   4.403   0.901   5.561 -0.2701 -0.0240  0.3828
 3877SOL    HW123093   4.316   0.914   5.524  1.0881  1.4203 -2.2788
 3877SOL    HW223094   4.468   0.917   5.493  1.4804  0.0943  2.0678
 3878SOL     OW23095   3.269   4.243  13.956 -0.3899 -0.3376 -0.8364
 3878SOL    HW123096   3.320   4.182  14.010 -0.4853  0.9230  0.6767
 3878SOL    HW223097   3.264   4.193  13.875  0.2880  1.5202 -2.0169
 3879SOL     OW23098   4.702   0.481   9.472 -0.1731 -0.4527 -0.1970
 3879SOL    HW123099   0.064   0.439   9.504 -1.5548 -2.1216  1.0429
 3879SOL    HW223100   0.022   0.554   9.423  2.0161 -1.3360  0.1904
 3880SOL     OW23101   4.169   2.924   3.083  0.6517 -0.1566  0.1342
 3880SOL    HW123102   4.192   2.845   3.132  3.0516  1.9909  2.4539
 3880SOL    HW223103   4.214   2.912   2.999  0.9010  0.3584  0.1947
 3881SOL     OW23104   3.623   3.871   6.615 -0.1087  0.6530 -0.1476
 3881SOL    HW123105   3.614   3.964   6.639 -1.6968  0.6396 -0.6917
 3881SOL    HW223106   3.704   3.865   6.565 -0.2511  1.1013 -0.4325
 3882SOL     OW23107   3.369   3.209   5.984  0.0498 -0.1303  0.1237
 3882SOL    HW123108   3.451   3.161   5.991 -1.2446 -2.1242  1.4323
 3882SOL    HW223109   3.398   3.300   5.973  2.0336 -1.1814 -3.4164
 3883SOL     OW23110   0.798   0.703  13.967 -0.0495  0.0913 -0.0833
 3883SOL    HW123111   0.765   0.793  13.970 -1.3201 -0.4215  1.2140
 3883SOL    HW223112   0.882   0.708  13.921  0.0694 -2.5993 -0.1727
 3884SOL     OW23113   3.188   2.519  15.801  0.2191  0.5413  0.2065
 3884SOL    HW123114   3.259   2.504  15.863  0.5632 -0.5305 -0.4397
 3884SOL    HW223115   3.171   2.426  15.781 -0.4916  0.6967  0.0914
 3885SOL     OW23116   2.240   0.403   6.095 -0.1082 -0.2804  0.2314
 3885SOL    HW123117   2.298   0.411   6.170 -0.0756  1.5628  0.0209
 3885SOL    HW223118   2.165   0.458   6.117  2.3735  2.2831  2.2280
 3886SOL     OW23119   0.064   3.374   3.194  0.0896  0.2819  0.3453
 3886SOL    HW123120   4.695   3.341   3.217  0.3875 -1.4856 -1.0773
 3886SOL    HW223121   0.107   3.291   3.172  2.1102  1.4518 -0.0981
 3887SOL     OW23122   0.477   2.516   3.965  0.0671 -0.3933  0.0307
 3887SOL    HW123123   0.382   2.505   3.959  0.1796 -1.1553 -0.3584
 3887SOL    HW223124   0.496   2.538   3.874  1.6381  0.5604  0.5793
 3888SOL     OW23125   1.100   4.354   2.319 -0.3273  0.9077  0.4996
 3888SOL    HW123126   1.045   4.417   2.365  1.4013  2.7627  0.0424
 3888SOL    HW223127   1.122   4.395   2.236  0.0282  0.4687  0.3752
 3889SOL     OW23128   2.263   0.522   3.307  0.2091  0.5377  0.1915
 3889SOL    HW123129   2.225   0.444   3.267 -1.5807  0.7375  1.5009
 3889SOL    HW223130   2.202   0.592   3.283 -0.4100  0.3526  1.2024
 3890SOL     OW23131   2.419   0.674   0.815  0.3778  0.3661  0.1117
 3890SOL    HW123132   2.465   0.624   0.749  2.7111 -0.6567  2.5196
 3890SOL    HW223133   2.366   0.740   0.770 -1.4704 -1.1344  0.0878
 3891SOL     OW23134   2.060   1.568   9.111  0.2343  0.4751  0.3224
 3891SOL    HW123135   2.099   1.537   9.193  0.2105 -1.6880 -0.4850
 3891SOL    HW223136   1.985   1.621   9.136  0.6682  1.8796 -1.3133
 3892SOL     OW23137   2.083   1.429   2.054 -0.0322 -0.0884 -0.1566
 3892SOL    HW123138   2.003   1.479   2.067  0.3108  0.4444 -0.0989
 3892SOL    HW223139   2.057   1.379   1.976  0.1654  1.1883 -1.0295
 3893SOL     OW23140   1.755   2.920   0.890  0.1764 -0.2086  0.1303
 3893SOL    HW123141   1.667   2.957   0.877  0.2395  0.0473  0.4186
 3893SOL    HW223142   1.783   2.961   0.972 -2.1136 -3.2544  2.4330
 3894SOL     OW23143   2.075   0.602   8.630  0.0534 -0.5225 -0.2648
 3894SOL    HW123144   2.104   0.656   8.557  0.7280  0.1571  0.5010
 3894SOL    HW223145   2.033   0.533   8.580  0.4996  0.0504 -1.4313
 3895SOL     OW23146   0.755   0.900   6.929 -0.1240  0.2682  0.2524
 3895SOL    HW123147   0.716   0.904   7.016  0.9531  2.0293  0.6427
 3895SOL    HW223148   0.674   0.880   6.881 -1.9947  3.1390  2.2078
 3896SOL     OW23149   0.113   4.718   7.399  0.1928 -0.1779 -0.6695
 3896SOL    HW123150   0.130   0.027   7.309 -0.5386 -0.2308 -0.8197
 3896SOL    HW223151   0.024   0.030   7.416  0.8919  0.7511  1.3666
 3897SOL     OW23152   4.257   3.722   2.287 -0.4729 -0.2013 -0.3652
 3897SOL    HW123153   4.226   3.789   2.226  1.7874 -0.1019 -1.4108
 3897SOL    HW223154   4.292   3.658   2.226 -1.0158 -1.3354  0.5184
 3898SOL     OW23155   3.811   0.134   5.834 -0.0849 -0.0943 -0.4853
 3898SOL    HW123156   3.718   0.133   5.855 -0.0489 -1.9435 -0.3944
 3898SOL    HW223157   3.845   0.090   5.912 -3.4252 -1.6434  0.0624
 3899SOL     OW23158   0.150   3.986   3.238  0.2292  0.6314  0.0112
 3899SOL    HW123159   0.084   3.923   3.210 -1.3023  0.7466  3.3744
 3899SOL    HW223160   0.096   4.058   3.269  1.2068  0.1387  2.8456
 3900SOL     OW23161   0.966   4.505   7.410 -0.0796  0.3574 -0.7368
 3900SOL    HW123162   0.881   4.461   7.412  0.4062 -0.6190 -1.4100
 3900SOL    HW223163   0.966   4.539   7.320  2.1138 -0.3532 -1.0067
 3901SOL     OW23164   4.184   2.395  10.006  0.2376  0.8365 -0.1639
 3901SOL    HW123165   4.278   2.378   9.996 -0.2295 -1.7641 -0.3720
 3901SOL    HW223166   4.172   2.402  10.100 -2.4721 -0.6915 -0.3899
 3902SOL     OW23167   2.029   3.023   5.132  0.0828 -0.0925 -0.5056
 3902SOL    HW123168   1.978   3.029   5.212 -1.4477  0.4260 -1.5105
 3902SOL    HW223169   2.103   3.069   5.171  0.4923 -0.0450 -1.3424
 3903SOL     OW23170   2.508   4.002   8.544 -0.1100  0.3729  0.4705
 3903SOL    HW123171   2.585   3.945   8.549 -0.3010  0.0356 -0.5956
 3903SOL    HW223172   2.494   4.010   8.639 -1.9541 -0.6987  0.2757
 3904SOL     OW23173   4.577   1.471   8.105 -0.0788  0.1234 -0.3578
 3904SOL    HW123174   4.608   1.524   8.032  1.2415 -0.7195 -0.4194
 3904SOL    HW223175   4.522   1.539   8.144 -1.8750 -0.9998 -0.9414
 3905SOL     OW23176   0.843   3.783  11.114 -0.0141  0.1772 -0.4848
 3905SOL    HW123177   0.805   3.826  11.191 -0.4218 -0.0550 -0.5596
 3905SOL    HW223178   0.787   3.710  11.089 -1.7819  1.1859  0.5007
 3906SOL     OW23179   3.016   1.265   1.530 -0.5621  0.3317 -0.6618
 3906SOL    HW123180   2.958   1.337   1.507 -1.1044  0.2061  0.3111
 3906SOL    HW223181   3.046   1.235   1.444 -1.5672  1.9431 -1.5737
 3907SOL     OW23182   2.428   1.877   7.085  0.7980 -0.4038  0.3978
 3907SOL    HW123183   2.501   1.930   7.055  2.0623 -1.6320  1.3513
 3907SOL    HW223184   2.363   1.889   7.015 -1.4077  2.0628  2.8154
 3908SOL     OW23185   4.491   3.821   7.081 -0.0244  0.0801 -0.0251
 3908SOL    HW123186   4.496   3.915   7.096  0.6627  0.1460 -0.6663
 3908SOL    HW223187   4.417   3.792   7.135  0.6758 -1.4884  0.1134
 3909SOL     OW23188   1.341   4.148   7.613  0.6296 -0.3204 -0.2220
 3909SOL    HW123189   1.310   4.158   7.703  1.6033 -0.3456  0.1210
 3909SOL    HW223190   1.281   4.077   7.588  0.9440 -0.2065 -1.2616
 3910SOL     OW23191   3.410   0.515   2.770 -0.2621 -0.0294  0.1758
 3910SOL    HW123192   3.413   0.605   2.738 -0.5200  0.5231  1.6908
 3910SOL    HW223193   3.321   0.490   2.746 -0.7220  2.7027 -1.0253
 3911SOL     OW23194   0.436   0.507   9.730 -0.2371 -0.0831 -0.4127
 3911SOL    HW123195   0.520   0.505   9.685  0.6350 -0.4173  1.2234
 3911SOL    HW223196   0.443   0.425   9.779 -1.1555 -0.6747 -1.2779
 3912SOL     OW23197   0.656   3.849   9.080  0.2082  0.5075  0.2582
 3912SOL    HW123198   0.581   3.844   9.139  0.6015 -1.9410  0.5656
 3912SOL    HW223199   0.646   3.937   9.044 -2.4134  0.0917  0.0273
 3913SOL     OW23200   0.113   4.215   1.919  0.0795  0.2400  0.0810
 3913SOL    HW123201   0.112   4.228   1.824 -0.7770  1.6212  0.2746
 3913SOL    HW223202   0.072   4.298   1.943 -1.1991 -0.2631 -0.3062
 3914SOL     OW23203   3.147   3.986   3.680  0.6197 -0.1619 -0.2506
 3914SOL    HW123204   3.206   4.060   3.665 -0.2308  0.3587 -1.0743
 3914SOL    HW223205   3.127   3.959   3.590  2.6689  2.7377 -1.6006
 3915SOL     OW23206   0.972   4.106   3.975  0.7763  0.4292 -0.2267
 3915SOL    HW123207   0.949   4.046   4.047 -2.0074 -1.6094 -2.7896
 3915SOL    HW223208   0.988   4.048   3.901  1.4284 -0.5582  0.6769
 3916SOL     OW23209   3.073   3.381   6.946  0.2443 -0.2108  0.4546
 3916SOL    HW123210   2.986   3.419   6.960  0.1406  0.3303 -1.6863
 3916SOL    HW223211   3.037   3.293   6.955  1.5546 -1.0039 -2.2565
 3917SOL     OW23212   2.643   1.071   3.942  0.2010 -0.1862  0.2142
 3917SOL    HW123213   2.553   1.098   3.959 -0.5326 -1.9132 -0.8819
 3917SOL    HW223214   2.669   1.038   4.028  0.7248 -2.5799 -0.8374
 3918SOL     OW23215   0.091   3.876  12.209  0.2436  0.2007  0.4262
 3918SOL    HW123216   0.007   3.890  12.254 -2.3238 -2.0172 -3.6218
 3918SOL    HW223217   0.137   3.957  12.229  2.9761 -0.3731 -3.4565
 3919SOL     OW23218   2.930   0.369  10.544 -0.6169  0.3417  0.3971
 3919SOL    HW123219   2.940   0.441  10.482  4.2078 -0.2277  0.5370
 3919SOL    HW223220   2.948   0.426  10.619  1.7277  0.0910  0.0259
 3920SOL     OW23221   0.484   2.544  13.799  0.2273 -0.4899 -0.5869
 3920SOL    HW123222   0.532   2.563  13.879  0.7505 -1.8215 -0.5827
 3920SOL    HW223223   0.474   2.623  13.746 -0.1990 -0.1494  0.0111
 3921SOL     OW23224   0.446   3.975   3.239 -0.1437  0.2004  0.0701
 3921SOL    HW123225   0.448   4.029   3.318 -1.9799 -1.2089  1.0836
 3921SOL    HW223226   0.353   3.953   3.243 -0.4952  1.8131  0.7888
 3922SOL     OW23227   0.541   1.288   3.918 -0.9081 -0.8829  0.2764
 3922SOL    HW123228   0.598   1.364   3.907 -2.8417  0.3608 -0.9865
 3922SOL    HW223229   0.510   1.281   3.828  0.7183 -1.4882 -0.2407
 3923SOL     OW23230   0.493   4.451   3.213 -0.4502 -0.4852 -0.2705
 3923SOL    HW123231   0.511   4.497   3.295  1.3011  1.3068 -1.6451
 3923SOL    HW223232   0.476   4.517   3.146 -0.3490  1.1667  1.3557
 3924SOL     OW23233   1.269   1.359   4.742 -0.6062 -0.1908 -0.4664
 3924SOL    HW123234   1.289   1.266   4.732 -0.1971 -0.0847 -0.6150
 3924SOL    HW223235   1.194   1.342   4.799 -0.0665 -0.0652  0.2918
 3925SOL     OW23236   0.927   2.890   8.347 -0.4348  0.3076 -0.3771
 3925SOL    HW123237   0.985   2.857   8.416 -0.3075 -1.8212 -1.4685
 3925SOL    HW223238   0.963   2.853   8.266 -0.4919 -0.3869 -0.0873
 3926SOL     OW23239   0.570   2.114  13.338  0.0125  0.2352 -0.1069
 3926SOL    HW123240   0.512   2.117  13.415  0.7851 -1.3289  0.5327
 3926SOL    HW223241   0.589   2.021  13.338 -1.5544 -0.0869 -0.1145
 3927SOL     OW23242   0.224   3.466   3.004 -0.2674 -0.5836 -0.1562
 3927SOL    HW123243   0.198   3.555   2.980 -0.4734 -0.6283 -0.0946
 3927SOL    HW223244   0.153   3.453   3.067 -1.6973  0.8146 -1.4686
 3928SOL     OW23245   3.591   4.430  12.455 -1.0276  0.2416  0.5588
 3928SOL    HW123246   3.593   4.519  12.419 -0.9510  0.6158  1.5058
 3928SOL    HW223247   3.639   4.382  12.388 -0.4144  1.2517  0.2710
 3929SOL     OW23248   4.601   2.701  14.991  0.2067 -0.4246 -0.1957
 3929SOL    HW123249   4.506   2.706  15.000  0.4874 -0.0556  2.3133
 3929SOL    HW223250   4.626   2.778  15.042  0.4202 -0.5734 -0.0747
 3930SOL     OW23251   1.031   2.012  14.461  0.2886  0.0968 -0.0067
 3930SOL    HW123252   0.986   2.048  14.538 -0.7290  1.0987 -1.0758
 3930SOL    HW223253   1.073   1.936  14.502 -1.4845 -0.0097  1.6265
 3931SOL     OW23254   1.484   3.718   3.927  0.1057 -0.0420  0.3061
 3931SOL    HW123255   1.556   3.746   3.983  1.2062 -3.7830  0.6964
 3931SOL    HW223256   1.472   3.793   3.868  1.8362  0.0703  0.0973
 3932SOL     OW23257   4.711   3.435   4.196 -0.1731  0.2239  0.0361
 3932SOL    HW123258   0.043   3.380   4.136 -0.4802  0.1643 -0.1699
 3932SOL    HW223259   4.623   3.421   4.160  0.9069 -2.8176 -1.4279
 3933SOL     OW23260   4.228   3.883   4.866 -0.2023  0.1601  0.3965
 3933SOL    HW123261   4.138   3.868   4.837 -0.2913 -0.8744  1.2317
 3933SOL    HW223262   4.252   3.904   4.776 -2.4129  3.0648  0.4834
 3934SOL     OW23263   4.078   3.615   2.452 -0.0676  0.6252  0.1465
 3934SOL    HW123264   4.084   3.534   2.401 -0.2518  1.2660 -0.8907
 3934SOL    HW223265   4.157   3.656   2.415 -0.1199  1.0039  0.4565
 3935SOL     OW23266   4.410   0.564   9.308 -0.0612 -0.2352 -0.4249
 3935SOL    HW123267   4.360   0.645   9.315  2.2881  1.2490 -0.6221
 3935SOL    HW223268   4.457   0.585   9.227  0.0957  1.0379 -0.0104
 3936SOL     OW23269   3.528   2.599   6.836  0.7395  0.1778  0.6143
 3936SOL    HW123270   3.474   2.636   6.906  0.2220 -1.2581  0.9843
 3936SOL    HW223271   3.539   2.670   6.773 -0.0473  0.1684  0.4684
 3937SOL     OW23272   1.969   4.559   8.182 -0.1712  0.4785 -0.2709
 3937SOL    HW123273   2.005   4.647   8.172 -0.5519  0.2493 -3.6480
 3937SOL    HW223274   2.021   4.523   8.254 -1.4530 -1.0076 -0.1077
 3938SOL     OW23275   3.929   3.797  16.920 -0.0705 -0.0894 -0.0079
 3938SOL    HW123276   3.874   3.874  16.903  2.3585  1.5347 -0.6257
 3938SOL    HW223277   4.002   3.827  16.866  1.1294 -0.5746  1.3463
 3939SOL     OW23278   2.508   3.585   5.731 -0.6612  0.2325 -0.6227
 3939SOL    HW123279   2.414   3.569   5.739 -0.6695  1.1820  1.2803
 3939SOL    HW223280   2.526   3.676   5.753 -0.0798 -0.5596  2.2353
 3940SOL     OW23281   2.886   4.468   6.196 -0.3973  0.2332 -0.2334
 3940SOL    HW123282   2.913   4.384   6.233  0.2702 -0.6966 -2.8265
 3940SOL    HW223283   2.967   4.506   6.162 -0.4333  1.6323  1.2136
 3941SOL     OW23284   1.727   4.422  16.902 -0.1959  0.2142  0.3004
 3941SOL    HW123285   1.678   4.454  16.978 -0.2525  0.8460 -0.0064
 3941SOL    HW223286   1.820   4.433  16.921  0.2568 -0.1088 -1.7622
 3942SOL     OW23287   1.748   4.080   1.309 -0.0751  0.5159  0.0803
 3942SOL    HW123288   1.797   4.004   1.341 -0.1191  0.6266  0.4139
 3942SOL    HW223289   1.682   4.079   1.378 -2.0844 -3.1718 -1.8630
 3943SOL     OW23290   2.794   2.909   5.350 -0.2202  0.0111  0.7331
 3943SOL    HW123291   2.835   2.963   5.418  0.0282  0.8419 -0.0836
 3943SOL    HW223292   2.822   2.820   5.371 -0.3210 -0.9001 -2.9739
 3944SOL     OW23293   1.352   4.200   6.185  0.0687 -0.2690  0.4258
 3944SOL    HW123294   1.411   4.197   6.261  1.2454  2.4740 -0.3816
 3944SOL    HW223295   1.402   4.234   6.111  0.3001  0.1359  0.7689
 3945SOL     OW23296   0.165   3.634   5.447  0.1378  0.5228  0.1507
 3945SOL    HW123297   0.200   3.577   5.516  1.6547  0.5368 -0.6163
 3945SOL    HW223298   0.095   3.678   5.496 -1.2591 -1.3171 -0.2182
 3946SOL     OW23299   3.480   0.625   5.840 -0.1328  0.1296  0.7699
 3946SOL    HW123300   3.493   0.603   5.748 -0.7143 -1.2576  1.0200
 3946SOL    HW223301   3.534   0.705   5.845  0.5394 -0.3293  0.8683
 3947SOL     OW23302   1.865   0.684   5.284  0.4059  0.0711 -0.0555
 3947SOL    HW123303   1.919   0.651   5.356 -0.2338 -0.8821 -0.0170
 3947SOL    HW223304   1.869   0.613   5.219  2.4772 -0.6422  0.8529
 3948SOL     OW23305   1.943   3.645   9.550  0.0675  0.0650  0.1374
 3948SOL    HW123306   1.967   3.733   9.522  1.1199 -0.5649 -0.9521
 3948SOL    HW223307   1.858   3.634   9.508 -0.1984 -2.4422  1.2798
 3949SOL     OW23308   2.178   0.940   4.003  0.3379  0.1264 -0.8451
 3949SOL    HW123309   2.217   0.902   4.082  0.5529  0.1407 -0.9450
 3949SOL    HW223310   2.197   0.871   3.940  2.4136  0.1709 -0.2651
 3950SOL     OW23311   4.046   4.043   0.723  0.1208 -0.0172  0.1360
 3950SOL    HW123312   4.138   4.021   0.730 -0.1232 -1.0264  0.1571
 3950SOL    HW223313   4.002   3.958   0.729  0.9515 -0.4370  0.3056
 3951SOL     OW23314   1.475   3.021   4.480 -0.6619 -0.3912 -0.0097
 3951SOL    HW123315   1.492   2.994   4.390  0.7785 -0.3708  0.2533
 3951SOL    HW223316   1.520   3.105   4.485  2.2394 -1.8107 -2.3436
 3952SOL     OW23317   3.718   1.840   5.692 -0.0803  0.5752 -0.2405
 3952SOL    HW123318   3.739   1.848   5.599 -1.4563 -1.5690 -0.7202
 3952SOL    HW223319   3.754   1.925   5.717  0.7552  0.7660 -2.0981
 3953SOL     OW23320   3.030   1.259   2.775 -0.2974 -0.4882  0.2009
 3953SOL    HW123321   3.051   1.192   2.840  0.2899 -1.0398 -0.5713
 3953SOL    HW223322   3.006   1.335   2.828 -0.9611 -1.5215  1.3905
 3954SOL     OW23323   1.529   2.394   6.641 -0.1087 -0.4941  0.1545
 3954SOL    HW123324   1.458   2.448   6.676 -1.9138 -1.2821 -2.2996
 3954SOL    HW223325   1.492   2.315   6.600 -1.2033 -1.5225  3.0854
 3955SOL     OW23326   3.495   3.838   5.049  0.4455  0.0599 -0.1363
 3955SOL    HW123327   3.537   3.783   4.982  0.0942 -2.2974  1.5781
 3955SOL    HW223328   3.494   3.770   5.117 -0.7392  0.7326  0.5064
 3956SOL     OW23329   3.923   2.131   7.616 -0.3278 -0.1239 -0.1962
 3956SOL    HW123330   3.923   2.055   7.558  0.1955 -0.9165  0.8304
 3956SOL    HW223331   3.859   2.099   7.680  0.1006 -1.5882 -0.4912
 3957SOL     OW23332   1.876   3.094   5.936  0.3166  0.3415  0.3520
 3957SOL    HW123333   1.807   3.148   5.896 -0.0323 -0.6750 -0.3973
 3957SOL    HW223334   1.861   3.011   5.892  1.0961  0.5291 -0.2788
 3958SOL     OW23335   4.270   4.647  12.611  0.0396 -0.2735  0.3696
 3958SOL    HW123336   4.242   0.016  12.583 -1.8729 -1.5290 -1.6365
 3958SOL    HW223337   4.338   4.669  12.675 -0.7117  0.5272  0.8893
 3959SOL     OW23338   0.047   4.528   8.737  0.1358  0.0407 -0.2137
 3959SOL    HW123339   0.114   4.586   8.704 -1.0255  1.2981 -0.3583
 3959SOL    HW223340   0.000   4.587   8.796  2.7471 -0.1367  1.9983
 3960SOL     OW23341   4.417   4.310   0.388 -0.0549 -0.0816  0.3036
 3960SOL    HW123342   4.326   4.310   0.416 -0.6186 -0.4844 -1.5118
 3960SOL    HW223343   4.409   4.333   0.296  0.4448 -0.6008  0.1318
 3961SOL     OW23344   2.171   4.409   6.709  0.6118 -0.0079 -0.2136
 3961SOL    HW123345   2.206   4.342   6.769  2.8050  1.7654  0.4775
 3961SOL    HW223346   2.077   4.418   6.725  0.9098  1.0728  0.9533
 3962SOL     OW23347   0.828   2.969   4.733  0.3866  0.6221  0.2294
 3962SOL    HW123348   0.733   2.964   4.740  0.3607  2.9650  1.5984
 3962SOL    HW223349   0.854   2.964   4.825  0.3603  1.6173  0.2869
 3963SOL     OW23350   2.084   2.261   6.739  0.2060 -0.0798  0.2109
 3963SOL    HW123351   2.076   2.254   6.834 -0.4079 -2.7259 -0.0240
 3963SOL    HW223352   2.085   2.168   6.716 -2.4303 -0.5583  1.9545
 3964SOL     OW23353   2.201   3.885   9.703 -0.2944  0.0236  0.1439
 3964SOL    HW123354   2.143   3.896   9.627 -0.2085  2.9184  0.5190
 3964SOL    HW223355   2.199   3.789   9.700  0.2959  0.0311 -0.5875
 3965SOL     OW23356   2.730   4.295   3.991 -0.3560  0.0793 -0.1593
 3965SOL    HW123357   2.652   4.257   3.951 -0.6073 -2.1298  2.4870
 3965SOL    HW223358   2.792   4.284   3.919 -0.7188  0.5404 -0.5420
 3966SOL     OW23359   3.470   3.029   7.294 -0.2570 -0.5068 -0.5599
 3966SOL    HW123360   3.513   2.997   7.215 -1.5957 -2.8882 -0.3076
 3966SOL    HW223361   3.462   3.119   7.261 -0.0343  0.0944  1.0172
 3967SOL     OW23362   2.241   0.610   3.579  0.4525 -0.5705 -0.3186
 3967SOL    HW123363   2.227   0.549   3.507 -0.0040 -0.4249 -0.3522
 3967SOL    HW223364   2.198   0.554   3.644 -0.5358 -0.4114 -0.8474
 3968SOL     OW23365   2.468   0.244   8.083  0.4799 -0.1989  0.2965
 3968SOL    HW123366   2.378   0.273   8.068  0.4419  1.2460  3.2511
 3968SOL    HW223367   2.517   0.283   8.010  1.0496 -0.0958  0.7311
 3969SOL     OW23368   1.468   3.496  11.369 -0.2340  0.3163 -0.5700
 3969SOL    HW123369   1.493   3.585  11.344  1.6493 -0.2902 -0.8675
 3969SOL    HW223370   1.524   3.447  11.309 -1.2229 -1.2738 -0.1822
 3970SOL     OW23371   0.736   1.441  12.951 -0.4575  0.7230 -0.7415
 3970SOL    HW123372   0.695   1.510  12.898  2.4472  2.6167 -0.4885
 3970SOL    HW223373   0.664   1.437  13.014 -2.1218 -1.2104 -2.7679
 3971SOL     OW23374   0.474   1.689  11.112  0.1433  0.0182  0.4521
 3971SOL    HW123375   0.475   1.782  11.135  1.2790 -0.0098  0.5202
 3971SOL    HW223376   0.426   1.700  11.030  1.0795  1.0389  0.0391
 3972SOL     OW23377   2.753   2.992   3.619  0.4705 -0.0823  0.3313
 3972SOL    HW123378   2.774   2.936   3.693 -0.0944 -2.3872 -1.2309
 3972SOL    HW223379   2.838   3.022   3.586  1.5161 -3.0325  0.3201
 3973SOL     OW23380   1.528   1.901   3.595 -0.5352  0.0902  0.7263
 3973SOL    HW123381   1.472   1.920   3.520  1.9876  1.2198 -0.8814
 3973SOL    HW223382   1.502   1.958   3.667  0.1802  0.3406  0.7903
 3974SOL     OW23383   4.149   1.842   9.347 -0.0825  0.0071  0.2604
 3974SOL    HW123384   4.085   1.846   9.418  3.0221  2.2179  2.9462
 3974SOL    HW223385   4.203   1.770   9.379 -0.6697 -0.1570  0.8938
 3975SOL     OW23386   3.800   3.332   6.411  0.1742  0.3233  0.3233
 3975SOL    HW123387   3.864   3.400   6.390  0.6452 -0.9568 -2.2966
 3975SOL    HW223388   3.847   3.285   6.479  1.0448  0.1421 -0.4132
 3976SOL     OW23389   1.987   3.534   8.120 -0.2908 -0.2665 -0.5897
 3976SOL    HW123390   2.026   3.612   8.159  1.1577 -1.5678  0.5550
 3976SOL    HW223391   1.977   3.491   8.205  1.4869  0.3270 -0.0731
 3977SOL     OW23392   1.452   0.402  11.664 -0.7677 -0.2657 -0.0701
 3977SOL    HW123393   1.464   0.319  11.617  2.1511 -0.6543  1.3300
 3977SOL    HW223394   1.524   0.401  11.727 -0.4451 -1.8923 -0.4462
 3978SOL     OW23395   1.465   0.162   7.352 -0.3343  0.2009 -0.0597
 3978SOL    HW123396   1.445   0.077   7.391 -0.5340 -0.3286 -1.3214
 3978SOL    HW223397   1.392   0.160   7.290  0.2295 -0.1642 -0.7070
 3979SOL     OW23398   3.826   2.909   7.049 -0.4252 -0.0595  0.0965
 3979SOL    HW123399   3.782   2.848   7.108  1.1265 -1.3039 -0.0006
 3979SOL    HW223400   3.895   2.947   7.103  0.4100  2.6462 -2.8267
 3980SOL     OW23401   0.846   2.494   2.028  0.1545  0.3780  0.1180
 3980SOL    HW123402   0.824   2.407   1.994 -3.9652  2.0881 -1.6055
 3980SOL    HW223403   0.938   2.496   2.002  0.1708  2.1335  0.3137
 3981SOL     OW23404   0.080   0.578   2.884  0.0710 -0.0117 -0.1989
 3981SOL    HW123405   0.017   0.574   2.956  2.0926  2.6268  1.7317
 3981SOL    HW223406   0.053   0.520   2.813  0.2713  0.2010 -0.4483
 3982SOL     OW23407   3.144   3.528  16.917 -0.2004  0.2281  0.3646
 3982SOL    HW123408   3.168   3.515  16.825 -0.1476 -0.9483  0.5383
 3982SOL    HW223409   3.091   3.606  16.906 -1.1175 -0.1630  1.9178
 3983SOL     OW23410   1.592   0.634   6.433  0.0787  0.8279 -0.0405
 3983SOL    HW123411   1.522   0.570   6.416  1.4438 -0.4135 -0.9906
 3983SOL    HW223412   1.538   0.713   6.433 -0.7803  0.2454  1.0464
 3984SOL     OW23413   2.470   2.272   8.406 -0.3025  0.2390 -0.1701
 3984SOL    HW123414   2.541   2.270   8.470 -0.9705 -3.3395  0.4462
 3984SOL    HW223415   2.495   2.196   8.354  0.4768  0.0054  0.5309
 3985SOL     OW23416   3.863   4.313   1.063 -0.0859 -0.3538 -0.8678
 3985SOL    HW123417   3.897   4.227   1.087 -0.1228 -0.7874 -2.3764
 3985SOL    HW223418   3.943   4.355   1.032 -0.9248  1.3253 -0.7258
 3986SOL     OW23419   1.319   1.983  11.706  0.5591  0.0615 -0.7678
 3986SOL    HW123420   1.261   2.058  11.694  0.8510  0.2324 -1.0854
 3986SOL    HW223421   1.404   2.016  11.678  0.6403  0.0437 -0.5440
 3987SOL     OW23422   3.896   1.589  10.271 -0.3058  0.0501 -0.1759
 3987SOL    HW123423   3.845   1.515  10.305 -4.1690  1.7222 -2.3358
 3987SOL    HW223424   3.966   1.548  10.221 -2.0650 -1.6759 -1.2745
 3988SOL     OW23425   4.267   2.725   3.236  0.2759  0.0675 -0.4580
 3988SOL    HW123426   4.358   2.742   3.260  0.0494 -0.7487  1.0259
 3988SOL    HW223427   4.237   2.690   3.321 -3.5855  2.8410 -0.6821
 3989SOL     OW23428   3.962   0.178   8.827  0.2217 -0.7270  0.1499
 3989SOL    HW123429   3.932   0.264   8.798  0.5709 -0.3801  0.8165
 3989SOL    HW223430   4.056   0.198   8.829 -0.1947  1.1885  0.1198
 3990SOL     OW23431   2.706   2.896   1.728  0.1729  0.0121 -0.1156
 3990SOL    HW123432   2.644   2.852   1.787  0.5255 -2.7907 -1.8694
 3990SOL    HW223433   2.775   2.917   1.792  0.2050  0.7228 -0.3775
 3991SOL     OW23434   3.841   2.684   1.120 -0.0723 -0.1466  0.0259
 3991SOL    HW123435   3.774   2.617   1.107  0.7550 -0.8619 -0.5344
 3991SOL    HW223436   3.837   2.706   1.213 -0.0598 -0.2623  0.0541
 3992SOL     OW23437   2.037   2.788  17.088  0.1771  0.1710  0.6757
 3992SOL    HW123438   2.041   2.757  16.998 -0.6426 -1.3483  1.1682
 3992SOL    HW223439   2.057   2.882  17.083  2.1981 -0.1941  1.7046
 3993SOL     OW23440   0.718   3.888   5.095  0.3978 -0.2054 -0.1308
 3993SOL    HW123441   0.764   3.804   5.104  1.5432  0.7922  3.1544
 3993SOL    HW223442   0.744   3.913   5.006 -0.2752 -0.7879 -0.4964
 3994SOL     OW23443   4.353   2.674   0.550  0.6562  0.3905 -0.3596
 3994SOL    HW123444   4.342   2.594   0.497  0.8341  0.0884  0.0675
 3994SOL    HW223445   4.266   2.691   0.588 -0.1433  1.0258 -2.4530
 3995SOL     OW23446   1.643   0.762   0.646 -0.1014 -0.0163 -0.4538
 3995SOL    HW123447   1.706   0.824   0.611 -0.2229  1.0030  1.1374
 3995SOL    HW223448   1.693   0.713   0.711 -0.4302  0.0952 -0.1162
 3996SOL     OW23449   0.015   0.679   5.503 -0.1245  0.5172  0.5833
 3996SOL    HW123450   0.102   0.640   5.497  0.2625  1.3052  1.0115
 3996SOL    HW223451   4.679   0.603   5.483 -1.0700  1.1260  0.7937
 3997SOL     OW23452   0.707   1.587   6.995 -0.5597 -0.3019 -0.6406
 3997SOL    HW123453   0.739   1.606   6.907  0.4342 -2.1305 -0.6857
 3997SOL    HW223454   0.766   1.521   7.031  1.0641  1.5232  0.0081
 3998SOL     OW23455   3.663   4.057   9.018  0.2121 -0.0395 -0.2179
 3998SOL    HW123456   3.703   4.130   9.065  1.3913 -0.2944 -0.8541
 3998SOL    HW223457   3.726   4.024   8.955  0.9301  1.5704 -0.3454
 3999SOL     OW23458   2.377   1.158   3.965  0.4159 -0.0664 -0.3156
 3999SOL    HW123459   2.302   1.110   3.930  2.6130 -2.9318 -1.0527
 3999SOL    HW223460   2.355   1.169   4.057  0.5322  0.6535 -0.3718
 4000SOL     OW23461   4.048   2.258  14.428 -0.7169 -0.1593 -0.0378
 4000SOL    HW123462   3.983   2.192  14.452 -0.9960  0.1248 -0.0153
 4000SOL    HW223463   4.129   2.237  14.475 -1.2170 -1.0283  0.4335
 4001SOL     OW23464   0.792   3.724   3.295 -0.1707 -0.3435  0.4888
 4001SOL    HW123465   0.824   3.716   3.205  0.7990  1.6347  0.6394
 4001SOL    HW223466   0.702   3.708   3.266 -0.5161  2.2431  0.0488
 4002SOL     OW23467   2.105   1.697  10.936  1.1231 -0.1895 -0.4084
 4002SOL    HW123468   2.176   1.744  10.980  1.3708 -1.0715  0.1401
 4002SOL    HW223469   2.030   1.744  10.972  1.2817  0.3685 -0.7955
 4003SOL     OW23470   1.528   0.514   4.181  0.1067 -0.5282 -0.3937
 4003SOL    HW123471   1.526   0.418   4.192 -0.1124 -0.1855  2.7560
 4003SOL    HW223472   1.556   0.541   4.269  0.5322 -1.1584 -0.3288
 4004SOL     OW23473   0.214   2.521   4.427  0.0974  0.8084 -0.2879
 4004SOL    HW123474   0.188   2.519   4.335 -0.6751 -1.2070 -0.0358
 4004SOL    HW223475   0.133   2.488   4.465 -0.1307  0.4803 -1.0572
 4005SOL     OW23476   2.413   0.653   7.418  0.6010 -0.6060 -0.0438
 4005SOL    HW123477   2.332   0.620   7.456 -1.4590  1.5192 -2.5430
 4005SOL    HW223478   2.413   0.631   7.325 -0.4851 -0.9826  0.0419
 4006SOL     OW23479   2.556   3.426   6.513 -0.1433  0.0690  0.0559
 4006SOL    HW123480   2.574   3.489   6.583 -0.0235 -1.0431  1.0104
 4006SOL    HW223481   2.646   3.397   6.498 -0.3942  0.4403 -2.1650
 4007SOL     OW23482   1.403   2.459   8.619  0.2690 -0.0272  0.1997
 4007SOL    HW123483   1.438   2.390   8.675 -1.9469  0.0858  1.7211
 4007SOL    HW223484   1.315   2.423   8.626  0.2989  0.1384  1.4970
 4008SOL     OW23485   1.075   1.941  17.674  0.2377 -0.1016 -0.1839
 4008SOL    HW123486   1.145   1.972  17.617 -0.6403 -1.0959 -1.8291
 4008SOL    HW223487   1.121   1.901   0.072  0.7914 -0.9433 -0.9853
 4009SOL     OW23488   3.736   1.899   6.747  0.6260  0.5943  0.1946
 4009SOL    HW123489   3.787   1.909   6.827  1.8871  1.4082 -0.7152
 4009SOL    HW223490   3.668   1.859   6.801  0.8201  0.2337  0.1720
 4010SOL     OW23491   2.804   4.197   3.434  0.1280 -0.2016  0.1213
 4010SOL    HW123492   2.807   4.154   3.519 -1.7757  2.9242  1.8173
 4010SOL    HW223493   2.710   4.188   3.419  0.1348  0.5333 -0.3832
 4011SOL     OW23494   3.968   4.099  13.224  0.5561 -0.0388  0.2701
 4011SOL    HW123495   3.932   4.042  13.292  1.7866 -0.4890  0.5393
 4011SOL    HW223496   4.047   4.050  13.202  0.7039 -0.4556  1.7589
 4012SOL     OW23497   1.481   0.140  11.566 -0.1008 -0.1085  0.1415
 4012SOL    HW123498   1.412   0.090  11.522 -0.1734 -1.1256  1.4232
 4012SOL    HW223499   1.556   0.113  11.512 -1.3640  0.8548 -2.0803
 4013SOL     OW23500   3.261   1.049   6.713 -0.1001  0.4418  0.1302
 4013SOL    HW123501   3.289   0.963   6.683  1.1099  0.6055  0.7932
 4013SOL    HW223502   3.304   1.107   6.651 -1.1528  0.5466 -0.5092
 4014SOL     OW23503   1.892   0.126  16.534 -0.4479  0.1603 -0.0947
 4014SOL    HW123504   1.948   0.049  16.523 -2.4658 -1.3059 -0.1448
 4014SOL    HW223505   1.893   0.152  16.626  2.0309 -0.5803  0.0787
 4015SOL     OW23506   0.581   3.066   7.253  0.3511 -0.3401  0.6145
 4015SOL    HW123507   0.492   3.034   7.269  0.5409 -1.0162  0.3154
 4015SOL    HW223508   0.559   3.145   7.203 -0.0568 -0.5322  0.4910
 4016SOL     OW23509   3.101   2.931  10.612  0.3594 -0.4463 -0.1684
 4016SOL    HW123510   3.138   2.994  10.550 -0.6206  1.5377  1.2697
 4016SOL    HW223511   3.021   2.907  10.565  0.0688 -1.1989  0.7184
 4017SOL     OW23512   3.480   3.693   3.331  0.8553 -0.1427 -0.0394
 4017SOL    HW123513   3.420   3.736   3.392  2.0246  0.9039  0.3733
 4017SOL    HW223514   3.419   3.638   3.282  2.4414 -2.9237  1.1005
 4018SOL     OW23515   1.649   0.270   3.640 -0.5504  0.3499 -0.0537
 4018SOL    HW123516   1.668   0.347   3.693  0.4332 -0.5183  0.8537
 4018SOL    HW223517   1.740   0.251   3.616 -0.8053  0.5192 -1.1814
 4019SOL     OW23518   1.228   1.110   0.468 -0.1762 -0.1932  0.1283
 4019SOL    HW123519   1.175   1.077   0.396  1.5664 -0.1563 -1.1636
 4019SOL    HW223520   1.276   1.032   0.498  0.0651  0.2889  0.9942
 4020SOL     OW23521   0.044   4.027   9.071  0.2095 -0.0457  0.2723
 4020SOL    HW123522   4.711   4.108   9.059 -0.2686 -1.0142 -4.4984
 4020SOL    HW223523   0.102   4.028   8.995  1.4461 -0.5878  1.2126
 4021SOL     OW23524   4.468   4.514   6.723  0.0530 -0.5580 -0.1032
 4021SOL    HW123525   4.442   4.455   6.653 -0.1152 -0.9303  0.2706
 4021SOL    HW223526   4.382   4.526   6.763 -0.0819 -2.2011  0.0842
 4022SOL     OW23527   0.951   4.528   9.261 -0.0669 -0.3116 -0.3032
 4022SOL    HW123528   0.965   4.613   9.304 -2.3466  0.0267 -0.2514
 4022SOL    HW223529   0.902   4.553   9.183  1.0149 -2.0628 -1.5346
 4023SOL     OW23530   0.712   3.696   8.251  0.7561  0.4812  0.2486
 4023SOL    HW123531   0.742   3.608   8.230  2.0798  0.6591  1.4224
 4023SOL    HW223532   0.618   3.678   8.263  1.3017 -1.3515  1.8120
 4024SOL     OW23533   3.788   2.094   2.945 -0.5549  0.1395  0.0339
 4024SOL    HW123534   3.702   2.054   2.930 -0.3997 -0.3475  0.4283
 4024SOL    HW223535   3.815   2.055   3.028  0.4668 -0.0323 -0.3820
 4025SOL     OW23536   3.054   3.976   3.925 -0.9598 -0.0237  0.6566
 4025SOL    HW123537   3.080   3.967   3.833 -0.3770  1.4262  0.6673
 4025SOL    HW223538   2.978   3.919   3.931 -2.5938  2.2005  1.0833
 4026SOL     OW23539   4.012   4.556   0.844 -0.3646 -0.9230  0.6956
 4026SOL    HW123540   3.920   4.550   0.821 -0.0391  1.0331 -1.1467
 4026SOL    HW223541   4.058   4.490   0.792  0.0756 -0.8724  1.0164
 4027SOL     OW23542   2.450   0.815   6.392 -0.0849 -0.3678 -0.0216
 4027SOL    HW123543   2.394   0.745   6.426  1.2563 -0.8398  1.2369
 4027SOL    HW223544   2.394   0.893   6.396 -3.5665 -2.8356  0.0299
 4028SOL     OW23545   3.690   1.510   7.893  0.3129 -0.2433 -0.0322
 4028SOL    HW123546   3.643   1.555   7.822 -0.7972 -4.1794 -1.7905
 4028SOL    HW223547   3.625   1.463   7.944 -1.1934  0.0566 -1.6737
 4029SOL     OW23548   1.107   3.650  15.251 -0.3389  0.4550 -0.1953
 4029SOL    HW123549   1.036   3.633  15.313 -0.1073 -0.2107 -0.1153
 4029SOL    HW223550   1.064   3.710  15.190  0.9385  0.4857 -1.0544
 4030SOL     OW23551   1.299   1.964   4.680  0.2533 -0.5029  0.4713
 4030SOL    HW123552   1.216   1.939   4.640 -0.2408  0.4617  0.8972
 4030SOL    HW223553   1.272   2.053   4.703 -1.2281 -0.2259 -2.3375
 4031SOL     OW23554   2.280   2.804   8.061 -0.4275  0.1578 -0.1871
 4031SOL    HW123555   2.214   2.782   7.995 -0.1225  1.9847 -1.0932
 4031SOL    HW223556   2.220   2.798   8.136  1.1415 -0.2886  1.0212
 4032SOL     OW23557   3.399   4.207  13.553  0.5594  0.5537 -0.2473
 4032SOL    HW123558   3.395   4.296  13.589 -3.0949  0.4571 -0.4752
 4032SOL    HW223559   3.380   4.153  13.630  2.3928 -0.4174 -0.4743
 4033SOL     OW23560   1.165   3.663   2.425  0.1809  0.0591  0.7606
 4033SOL    HW123561   1.220   3.705   2.359  0.1505  1.0962  1.3916
 4033SOL    HW223562   1.219   3.645   2.502  2.3230 -1.3846 -1.0656
 4034SOL     OW23563   1.989   2.406   3.208 -0.0039 -0.8513  0.0108
 4034SOL    HW123564   1.933   2.350   3.262 -0.2945  0.8184  1.4704
 4034SOL    HW223565   2.070   2.391   3.256  0.6531  1.0342 -0.4852
 4035SOL     OW23566   4.109   3.646  15.245  0.4189  0.1809  0.1316
 4035SOL    HW123567   4.169   3.702  15.295 -0.4057 -0.7846  2.2456
 4035SOL    HW223568   4.050   3.623  15.316 -0.3019 -0.3318 -0.6438
 4036SOL     OW23569   0.276   4.550   9.869  0.1978 -0.4153 -0.1477
 4036SOL    HW123570   0.286   4.468   9.820 -0.1057 -0.4613 -0.1308
 4036SOL    HW223571   0.183   4.533   9.882 -0.1764  0.7533 -1.3030
 4037SOL     OW23572   4.364   2.785   5.971 -0.4125  0.3485 -0.0648
 4037SOL    HW123573   4.344   2.791   6.064 -1.2868 -0.2592 -0.2099
 4037SOL    HW223574   4.315   2.858   5.932 -0.2084 -0.1043 -1.1773
 4038SOL     OW23575   4.427   1.278  16.669 -0.0141  0.9329 -0.5230
 4038SOL    HW123576   4.514   1.312  16.651  0.3578 -0.3633 -1.1688
 4038SOL    HW223577   4.429   1.253  16.761 -1.2838  1.8252 -0.2571
 4039SOL     OW23578   4.600   3.462   4.436 -0.0216 -0.0107  0.3643
 4039SOL    HW123579   4.625   3.475   4.344  0.6125 -0.1206  0.5177
 4039SOL    HW223580   4.505   3.455   4.428 -0.0037  0.6951 -0.4303
 4040SOL     OW23581   0.006   3.187  11.786  0.2454  0.6129  0.9689
 4040SOL    HW123582   4.659   3.171  11.855  1.3766  0.0466  1.9090
 4040SOL    HW223583   0.012   3.282  11.785  1.4247  0.5411  1.2698
 4041SOL     OW23584   1.855   2.068   9.908 -0.1893  0.3768 -0.3054
 4041SOL    HW123585   1.818   2.146   9.866 -0.5072  0.4261  0.0627
 4041SOL    HW223586   1.915   2.031   9.843  2.4942  2.2745  1.0987
 4042SOL     OW23587   1.825   0.460   4.831  0.0006 -0.0036  0.9005
 4042SOL    HW123588   1.767   0.384   4.819  2.4570 -1.4708 -1.8080
 4042SOL    HW223589   1.768   0.526   4.792  1.2011  0.0389 -0.7836
 4043SOL     OW23590   2.757   2.261  12.186 -0.0771 -0.0902  0.1714
 4043SOL    HW123591   2.695   2.203  12.230  0.5846 -1.0169 -0.0983
 4043SOL    HW223592   2.720   2.277  12.100 -0.3186 -0.4066  0.2188
 4044SOL     OW23593   0.539   0.060   0.652 -0.3618  0.3890 -0.3969
 4044SOL    HW123594   0.548   0.155   0.656  0.9797  0.1732  1.6042
 4044SOL    HW223595   0.485   0.046   0.730  2.7362 -0.7584  1.5593
 4045SOL     OW23596   4.654   4.518   2.941  0.1658  1.3939  0.0191
 4045SOL    HW123597   4.618   4.595   2.898 -0.8395 -0.1410 -1.9234
 4045SOL    HW223598   0.021   4.521   2.898  0.2994  1.6344  0.2956
 4046SOL     OW23599   2.812   1.762  17.321  0.0896 -0.0316 -0.2416
 4046SOL    HW123600   2.862   1.682  17.337  0.3464  0.0975 -0.4180
 4046SOL    HW223601   2.866   1.819  17.375 -1.4592  2.3781 -1.2621
 4047SOL     OW23602   3.918   1.819  11.008  0.1056  0.0229 -0.3639
 4047SOL    HW123603   3.931   1.878  11.083  0.7091  1.2491 -1.4370
 4047SOL    HW223604   3.822   1.811  11.010  0.1326 -0.3308 -0.4914
 4048SOL     OW23605   0.725   1.153  12.829 -0.4401  0.2713 -0.1615
 4048SOL    HW123606   0.785   1.171  12.901 -0.0615 -1.3127 -0.0634
 4048SOL    HW223607   0.695   1.244  12.832 -0.6086  0.1994  0.3684
 4049SOL     OW23608   2.013   0.732   7.358  0.1593  0.5266  0.2468
 4049SOL    HW123609   1.956   0.712   7.284  1.1574  0.3151 -0.4612
 4049SOL    HW223610   2.095   0.747   7.311  0.9688 -1.7023  0.9461
 4050SOL     OW23611   2.828   3.839   3.827  0.1272 -0.0840 -0.0486
 4050SOL    HW123612   2.862   3.756   3.861  0.4179 -0.1328 -0.4510
 4050SOL    HW223613   2.734   3.825   3.833  0.2943 -1.1764  0.1124
 4051SOL     OW23614   2.040   0.099   2.055  0.0694 -0.3953  0.0903
 4051SOL    HW123615   2.115   0.084   2.113  0.5603 -0.2220 -0.5012
 4051SOL    HW223616   1.966   0.048   2.089 -1.3337  2.1663  0.8904
 4052SOL     OW23617   0.800   2.388   1.588  0.1770  0.5126 -0.1750
 4052SOL    HW123618   0.732   2.445   1.625  1.5315 -0.7201  4.2071
 4052SOL    HW223619   0.774   2.312   1.639  0.8023  0.2163 -0.2975
 4053SOL     OW23620   1.453   1.652   1.639 -0.2514 -0.5003 -0.0817
 4053SOL    HW123621   1.493   1.565   1.641 -1.1381 -0.8968  0.5688
 4053SOL    HW223622   1.373   1.633   1.589 -0.3023 -1.7011  0.4545
 4054SOL     OW23623   0.943   0.749   7.182  0.0608  0.0012  0.4737
 4054SOL    HW123624   0.851   0.729   7.168 -0.0796  0.1687  1.1354
 4054SOL    HW223625   0.963   0.690   7.256  0.8271 -1.9377 -1.2864
 4055SOL     OW23626   4.142   2.245   1.564 -0.1204 -0.2932 -0.5622
 4055SOL    HW123627   4.119   2.309   1.496  1.0866 -0.3827 -1.0582
 4055SOL    HW223628   4.067   2.186   1.557 -0.6365  0.3568 -0.4811
 4056SOL     OW23629   3.093   2.789   7.813  0.2602 -0.3378 -0.4098
 4056SOL    HW123630   3.056   2.701   7.806  1.1523 -0.8378  1.3038
 4056SOL    HW223631   3.186   2.785   7.834  0.6912  0.6490 -2.1264
 4057SOL     OW23632   3.268   1.312  14.448 -0.0473  0.3367  0.4220
 4057SOL    HW123633   3.316   1.282  14.525  1.3561 -0.4833 -0.7914
 4057SOL    HW223634   3.334   1.334  14.382  0.2806  1.9049  1.2628
 4058SOL     OW23635   2.730   2.744   4.864 -0.6575 -0.2525  0.2283
 4058SOL    HW123636   2.739   2.681   4.793 -0.6891 -0.9792  0.8629
 4058SOL    HW223637   2.639   2.727   4.891 -0.2176  1.7722  2.9504
 4059SOL     OW23638   3.146   1.173  10.770 -0.3615  0.0284  0.1640
 4059SOL    HW123639   3.167   1.100  10.829  2.3189 -1.0222 -2.0825
 4059SOL    HW223640   3.115   1.229  10.841 -1.1537  0.8170 -0.8121
 4060SOL     OW23641   1.306   1.780   5.868  0.1448 -0.5721 -0.1626
 4060SOL    HW123642   1.234   1.729   5.833 -0.5607 -0.1620  0.6769
 4060SOL    HW223643   1.378   1.724   5.840  0.8539  0.4842 -0.4714
 4061SOL     OW23644   4.009   3.038  13.690  0.5067 -0.3681  0.1638
 4061SOL    HW123645   3.955   3.007  13.618  1.8378  0.8695 -1.3762
 4061SOL    HW223646   3.976   2.977  13.757 -0.0761  0.0935  0.2934
 4062SOL     OW23647   4.611   4.304   6.084  0.8055 -0.0405  0.1440
 4062SOL    HW123648   4.570   4.359   6.017  2.3561  2.6006  1.3379
 4062SOL    HW223649   4.696   4.312   6.040  0.8163 -0.3913  0.0995
 4063SOL     OW23650   1.347   2.144   7.503  0.1890 -0.0451  0.1573
 4063SOL    HW123651   1.327   2.097   7.422 -4.3923  1.8130  0.2526
 4063SOL    HW223652   1.431   2.101   7.521  1.1191  1.9113  0.4664
 4064SOL     OW23653   0.581   2.281   6.133  0.1788 -0.2264 -0.0891
 4064SOL    HW123654   0.658   2.231   6.160  0.7277  0.9019  0.4270
 4064SOL    HW223655   0.561   2.338   6.207 -1.0719  0.4008 -0.9118
 4065SOL     OW23656   1.014   1.476   7.204  0.6900 -0.5866  0.4276
 4065SOL    HW123657   1.029   1.570   7.206 -1.5757 -0.1270 -3.2336
 4065SOL    HW223658   0.998   1.455   7.112 -2.1595  0.4093  0.6992
 4066SOL     OW23659   2.103   2.302   3.598 -0.5217  0.1547 -0.3854
 4066SOL    HW123660   2.174   2.238   3.588 -1.8723 -0.9770 -2.7640
 4066SOL    HW223661   2.157   2.381   3.595  0.4685 -0.5189 -0.3206
 4067SOL     OW23662   1.290   3.659  12.815  0.1546 -0.4162 -0.3446
 4067SOL    HW123663   1.270   3.572  12.849 -1.7706 -0.0281 -0.4538
 4067SOL    HW223664   1.235   3.712  12.873 -0.1341  0.1609 -1.1456
 4068SOL     OW23665   1.104   2.207   7.871  0.7151  0.1414  0.1486
 4068SOL    HW123666   1.042   2.158   7.924  1.0528 -0.3804  0.0546
 4068SOL    HW223667   1.172   2.232   7.934 -0.3269 -1.0704  1.7449
 4069SOL     OW23668   3.205   0.192   1.826 -0.1152  0.2580  0.1151
 4069SOL    HW123669   3.116   0.176   1.793 -0.8141 -1.1912  2.7270
 4069SOL    HW223670   3.187   0.244   1.905 -1.7525  0.1724 -0.2008
 4070SOL     OW23671   3.454   4.240   8.307 -0.3363  0.2282  0.2103
 4070SOL    HW123672   3.431   4.331   8.286 -2.3256 -0.1614  0.7358
 4070SOL    HW223673   3.399   4.195   8.243 -2.3092  0.2790  1.8900
 4071SOL     OW23674   0.839   4.375  15.389  0.0434  0.2409  0.0699
 4071SOL    HW123675   0.904   4.440  15.364  0.0953 -0.2173 -0.9926
 4071SOL    HW223676   0.846   4.377  15.485  0.7086 -0.5947  0.0364
 4072SOL     OW23677   3.996   2.464  14.135  0.0997 -0.4663  0.3524
 4072SOL    HW123678   3.923   2.476  14.075  1.0353  1.7832 -0.3412
 4072SOL    HW223679   4.034   2.384  14.098 -0.5667 -1.6581  2.2550
 4073SOL     OW23680   2.240   4.164   6.820 -0.0386  0.0742 -0.4308
 4073SOL    HW123681   2.239   4.160   6.916 -3.7955 -0.6760 -0.4909
 4073SOL    HW223682   2.213   4.074   6.801 -0.3941  0.0995 -0.0543
 4074SOL     OW23683   2.953   2.451   9.870 -0.0956 -0.5645 -0.3857
 4074SOL    HW123684   2.994   2.538   9.870  0.2853 -0.7389 -1.6048
 4074SOL    HW223685   2.905   2.440   9.952  0.2825 -0.5567 -0.1653
 4075SOL     OW23686   4.592   0.958   7.448  0.2565 -0.2126  0.2324
 4075SOL    HW123687   4.499   0.981   7.460  0.2079 -1.0837  1.5323
 4075SOL    HW223688   4.628   1.005   7.524 -0.1213 -0.2993  0.4673
 4076SOL     OW23689   2.934   1.022  17.438 -0.4582 -0.4475  0.3253
 4076SOL    HW123690   2.879   1.071  17.377 -0.7530 -0.8695  0.2508
 4076SOL    HW223691   2.943   1.094  17.500  1.3189 -0.4222  0.0394
 4077SOL     OW23692   1.793   3.512   4.516 -0.3433  0.1171  0.1741
 4077SOL    HW123693   1.810   3.491   4.424 -1.9131  0.7606 -0.2668
 4077SOL    HW223694   1.795   3.608   4.517  1.5219  0.0981 -1.8270
 4078SOL     OW23695   2.274   1.541   4.750  0.1767  0.0199  0.1571
 4078SOL    HW123696   2.244   1.460   4.707  1.3190 -2.0996  3.3840
 4078SOL    HW223697   2.197   1.583   4.788 -1.8599 -5.3840  2.0607
 4079SOL     OW23698   2.013   4.421   9.583  0.8032  0.0961 -0.3552
 4079SOL    HW123699   2.071   4.384   9.516  1.8839 -0.7517  1.0518
 4079SOL    HW223700   1.979   4.504   9.549  0.4025 -1.0919 -2.9272
 4080SOL     OW23701   4.352   3.073   3.315  0.4691  0.5694 -0.5751
 4080SOL    HW123702   4.384   3.071   3.224  0.3701  1.8954 -0.6493
 4080SOL    HW223703   4.324   3.165   3.315  0.9158  0.6947  0.8159
 4081SOL     OW23704   3.248   2.740   9.051  0.3742  0.4894 -0.1673
 4081SOL    HW123705   3.288   2.804   8.992 -0.8866  0.7486 -0.7642
 4081SOL    HW223706   3.290   2.658   9.025 -1.0895 -0.2781 -0.1445
 4082SOL     OW23707   4.115   0.825   6.524 -0.6961 -0.6583  0.1284
 4082SOL    HW123708   4.176   0.819   6.450  1.4023 -1.3833  1.9353
 4082SOL    HW223709   4.089   0.733   6.532 -2.0375 -0.3508 -0.6292
 4083SOL     OW23710   1.938   4.694   0.729 -0.3328 -0.4647  0.0216
 4083SOL    HW123711   1.986   0.042   0.778  1.7582 -2.2489  0.4085
 4083SOL    HW223712   1.852   4.716   0.765 -0.0418 -0.1701  0.5403
 4084SOL     OW23713   1.958   3.857   0.939 -0.1837 -0.4362  0.1208
 4084SOL    HW123714   1.909   3.782   0.904  1.0829 -2.1459  2.0432
 4084SOL    HW223715   1.973   3.834   1.031 -1.0322 -1.9382 -0.1061
 4085SOL     OW23716   0.670   0.756   2.713 -0.0390 -0.2003  0.4287
 4085SOL    HW123717   0.743   0.732   2.656 -0.5873  0.6812 -0.6324
 4085SOL    HW223718   0.698   0.846   2.731 -1.2567  0.0414  1.1361
 4086SOL     OW23719   0.800   4.654  14.217  0.1216  0.2589 -0.0863
 4086SOL    HW123720   0.814   4.683  14.127 -0.1369 -2.6248 -1.0582
 4086SOL    HW223721   0.704   4.653  14.212  0.2187 -0.9366 -1.8097
 4087SOL     OW23722   1.840   0.028   8.465 -0.2380 -0.2753 -0.7541
 4087SOL    HW123723   1.822   0.123   8.468 -0.8271 -0.4504  1.6899
 4087SOL    HW223724   1.758   4.702   8.443 -0.2359 -0.2030 -0.9051
 4088SOL     OW23725   3.614   2.525  10.623  0.5606 -0.7864  0.0628
 4088SOL    HW123726   3.582   2.546  10.711  1.2823 -2.0369  0.6281
 4088SOL    HW223727   3.593   2.435  10.599 -0.4633 -0.7806  0.9383
 4089SOL     OW23728   4.160   1.176   4.506  0.6387 -0.1917 -0.4699
 4089SOL    HW123729   4.219   1.112   4.467  0.4757  0.5426 -1.9304
 4089SOL    HW223730   4.204   1.191   4.590  0.3205  0.4503 -0.4167
 4090SOL     OW23731   1.358   1.851   6.404 -0.7122  0.4080 -0.2217
 4090SOL    HW123732   1.278   1.884   6.445 -0.6277  0.1711  0.1311
 4090SOL    HW223733   1.350   1.871   6.310 -0.7138  2.8631  0.2846
 4091SOL     OW23734   1.344   2.473   9.037  0.8386  0.0740  0.0021
 4091SOL    HW123735   1.270   2.504   8.986  0.5706  0.6925  0.7727
 4091SOL    HW223736   1.336   2.378   9.030 -2.0477  0.2277  1.5175
 4092SOL     OW23737   3.403   3.817  12.824  0.2805 -0.0705  0.4146
 4092SOL    HW123738   3.401   3.889  12.762  1.3807 -2.3909 -2.3112
 4092SOL    HW223739   3.496   3.822  12.848  0.8598 -1.5150 -1.6048
 4093SOL     OW23740   2.361   2.825  13.041 -0.3624  0.7301  0.0882
 4093SOL    HW123741   2.371   2.801  13.133  3.4488 -0.7539 -0.7275
 4093SOL    HW223742   2.453   2.847  13.032  0.0412 -0.0915  2.2316
 4094SOL     OW23743   3.776   3.211   5.614 -0.8856 -0.2293 -0.2134
 4094SOL    HW123744   3.854   3.182   5.566 -0.5167  1.8315 -0.8616
 4094SOL    HW223745   3.708   3.196   5.548 -2.4475  1.7678  0.9466
 4095SOL     OW23746   3.018   1.250   7.572  0.2791 -0.0768 -0.1775
 4095SOL    HW123747   3.065   1.189   7.630 -0.9453  0.5065  1.4318
 4095SOL    HW223748   2.965   1.301   7.633  0.7207 -0.2072  0.3229
 4096SOL     OW23749   2.513   4.474  12.213 -0.0024 -0.7860 -0.8592
 4096SOL    HW123750   2.577   4.506  12.276  0.1777  0.0452 -1.4618
 4096SOL    HW223751   2.450   4.541  12.241  1.7264 -0.0049  1.1345
 4097SOL     OW23752   0.859   0.715   3.224 -0.3725  0.3021  0.1384
 4097SOL    HW123753   0.883   0.774   3.153  0.3370  2.2402  2.0204
 4097SOL    HW223754   0.852   0.784   3.290 -3.3177 -0.2774  0.4707
 4098SOL     OW23755   0.389   1.925  13.455  0.4680 -0.0049  0.1882
 4098SOL    HW123756   0.368   1.921  13.361  0.4010 -0.0901  0.2078
 4098SOL    HW223757   0.355   2.013  13.474 -0.4166 -0.3069 -0.0080
 4099SOL     OW23758   4.711   0.085   9.765 -0.0743  0.1993 -0.4860
 4099SOL    HW123759   4.689   0.036   9.686  1.4161 -0.5645 -0.4297
 4099SOL    HW223760   0.005   0.014   9.829  1.3418  0.6473 -0.2677
 4100SOL     OW23761   4.047   0.035   7.180  0.0604 -0.0239  0.3208
 4100SOL    HW123762   4.138   0.062   7.191  0.5562 -0.6018 -2.2002
 4100SOL    HW223763   4.061   4.659   7.171 -0.5142 -0.0045 -0.8690
 4101SOL     OW23764   2.977   2.089   4.328  0.1591  0.2410  0.3875
 4101SOL    HW123765   3.065   2.086   4.290 -0.1875 -0.8717 -0.3399
 4101SOL    HW223766   2.912   2.078   4.259  1.1081 -2.7749 -0.0221
 4102SOL     OW23767   0.126   3.726   2.978 -0.1912  0.2603 -0.2715
 4102SOL    HW123768   0.204   3.779   2.990  0.4438 -0.8714  0.6953
 4102SOL    HW223769   0.079   3.741   3.060 -0.9408 -0.8797 -0.4808
 4103SOL     OW23770   4.120   2.658   7.882  0.0481  0.5178  0.0585
 4103SOL    HW123771   4.195   2.715   7.865 -0.5809  1.4954  0.5485
 4103SOL    HW223772   4.039   2.709   7.872 -2.1561 -2.9645  0.0234
 4104SOL     OW23773   2.882   1.769  16.474 -0.4255 -0.0108  0.1185
 4104SOL    HW123774   2.849   1.735  16.557  0.4376 -1.5113 -0.1450
 4104SOL    HW223775   2.961   1.715  16.474 -0.3357  0.1229  0.9237
 4105SOL     OW23776   3.254   3.562   7.743  0.2725 -0.1258  0.0792
 4105SOL    HW123777   3.208   3.479   7.734  0.6165 -0.2791 -0.2270
 4105SOL    HW223778   3.299   3.552   7.827  1.0232 -0.4171 -0.3541
 4106SOL     OW23779   4.374   3.563   2.898 -0.4189 -0.9417 -0.1670
 4106SOL    HW123780   4.306   3.526   2.840 -1.0538 -1.0391  0.6416
 4106SOL    HW223781   4.396   3.653   2.876  1.6615 -1.7658 -1.5379
 4107SOL     OW23782   4.635   2.245  13.336  0.0944  0.3361  0.3418
 4107SOL    HW123783   4.711   2.297  13.309 -0.5135  1.1604  0.2165
 4107SOL    HW223784   4.595   2.316  13.386 -1.3047  0.0884 -0.4201
 4108SOL     OW23785   4.454   3.806   3.883 -0.3952  0.0820 -0.2870
 4108SOL    HW123786   4.540   3.842   3.863 -0.2311  0.1182  0.4973
 4108SOL    HW223787   4.398   3.882   3.871 -1.3077 -0.3772  0.9964
 4109SOL     OW23788   0.163   4.630  12.963  0.6808 -0.0729  0.0063
 4109SOL    HW123789   0.237   4.635  13.023  0.7034  0.2056 -0.0477
 4109SOL    HW223790   0.178   4.539  12.934  0.4833 -0.1686  0.2077
 4110SOL     OW23791   3.571   4.554   3.450 -0.1099 -0.3821  0.7792
 4110SOL    HW123792   3.517   4.561   3.529 -0.4588 -0.0810  0.5147
 4110SOL    HW223793   3.632   4.491   3.488  0.2342  1.0548  2.6391
 4111SOL     OW23794   3.712   1.355   7.629 -0.2646 -0.0106  0.1213
 4111SOL    HW123795   3.621   1.353   7.657  0.3046 -1.1271  1.8706
 4111SOL    HW223796   3.735   1.441   7.664  2.4600 -0.7409  0.1070
 4112SOL     OW23797   2.101   2.406   2.081  0.1827  0.2491 -0.0182
 4112SOL    HW123798   2.164   2.429   2.150 -1.7143  0.6481  1.5657
 4112SOL    HW223799   2.028   2.453   2.121  0.0916  0.0203  0.0797
 4113SOL     OW23800   1.996   2.145   8.839  0.3916  0.9152  0.0148
 4113SOL    HW123801   1.907   2.178   8.853 -0.4637 -0.9610 -1.1269
 4113SOL    HW223802   2.023   2.102   8.920  0.6372 -1.2603 -1.2255
 4114SOL     OW23803   0.421   3.746   7.617  0.0948  0.6111  0.0400
 4114SOL    HW123804   0.507   3.704   7.619 -1.3625 -2.2558  2.2479
 4114SOL    HW223805   0.361   3.683   7.657 -2.4559  1.8978 -1.7606
 4115SOL     OW23806   2.891   4.607   7.222 -0.2027 -0.2133  0.5707
 4115SOL    HW123807   2.870   4.590   7.313  1.1369 -3.6402  0.2556
 4115SOL    HW223808   2.852   4.694   7.216  0.6097  0.2397  1.9773
 4116SOL     OW23809   1.525   4.268   2.604  0.0226 -0.5903 -0.2338
 4116SOL    HW123810   1.459   4.328   2.567 -0.2964  0.7634  2.5725
 4116SOL    HW223811   1.580   4.329   2.653 -0.5679  0.3777 -0.7746
 4117SOL     OW23812   1.708   0.920   9.184 -0.2798  0.3366 -0.1210
 4117SOL    HW123813   1.636   0.899   9.244 -0.8360 -2.3754 -1.7222
 4117SOL    HW223814   1.720   1.014   9.200  0.2997  0.1531  0.4826
 4118SOL     OW23815   2.117   0.426   7.221  0.1266 -0.4365 -0.4784
 4118SOL    HW123816   2.025   0.449   7.204 -0.1790 -1.1027  0.3046
 4118SOL    HW223817   2.110   0.409   7.315  1.6192  0.0772 -0.2838
 4119SOL     OW23818   0.606   1.856  15.392 -0.1120 -0.2968 -0.8039
 4119SOL    HW123819   0.649   1.775  15.364 -1.5811 -1.8684  1.4429
 4119SOL    HW223820   0.662   1.896  15.458 -0.8068 -2.0327  0.8586
 4120SOL     OW23821   4.060   0.756   4.993  0.3000  0.4365 -0.1892
 4120SOL    HW123822   4.103   0.759   4.907 -0.5366 -0.2601 -0.6286
 4120SOL    HW223823   3.969   0.740   4.967  0.1921 -0.4259  0.7105
 4121SOL     OW23824   2.070   0.401   5.239 -0.6143 -0.0314 -0.2310
 4121SOL    HW123825   2.142   0.435   5.186 -0.5631 -2.0928 -1.5016
 4121SOL    HW223826   1.993   0.418   5.185 -1.9015  0.4087  1.7756
 4122SOL     OW23827   1.726   1.060   3.937 -0.2136  0.1196 -0.6178
 4122SOL    HW123828   1.810   1.077   3.980 -0.3864  0.1544 -0.3005
 4122SOL    HW223829   1.672   1.122   3.984 -0.2757 -0.3750 -0.0433
 4123SOL     OW23830   1.595   2.756  16.456  0.1282 -0.6632 -0.9341
 4123SOL    HW123831   1.570   2.817  16.387  2.4659  2.0872  0.6545
 4123SOL    HW223832   1.546   2.779  16.535 -1.3925  1.6930 -2.5676
 4124SOL     OW23833   4.549   3.194   2.562 -0.3136 -0.2317  0.5727
 4124SOL    HW123834   4.576   3.115   2.514  0.2586  1.6671 -2.2363
 4124SOL    HW223835   4.616   3.252   2.526 -0.5210 -1.5935 -1.9608
 4125SOL     OW23836   3.853   1.992  11.768  0.3917  0.2216  0.5885
 4125SOL    HW123837   3.879   2.073  11.725  1.0513 -1.0622 -1.4556
 4125SOL    HW223838   3.937   1.958  11.799  0.0155 -1.4066 -0.1711
 4126SOL     OW23839   2.565   0.046   9.299 -0.1644 -0.1525  0.3545
 4126SOL    HW123840   2.548   0.124   9.351  1.1503  0.0763  0.4399
 4126SOL    HW223841   2.521   4.704   9.360  1.9907 -2.1495 -0.0828
 4127SOL     OW23842   3.888   1.619   8.546 -1.0100  0.5370  0.1611
 4127SOL    HW123843   3.884   1.548   8.481  0.7014  0.9705 -0.4021
 4127SOL    HW223844   3.918   1.695   8.497  1.0164  0.0784  0.7157
 4128SOL     OW23845   4.329   3.972   8.611 -0.0150  1.0360  0.7258
 4128SOL    HW123846   4.299   3.917   8.683  1.6067  2.0428  2.1677
 4128SOL    HW223847   4.274   3.943   8.539  2.4990  0.1066 -0.8233
 4129SOL     OW23848   3.794   1.071   5.748  0.0824 -0.2683 -0.2955
 4129SOL    HW123849   3.846   1.134   5.698 -2.5862  0.5443 -2.0250
 4129SOL    HW223850   3.836   0.992   5.714  1.4554  1.5184 -2.7577
 4130SOL     OW23851   3.457   1.849   5.984 -0.0000  0.5673  0.1866
 4130SOL    HW123852   3.386   1.824   6.043  0.4753  1.3891  1.1011
 4130SOL    HW223853   3.534   1.802   6.017 -0.5172  0.8472  1.7912
 4131SOL     OW23854   1.302   4.191   2.135 -0.2774  0.8316 -0.3656
 4131SOL    HW123855   1.249   4.256   2.089  1.0847 -0.5932 -3.9172
 4131SOL    HW223856   1.356   4.257   2.179 -0.4786  0.5353  0.3285
 4132SOL     OW23857   4.578   1.718   4.926  0.3284 -0.4292 -0.0130
 4132SOL    HW123858   4.499   1.771   4.917  2.2175  2.4908  0.4809
 4132SOL    HW223859   4.553   1.634   4.888 -1.6909 -0.1273  0.6754
 4133SOL     OW23860   4.005   2.739   5.897 -0.5715  0.3774 -0.0119
 4133SOL    HW123861   4.092   2.718   5.861 -1.0477 -1.2531 -0.2434
 4133SOL    HW223862   3.987   2.655   5.940  0.7706 -0.8533 -1.8113
 4134SOL     OW23863   2.440   0.625   7.130  0.1614  0.1297  0.0359
 4134SOL    HW123864   2.452   0.530   7.120 -0.5564  0.0822 -0.3526
 4134SOL    HW223865   2.451   0.652   7.039  3.4045 -1.2617  0.0129
 4135SOL     OW23866   2.706   1.346   4.703  0.0675 -0.1329 -0.3784
 4135SOL    HW123867   2.718   1.298   4.785 -0.2288 -0.8450 -0.7520
 4135SOL    HW223868   2.783   1.401   4.712  0.2825 -0.6426  0.9782
 4136SOL     OW23869   2.203   1.974   3.920 -1.2252 -0.0846 -0.0640
 4136SOL    HW123870   2.237   2.063   3.917 -0.3768 -0.4430 -1.2052
 4136SOL    HW223871   2.246   1.936   3.997 -2.4508  2.5550  1.9217
 4137SOL     OW23872   0.654   2.527   7.130 -0.2872 -0.3320  0.6459
 4137SOL    HW123873   0.588   2.590   7.157  0.8745  0.4478  1.6347
 4137SOL    HW223874   0.637   2.518   7.036  1.0590  0.4038  0.3461
 4138SOL     OW23875   3.718   4.334   3.506  0.0470 -0.4104 -0.4330
 4138SOL    HW123876   3.677   4.263   3.457 -1.7295  0.1176  0.3026
 4138SOL    HW223877   3.755   4.284   3.578 -0.0369  1.5641  0.9646
 4139SOL     OW23878   4.500   4.018   0.378 -0.0368  0.1735 -0.2001
 4139SOL    HW123879   4.485   4.113   0.385  0.1369  0.2031 -0.2110
 4139SOL    HW223880   4.414   3.985   0.402 -0.4178  1.7885  0.6657
 4140SOL     OW23881   4.599   1.448   8.530  0.2216 -0.0130 -0.3747
 4140SOL    HW123882   4.618   1.405   8.613 -0.0494  2.1147  0.8085
 4140SOL    HW223883   4.574   1.374   8.476 -0.5245 -0.5214  0.6818
 4141SOL     OW23884   2.157   3.707   0.653 -0.0670  0.2948  0.1346
 4141SOL    HW123885   2.212   3.648   0.602 -0.4662 -1.3148  1.5563
 4141SOL    HW223886   2.203   3.791   0.654 -1.6321  1.1187  1.5814
 4142SOL     OW23887   4.528   3.187   8.459  0.5455 -0.5775 -0.1689
 4142SOL    HW123888   4.590   3.166   8.529  0.2145  0.7418  0.5136
 4142SOL    HW223889   4.588   3.236   8.404 -0.4167  0.5123 -0.2545
 4143SOL     OW23890   3.598   0.777  13.338  0.3441 -0.2504  0.1846
 4143SOL    HW123891   3.607   0.689  13.373 -0.1277 -0.2464  0.3134
 4143SOL    HW223892   3.606   0.820  13.423  3.0504 -2.5387  1.0842
 4144SOL     OW23893   1.845   0.129   4.183 -0.3790  0.1052 -0.0201
 4144SOL    HW123894   1.876   0.096   4.267  0.1193 -0.9770 -0.6415
 4144SOL    HW223895   1.750   0.137   4.190 -0.2350  0.5880  1.5135
 4145SOL     OW23896   1.839   4.217   8.197  0.0057  0.0979 -0.5078
 4145SOL    HW123897   1.831   4.187   8.287  2.2063  0.4441 -0.2021
 4145SOL    HW223898   1.933   4.231   8.195  0.1190 -0.2615  3.3187
 4146SOL     OW23899   0.183   3.919   3.538 -0.2061  0.2319 -0.6731
 4146SOL    HW123900   0.180   3.935   3.444 -0.9043  1.9609 -0.3552
 4146SOL    HW223901   0.256   3.978   3.557 -0.5701  0.1713  0.9166
 4147SOL     OW23902   0.233   3.151   4.300  0.0556 -0.2928 -0.2629
 4147SOL    HW123903   0.288   3.142   4.378 -0.2386  2.8292  0.3312
 4147SOL    HW223904   0.252   3.237   4.261  1.9246  0.0460  1.3805
 4148SOL     OW23905   0.952   4.099   0.606  0.1999 -0.3841  0.3877
 4148SOL    HW123906   0.895   4.031   0.569  0.5695 -1.0245  0.9996
 4148SOL    HW223907   1.013   4.118   0.534 -2.0637  0.1574 -1.3681
 4149SOL     OW23908   1.080   2.829   8.104 -0.0467 -0.7410  0.0060
 4149SOL    HW123909   1.161   2.847   8.153 -0.5530  1.6535  0.0043
 4149SOL    HW223910   1.108   2.839   8.014  2.4523 -1.2136  0.7364
 4150SOL     OW23911   0.233   3.424   7.051  0.5536 -0.2603 -0.2811
 4150SOL    HW123912   0.328   3.419   7.040  0.6204  0.1209  0.0917
 4150SOL    HW223913   0.209   3.331   7.053  2.3659 -0.7518 -1.4940
 4151SOL     OW23914   2.770   2.651  13.531  0.2492 -0.3460 -0.1109
 4151SOL    HW123915   2.800   2.697  13.609  0.6133  0.2261 -0.5880
 4151SOL    HW223916   2.802   2.563  13.550  0.3958 -0.2089  0.2682
 4152SOL     OW23917   0.373   1.005   4.994  0.1320 -0.2690  0.0606
 4152SOL    HW123918   0.383   1.045   4.908 -0.6138 -0.8978 -0.3186
 4152SOL    HW223919   0.278   1.013   5.006  0.3089 -0.0039  1.3306
 4153SOL     OW23920   0.436   4.472   2.612  0.2797 -0.0494  0.0444
 4153SOL    HW123921   0.371   4.431   2.556 -1.1110  0.8144  1.0448
 4153SOL    HW223922   0.512   4.418   2.592 -1.8978 -3.3177  0.7337
 4154SOL     OW23923   1.833   3.928   8.611  0.0072 -0.2304 -0.5095
 4154SOL    HW123924   1.895   3.931   8.684  0.2910 -0.4048 -0.7423
 4154SOL    HW223925   1.816   3.838   8.582  0.2517 -1.0259  1.8513
 4155SOL     OW23926   4.672   3.360   0.775  0.1202  0.1693  0.2906
 4155SOL    HW123927   4.627   3.297   0.719  0.9242 -0.4349  0.3334
 4155SOL    HW223928   4.715   3.421   0.715 -0.9743  1.6770  1.0173
 4156SOL     OW23929   0.580   0.432   3.535 -0.0213  0.6510  0.5884
 4156SOL    HW123930   0.612   0.348   3.570 -0.5905 -1.0000 -2.8151
 4156SOL    HW223931   0.513   0.396   3.477 -1.0110  1.3672  1.2748
 4157SOL     OW23932   2.862   2.167   7.083  0.4968  0.1186  0.1647
 4157SOL    HW123933   2.875   2.203   6.995  0.0459  1.3928  0.6274
 4157SOL    HW223934   2.768   2.183   7.085  0.2544 -1.2715 -0.0558
 4158SOL     OW23935   3.987   0.808   3.410 -0.1400 -0.6265 -0.3823
 4158SOL    HW123936   3.979   0.896   3.448  1.0868 -1.2380  1.3280
 4158SOL    HW223937   3.898   0.796   3.379  0.8201 -2.5001 -2.3791
 4159SOL     OW23938   1.969   0.207   1.236  0.3075 -0.3932  0.1013
 4159SOL    HW123939   2.039   0.269   1.215  0.1004 -0.4400 -0.7110
 4159SOL    HW223940   2.003   0.153   1.308  1.2533 -0.0296 -0.0650
 4160SOL     OW23941   3.302   4.386   5.399  0.0058  0.4728 -0.7736
 4160SOL    HW123942   3.318   4.370   5.306  1.6078  2.4648 -0.8260
 4160SOL    HW223943   3.341   4.473   5.401 -1.8507  1.3208 -1.7308
 4161SOL     OW23944   2.181   0.318   9.251 -0.3783 -0.2717  0.2982
 4161SOL    HW123945   2.096   0.319   9.296 -0.8006  1.5454 -0.5548
 4161SOL    HW223946   2.222   0.400   9.279 -0.0372 -0.3199 -0.0584
 4162SOL     OW23947   1.940   1.942   3.967  0.5637 -0.0187 -0.0019
 4162SOL    HW123948   2.036   1.943   3.965  0.5046  2.6835 -1.9481
 4162SOL    HW223949   1.911   2.028   3.997 -0.1144  0.2626 -1.4766
 4163SOL     OW23950   3.435   2.820   5.296  0.0196 -0.4405 -0.3255
 4163SOL    HW123951   3.356   2.866   5.269  0.4988 -0.5709 -1.9105
 4163SOL    HW223952   3.464   2.894   5.349  0.1815  0.6316 -1.9235
 4164SOL     OW23953   2.384   4.396   6.191  0.8722  0.0280 -0.0956
 4164SOL    HW123954   2.444   4.470   6.183 -1.3114  1.9736  1.3251
 4164SOL    HW223955   2.424   4.350   6.118  0.7904  0.8874 -0.6779
 4165SOL     OW23956   2.283   4.640   2.878  0.0377 -0.2382 -0.3760
 4165SOL    HW123957   2.314   4.714   2.826  1.7726 -1.1665 -0.6668
 4165SOL    HW223958   2.224   4.673   2.945  0.3341 -1.7697  0.6480
 4166SOL     OW23959   0.653   1.711   9.394  0.0762  0.1783 -0.3665
 4166SOL    HW123960   0.599   1.689   9.470  0.0962 -2.1998 -1.0579
 4166SOL    HW223961   0.730   1.660   9.417 -0.9251 -0.5957  1.2552
 4167SOL     OW23962   4.184   1.657  15.515  0.4440  0.0008 -0.0887
 4167SOL    HW123963   4.278   1.657  15.532  0.7280 -1.7874 -1.6296
 4167SOL    HW223964   4.166   1.598  15.441 -1.4307  0.7090 -0.1832
 4168SOL     OW23965   2.683   3.625   6.658 -0.1209  0.1490  0.4132
 4168SOL    HW123966   2.618   3.685   6.622  1.6233  3.9649  3.6155
 4168SOL    HW223967   2.649   3.623   6.748  1.1914  1.7240  0.9534
 4169SOL     OW23968   4.587   4.217   9.007  0.4831 -0.2056  0.0421
 4169SOL    HW123969   4.519   4.160   8.971  1.9433 -0.4253 -2.3863
 4169SOL    HW223970   4.649   4.217   8.933 -0.3447  0.1069 -0.6534
 4170SOL     OW23971   0.111   0.260   7.736 -0.4040 -0.2074  0.1278
 4170SOL    HW123972   0.121   0.314   7.814  0.0301  0.5716 -0.4664
 4170SOL    HW223973   0.125   0.172   7.771  3.4906  1.0259  1.6668
 4171SOL     OW23974   2.532   2.282   4.732  0.0413  0.1557 -0.0209
 4171SOL    HW123975   2.623   2.307   4.752  0.0558 -0.3550  0.5395
 4171SOL    HW223976   2.506   2.237   4.812 -1.1441  1.2976  0.2379
 4172SOL     OW23977   1.421   3.775   7.043  0.3252  0.1429  0.4397
 4172SOL    HW123978   1.457   3.687   7.030 -0.5340  0.3528 -3.3056
 4172SOL    HW223979   1.402   3.773   7.137 -1.9137 -0.8539 -0.0174
 4173SOL     OW23980   0.777   3.246  11.560  0.2557  0.2379  0.0427
 4173SOL    HW123981   0.866   3.269  11.534 -0.7908  1.2677 -2.6073
 4173SOL    HW223982   0.793   3.260  11.653  0.2037  1.3192 -0.1126
 4174SOL     OW23983   3.474   2.352  12.033 -0.5020 -0.0472  0.6250
 4174SOL    HW123984   3.379   2.340  12.023 -0.5798  1.8317 -0.8665
 4174SOL    HW223985   3.492   2.367  12.125  1.2208 -0.8840  0.4208
 4175SOL     OW23986   3.832   2.489  14.642  0.2062 -0.8883  0.3288
 4175SOL    HW123987   3.893   2.509  14.571 -1.0044 -0.2464 -0.5237
 4175SOL    HW223988   3.767   2.560  14.637  0.9393 -0.1618  1.2017
 4176SOL     OW23989   1.434   1.600   2.391 -0.3654 -0.1713  0.5411
 4176SOL    HW123990   1.375   1.578   2.319 -1.7197  1.8648  1.0283
 4176SOL    HW223991   1.516   1.609   2.342  0.5539 -3.0181  1.5518
 4177SOL     OW23992   0.918   2.855   0.688  0.5065 -0.3166  0.8795
 4177SOL    HW123993   1.007   2.840   0.719  1.4843  2.7179 -0.4921
 4177SOL    HW223994   0.937   2.873   0.596 -1.5402  0.6857  0.6303
 4178SOL     OW23995   4.229   2.429  17.123 -0.3584  0.1398  0.0578
 4178SOL    HW123996   4.221   2.503  17.063 -0.6588  1.4069  1.6425
 4178SOL    HW223997   4.182   2.467  17.197 -0.3001 -0.0515  0.1935
 4179SOL     OW23998   4.568   1.569   4.615 -0.2818 -0.1061  0.8255
 4179SOL    HW123999   4.658   1.557   4.643 -0.7357  0.3198  2.4455
 4179SOL    HW224000   4.527   1.500   4.667 -1.6047 -0.7936 -1.1330
 4180SOL     OW24001   3.067   2.297  16.654  0.4267  0.6787 -0.2123
 4180SOL    HW124002   3.112   2.279  16.736  0.4934  1.9181  0.0270
 4180SOL    HW224003   3.143   2.279  16.598 -0.8811 -1.3804 -1.3367
 4181SOL     OW24004   3.645   4.368   2.950 -0.1778  0.1013  0.3271
 4181SOL    HW124005   3.728   4.321   2.945  0.4828  1.2237  0.7361
 4181SOL    HW224006   3.675   4.450   2.912 -1.5148 -0.8513 -2.7443
 4182SOL     OW24007   4.404   1.688   9.046 -0.0043 -0.1748 -0.5221
 4182SOL    HW124008   4.431   1.752   9.112  0.4415  0.6105 -1.4689
 4182SOL    HW224009   4.453   1.708   8.967  1.3780 -1.5227 -0.0095
 4183SOL     OW24010   3.534   1.317   4.347  0.2753 -0.3598 -0.0081
 4183SOL    HW124011   3.474   1.377   4.392 -1.6172 -1.2860 -1.2627
 4183SOL    HW224012   3.594   1.382   4.312 -1.5193  2.1137  1.4536
 4184SOL     OW24013   2.503   0.289   5.999 -0.8918  0.1717 -0.0634
 4184SOL    HW124014   2.419   0.333   5.989 -0.5368  0.7197 -0.6601
 4184SOL    HW224015   2.548   0.340   6.066 -1.1546 -2.7061  2.3123
 4185SOL     OW24016   0.866   3.617   5.781 -0.1570 -0.7119 -0.3226
 4185SOL    HW124017   0.947   3.619   5.730  0.4260  2.5958  0.7261
 4185SOL    HW224018   0.893   3.558   5.852  0.1956 -0.8745 -0.5953
 4186SOL     OW24019   4.041   3.686  17.172 -0.0950 -0.5842 -0.3565
 4186SOL    HW124020   3.951   3.694  17.203 -0.1258 -1.9042 -0.0735
 4186SOL    HW224021   4.019   3.687  17.079 -0.6022 -0.0144 -0.2271
 4187SOL     OW24022   2.140   2.048   5.492 -0.3947  0.6235 -0.9267
 4187SOL    HW124023   2.082   2.088   5.427 -0.4647  0.4359 -0.9775
 4187SOL    HW224024   2.160   2.127   5.544  1.3823 -0.2740 -0.2551
 4188SOL     OW24025   0.662   4.223  15.240 -0.1235  0.1633 -0.1515
 4188SOL    HW124026   0.634   4.295  15.183  0.1455 -0.0738 -0.5887
 4188SOL    HW224027   0.744   4.256  15.277  0.1513 -0.3409 -0.3095
 4189SOL     OW24028   1.597   4.258  12.670  0.3075  0.0580  0.5920
 4189SOL    HW124029   1.618   4.336  12.618 -0.6485  0.0776  0.2435
 4189SOL    HW224030   1.505   4.243  12.652  0.6366  0.0658 -1.1063
 4190SOL     OW24031   3.586   3.638   3.787  0.1696  0.1573 -0.2488
 4190SOL    HW124032   3.597   3.684   3.704 -0.0089 -2.1453 -1.5592
 4190SOL    HW224033   3.590   3.709   3.851 -2.3287 -0.3401  0.4405
 4191SOL     OW24034   3.126   4.337   6.694 -0.3506  0.3003  0.1698
 4191SOL    HW124035   3.044   4.383   6.707 -3.0767 -4.5765  0.3948
 4191SOL    HW224036   3.152   4.376   6.611  1.1886 -1.2790 -0.1017
 4192SOL     OW24037   2.805   3.089   2.931 -0.3311  0.4458  0.0836
 4192SOL    HW124038   2.848   3.132   2.857  0.1746  0.8337  0.6087
 4192SOL    HW224039   2.723   3.070   2.885 -0.2529  2.2288 -0.7996
 4193SOL     OW24040   1.165   4.338   1.654 -0.2550 -0.8250 -0.1846
 4193SOL    HW124041   1.102   4.408   1.635  1.0202  0.5142  0.4841
 4193SOL    HW224042   1.106   4.281   1.702 -0.1227  0.0407  1.0211
 4194SOL     OW24043   0.543   0.603   5.047  0.0150  0.2472 -0.6410
 4194SOL    HW124044   0.553   0.698   5.036 -2.4865  0.6171  0.2199
 4194SOL    HW224045   0.537   0.579   4.954  0.1529  2.1416 -1.1394
 4195SOL     OW24046   4.150   0.508   8.374 -0.1066 -0.1792 -0.2191
 4195SOL    HW124047   4.200   0.587   8.394 -0.6473  0.3975 -1.1789
 4195SOL    HW224048   4.167   0.497   8.281  0.3878  1.1707 -0.2722
 4196SOL     OW24049   2.298   2.561   1.533 -0.3429  0.4117  0.2402
 4196SOL    HW124050   2.280   2.471   1.509  1.6538  0.1565 -0.2926
 4196SOL    HW224051   2.216   2.597   1.501  0.2098  1.5763  0.1139
 4197SOL     OW24052   3.194   2.915   6.442  0.4175  0.3928  0.3242
 4197SOL    HW124053   3.217   2.980   6.375 -0.6034 -0.1127 -0.5253
 4197SOL    HW224054   3.110   2.949   6.473  0.9802  0.1241  2.1042
 4198SOL     OW24055   4.487   1.109   2.514 -0.2831 -0.5790 -0.1158
 4198SOL    HW124056   4.573   1.120   2.472 -0.1733  1.7953  0.6757
 4198SOL    HW224057   4.475   1.015   2.504  2.6679 -1.2095  2.0861
 4199SOL     OW24058   4.185   3.180   4.800 -0.4644 -0.1217 -0.4039
 4199SOL    HW124059   4.262   3.135   4.834  1.3577  2.4125 -1.1200
 4199SOL    HW224060   4.147   3.107   4.752  2.9455 -0.7938 -2.0550
 4200SOL     OW24061   4.476   1.963  17.123  0.2044  0.1333 -0.0525
 4200SOL    HW124062   4.407   1.950  17.058  1.0131 -0.7301 -0.7343
 4200SOL    HW224063   4.445   2.041  17.169  0.9155  0.4130 -0.0604
 4201SOL     OW24064   2.335   2.024   5.294 -0.0208  0.2260  0.1806
 4201SOL    HW124065   2.266   2.038   5.359 -0.1977  1.3114 -0.2365
 4201SOL    HW224066   2.407   2.047   5.353  1.4506  0.0610 -1.5542
 4202SOL     OW24067   1.352   2.017   8.288 -0.7716  0.4933  0.3847
 4202SOL    HW124068   1.439   1.992   8.319 -1.7118 -3.2725 -0.0069
 4202SOL    HW224069   1.372   2.050   8.201  0.6002 -1.5094 -0.0535
 4203SOL     OW24070   1.626   2.921  16.817 -0.2371  0.4961  0.1413
 4203SOL    HW124071   1.546   2.926  16.764  0.2548 -0.7633 -0.7112
 4203SOL    HW224072   1.609   2.835  16.854  0.9370  0.5464  0.7723
 4204SOL     OW24073   4.659   0.953   8.069 -0.2307  0.6029 -0.6670
 4204SOL    HW124074   0.033   0.972   8.051 -0.0257 -1.3023 -1.5856
 4204SOL    HW224075   4.625   0.929   7.983  1.6150 -2.4189 -0.5487
 4205SOL     OW24076   0.309   0.668   2.591 -0.4217  0.1062 -0.1309
 4205SOL    HW124077   0.348   0.656   2.678 -0.2320  2.0947  0.0678
 4205SOL    HW224078   0.351   0.593   2.548 -0.0853  1.1060 -1.5400
 4206SOL     OW24079   4.398   2.620  14.009  0.0203  0.4038  0.5019
 4206SOL    HW124080   4.303   2.633  14.014  0.0397  0.7852 -0.1646
 4206SOL    HW224081   4.433   2.655  14.091  0.9049 -1.1983  0.7966
 4207SOL     OW24082   3.532   3.082   3.108 -0.5654 -0.3796  0.3784
 4207SOL    HW124083   3.528   3.093   3.013  0.9653 -0.4614  0.3042
 4207SOL    HW224084   3.620   3.050   3.130  0.2455 -0.3646 -2.8424
 4208SOL     OW24085   1.940   2.277   0.513 -0.1216  0.4781 -0.2341
 4208SOL    HW124086   1.896   2.358   0.540 -2.6802 -1.9152  2.8315
 4208SOL    HW224087   2.028   2.300   0.541  0.4065 -1.0346 -0.6761
 4209SOL     OW24088   1.220   2.237   4.642 -0.0790 -0.2938 -0.2420
 4209SOL    HW124089   1.302   2.232   4.592  0.6125  0.8756  0.7690
 4209SOL    HW224090   1.169   2.278   4.572  1.6855  1.2091 -0.6394
 4210SOL     OW24091   0.679   4.405   6.498 -0.0023 -0.2723  0.2692
 4210SOL    HW124092   0.650   4.320   6.530  0.8695 -1.7404 -2.8219
 4210SOL    HW224093   0.652   4.392   6.407 -0.2446  2.6140 -0.0853
 4211SOL     OW24094   1.651   3.532   0.104  0.1728  0.5194 -0.0537
 4211SOL    HW124095   1.559   3.522   0.127  0.5292  0.2189  1.2234
 4211SOL    HW224096   1.685   3.476   0.173 -1.2756 -1.3186 -0.8314
 4212SOL     OW24097   0.106   2.490   3.526  0.6426 -0.0453 -0.1476
 4212SOL    HW124098   0.034   2.552   3.529  2.0337  1.6016 -1.0143
 4212SOL    HW224099   0.178   2.553   3.527  1.0157 -0.4791  0.5427
 4213SOL     OW24100   3.952   1.449   8.004  0.4142 -0.0896  0.2636
 4213SOL    HW124101   3.978   1.532   7.964  0.1186 -0.2071 -0.1872
 4213SOL    HW224102   3.858   1.457   7.986  0.6531  0.2047 -0.8380
 4214SOL     OW24103   2.999   2.227   3.134 -0.5964 -0.4954 -0.1292
 4214SOL    HW124104   2.939   2.160   3.166 -2.0572  0.3601 -1.1142
 4214SOL    HW224105   2.946   2.305   3.150 -0.0802 -0.9042  3.5754
 4215SOL     OW24106   3.818   2.472   0.447 -0.5041  0.2644 -0.5245
 4215SOL    HW124107   3.765   2.448   0.523  1.6837 -0.0673  0.8998
 4215SOL    HW224108   3.882   2.401   0.447  1.3016  1.8958  0.0125
 4216SOL     OW24109   3.792   4.664   4.240 -1.0007  0.2286  0.5626
 4216SOL    HW124110   3.818   0.038   4.233  0.0110 -0.1231 -0.3300
 4216SOL    HW224111   3.865   4.639   4.296 -0.4583 -0.1923 -0.3393
 4217SOL     OW24112   3.831   3.372   4.984  0.7094 -0.0516  0.2003
 4217SOL    HW124113   3.920   3.367   5.018  1.0489 -1.7261 -0.9516
 4217SOL    HW224114   3.817   3.291   4.934 -0.7553 -0.1126  0.7004
 4218SOL     OW24115   4.342   2.967   4.425 -0.2543  0.1361 -0.3654
 4218SOL    HW124116   4.410   3.015   4.378  0.4004 -2.1438 -1.7572
 4218SOL    HW224117   4.381   2.939   4.508 -0.0926 -1.9186 -1.1376
 4219SOL     OW24118   2.602   1.447  15.453 -0.0206  0.0077 -0.2878
 4219SOL    HW124119   2.540   1.513  15.422 -0.6743 -0.9780 -1.0939
 4219SOL    HW224120   2.556   1.412  15.529 -0.7830  0.4186 -0.5606
 4220SOL     OW24121   2.559   3.140   1.883  0.2034 -0.6604 -0.1081
 4220SOL    HW124122   2.514   3.191   1.816 -1.0654 -0.2426  1.0822
 4220SOL    HW224123   2.491   3.094   1.933  1.7822  0.3922  2.9862
 4221SOL     OW24124   2.792   4.671   2.074  0.3287 -0.4624  0.1920
 4221SOL    HW124125   2.886   4.663   2.091  0.2395  1.3962  1.4687
 4221SOL    HW224126   2.788   0.021   2.007 -2.4960 -0.0235  0.8174
 4222SOL     OW24127   2.929   0.321   2.454 -0.3530 -0.0790  0.2397
 4222SOL    HW124128   2.905   0.229   2.452 -1.1302  0.1761 -2.2845
 4222SOL    HW224129   2.887   0.347   2.372 -1.2062 -0.4093  0.5762
 4223SOL     OW24130   1.973   1.328   4.613 -0.1343 -0.5335 -0.2677
 4223SOL    HW124131   1.877   1.332   4.607  0.0333 -0.7475 -2.7432
 4223SOL    HW224132   2.005   1.389   4.547  1.7563  0.0052  1.1625
 4224SOL     OW24133   2.373   0.260   3.770  0.3438  0.4881 -0.4139
 4224SOL    HW124134   2.412   0.347   3.759  0.5340  0.8230  3.1894
 4224SOL    HW224135   2.285   0.276   3.803 -0.3049  0.8813 -2.3229
 4225SOL     OW24136   2.014   3.023   1.857 -0.3572 -0.0956  0.4250
 4225SOL    HW124137   1.919   3.026   1.849 -0.3494 -1.1924 -0.0869
 4225SOL    HW224138   2.036   3.001   1.766  1.1161 -3.6296  1.6418
 4226SOL     OW24139   0.365   0.244  17.126 -0.0153  0.1201  0.4949
 4226SOL    HW124140   0.320   0.163  17.101 -0.3656  0.6995 -0.7429
 4226SOL    HW224141   0.408   0.210  17.205  0.1357  0.0868  0.3991
 4227SOL     OW24142   1.222   2.129   2.826 -0.1576  0.7676  0.1836
 4227SOL    HW124143   1.208   2.156   2.916 -0.7739  1.4199 -0.1066
 4227SOL    HW224144   1.269   2.204   2.790  1.7608 -1.2040 -1.4456
 4228SOL     OW24145   2.488   1.170   6.942  0.1621 -0.0195 -0.0606
 4228SOL    HW124146   2.472   1.248   6.889  0.0922  0.6507  0.9286
 4228SOL    HW224147   2.559   1.200   6.999 -0.8094  0.3193  0.9632
 4229SOL     OW24148   1.847   1.576   2.046 -0.2632 -0.1970 -0.6077
 4229SOL    HW124149   1.762   1.564   2.005 -1.7530  0.6337  2.2510
 4229SOL    HW224150   1.866   1.667   2.023  1.3887 -1.5435 -4.7047
 4230SOL     OW24151   2.507   1.914   2.271 -0.0584 -0.1544 -0.2494
 4230SOL    HW124152   2.479   1.827   2.243  1.5979 -0.8337  0.2478
 4230SOL    HW224153   2.569   1.942   2.204  1.6938 -1.2196  0.9351
 4231SOL     OW24154   3.491   2.526   8.823  0.8002  0.0411  0.2047
 4231SOL    HW124155   3.451   2.537   8.737 -0.4341 -1.1881  0.6119
 4231SOL    HW224156   3.436   2.457   8.860  1.4740 -1.0416 -0.8265
 4232SOL     OW24157   0.837   3.159   8.327 -0.7641  0.2705  0.5452
 4232SOL    HW124158   0.883   3.083   8.363  0.0930  1.0192  1.0416
 4232SOL    HW224159   0.779   3.177   8.401 -2.3380 -0.6442 -0.4653
 4233SOL     OW24160   0.074   1.700   5.645  0.1978  0.0445  0.3920
 4233SOL    HW124161   0.114   1.680   5.729 -2.9544 -0.5562  1.7598
 4233SOL    HW224162   0.070   1.795   5.637 -3.5257 -0.0370  1.2957
 4234SOL     OW24163   3.334   2.737   5.026 -0.5182 -0.0088  0.3318
 4234SOL    HW124164   3.246   2.769   5.005  0.2978  1.3792 -0.9913
 4234SOL    HW224165   3.339   2.645   5.001  2.5489  0.4520 -0.6723
 4235SOL     OW24166   4.710   3.568  14.865  0.1786  0.0645  0.2007
 4235SOL    HW124167   4.703   3.478  14.833  0.6392  0.5715 -1.3329
 4235SOL    HW224168   4.626   3.602  14.894  0.9881  1.6552  0.6723
 4236SOL     OW24169   1.849   3.856   3.181  0.0663 -0.4328  0.5536
 4236SOL    HW124170   1.784   3.797   3.218 -1.6152  0.2779 -1.2987
 4236SOL    HW224171   1.790   3.902   3.121 -1.1477  0.5596  2.5131
 4237SOL     OW24172   0.135   0.919   3.320  0.2026  0.3577  0.4041
 4237SOL    HW124173   0.215   0.882   3.282  0.1840  2.0213 -1.2832
 4237SOL    HW224174   0.076   0.906   3.245 -1.1609 -1.0317  1.7347
 4238SOL     OW24175   4.106   3.660   1.487  0.0411 -0.2862  0.6504
 4238SOL    HW124176   4.090   3.608   1.566 -0.9085 -0.0253  0.6285
 4238SOL    HW224177   4.019   3.658   1.447 -0.5742  1.9553  1.9101
 4239SOL     OW24178   0.467   0.965   7.065 -0.1726 -0.4534  0.5216
 4239SOL    HW124179   0.385   0.992   7.025 -0.2678  2.0533  2.4220
 4239SOL    HW224180   0.523   1.042   7.065 -1.9168  0.8100 -2.1821
 4240SOL     OW24181   0.939   3.817   2.355  0.6075 -0.0627 -0.1486
 4240SOL    HW124182   0.972   3.871   2.283 -0.1658  0.3548 -0.1846
 4240SOL    HW224183   0.997   3.741   2.359  0.4173 -0.1761  0.4112
 4241SOL     OW24184   2.173   0.427   2.609  0.4363 -0.2043  0.1185
 4241SOL    HW124185   2.095   0.377   2.586 -0.1341  0.2470  1.0538
 4241SOL    HW224186   2.141   0.480   2.683 -1.5423 -1.7447  0.3847
 4242SOL     OW24187   2.853   0.630  16.027 -0.5234  0.5328  0.3771
 4242SOL    HW124188   2.821   0.720  16.032 -0.9753  0.2660  2.1807
 4242SOL    HW224189   2.834   0.607  16.118 -0.1375  2.2481  0.8970
 4243SOL     OW24190   1.999   4.599   1.834 -0.2658  0.1611 -0.1817
 4243SOL    HW124191   1.933   4.533   1.816  1.2140 -1.2330 -0.4676
 4243SOL    HW224192   1.943   4.676   1.829  1.7288  1.5947 -0.3594
 4244SOL     OW24193   2.760   0.021   6.623 -0.0477  0.1430 -0.4307
 4244SOL    HW124194   2.791   4.701   6.541 -1.7113  0.4848 -1.2199
 4244SOL    HW224195   2.694   4.675   6.648 -0.1331  1.1580  1.8846
 4245SOL     OW24196   1.706   4.508   8.141 -0.4848 -0.6845  0.4455
 4245SOL    HW124197   1.793   4.549   8.137 -1.0108  0.4683  0.8299
 4245SOL    HW224198   1.731   4.416   8.153 -2.2020 -1.3235 -0.8147
 4246SOL     OW24199   4.156   1.577   6.277  0.0305 -1.2154 -0.0794
 4246SOL    HW124200   4.126   1.501   6.228  0.8757 -0.1387 -2.2378
 4246SOL    HW224201   4.246   1.591   6.250 -0.1663 -0.5470 -0.3873
 4247SOL     OW24202   0.689   2.156   3.822 -0.1782 -0.3246  0.1728
 4247SOL    HW124203   0.721   2.143   3.912 -1.5105 -0.7061  0.5859
 4247SOL    HW224204   0.707   2.249   3.808 -0.1286 -0.3250  0.2337
 4248SOL     OW24205   2.191   3.424   3.190  0.4832 -0.0356 -0.3378
 4248SOL    HW124206   2.115   3.381   3.151  1.1553 -1.1320 -0.4382
 4248SOL    HW224207   2.148   3.503   3.221  0.5216 -0.1401 -0.0198
 4249SOL     OW24208   1.109   3.896   5.600  0.0121  0.0905  0.3016
 4249SOL    HW124209   1.068   3.916   5.684 -0.7417 -3.0654  0.6533
 4249SOL    HW224210   1.091   3.803   5.593 -0.1710  0.1351  0.1696
 4250SOL     OW24211   4.582   3.791   8.782 -0.5768 -0.2254  0.4551
 4250SOL    HW124212   4.623   3.809   8.697  0.3216 -0.8640  0.7493
 4250SOL    HW224213   4.610   3.700   8.787 -0.9925 -0.2995  1.3537
 4251SOL     OW24214   1.280   1.648   0.981  0.1043  0.8172 -0.6018
 4251SOL    HW124215   1.221   1.662   1.054  2.8327  0.7546  1.6316
 4251SOL    HW224216   1.247   1.716   0.922  2.4741  1.9473 -0.6426
 4252SOL     OW24217   2.797   0.481   3.408  0.0747 -0.5726  0.3369
 4252SOL    HW124218   2.703   0.463   3.404  0.1643 -1.0362  0.3191
 4252SOL    HW224219   2.799   0.573   3.382  1.3410 -0.5752  0.4202
 4253SOL     OW24220   1.944   0.296  10.568  0.0104 -0.5632 -0.5238
 4253SOL    HW124221   1.940   0.222  10.509  1.3873 -0.0347 -1.2874
 4253SOL    HW224222   1.972   0.361  10.503 -0.6741 -1.2444 -1.4941
 4254SOL     OW24223   3.261   3.546  16.686  0.3440 -0.3841 -0.3566
 4254SOL    HW124224   3.194   3.542  16.618  0.8676  0.6028 -0.9385
 4254SOL    HW224225   3.287   3.636  16.667 -0.4862 -0.3851 -1.5149
 4255SOL     OW24226   4.632   4.538  15.972 -0.2415 -0.1122 -0.3656
 4255SOL    HW124227   4.628   4.603  15.902  0.3595 -0.2076 -0.4877
 4255SOL    HW224228   0.001   4.558  16.007 -0.5678  0.2073  0.2542
 4256SOL     OW24229   0.669   2.206   9.829 -0.3474 -0.6062  0.2420
 4256SOL    HW124230   0.580   2.239   9.840  0.4122  1.2367  0.9071
 4256SOL    HW224231   0.722   2.284   9.848  0.7687 -1.3406  0.1541
 4257SOL     OW24232   2.946   4.185   2.628 -0.0451 -0.0182 -0.5620
 4257SOL    HW124233   2.981   4.202   2.540  0.2746  1.2908 -0.1930
 4257SOL    HW224234   2.972   4.094   2.643  0.0942 -0.3635 -2.8403
 4258SOL     OW24235   4.698   2.031   1.953 -0.0084  0.4146  0.5760
 4258SOL    HW124236   4.670   2.063   2.038  1.9115  3.6067 -0.0021
 4258SOL    HW224237   4.676   1.938   1.956  1.6472 -0.0468 -1.3273
 4259SOL     OW24238   4.634   3.362   7.290 -0.1920 -0.0985  0.0943
 4259SOL    HW124239   4.554   3.331   7.332 -0.5906  1.8823  0.8329
 4259SOL    HW224240   4.596   3.393   7.208 -0.0608 -0.3390 -0.0582
 4260SOL     OW24241   1.813   1.447   4.105 -0.3629 -0.1420  0.4621
 4260SOL    HW124242   1.887   1.402   4.065 -1.6274 -1.7811 -0.0994
 4260SOL    HW224243   1.834   1.539   4.095 -0.8258 -0.3174 -2.0520
 4261SOL     OW24244   1.370   4.083   3.048 -0.2264 -0.4139 -0.1614
 4261SOL    HW124245   1.283   4.113   3.020  0.5902 -1.3440 -3.6583
 4261SOL    HW224246   1.382   3.999   3.003 -1.3192 -2.0351  2.5765
 4262SOL     OW24247   0.361   2.260   7.755 -0.2572 -0.4606  0.3909
 4262SOL    HW124248   0.380   2.167   7.744  0.1093 -0.4602  1.0478
 4262SOL    HW224249   0.396   2.287   7.840  0.0384  1.9880 -0.4950
 4263SOL     OW24250   0.024   1.031   9.355  0.7499 -0.6279 -0.2810
 4263SOL    HW124251   0.021   1.127   9.356 -0.2343 -0.6604 -0.1652
 4263SOL    HW224252   0.053   1.004   9.442  0.6368  1.1209  0.3002
 4264SOL     OW24253   2.403   4.330  11.950  0.1750  0.6377  0.4483
 4264SOL    HW124254   2.392   4.396  12.018  2.5141 -1.1638  2.5677
 4264SOL    HW224255   2.432   4.389  11.880  0.3535 -0.3152 -0.2749
 4265SOL     OW24256   0.309   0.323   4.690 -0.4050  0.0755 -0.5016
 4265SOL    HW124257   0.329   0.303   4.599  0.8325 -1.4494  0.1071
 4265SOL    HW224258   0.357   0.404   4.706  0.5690 -1.0664  2.4040
 4266SOL     OW24259   0.832   3.145   6.729  0.5921 -0.0734  0.2523
 4266SOL    HW124260   0.779   3.221   6.752  2.4120  1.2407  0.0921
 4266SOL    HW224261   0.922   3.174   6.747  0.6143  0.1940 -0.2838
 4267SOL     OW24262   2.713   1.718   4.715  0.0595  0.4396  0.4764
 4267SOL    HW124263   2.782   1.777   4.747  0.7899 -1.0446  1.6698
 4267SOL    HW224264   2.666   1.708   4.798  2.0533 -0.0131  1.5562
 4268SOL     OW24265   3.721   3.740   8.242  0.1700  0.1314  0.3515
 4268SOL    HW124266   3.681   3.679   8.304  4.2813  0.2001  3.0629
 4268SOL    HW224267   3.644   3.783   8.203  0.8422  0.1393 -0.9552
 4269SOL     OW24268   1.387   0.656   5.962  0.5990  0.1142  0.6366
 4269SOL    HW124269   1.436   0.720   5.910  1.0607 -0.9121 -0.1838
 4269SOL    HW224270   1.318   0.711   5.999 -0.2027 -0.0757 -0.5972
 4270SOL     OW24271   0.415   4.126   3.461  0.4703 -0.4326  1.0381
 4270SOL    HW124272   0.463   4.187   3.518  0.8742  0.3966 -0.1741
 4270SOL    HW224273   0.352   4.189   3.425  1.0073  0.4549  1.6316
 4271SOL     OW24274   2.654   3.586   7.235 -0.5235  0.1109 -0.1350
 4271SOL    HW124275   2.692   3.576   7.322  0.8786 -0.7676 -0.8462
 4271SOL    HW224276   2.575   3.534   7.249  0.5728 -1.0364  1.7900
 4272SOL     OW24277   1.917   2.543   6.030  0.2940  0.5444  0.1993
 4272SOL    HW124278   1.871   2.620   6.065  1.5659  1.2808  0.2333
 4272SOL    HW224279   1.841   2.485   6.024 -0.7302  1.9657 -0.6994
 4273SOL     OW24280   4.254   3.760   7.183  0.1180  0.1164 -0.3242
 4273SOL    HW124281   4.227   3.707   7.109  4.2305  0.5172 -2.1037
 4273SOL    HW224282   4.171   3.782   7.226  0.7002  1.6347  0.0588
 4274SOL     OW24283   1.166   0.696   8.020 -0.5056 -0.1718 -0.0580
 4274SOL    HW124284   1.236   0.684   8.084  0.1774  0.4016 -0.7022
 4274SOL    HW224285   1.163   0.609   7.979  0.8881  0.2198 -0.9854
 4275SOL     OW24286   0.135   2.839   4.979 -0.0561 -0.1622  0.1070
 4275SOL    HW124287   0.158   2.906   5.043 -1.0003 -0.1784  0.4600
 4275SOL    HW224288   0.160   2.889   4.901 -0.2463  1.2368  0.9410
 4276SOL     OW24289   3.855   3.441   1.592  0.4851  0.3195 -0.4202
 4276SOL    HW124290   3.777   3.395   1.561  0.4503 -0.2900  0.5833
 4276SOL    HW224291   3.867   3.500   1.518  2.2389 -1.2219 -1.3791
 4277SOL     OW24292   2.792   0.412   9.467 -0.6144  0.1824  0.6173
 4277SOL    HW124293   2.786   0.383   9.558  0.9663 -0.9924  0.3327
 4277SOL    HW224294   2.726   0.357   9.425 -0.6075  0.5132  0.1784
 4278SOL     OW24295   0.616   4.153   6.619 -0.3378 -0.1693  0.1242
 4278SOL    HW124296   0.582   4.168   6.707 -1.2639 -1.8363  0.0550
 4278SOL    HW224297   0.655   4.066   6.626 -2.1900 -1.0961 -1.3669
 4279SOL     OW24298   0.612   2.612   2.513 -0.3504 -0.2379  0.0125
 4279SOL    HW124299   0.704   2.612   2.486 -0.4761 -1.0792 -0.4100
 4279SOL    HW224300   0.581   2.523   2.500 -0.8825 -0.4704  2.9008
 4280SOL     OW24301   1.599   3.363   5.098 -0.5725 -0.4712 -0.1271
 4280SOL    HW124302   1.675   3.305   5.086  1.1738  1.8418 -0.2830
 4280SOL    HW224303   1.531   3.310   5.057  0.7741 -0.9709 -1.7435
 4281SOL     OW24304   3.240   0.757   7.651 -0.1637 -0.0004 -0.1702
 4281SOL    HW124305   3.306   0.747   7.720  1.2599 -1.5491 -1.7767
 4281SOL    HW224306   3.177   0.688   7.674 -0.5162 -0.4822 -2.6431
 4282SOL     OW24307   3.661   3.122   4.805  0.3065  0.4063 -0.4331
 4282SOL    HW124308   3.737   3.086   4.759 -0.7199 -2.2669 -0.0845
 4282SOL    HW224309   3.608   3.043   4.819  2.5768 -0.9137  0.7539
 4283SOL     OW24310   0.726   0.602   8.679 -0.2818  0.0438 -0.4444
 4283SOL    HW124311   0.661   0.564   8.620  0.0961  0.4475 -1.1145
 4283SOL    HW224312   0.791   0.641   8.620  0.1006  0.2471  0.1099
 4284SOL     OW24313   1.518   3.194   2.221 -0.4281  0.1226  0.2106
 4284SOL    HW124314   1.576   3.134   2.269  0.9948  0.5694 -0.9381
 4284SOL    HW224315   1.448   3.189   2.286  0.5456 -2.6921  1.0828
 4285SOL     OW24316   2.544   1.691   3.735  0.0141 -0.3666 -0.5045
 4285SOL    HW124317   2.497   1.630   3.793 -1.8807  1.1051 -0.5113
 4285SOL    HW224318   2.633   1.668   3.763  0.7967  1.0271 -1.8494
 4286SOL     OW24319   2.733   2.718  13.926  0.0177  0.0078  0.0160
 4286SOL    HW124320   2.827   2.738  13.931  0.1822 -0.1858 -2.3642
 4286SOL    HW224321   2.699   2.800  13.890  0.8700 -0.7002 -2.3779
 4287SOL     OW24322   0.148   4.395  12.434 -0.3747 -0.8343  0.5481
 4287SOL    HW124323   0.205   4.472  12.433  1.0664 -1.8912  1.3850
 4287SOL    HW224324   0.202   4.324  12.470  0.6437 -0.3239  0.0287
 4288SOL     OW24325   2.950   1.203   8.026 -0.8576  0.0534  0.1246
 4288SOL    HW124326   2.912   1.264   8.090  2.4710 -0.5108  2.6253
 4288SOL    HW224327   2.946   1.252   7.944 -0.6958  0.5841  0.4306
 4289SOL     OW24328   0.204   4.679   6.525 -0.1593  0.0895 -0.0172
 4289SOL    HW124329   0.155   4.603   6.492  0.0526  0.1254 -0.4140
 4289SOL    HW224330   0.292   4.651   6.499 -0.1112 -0.1982  0.4436
 4290SOL     OW24331   0.604   4.435   7.859 -0.5627  0.0823  0.7149
 4290SOL    HW124332   0.515   4.402   7.846 -0.4240  0.9801 -2.3883
 4290SOL    HW224333   0.657   4.367   7.901  0.0849 -0.8519 -1.6493
 4291SOL     OW24334   1.040   1.115   1.553  0.3227 -0.6909 -0.2583
 4291SOL    HW124335   0.968   1.108   1.491 -0.9804 -0.2592  1.2065
 4291SOL    HW224336   1.038   1.027   1.590 -1.2019 -0.3201  0.5279
 4292SOL     OW24337   1.135   2.879   7.849  0.6645 -0.0698 -0.1249
 4292SOL    HW124338   1.049   2.845   7.822 -1.1843  3.5398  1.1221
 4292SOL    HW224339   1.140   2.957   7.793 -2.3194 -0.5366 -1.0826
 4293SOL     OW24340   0.778   2.524   3.728 -0.5697 -0.1097 -0.4352
 4293SOL    HW124341   0.856   2.557   3.683 -1.1655  1.5148 -0.2567
 4293SOL    HW224342   0.743   2.470   3.656 -0.9016 -1.9368  1.1075
 4294SOL     OW24343   0.382   1.676  12.863 -0.0644  0.0761  0.1391
 4294SOL    HW124344   0.473   1.649  12.859  0.1048  0.5113  0.9869
 4294SOL    HW224345   0.396   1.756  12.913 -1.3346  0.0464  0.5662
 4295SOL     OW24346   4.108   3.797   6.325  0.7386 -0.3189  0.0589
 4295SOL    HW124347   4.076   3.708   6.335  3.1400 -0.8720  2.8173
 4295SOL    HW224348   4.166   3.798   6.249  0.0674  0.9998 -0.4489
 4296SOL     OW24349   1.100   0.602   1.483 -0.2044  0.2129  0.2120
 4296SOL    HW124350   1.051   0.531   1.442  0.2809  0.8650 -1.4942
 4296SOL    HW224351   1.189   0.583   1.454 -0.4931  1.4660 -1.5059
 4297SOL     OW24352   1.866   1.978   5.670 -0.0126  0.3374 -0.1989
 4297SOL    HW124353   1.946   2.026   5.690 -0.3863  0.4254  1.0632
 4297SOL    HW224354   1.870   1.958   5.576  2.1858 -0.0877 -0.0371
 4298SOL     OW24355   3.161   1.356   6.316 -0.2635  0.4185 -0.0359
 4298SOL    HW124356   3.104   1.400   6.379  1.5480  1.3362  0.9658
 4298SOL    HW224357   3.129   1.392   6.233  0.2092 -0.8569 -0.7623
 4299SOL     OW24358   1.521   3.909   6.824  0.0271 -0.1004  0.4530
 4299SOL    HW124359   1.549   3.993   6.859 -0.4352  0.1364  0.2426
 4299SOL    HW224360   1.501   3.855   6.900  1.0948 -0.9868  0.1156
 4300SOL     OW24361   1.982   1.121   8.727 -0.0392  0.5343  0.1244
 4300SOL    HW124362   2.054   1.080   8.679  0.2679  1.8084 -0.5163
 4300SOL    HW224363   1.908   1.111   8.667 -0.2325  1.6532  0.1760
 4301SOL     OW24364   2.919   1.780   2.800 -0.3529 -0.5313 -0.0843
 4301SOL    HW124365   3.001   1.829   2.799  0.8849 -2.6034 -0.0509
 4301SOL    HW224366   2.941   1.689   2.821 -0.0533 -0.1247  1.3576
 4302SOL     OW24367   0.886   2.623   5.401 -0.9729  0.2947  0.2965
 4302SOL    HW124368   0.850   2.635   5.313 -1.8676 -1.0720  0.4743
 4302SOL    HW224369   0.809   2.608   5.457  2.1483  0.2891  4.5569
 4303SOL     OW24370   3.673   3.400   3.212  0.3809 -0.8001 -0.1118
 4303SOL    HW124371   3.603   3.353   3.168  0.3842 -0.3846 -0.5643
 4303SOL    HW224372   3.682   3.468   3.145 -1.2336 -0.7349 -0.2752
 4304SOL     OW24373   1.306   2.975   5.730  0.2648 -0.0775  0.4690
 4304SOL    HW124374   1.281   2.981   5.638 -0.4563  1.3136  0.7503
 4304SOL    HW224375   1.366   2.901   5.723  0.8650  0.2346  2.2880
 4305SOL     OW24376   4.063   3.716  10.976  0.3276  0.7127  0.0254
 4305SOL    HW124377   3.999   3.787  10.984  0.9308  1.3656 -0.9983
 4305SOL    HW224378   4.095   3.740  10.889 -1.4287 -1.1819 -1.1400
 4306SOL     OW24379   0.390   0.759  11.342 -0.0541  0.3816  0.7718
 4306SOL    HW124380   0.468   0.718  11.304 -0.0905  0.6404  0.4156
 4306SOL    HW224381   0.358   0.687  11.396  1.2498 -1.6755 -1.2065
 4307SOL     OW24382   0.549   3.363   0.815  0.1955  0.3680 -0.6523
 4307SOL    HW124383   0.584   3.419   0.883  0.6763 -0.2087 -0.4278
 4307SOL    HW224384   0.615   3.377   0.747  0.3611  0.7849 -0.4059
 4308SOL     OW24385   3.520   1.357   8.139  0.2680  0.3006 -0.2743
 4308SOL    HW124386   3.479   1.317   8.215  2.5620  0.7308  1.1924
 4308SOL    HW224387   3.504   1.288   8.074  3.2151 -1.0405  0.4379
 4309SOL     OW24388   1.740   4.431   5.160 -0.0420 -0.2537  0.0515
 4309SOL    HW124389   1.731   4.376   5.238 -0.4227  1.0213  0.8961
 4309SOL    HW224390   1.745   4.519   5.198  1.7947 -0.1371 -0.4605
 4310SOL     OW24391   2.517   4.385   0.052 -0.3666  0.4374  0.1052
 4310SOL    HW124392   2.612   4.375   0.057 -0.1354  1.9057 -1.3662
 4310SOL    HW224393   2.508   4.376  17.632  0.7966 -0.7045  0.1025
 4311SOL     OW24394   1.578   4.408   2.040  0.0794  0.2104 -0.3617
 4311SOL    HW124395   1.605   4.324   2.004  2.4920  0.4993  0.7997
 4311SOL    HW224396   1.531   4.435   1.961  0.6972 -0.2710 -0.8982
 4312SOL     OW24397   3.292   2.285  16.857 -0.0991  0.4307 -0.2705
 4312SOL    HW124398   3.291   2.233  16.937  1.1865 -0.7083 -1.0023
 4312SOL    HW224399   3.273   2.371  16.895 -0.6774 -1.2406  3.2698
 4313SOL     OW24400   3.139   1.636  13.058  0.7612 -0.6494 -0.3272
 4313SOL    HW124401   3.110   1.631  12.967 -1.9703  0.0174  0.5197
 4313SOL    HW224402   3.234   1.642  13.048  0.7949 -0.4723  0.1028
 4314SOL     OW24403   2.802   2.510   4.715 -0.0644 -0.2837 -0.6493
 4314SOL    HW124404   2.821   2.424   4.753  0.0358 -0.5892 -1.3960
 4314SOL    HW224405   2.893   2.532   4.692  0.1897  0.9087  1.5027
 4315SOL     OW24406   4.580   3.408   2.964  0.2278  0.2963 -0.3785
 4315SOL    HW124407   4.504   3.364   3.001  0.5522 -0.4421 -0.5961
 4315SOL    HW224408   4.545   3.493   2.938 -1.0520  0.0160  0.4692
 4316SOL     OW24409   3.259   3.115   6.286  0.7711 -0.3229  0.2152
 4316SOL    HW124410   3.253   3.204   6.250  1.8100  0.0701  1.0169
 4316SOL    HW224411   3.231   3.068   6.207  0.1854 -1.0809  0.8715
 4317SOL     OW24412   1.063   0.542  13.361  0.4703 -0.3486  0.4016
 4317SOL    HW124413   0.988   0.540  13.301  2.6043 -0.9946 -2.1927
 4317SOL    HW224414   1.016   0.549  13.445  0.9450 -1.2022  0.7313
 4318SOL     OW24415   4.517   3.514   8.473  0.0786 -0.2756 -0.3405
 4318SOL    HW124416   4.456   3.562   8.529  0.2159  0.4480 -0.7991
 4318SOL    HW224417   4.465   3.498   8.395  2.2928 -1.6647 -1.5521
 4319SOL     OW24418   3.191   2.385  10.572  0.0297 -0.2399 -0.2369
 4319SOL    HW124419   3.157   2.441  10.502 -0.3580 -1.1182 -0.7468
 4319SOL    HW224420   3.156   2.439  10.643 -1.5216 -0.1039 -1.0851
 4320SOL     OW24421   4.516   1.833   4.594  0.0833  0.0401  0.1783
 4320SOL    HW124422   4.437   1.840   4.541 -0.1640 -0.1878  0.5182
 4320SOL    HW224423   4.535   1.740   4.584 -1.2461 -0.4429  2.1723
 4321SOL     OW24424   3.349   0.158   9.190 -0.2611  0.4319 -0.2803
 4321SOL    HW124425   3.376   0.069   9.172 -1.0354  0.3252 -0.9302
 4321SOL    HW224426   3.263   0.147   9.231 -0.1822 -0.1425 -0.2732
 4322SOL     OW24427   4.054   0.498   5.506  0.1343  0.0896 -0.6238
 4322SOL    HW124428   4.022   0.443   5.577  1.7182 -1.3419 -1.0439
 4322SOL    HW224429   4.102   0.563   5.557 -1.0799  0.6581 -0.1946
 4323SOL     OW24430   2.813   0.826   1.694  0.0263 -0.1297  0.1274
 4323SOL    HW124431   2.843   0.849   1.782 -0.9871  0.9047  0.1988
 4323SOL    HW224432   2.806   0.913   1.656 -1.6984 -0.5857 -0.5987
 4324SOL     OW24433   3.786   3.649   8.838 -0.4162  0.1806  0.3477
 4324SOL    HW124434   3.759   3.653   8.929  3.8340 -1.3651  1.6552
 4324SOL    HW224435   3.723   3.715   8.808  0.1364  0.8828  0.7401
 4325SOL     OW24436   3.780   2.722   9.799  0.3078  0.2831 -0.8302
 4325SOL    HW124437   3.823   2.709   9.883 -1.3501  1.1214  0.1530
 4325SOL    HW224438   3.695   2.685   9.823  0.6684 -1.8604 -2.8264
 4326SOL     OW24439   3.346   3.849   6.326 -0.0489  0.0524  0.7047
 4326SOL    HW124440   3.377   3.760   6.335 -1.5706 -0.6865 -1.2927
 4326SOL    HW224441   3.251   3.838   6.328 -0.3394  2.3604 -0.5580
 4327SOL     OW24442   3.822   0.139   3.468 -0.2242 -0.1975 -0.4435
 4327SOL    HW124443   3.905   0.175   3.501 -0.2400  0.4941 -1.1636
 4327SOL    HW224444   3.830   0.047   3.492 -0.2798 -0.0231  0.2499
 4328SOL     OW24445   0.870   1.066   3.806  0.5756  0.4151 -0.0321
 4328SOL    HW124446   0.810   1.058   3.880  0.4046 -3.4522 -0.5902
 4328SOL    HW224447   0.954   1.049   3.848  0.7819 -1.0669 -1.0518
 4329SOL     OW24448   4.613   2.172   4.812  0.3102 -0.0511  0.2318
 4329SOL    HW124449   4.708   2.173   4.800  0.2286 -0.0149 -0.3975
 4329SOL    HW224450   4.582   2.172   4.721  2.2873  3.7913 -0.4677
 4330SOL     OW24451   0.028   3.162   8.630  0.1362 -0.1749  0.4084
 4330SOL    HW124452   0.120   3.158   8.603 -0.4030 -2.6752 -1.0702
 4330SOL    HW224453   0.028   3.168   8.726 -0.0626 -2.2610  0.5542
 4331SOL     OW24454   2.996   1.322  12.149 -0.3089  0.0497  0.1173
 4331SOL    HW124455   3.053   1.280  12.213  2.7413  0.4941 -2.3108
 4331SOL    HW224456   3.060   1.350  12.083 -0.1875  1.9870  1.0260
 4332SOL     OW24457   2.908   4.498   6.681 -0.2141 -0.1078 -0.1656
 4332SOL    HW124458   2.849   4.486   6.606 -0.9540 -4.2155  1.0780
 4332SOL    HW224459   2.851   4.482   6.756  0.5323 -1.9436  0.0149
 4333SOL     OW24460   3.096   4.442   4.583 -0.2578 -0.2479  0.5041
 4333SOL    HW124461   3.075   4.353   4.610  1.2750 -0.3632  1.3047
 4333SOL    HW224462   3.118   4.435   4.490 -0.1250  1.7991  0.3643
 4334SOL     OW24463   1.928   0.424   9.342 -0.2081 -0.3364 -0.4622
 4334SOL    HW124464   1.861   0.420   9.274  1.4323 -1.9102 -1.9820
 4334SOL    HW224465   1.962   0.512   9.328 -1.6079  0.3050  0.2200
 4335SOL     OW24466   0.340   1.791  15.354 -0.1932  0.3683  0.8146
 4335SOL    HW124467   0.434   1.805  15.357  0.1658 -1.5591 -1.4552
 4335SOL    HW224468   0.326   1.713  15.301  2.2128  0.9756 -0.7063
 4336SOL     OW24469   2.493   2.963   3.192  0.3927 -0.1571  0.0758
 4336SOL    HW124470   2.556   2.982   3.123 -0.1883  0.4042 -0.2987
 4336SOL    HW224471   2.536   2.996   3.271  0.4290  2.1969 -0.9569
 4337SOL     OW24472   0.883   2.142   0.049 -0.1893 -0.3673  0.5013
 4337SOL    HW124473   0.931   2.062   0.029 -0.3656  0.0541 -1.5841
 4337SOL    HW224474   0.819   2.108   0.112  0.9607  0.0974  1.9134
 4338SOL     OW24475   0.734   2.951  11.196 -0.2542 -0.2693 -0.5364
 4338SOL    HW124476   0.646   2.969  11.163 -0.3150 -0.2697 -0.3757
 4338SOL    HW224477   0.788   2.931  11.119  1.3898 -2.3852  1.1484
 4339SOL     OW24478   1.536   0.542  13.523 -0.1703 -0.4766  0.5504
 4339SOL    HW124479   1.452   0.549  13.476  1.2963  3.0318 -1.4863
 4339SOL    HW224480   1.504   0.482  13.591  0.8190 -0.1957  1.2571
 4340SOL     OW24481   2.678   1.612   5.030  0.1665  0.1102  0.6491
 4340SOL    HW124482   2.728   1.692   5.013  2.9481 -2.0177 -1.1514
 4340SOL    HW224483   2.700   1.604   5.123 -1.2774 -0.0633  0.9727
 4341SOL     OW24484   1.596   2.946   7.465  0.3295  0.1389 -0.2490
 4341SOL    HW124485   1.605   3.029   7.513 -1.1221 -0.1361  0.5107
 4341SOL    HW224486   1.592   2.889   7.542 -1.6308 -1.1273 -1.2773
 4342SOL     OW24487   0.437   4.239   8.294  0.2983  0.0621  0.7935
 4342SOL    HW124488   0.395   4.214   8.377 -3.3735  0.2112 -1.0223
 4342SOL    HW224489   0.376   4.304   8.261  1.9929 -0.4111 -3.2706
 4343SOL     OW24490   4.010   1.637   1.532  0.6038  0.0121 -0.1218
 4343SOL    HW124491   4.013   1.716   1.586  1.2820  0.4425 -0.8038
 4343SOL    HW224492   4.095   1.645   1.490  0.8023 -0.3828  0.2059
 4344SOL     OW24493   1.686   3.894  10.546 -0.2796  0.0514 -0.3949
 4344SOL    HW124494   1.611   3.929  10.593 -0.7789 -0.9469 -0.4438
 4344SOL    HW224495   1.655   3.837  10.475  1.2899 -1.1025 -0.1614
 4345SOL     OW24496   1.882   2.242  10.700  0.5285  0.4406  0.0350
 4345SOL    HW124497   1.870   2.330  10.664 -1.1569  0.4689  0.6446
 4345SOL    HW224498   1.977   2.251  10.694  0.5790 -0.5200 -0.5101
 4346SOL     OW24499   4.696   1.113   7.104 -0.2057 -0.8736  0.3147
 4346SOL    HW124500   4.629   1.114   7.035  0.0914 -0.9080  0.0281
 4346SOL    HW224501   4.678   1.201   7.138  2.3906  0.3572 -1.5288
 4347SOL     OW24502   0.208   1.626   3.289  0.1051  0.4424 -0.1895
 4347SOL    HW124503   0.182   1.597   3.201 -0.1110  0.2343 -0.0580
 4347SOL    HW224504   0.267   1.693   3.254 -1.5311  2.0802  0.1665
 4348SOL     OW24505   1.646   2.689   4.474 -0.0773 -0.2922 -0.7879
 4348SOL    HW124506   1.577   2.698   4.540  1.6079 -0.0948  0.9798
 4348SOL    HW224507   1.702   2.624   4.518 -0.5321  0.4892  0.9636
 4349SOL     OW24508   4.420   0.483   7.508  0.8427  0.3875 -0.3615
 4349SOL    HW124509   4.367   0.406   7.487  0.5437  0.0773  1.5873
 4349SOL    HW224510   4.480   0.434   7.565 -0.8614 -0.6140  0.5558
 4350SOL     OW24511   2.664   3.873  17.245 -0.6563 -0.1283  0.4227
 4350SOL    HW124512   2.645   3.784  17.214  1.5153 -0.2836 -0.5238
 4350SOL    HW224513   2.574   3.901  17.256 -1.0681 -1.6382  0.8302
 4351SOL     OW24514   3.899   4.614   3.581  0.3097  0.9288 -0.5138
 4351SOL    HW124515   3.906   4.591   3.488  1.0445 -0.5982 -0.0761
 4351SOL    HW224516   3.898   4.529   3.624  0.3104  0.6636 -1.0405
 4352SOL     OW24517   3.305   0.463   8.419 -0.4012  0.4009 -0.9881
 4352SOL    HW124518   3.344   0.376   8.411 -2.6571 -0.4826 -2.5276
 4352SOL    HW224519   3.376   0.516   8.455  0.3520 -0.5280 -1.1104
 4353SOL     OW24520   3.796   4.588  11.697 -0.7145  0.3074 -0.1033
 4353SOL    HW124521   3.854   4.538  11.755 -2.3594  0.0769  1.3500
 4353SOL    HW224522   3.737   4.520  11.665  1.2149 -1.6074  0.4215
 4354SOL     OW24523   0.660   1.800   3.020 -0.2075  0.5453 -1.1143
 4354SOL    HW124524   0.733   1.746   3.050 -0.7561 -0.1520 -1.0329
 4354SOL    HW224525   0.690   1.870   2.961 -0.0558  0.7234 -0.8252
 4355SOL     OW24526   3.918   1.077   4.552 -0.1889 -0.1069  0.5448
 4355SOL    HW124527   3.993   1.123   4.513  0.6234 -0.6872  1.4358
 4355SOL    HW224528   3.863   1.149   4.583 -1.1594 -1.5399  2.1328
 4356SOL     OW24529   1.696   1.988   8.959  0.4514 -0.5153  0.4439
 4356SOL    HW124530   1.743   1.909   8.984  1.0015 -0.2905  0.1182
 4356SOL    HW224531   1.744   2.061   8.999  0.3028 -0.2610  0.1633
 4357SOL     OW24532   1.110   1.944   0.582 -0.4042  0.1306 -0.5748
 4357SOL    HW124533   1.146   1.864   0.544 -0.0978 -0.6349  1.3133
 4357SOL    HW224534   1.121   2.012   0.516 -0.9926 -0.3992 -1.2055
 4358SOL     OW24535   0.717   3.837   9.573  0.4830 -0.2543 -0.4766
 4358SOL    HW124536   0.741   3.929   9.589  0.5939 -0.2988 -0.3905
 4358SOL    HW224537   0.803   3.804   9.546 -0.1228  0.0319 -2.6995
 4359SOL     OW24538   4.210   4.496   4.916  0.5992 -0.1185 -0.0339
 4359SOL    HW124539   4.291   4.520   4.962  0.4833 -3.9667  2.1620
 4359SOL    HW224540   4.247   4.422   4.868  0.7155  0.4031 -0.7557
 4360SOL     OW24541   1.739   4.455   4.233 -0.2953 -0.5658  0.2162
 4360SOL    HW124542   1.805   4.466   4.302 -0.0382 -0.2281 -0.0743
 4360SOL    HW224543   1.798   4.483   4.162  0.5599 -2.0140  0.3621
 4361SOL     OW24544   3.228   3.802  13.874 -0.3403  1.0323 -0.1896
 4361SOL    HW124545   3.173   3.767  13.804 -0.7711  0.0217  0.6660
 4361SOL    HW224546   3.269   3.719  13.897 -2.4319  0.2244  0.6239
 4362SOL     OW24547   2.797   4.001   0.969 -0.1678 -0.0965  0.2936
 4362SOL    HW124548   2.806   4.056   0.891 -0.6469  0.9869  1.0127
 4362SOL    HW224549   2.875   4.021   1.020  0.3257  2.0791 -1.3313
 4363SOL     OW24550   1.427   3.858   4.377  0.2916 -0.5770  0.0144
 4363SOL    HW124551   1.393   3.769   4.371 -1.2768  0.0135  0.2693
 4363SOL    HW224552   1.507   3.844   4.427 -1.0671  2.6139  3.0795
 4364SOL     OW24553   0.100   2.630   6.114  0.3249  0.2343  0.6248
 4364SOL    HW124554   0.118   2.543   6.150  1.4371 -1.1073 -3.1924
 4364SOL    HW224555   0.180   2.637   6.062 -0.6999 -0.6191 -1.0716
 4365SOL     OW24556   4.610   3.499   5.359  0.0867 -0.3866 -0.0352
 4365SOL    HW124557   4.586   3.575   5.306 -1.3220 -0.8912 -0.1440
 4365SOL    HW224558   4.560   3.512   5.439 -0.9578  3.4572 -1.3341
 4366SOL     OW24559   1.630   1.008  14.509  0.0947  0.2596  0.4324
 4366SOL    HW124560   1.568   1.072  14.475  0.2216 -0.5924 -1.4327
 4366SOL    HW224561   1.679   0.986  14.430  0.1028  1.7332  0.0355
 4367SOL     OW24562   3.575   4.319  17.649  0.0624 -0.0653  0.0341
 4367SOL    HW124563   3.578   4.262  17.572  3.6050 -0.1463  0.2453
 4367SOL    HW224564   3.629   4.267   0.033 -0.8083 -0.8362  0.1496
 4368SOL     OW24565   2.276   3.495  11.159 -0.3639 -0.0453 -0.2621
 4368SOL    HW124566   2.310   3.410  11.132 -1.4919 -0.3494 -0.7423
 4368SOL    HW224567   2.184   3.496  11.132  0.0268  1.0853 -1.5226
 4369SOL     OW24568   3.027   0.490   5.388 -0.8199 -0.1942 -0.2033
 4369SOL    HW124569   3.084   0.435   5.442 -0.8153 -1.2629 -1.2850
 4369SOL    HW224570   2.958   0.524   5.444  0.8671  0.1541  1.6632
 4370SOL     OW24571   0.288   3.910   6.385  0.1997 -0.4115  0.9517
 4370SOL    HW124572   0.373   3.897   6.429  1.0822  2.0263 -0.0428
 4370SOL    HW224573   0.272   4.001   6.407  0.9538 -0.4216  1.5541
 4371SOL     OW24574   2.639   2.319  12.502  0.7397 -0.4397  1.1150
 4371SOL    HW124575   2.583   2.338  12.577  1.1561  2.5889  0.6449
 4371SOL    HW224576   2.704   2.389  12.505  0.9474 -0.5634 -0.4563
 4372SOL     OW24577   3.356   2.811   4.302  0.7870  0.2964 -0.2850
 4372SOL    HW124578   3.333   2.811   4.395  2.5134  0.3819  0.1353
 4372SOL    HW224579   3.270   2.791   4.266  0.4059  0.4204  0.5403
 4373SOL     OW24580   2.236   3.656   7.658  0.0431  0.9448  0.1403
 4373SOL    HW124581   2.267   3.603   7.584  1.1657  0.6409  0.8313
 4373SOL    HW224582   2.316   3.699   7.688 -0.2013  0.1325  1.9534
 4374SOL     OW24583   0.124   1.544   7.473  0.2946 -0.2072  0.3695
 4374SOL    HW124584   0.062   1.616   7.485  1.3304  0.8015 -0.3822
 4374SOL    HW224585   0.167   1.586   7.398 -1.0155  0.7205  0.1420
 4375SOL     OW24586   1.209   4.578   8.628  0.2889 -0.0691  0.5488
 4375SOL    HW124587   1.126   4.605   8.668 -0.1005  2.7863 -2.1200
 4375SOL    HW224588   1.233   4.497   8.672  0.4906 -0.1760  0.2425
 4376SOL     OW24589   3.812   4.004   0.433  0.1029  0.5305 -0.2119
 4376SOL    HW124590   3.836   3.917   0.463 -0.4659  0.1908 -0.7349
 4376SOL    HW224591   3.895   4.028   0.392  0.8240 -0.5184  0.6550
 4377SOL     OW24592   4.556   0.617   5.989 -0.6966  0.3725 -0.4319
 4377SOL    HW124593   4.538   0.657   5.904 -0.8366 -0.3836 -0.7641
 4377SOL    HW224594   4.540   0.527   5.960  0.8563  0.0910 -0.4118
 4378SOL     OW24595   1.622   0.069   1.819  0.1549  0.5714 -0.3307
 4378SOL    HW124596   1.676   0.112   1.753 -0.6438  3.5583  0.9666
 4378SOL    HW224597   1.538   0.070   1.773  0.3554 -1.2247 -0.7363
 4379SOL     OW24598   1.006   4.128  16.338 -0.2937  0.1446 -0.0743
 4379SOL    HW124599   1.100   4.116  16.322 -0.0528  3.5157 -1.1861
 4379SOL    HW224600   1.001   4.072  16.416 -3.1509 -0.1623 -0.4900
 4380SOL     OW24601   3.863   2.835  15.517  0.8030  0.6682 -0.7053
 4380SOL    HW124602   3.958   2.852  15.518  0.1550  4.3477 -1.9888
 4380SOL    HW224603   3.875   2.741  15.528  1.1985  0.3278 -3.9860
 4381SOL     OW24604   2.696   0.260  16.134  0.5691 -0.3599 -0.3703
 4381SOL    HW124605   2.650   0.278  16.051 -0.0086  2.9391  0.6974
 4381SOL    HW224606   2.634   0.226  16.199  0.4381  0.3785 -0.1106
 4382SOL     OW24607   2.508   3.807   7.179  0.2500 -0.5589 -0.2123
 4382SOL    HW124608   2.570   3.734   7.182 -0.7278 -1.3549  0.4428
 4382SOL    HW224609   2.520   3.841   7.268  0.6206  0.0838 -0.5050
 4383SOL     OW24610   4.493   2.326   2.989 -0.1253 -0.8210 -0.0628
 4383SOL    HW124611   4.439   2.405   3.000  0.9828 -0.1984  1.0239
 4383SOL    HW224612   4.564   2.351   2.930 -0.8586  2.3585  0.3573
 4384SOL     OW24613   1.742   0.244  17.017 -0.5020  0.3052 -0.7872
 4384SOL    HW124614   1.650   0.230  16.995 -1.1020  2.0105  0.6813
 4384SOL    HW224615   1.761   0.329  16.979  0.8179  0.8680  1.1696
 4385SOL     OW24616   0.710   0.078   3.239 -0.7222  0.0127 -0.4694
 4385SOL    HW124617   0.789   0.040   3.279 -0.7602  0.4301  0.0025
 4385SOL    HW224618   0.743   0.168   3.240  0.5377 -0.4125 -3.1763
 4386SOL     OW24619   3.433   1.868   6.666  0.4142  0.2657 -0.6758
 4386SOL    HW124620   3.483   1.882   6.746 -0.9662 -1.1277  0.4434
 4386SOL    HW224621   3.370   1.801   6.693  0.7518 -0.0113 -0.5682
 4387SOL     OW24622   1.626   3.573   9.738 -0.6595 -0.3572 -0.5237
 4387SOL    HW124623   1.646   3.483   9.765  0.1418 -0.1819 -0.5343
 4387SOL    HW224624   1.550   3.594   9.792  1.1853  2.3096  1.0617
 4388SOL     OW24625   1.757   2.719   6.137  0.0787  0.0366  0.4538
 4388SOL    HW124626   1.663   2.729   6.119 -0.3422 -2.8852  1.0245
 4388SOL    HW224627   1.774   2.744   6.228  1.3745 -0.3864  0.3229
 4389SOL     OW24628   2.809   3.938   7.373 -0.6802 -0.2416 -0.4037
 4389SOL    HW124629   2.746   3.984   7.318 -1.9527 -0.7714  0.6282
 4389SOL    HW224630   2.890   3.976   7.338 -0.1227  0.9778  2.2290
 4390SOL     OW24631   2.714   3.644  10.916 -0.0985  0.7862  0.3419
 4390SOL    HW124632   2.657   3.642  10.839 -1.1457  0.6858  1.1302
 4390SOL    HW224633   2.646   3.674  10.976 -0.4621  0.8683 -0.1122
 4391SOL     OW24634   2.927   2.205  13.331  0.0713  0.2097  0.4825
 4391SOL    HW124635   2.868   2.259  13.280  1.2402  3.0835  2.1774
 4391SOL    HW224636   2.884   2.122  13.353  0.5587 -0.4296 -0.9882
 4392SOL     OW24637   4.407   4.527   2.418 -0.0487  0.1219  0.4815
 4392SOL    HW124638   4.331   4.584   2.413  0.9358  1.5462  1.7032
 4392SOL    HW224639   4.369   4.452   2.373 -0.2064  0.3674  0.2079
 4393SOL     OW24640   4.540   2.641   0.983  0.2340 -0.1163 -0.0101
 4393SOL    HW124641   4.569   2.638   0.892 -3.3755  0.6514 -1.1831
 4393SOL    HW224642   4.547   2.549   1.007  1.2887  0.4146  1.7296
 4394SOL     OW24643   3.693   3.590   6.593 -0.1518 -0.1555 -0.2613
 4394SOL    HW124644   3.622   3.530   6.612 -0.3795  0.6601  1.4558
 4394SOL    HW224645   3.650   3.673   6.614  0.5510 -0.0434  0.7492
 4395SOL     OW24646   1.569   1.680   7.099 -0.2135  0.4189 -0.1528
 4395SOL    HW124647   1.535   1.598   7.063  0.2951  0.6864 -1.2496
 4395SOL    HW224648   1.640   1.698   7.037  0.1414  0.2347  0.2072
 4396SOL     OW24649   0.481   3.166   2.685  0.0420 -0.4777 -0.6394
 4396SOL    HW124650   0.413   3.220   2.727 -0.1035  0.5720 -2.2073
 4396SOL    HW224651   0.503   3.116   2.763 -1.6985  0.2665  0.3454
 4397SOL     OW24652   3.883   3.444   5.730  0.0702 -0.0487 -0.5615
 4397SOL    HW124653   3.848   3.385   5.664 -0.2956 -0.4931  0.0288
 4397SOL    HW224654   3.893   3.389   5.808  1.4793  0.6210 -0.2663
 4398SOL     OW24655   2.030   2.137   2.671 -0.7978 -0.5514  0.2216
 4398SOL    HW124656   2.122   2.123   2.649 -0.8331 -0.5526  0.0760
 4398SOL    HW224657   1.991   2.050   2.674 -0.7965 -0.4522  2.7919
 4399SOL     OW24658   0.482   2.903  12.634 -0.2491 -0.3544  0.0813
 4399SOL    HW124659   0.437   2.953  12.566  3.6857 -1.8496 -3.5969
 4399SOL    HW224660   0.436   2.820  12.622  0.5731 -0.6295 -1.1889
 4400SOL     OW24661   0.913   2.590   0.211  0.1469  0.9314  0.1680
 4400SOL    HW124662   0.883   2.603   0.301  1.7157  2.1698  0.5099
 4400SOL    HW224663   0.920   2.677   0.172  1.4527 -0.2718 -2.2464
 4401SOL     OW24664   4.459   3.511   5.653  0.0058 -1.0319  0.5088
 4401SOL    HW124665   4.476   3.594   5.698 -2.7093 -1.2055  1.8986
 4401SOL    HW224666   4.386   3.472   5.702 -1.6277  1.6195  0.1803
 4402SOL     OW24667   2.958   2.204   2.160 -0.2620  0.7398  0.4523
 4402SOL    HW124668   2.953   2.231   2.068 -1.0645 -0.1942  0.2196
 4402SOL    HW224669   2.984   2.113   2.154 -2.2957  0.2780 -1.4766
 4403SOL     OW24670   3.777   1.425   7.231  0.4324 -0.0162  0.3115
 4403SOL    HW124671   3.859   1.385   7.261  0.1269 -0.6316  0.3196
 4403SOL    HW224672   3.822   1.490   7.177 -0.0375  0.2195  0.2102
 4404SOL     OW24673   2.952   3.308  17.383 -0.1428  0.5424 -0.5512
 4404SOL    HW124674   2.963   3.361  17.304  0.8828  0.7110 -0.2986
 4404SOL    HW224675   2.949   3.221  17.342 -1.0336 -0.1824  1.0453
 4405SOL     OW24676   0.342   0.956   7.994 -0.5091 -0.0885  0.4170
 4405SOL    HW124677   0.317   0.894   7.925  0.3209  1.0236 -0.8984
 4405SOL    HW224678   0.360   1.039   7.951 -0.8365 -0.1756  0.1074
 4406SOL     OW24679   3.520   0.408   2.001  0.2986  0.2613 -0.4111
 4406SOL    HW124680   3.606   0.435   2.033 -0.2982 -0.4206  1.7618
 4406SOL    HW224681   3.456   0.449   2.060 -1.0288 -1.6181 -0.5652
 4407SOL     OW24682   2.513   3.691   7.735  0.2630 -0.4214  0.3850
 4407SOL    HW124683   2.588   3.727   7.782  1.8103 -2.4732 -0.4845
 4407SOL    HW224684   2.485   3.628   7.802 -0.6616 -0.2937  0.1148
 4408SOL     OW24685   0.178   4.515  17.144 -1.0307  0.4105  0.7877
 4408SOL    HW124686   0.180   4.440  17.085  3.0303  2.0392 -1.1338
 4408SOL    HW224687   0.195   4.589  17.085  3.8919 -1.0912  0.3609
 4409SOL     OW24688   1.616   2.805   0.542  0.4387  0.7063  0.8056
 4409SOL    HW124689   1.564   2.802   0.462  0.1421 -0.5128  1.0502
 4409SOL    HW224690   1.567   2.739   0.591 -0.9791  0.8438 -0.4289
 4410SOL     OW24691   1.699   2.748   8.691 -0.2717  0.0174 -0.1607
 4410SOL    HW124692   1.735   2.695   8.621  1.0735  0.4168  0.2376
 4410SOL    HW224693   1.722   2.695   8.767  0.1045 -1.2102 -1.1313
 4411SOL     OW24694   0.472   1.705   2.140 -0.4997  0.5614  0.0359
 4411SOL    HW124695   0.496   1.733   2.228  1.3372 -1.3872  0.1427
 4411SOL    HW224696   0.378   1.723   2.137 -0.4738  0.8386  1.0364
 4412SOL     OW24697   4.614   0.405   3.644 -0.9619 -0.1433 -0.6181
 4412SOL    HW124698   4.694   0.368   3.681  0.1808  2.5327 -0.4511
 4412SOL    HW224699   4.548   0.406   3.713 -0.1723 -2.3867  0.1796
 4413SOL     OW24700   4.294   2.882   8.455  0.5195 -0.3259 -0.0387
 4413SOL    HW124701   4.277   2.789   8.470 -1.4419  0.1243  0.4895
 4413SOL    HW224702   4.215   2.916   8.414  1.2314  2.7112  1.1284
 4414SOL     OW24703   3.769   0.827   1.859 -0.0645 -0.0226 -0.0425
 4414SOL    HW124704   3.745   0.906   1.907 -1.3392  0.4858 -1.5014
 4414SOL    HW224705   3.858   0.844   1.828 -0.5048  1.2450 -0.6005
 4415SOL     OW24706   3.966   1.207  10.953 -0.1569 -0.1467  0.1365
 4415SOL    HW124707   3.984   1.266  11.027  0.8981 -1.7357  1.1384
 4415SOL    HW224708   3.916   1.265  10.896  0.1708 -0.0103 -0.0115
 4416SOL     OW24709   1.182   2.500   6.031  0.1394 -0.2456 -0.0343
 4416SOL    HW124710   1.155   2.575   5.978 -2.8720  0.4338  2.4912
 4416SOL    HW224711   1.110   2.438   6.021  1.0700 -1.5139  1.1531
 4417SOL     OW24712   4.443   3.940   8.008  0.1722  0.4232 -0.0515
 4417SOL    HW124713   4.390   3.956   7.931 -0.5985 -1.3844  0.0942
 4417SOL    HW224714   4.410   3.856   8.040  3.7590 -1.2898 -0.7517
 4418SOL     OW24715   3.076   1.697   4.483  0.4892  0.0658  0.0565
 4418SOL    HW124716   3.021   1.775   4.489  0.8676  0.1679  2.4394
 4418SOL    HW224717   3.024   1.617   4.474 -0.1595  0.5206 -0.2082
 4419SOL     OW24718   3.025   0.373   3.316  0.4416  0.4799  0.7713
 4419SOL    HW124719   2.938   0.404   3.342 -0.3917 -2.8829  2.0018
 4419SOL    HW224720   3.002   0.317   3.242 -0.8028  2.3533 -0.2934
 4420SOL     OW24721   3.832   4.709   2.542 -0.2832  0.5662 -0.1142
 4420SOL    HW124722   3.892   0.025   2.608 -1.2372  0.6175  0.7224
 4420SOL    HW224723   3.850   0.053   2.471 -2.0517  1.0393 -0.1466
 4421SOL     OW24724   0.901   1.604   4.585  0.2752  0.3841  0.1235
 4421SOL    HW124725   0.818   1.651   4.571  0.7938  0.7113 -1.8867
 4421SOL    HW224726   0.902   1.556   4.502 -1.1063 -1.7969  1.3746
 4422SOL     OW24727   1.980   0.836   5.098 -0.0437 -0.1906 -0.2809
 4422SOL    HW124728   1.919   0.908   5.082 -0.3140 -0.5929 -1.0675
 4422SOL    HW224729   1.940   0.790   5.171 -1.7263  3.3177  0.9919
 4423SOL     OW24730   0.184   3.076   8.363  0.3344  0.4570 -0.1552
 4423SOL    HW124731   0.225   3.030   8.290  1.7302  0.3819  0.6674
 4423SOL    HW224732   0.268   3.101   8.402 -0.6007  0.3373  1.9368
 4424SOL     OW24733   2.627   0.899   4.873  0.4629 -0.1947 -0.0009
 4424SOL    HW124734   2.703   0.871   4.924 -0.0673  0.3478  1.0892
 4424SOL    HW224735   2.563   0.833   4.901 -0.9658  1.5948  0.8961
 4425SOL     OW24736   3.333   2.167  15.270  0.1834 -0.2297  0.3553
 4425SOL    HW124737   3.279   2.131  15.340  0.5792  1.0136  1.2966
 4425SOL    HW224738   3.420   2.156  15.308  0.4509  2.6086  0.5528
 4426SOL     OW24739   2.625   1.733   6.507  0.1537  0.4336  0.1442
 4426SOL    HW124740   2.581   1.798   6.561  1.2271 -0.2734  1.8754
 4426SOL    HW224741   2.544   1.688   6.481  1.6465 -1.1372 -1.7912
 4427SOL     OW24742   0.737   2.679  13.608 -0.7027 -0.4362 -0.1263
 4427SOL    HW124743   0.782   2.719  13.683 -1.1269 -0.2836  0.0452
 4427SOL    HW224744   0.659   2.733  13.611 -0.0566  0.5253 -0.6593
 4428SOL     OW24745   0.155   4.138   5.281  0.3530  0.0830 -0.4023
 4428SOL    HW124746   0.196   4.077   5.342  1.3202  1.4176  0.3038
 4428SOL    HW224747   0.086   4.166   5.341  0.2370 -0.2298 -0.3910
 4429SOL     OW24748   0.035   0.356   9.792 -0.7438 -0.2840 -0.0715
 4429SOL    HW124749   0.004   0.268   9.770 -1.1789 -0.1943  0.1710
 4429SOL    HW224750   0.101   0.366   9.724 -1.2683  2.3137 -0.1830
 4430SOL     OW24751   3.096   2.560  10.748 -0.5697 -0.3230  0.4657
 4430SOL    HW124752   3.019   2.613  10.770 -1.1749 -1.2617  0.5935
 4430SOL    HW224753   3.160   2.599  10.808 -1.5221  0.4401  0.9967
 4431SOL     OW24754   0.645   2.544   6.016 -0.2002 -0.2191 -0.1405
 4431SOL    HW124755   0.643   2.448   6.008  1.3614 -0.1482 -1.4676
 4431SOL    HW224756   0.564   2.557   6.065 -1.1294 -2.1952 -1.1421
 4432SOL     OW24757   2.837   1.386   4.978 -0.4784 -0.5913  0.4642
 4432SOL    HW124758   2.901   1.395   5.048  1.6504  1.1151 -1.6904
 4432SOL    HW224759   2.789   1.469   4.979  1.2341  0.4179 -2.3565
 4433SOL     OW24760   0.418   3.388   9.586  0.3519 -0.1133  0.3603
 4433SOL    HW124761   0.435   3.455   9.520  2.9790 -0.7925  0.3351
 4433SOL    HW224762   0.401   3.437   9.667  2.3748  0.7452  0.2686
 4434SOL     OW24763   0.486   0.322   0.697 -0.3567 -0.5043  0.4480
 4434SOL    HW124764   0.411   0.358   0.651  0.8514 -0.5958 -1.6107
 4434SOL    HW224765   0.546   0.396   0.710 -0.5909 -0.5876  2.0501
 4435SOL     OW24766   0.501   2.334   7.991 -0.3923 -0.4443 -0.1512
 4435SOL    HW124767   0.408   2.337   8.015  0.4394  0.8922  2.9704
 4435SOL    HW224768   0.543   2.310   8.074  0.0547 -0.6843 -0.4449
 4436SOL     OW24769   1.049   2.112  15.958 -0.0397 -0.3063 -0.0932
 4436SOL    HW124770   1.067   2.110  15.864  0.8541 -1.0839  0.0966
 4436SOL    HW224771   0.996   2.033  15.968 -1.5882  0.9115  1.3245
 4437SOL     OW24772   2.563   2.366  13.754 -0.5267 -0.2211 -0.4536
 4437SOL    HW124773   2.658   2.366  13.766 -0.6197 -2.1466  0.2945
 4437SOL    HW224774   2.534   2.303  13.820  0.0774  0.3025  0.3098
 4438SOL     OW24775   1.669   3.194   1.665  0.2359  0.5090 -0.1552
 4438SOL    HW124776   1.644   3.106   1.693 -0.3941  0.8088  0.2219
 4438SOL    HW224777   1.735   3.209   1.732  0.4691  0.6948 -0.4277
 4439SOL     OW24778   1.718   0.053   8.945 -0.1838  0.1643  0.0462
 4439SOL    HW124779   1.644   0.060   8.885  0.5186 -0.7980 -0.9327
 4439SOL    HW224780   1.787   0.105   8.903  0.0541 -0.2265 -0.0456
 4440SOL     OW24781   4.058   0.569   6.554 -0.3013  0.3660  0.3383
 4440SOL    HW124782   4.060   0.495   6.492 -0.9072  0.9331 -0.3561
 4440SOL    HW224783   3.996   0.526   6.613 -0.5874 -0.8006 -0.7997
 4441SOL     OW24784   2.380   0.533   7.803  0.0359  0.8865  0.0918
 4441SOL    HW124785   2.462   0.486   7.794 -1.7159 -2.4555  1.4712
 4441SOL    HW224786   2.323   0.475   7.752  2.0651 -1.1246  0.1158
 4442SOL     OW24787   0.954   1.574  11.628  0.0510 -0.8774  0.2594
 4442SOL    HW124788   0.955   1.506  11.696  1.2974 -1.7463 -0.6427
 4442SOL    HW224789   0.863   1.602  11.630 -0.2541 -1.8231 -0.3200
 4443SOL     OW24790   0.333   2.064   7.509  0.2672  0.5607  0.2496
 4443SOL    HW124791   0.308   2.003   7.579 -2.8000 -0.6785 -1.9445
 4443SOL    HW224792   0.427   2.079   7.519  0.4511 -0.0254 -0.6476
 4444SOL     OW24793   1.826   0.868  12.449  0.4864  0.1139  0.2329
 4444SOL    HW124794   1.736   0.850  12.420  0.4031 -0.2719  0.7226
 4444SOL    HW224795   1.885   0.861  12.374 -0.0039  2.0254 -0.3190
 4445SOL     OW24796   0.940   2.004   7.414  0.1100  0.0914  0.1044
 4445SOL    HW124797   0.985   2.034   7.493  1.0212 -4.2223  1.1747
 4445SOL    HW224798   1.008   1.995   7.348  1.1147 -0.9326  1.2800
 4446SOL     OW24799   1.539   3.378   5.930  0.2338  0.4632  0.1232
 4446SOL    HW124800   1.558   3.412   6.017  2.4026 -2.7438  0.9222
 4446SOL    HW224801   1.625   3.346   5.903 -0.1987  0.3806 -1.1838
 4447SOL     OW24802   0.984   2.902  17.453 -0.0792  0.2943  0.1023
 4447SOL    HW124803   0.933   2.967  17.501 -0.1570  0.6567 -0.4819
 4447SOL    HW224804   0.986   2.945  17.368 -0.0216  0.5547  0.2342
 4448SOL     OW24805   3.855   2.084  12.645  0.1811  0.3219 -0.7996
 4448SOL    HW124806   3.867   1.989  12.653  0.6046  0.3367 -1.3226
 4448SOL    HW224807   3.900   2.109  12.726 -2.1995  1.5065  0.1537
 4449SOL     OW24808   3.380   4.132   2.702  0.3251  0.5404 -0.4974
 4449SOL    HW124809   3.313   4.174   2.648  0.8822 -2.2233 -3.3211
 4449SOL    HW224810   3.346   4.044   2.687  1.5894 -0.0491  0.1685
 4450SOL     OW24811   4.058   1.465   2.087 -0.7884  0.2279 -0.1495
 4450SOL    HW124812   3.972   1.481   2.049 -0.1960  0.7701 -1.2661
 4450SOL    HW224813   4.092   1.552   2.107 -1.3526  0.2471  0.7230
 4451SOL     OW24814   0.988   2.228   7.095 -0.0567  0.1835 -0.7565
 4451SOL    HW124815   0.991   2.272   7.180  0.2143 -2.1061  0.4008
 4451SOL    HW224816   1.074   2.188   7.084  0.2561  0.2647  1.3940
 4452SOL     OW24817   1.362   3.457   2.581 -0.5074  0.3635 -0.4310
 4452SOL    HW124818   1.341   3.402   2.657  1.6840 -1.7143 -1.2961
 4452SOL    HW224819   1.367   3.392   2.510 -0.7909 -1.2540  1.0303
 4453SOL     OW24820   2.289   1.066   1.764  0.6770  0.5508  0.5616
 4453SOL    HW124821   2.246   1.151   1.754  1.3403  0.8685  0.3796
 4453SOL    HW224822   2.247   1.026   1.688 -1.3430 -1.1331  2.5626
 4454SOL     OW24823   3.135   3.498   3.400 -0.3261  0.4483  0.2171
 4454SOL    HW124824   3.111   3.570   3.459 -0.1342 -0.5908  1.5511
 4454SOL    HW224825   3.198   3.544   3.345 -0.6118  0.5086 -0.0629
 4455SOL     OW24826   0.136   1.558  12.828  0.1752 -0.2267  0.2296
 4455SOL    HW124827   0.225   1.590  12.816  0.3768 -0.2191  1.7124
 4455SOL    HW224828   0.121   1.515  12.745  1.7660 -2.4805  1.1275
 4456SOL     OW24829   2.291   2.268   7.204 -0.6110 -0.2668 -0.2539
 4456SOL    HW124830   2.261   2.228   7.285 -0.0597 -0.5857 -0.2065
 4456SOL    HW224831   2.209   2.296   7.162 -1.0002  1.3110  1.5633
 4457SOL     OW24832   1.107   1.639   8.734 -0.2369 -0.0683 -0.3349
 4457SOL    HW124833   1.012   1.635   8.748 -0.1759  0.9301  0.4029
 4457SOL    HW224834   1.128   1.549   8.760  1.5936  1.1117  2.2847
 4458SOL     OW24835   3.456   1.559   4.844  0.6072  0.2254 -0.0586
 4458SOL    HW124836   3.380   1.589   4.793 -1.2570 -1.5714  1.6837
 4458SOL    HW224837   3.479   1.645   4.880  0.1694 -1.0583  3.3056
 4459SOL     OW24838   3.485   4.242   5.549 -0.2536 -0.4401  0.1975
 4459SOL    HW124839   3.473   4.151   5.522  0.5472 -1.0070  1.7015
 4459SOL    HW224840   3.411   4.289   5.510  0.0081  0.6316  0.9866
 4460SOL     OW24841   3.622   1.217   6.677 -0.1004 -0.0811  0.6449
 4460SOL    HW124842   3.684   1.199   6.605  0.3500 -0.4374  1.1189
 4460SOL    HW224843   3.681   1.206   6.751  0.7087  1.6407  0.2613
 4461SOL     OW24844   1.382   1.761   8.753 -0.8164  0.0710  0.0387
 4461SOL    HW124845   1.297   1.717   8.753 -1.1278  0.6807  0.3441
 4461SOL    HW224846   1.439   1.704   8.701 -2.1333  0.5451 -1.8923
 4462SOL     OW24847   1.435   1.808   9.401 -0.9234 -0.2198 -0.7318
 4462SOL    HW124848   1.389   1.729   9.427 -0.1022 -0.3319  0.3787
 4462SOL    HW224849   1.504   1.811   9.467 -1.2310  0.2392 -0.4308
 4463SOL     OW24850   0.417   0.432   5.220 -0.4847  0.0919 -0.1095
 4463SOL    HW124851   0.433   0.476   5.136 -1.2846  3.4819  1.5323
 4463SOL    HW224852   0.466   0.350   5.208 -0.0004  0.4982 -0.9132
 4464SOL     OW24853   2.544   1.628  14.604 -0.7015  0.2603  0.0581
 4464SOL    HW124854   2.494   1.592  14.531 -2.8075 -1.4399  2.3526
 4464SOL    HW224855   2.592   1.699  14.561 -0.5656  0.0061 -0.2179
 4465SOL     OW24856   0.643   2.803  16.958  0.1831 -0.6511 -0.1529
 4465SOL    HW124857   0.664   2.850  17.039 -0.2606  0.0497 -0.4469
 4465SOL    HW224858   0.567   2.751  16.985 -1.7446  2.0810 -0.3520
 4466SOL     OW24859   0.447   4.459   8.555 -0.0661  1.0486 -0.2817
 4466SOL    HW124860   0.392   4.381   8.550  0.9378  0.2829  0.5499
 4466SOL    HW224861   0.528   4.413   8.535 -2.1728 -2.5742 -0.5555
 4467SOL     OW24862   0.401   3.153  15.329 -0.1752 -0.4852 -0.5412
 4467SOL    HW124863   0.403   3.244  15.301 -1.0801 -0.1226  0.5812
 4467SOL    HW224864   0.437   3.155  15.417  0.4568 -0.7482 -0.7941
 4468SOL     OW24865   4.701   2.302   5.945 -0.1308 -0.5907 -0.4228
 4468SOL    HW124866   4.665   2.391   5.939  1.6890  0.1644 -0.4267
 4468SOL    HW224867   0.034   2.329   6.021  0.6687 -0.5541 -0.9668
 4469SOL     OW24868   0.260   1.329   2.096 -0.0950 -0.2740 -0.0491
 4469SOL    HW124869   0.230   1.281   2.173 -0.5873 -1.2510 -0.8516
 4469SOL    HW224870   0.343   1.353   2.137 -0.4463 -1.3382  1.2782
 4470SOL     OW24871   3.520   4.012   5.776 -0.0380  0.1588  0.2051
 4470SOL    HW124872   3.479   4.029   5.692  3.5883  0.3335 -1.5104
 4470SOL    HW224873   3.540   4.103   5.797  2.6160 -0.3568 -0.0686
 4471SOL     OW24874   3.296   4.096   8.125 -0.4842 -0.6343  0.4267
 4471SOL    HW124875   3.299   4.020   8.183 -1.4965 -0.2664  0.9547
 4471SOL    HW224876   3.204   4.097   8.098 -0.5060 -0.8872  0.4953
 4472SOL     OW24877   3.115   4.575   4.056 -0.5123  0.6031 -0.2214
 4472SOL    HW124878   3.072   4.637   3.997 -2.6803  1.0070  1.7804
 4472SOL    HW224879   3.158   4.634   4.118  0.0561 -0.0524 -0.0004
 4473SOL     OW24880   0.021   2.290   8.796  0.1743  1.0161  0.2751
 4473SOL    HW124881   4.703   2.351   8.732  0.8830  3.2204  1.9904
 4473SOL    HW224882   0.068   2.353   8.850  0.5683  0.7985  0.1887
 4474SOL     OW24883   1.585   3.295   3.112  0.2023 -0.5058  0.1020
 4474SOL    HW124884   1.602   3.226   3.176  0.2377 -0.9538 -0.3889
 4474SOL    HW224885   1.650   3.363   3.129 -1.8324  1.2790  0.6591
 4475SOL     OW24886   0.734   3.949  16.205 -0.2574  0.0406 -0.0802
 4475SOL    HW124887   0.825   3.936  16.179  0.5203  1.0784  2.0745
 4475SOL    HW224888   0.690   3.873  16.169 -2.5995  0.8998  0.9751
 4476SOL     OW24889   4.129   0.249   8.400 -0.1784 -0.2068 -0.1850
 4476SOL    HW124890   4.035   0.252   8.414 -0.0055  0.4483  0.8395
 4476SOL    HW224891   4.146   0.341   8.421  0.6162 -0.4776  0.3624
 4477SOL     OW24892   1.543   0.725  13.311 -0.1256  0.3455  0.1249
 4477SOL    HW124893   1.561   0.706  13.403 -0.3861  1.1726  0.3410
 4477SOL    HW224894   1.450   0.700  13.305 -0.3050  0.6204  1.9080
 4478SOL     OW24895   4.710   3.999   4.298  0.0939 -0.2751 -0.4085
 4478SOL    HW124896   4.697   3.949   4.379  4.0940 -1.3162 -0.4032
 4478SOL    HW224897   0.049   3.943   4.245 -0.9465  0.5317 -2.3698
 4479SOL     OW24898   1.763   4.141  14.877  0.1688  0.5485  0.0842
 4479SOL    HW124899   1.769   4.231  14.843  0.7158  0.1960 -0.7514
 4479SOL    HW224900   1.685   4.149  14.931  0.4964  0.1631  0.6139
 4480SOL     OW24901   3.717   3.337  16.429 -0.5387 -0.5336 -0.0239
 4480SOL    HW124902   3.750   3.339  16.519 -2.7588 -0.5403  0.8017
 4480SOL    HW224903   3.713   3.243  16.413 -3.7183 -0.5043  0.5817
 4481SOL     OW24904   4.002   4.459   6.220  0.2663 -0.0325  0.1826
 4481SOL    HW124905   3.972   4.383   6.269  2.3606  0.9355  2.9777
 4481SOL    HW224906   3.997   4.439   6.126  0.9621  0.5397  0.0208
 4482SOL     OW24907   1.624   0.186   9.654 -0.3113 -0.4454 -0.2945
 4482SOL    HW124908   1.712   0.218   9.632 -0.0490 -1.3054 -0.4716
 4482SOL    HW224909   1.633   0.097   9.687 -1.3152 -0.5644 -0.3456
 4483SOL     OW24910   1.086   1.852   8.057  0.1694  0.1687  0.3367
 4483SOL    HW124911   1.024   1.923   8.043 -0.9792 -1.1117 -1.1147
 4483SOL    HW224912   1.119   1.853   7.967  3.3090 -0.3546  1.4947
 4484SOL     OW24913   4.687   2.600   3.831 -0.1962  0.0701  0.3394
 4484SOL    HW124914   4.694   2.626   3.739  0.8595  1.1451  0.7327
 4484SOL    HW224915   4.643   2.678   3.866  0.0087 -0.7199  2.3425
 4485SOL     OW24916   4.586   3.922   2.352 -0.1239 -0.0454  0.6098
 4485SOL    HW124917   4.496   3.954   2.342  0.8483  2.7056  0.5033
 4485SOL    HW224918   4.625   3.968   2.278  1.0126 -0.5497  0.8983
 4486SOL     OW24919   0.915   0.166   6.053 -0.2459  0.1938 -0.1867
 4486SOL    HW124920   0.929   0.115   6.133  2.8234  1.8950  0.3481
 4486SOL    HW224921   0.997   0.142   6.010  1.1982  2.1721  1.4292
 4487SOL     OW24922   0.506   1.711  16.024  0.3238 -0.2170 -0.2081
 4487SOL    HW124923   0.532   1.674  16.108 -0.7123  1.7207  0.9676
 4487SOL    HW224924   0.587   1.747  15.986  1.4614 -0.9019  1.5974
 4488SOL     OW24925   2.511   0.208  14.389  0.1539  0.4482  0.5409
 4488SOL    HW124926   2.489   0.141  14.323 -0.2125  0.1001  1.0203
 4488SOL    HW224927   2.486   0.293  14.353  0.4800  0.3816  0.1421
 4489SOL     OW24928   3.263   2.654  10.965 -0.0894 -0.2439 -0.6700
 4489SOL    HW124929   3.207   2.730  10.981 -4.5451 -3.3898 -1.0754
 4489SOL    HW224930   3.250   2.603  11.045  1.1890 -0.9955 -0.9334
 4490SOL     OW24931   1.375   0.396   4.938  0.1905  0.1131  0.6894
 4490SOL    HW124932   1.420   0.412   5.021 -0.1736 -1.1696  1.1352
 4490SOL    HW224933   1.291   0.440   4.949 -1.2546 -1.4489 -4.1864
 4491SOL     OW24934   2.941   0.926   1.354  0.3254 -0.1387 -0.4016
 4491SOL    HW124935   2.983   1.006   1.322  0.1043 -1.2134 -3.4106
 4491SOL    HW224936   2.962   0.922   1.447 -0.8371 -0.2221 -0.1487
 4492SOL     OW24937   0.263   4.367   5.140 -0.7497 -0.0419  0.2502
 4492SOL    HW124938   0.332   4.301   5.150  0.8689  1.3702 -1.6597
 4492SOL    HW224939   0.192   4.324   5.188  0.8617 -1.0537  1.7615
 4493SOL     OW24940   2.742   1.231   9.205 -0.0768  0.3151  0.3158
 4493SOL    HW124941   2.684   1.169   9.249 -1.1180  1.0727  0.0158
 4493SOL    HW224942   2.702   1.255   9.121  1.6269  0.7016 -0.3814
 4494SOL     OW24943   2.871   3.340   6.232 -0.0028  0.0637 -0.5131
 4494SOL    HW124944   2.850   3.364   6.322 -0.2846  1.7564 -1.0460
 4494SOL    HW224945   2.794   3.357   6.177 -1.0298  0.2398  0.9806
 4495SOL     OW24946   4.374   4.534   8.357  0.2349 -0.4092 -0.0722
 4495SOL    HW124947   4.405   4.536   8.448  1.9206  0.3430 -0.6795
 4495SOL    HW224948   4.444   4.584   8.317  1.3964 -1.0356  1.1901
 4496SOL     OW24949   3.839   0.216  12.124  0.1640  0.3640  0.0917
 4496SOL    HW124950   3.847   0.247  12.034 -2.1922 -1.0573 -0.5923
 4496SOL    HW224951   3.748   0.190  12.134  0.2449 -0.1069 -0.3984
 4497SOL     OW24952   2.880   2.157   5.821  0.1411  0.1356 -0.4689
 4497SOL    HW124953   2.938   2.227   5.791 -0.6640  0.4980 -1.1945
 4497SOL    HW224954   2.837   2.188   5.901 -0.5564  0.9091 -1.1461
 4498SOL     OW24955   1.271   1.048   6.527  0.1538 -0.3543 -0.3005
 4498SOL    HW124956   1.279   1.143   6.514  1.4620 -0.5678 -1.0148
 4498SOL    HW224957   1.264   1.042   6.622 -2.0575  2.0806 -0.2832
 4499SOL     OW24958   1.620   2.444   9.039 -0.4302  0.5874  0.3287
 4499SOL    HW124959   1.619   2.463   9.133 -0.9132 -1.5666  0.7677
 4499SOL    HW224960   1.525   2.444   9.028 -0.4413  2.3487  0.5196
 4500SOL     OW24961   4.491   1.687   2.690 -0.2159  0.2392 -0.1743
 4500SOL    HW124962   4.531   1.669   2.775  2.0266  0.4287 -1.1824
 4500SOL    HW224963   4.407   1.728   2.709 -0.9000 -0.3672 -1.8390
 4501SOL     OW24964   3.055   3.512  16.486 -0.1640 -0.1367  0.6059
 4501SOL    HW124965   3.073   3.485  16.396  2.5573  0.0635  1.0900
 4501SOL    HW224966   2.992   3.580  16.462 -1.8266 -2.5765 -1.9127
 4502SOL     OW24967   0.777   2.971  11.450 -1.1680 -0.1837 -0.1094
 4502SOL    HW124968   0.767   3.066  11.457 -0.2869  0.0245 -1.5473
 4502SOL    HW224969   0.748   2.955  11.360  0.2114  0.7487 -0.7175
 4503SOL     OW24970   2.556   4.438   1.355  0.5145  0.1483 -0.2008
 4503SOL    HW124971   2.463   4.418   1.364  0.5375  0.6027  0.9855
 4503SOL    HW224972   2.545   4.532   1.347 -1.3747 -0.0119  0.4233
 4504SOL     OW24973   2.571   4.083   7.939  0.4197 -0.1817 -0.2334
 4504SOL    HW124974   2.593   4.093   7.847  1.7455 -3.0785 -0.2375
 4504SOL    HW224975   2.662   4.067   7.966  0.1057 -1.7072 -0.1258
 4505SOL     OW24976   2.374   3.449   2.951 -0.2771  0.7208 -0.1540
 4505SOL    HW124977   2.327   3.467   3.033 -0.2406  1.9942 -0.4115
 4505SOL    HW224978   2.339   3.360   2.945  1.2443  0.2679 -2.1773
 4506SOL     OW24979   1.667   4.160   7.921  0.0574  0.1413 -0.0699
 4506SOL    HW124980   1.660   4.210   8.002 -0.8918 -3.5443  2.1207
 4506SOL    HW224981   1.757   4.179   7.895  0.0548  0.2522  0.0039
 4507SOL     OW24982   2.035   4.067   0.634 -0.4432 -0.7979  0.3411
 4507SOL    HW124983   2.126   4.037   0.638 -0.1377  0.1996  0.7941
 4507SOL    HW224984   1.990   3.983   0.636  0.8677 -1.4891  0.7024
 4508SOL     OW24985   2.317   3.646  11.941 -0.4106 -0.2194  0.1274
 4508SOL    HW124986   2.280   3.709  12.003 -0.7560  1.4429 -1.7530
 4508SOL    HW224987   2.269   3.565  11.954  2.9714 -2.0640  1.2306
 4509SOL     OW24988   3.177   3.426  14.164  0.0692 -0.3052  0.0630
 4509SOL    HW124989   3.106   3.380  14.118  1.6672 -1.2012 -1.4901
 4509SOL    HW224990   3.222   3.474  14.095 -1.3892  0.7815 -0.1397
 4510SOL     OW24991   3.858   4.057   2.149  0.1757 -0.3118  0.5072
 4510SOL    HW124992   3.931   4.065   2.088 -1.0178  3.2113 -0.4529
 4510SOL    HW224993   3.792   4.112   2.106  0.6342  1.7195  2.3931
 4511SOL     OW24994   1.427   2.356   1.158 -0.0000  0.3521  0.5391
 4511SOL    HW124995   1.369   2.431   1.144  2.1968  2.0992  0.9373
 4511SOL    HW224996   1.383   2.287   1.108  1.2050 -0.5979  0.7850
 4512SOL     OW24997   4.019   1.714   7.890  0.5222 -0.1079  0.4348
 4512SOL    HW124998   4.013   1.742   7.799  2.5127 -2.1616 -0.3248
 4512SOL    HW224999   4.113   1.723   7.905  0.1725  1.5307  1.5929
 4513SOL     OW25000   2.867   0.400   7.964  0.2545  0.3159 -0.3599
 4513SOL    HW125001   2.860   0.483   7.917  2.2492  0.7094  0.0302
 4513SOL    HW225002   2.943   0.357   7.925  0.7699  0.0212  0.9955
 4514SOL     OW25003   4.712   2.894  14.791  0.3514 -0.5291 -0.3031
 4514SOL    HW125004   0.088   2.908  14.787  0.2476  0.3494  0.2241
 4514SOL    HW225005   4.695   2.831  14.861 -0.0290 -0.0030  0.0766
 4515SOL     OW25006   4.238   3.489   1.259  0.0464  0.3652  0.6408
 4515SOL    HW125007   4.205   3.545   1.329 -2.1306  2.0886 -1.7308
 4515SOL    HW225008   4.214   3.401   1.287  1.1306 -0.6347 -1.5487
 4516SOL     OW25009   2.068   3.044   0.959  0.0328 -0.4216 -0.4439
 4516SOL    HW125010   1.999   3.068   1.021  1.5698  0.8123  0.7827
 4516SOL    HW225011   2.137   3.030   1.024 -1.2466 -1.2790  0.7220
 4517SOL     OW25012   4.539   2.582   7.193 -0.0233 -0.3690 -0.3603
 4517SOL    HW125013   4.619   2.606   7.146 -0.0180 -4.3236 -2.3545
 4517SOL    HW225014   4.568   2.515   7.254  0.8962  1.6609  1.4224
 4518SOL     OW25015   0.375   1.701  11.984 -0.1160  0.4202  0.7487
 4518SOL    HW125016   0.470   1.689  11.986  0.0836  1.7796 -0.4330
 4518SOL    HW225017   0.361   1.702  12.079  0.7984  1.3365  0.8808
 4519SOL     OW25018   1.373   1.225  10.991 -0.2522 -0.5103 -0.1525
 4519SOL    HW125019   1.463   1.196  11.009 -0.6441 -2.2085 -0.9572
 4519SOL    HW225020   1.374   1.291  11.061 -2.2962 -1.0240  0.3634
 4520SOL     OW25021   0.315   0.537  10.394  0.4277 -0.0666 -0.3435
 4520SOL    HW125022   0.302   0.474  10.323  1.0394 -1.4535  0.7841
 4520SOL    HW225023   0.225   0.560  10.415  0.5288  0.7787 -0.8079
 4521SOL     OW25024   2.337   3.958  15.232 -0.0853 -0.1346  0.5205
 4521SOL    HW125025   2.406   3.900  15.266  1.0733 -0.1912 -1.8874
 4521SOL    HW225026   2.311   3.990  15.318 -1.9090  0.9761 -0.4555
 4522SOL     OW25027   2.198   3.253  15.555 -0.1326 -0.0234  0.3041
 4522SOL    HW125028   2.208   3.289  15.643  0.3782 -0.3160  0.3644
 4522SOL    HW225029   2.130   3.309  15.518 -0.1034  0.9701  1.7328
 4523SOL     OW25030   3.525   2.514   2.877 -0.0665 -0.4014  0.0797
 4523SOL    HW125031   3.575   2.585   2.838 -0.6177  1.3889  2.6501
 4523SOL    HW225032   3.433   2.539   2.875  0.2544  0.9575  1.8584
 4524SOL     OW25033   3.378   0.697   4.700 -0.5052  0.4063 -0.3075
 4524SOL    HW125034   3.465   0.734   4.684 -0.1246 -0.3692 -0.0395
 4524SOL    HW225035   3.364   0.764   4.767  1.0086  0.7681 -0.3473
 4525SOL     OW25036   3.904   0.679  13.291  0.3113  0.1133 -0.3503
 4525SOL    HW125037   3.954   0.707  13.368  1.4203 -1.3701 -0.5303
 4525SOL    HW225038   3.872   0.593  13.319  0.0752 -0.3789 -2.1311
 4526SOL     OW25039   2.960   4.224  15.453 -0.3099 -0.0881 -0.2851
 4526SOL    HW125040   3.033   4.284  15.469 -0.5827  0.4325 -1.0344
 4526SOL    HW225041   2.883   4.272  15.481  1.4671  1.8563  1.2450
 4527SOL     OW25042   1.025   2.665   3.319  0.0219  0.2908 -0.1209
 4527SOL    HW125043   1.118   2.683   3.327 -0.0142 -0.5314  2.0263
 4527SOL    HW225044   1.003   2.730   3.252  1.3709  0.2037 -0.6464
 4528SOL     OW25045   3.809   1.481   2.040  0.1235 -0.4099 -0.1582
 4528SOL    HW125046   3.802   1.575   2.054 -0.4422 -0.4243 -0.3497
 4528SOL    HW225047   3.720   1.449   2.056  0.2714 -2.0289 -2.5571
 4529SOL     OW25048   2.861   2.507  12.553 -0.1469  0.5592  0.3619
 4529SOL    HW125049   2.947   2.515  12.592 -0.5735 -1.3921  1.6687
 4529SOL    HW225050   2.884   2.505  12.460 -1.1434 -0.3193  0.1292
 4530SOL     OW25051   4.711   0.086   3.393 -0.2060  0.1545 -0.0752
 4530SOL    HW125052   4.642   0.106   3.329 -0.2112 -0.0476 -0.1348
 4530SOL    HW225053   0.020   0.170   3.429  0.7585 -0.5026  0.7293
 4531SOL     OW25054   2.564   3.106  17.149 -0.5363  0.4753  0.7123
 4531SOL    HW125055   2.528   3.018  17.137  2.2482 -0.7464  1.3488
 4531SOL    HW225056   2.605   3.120  17.064  1.6784 -0.6651  1.6148
 4532SOL     OW25057   1.056   1.158  15.622  0.1006 -0.1456  0.8206
 4532SOL    HW125058   1.039   1.070  15.656 -2.3112 -0.1062 -0.3117
 4532SOL    HW225059   1.133   1.176  15.676 -0.7763  2.0162  1.3646
 4533SOL     OW25060   2.670   1.801   5.402  0.2141 -0.2158  0.2678
 4533SOL    HW125061   2.584   1.798   5.359  0.7381 -1.6770 -0.6724
 4533SOL    HW225062   2.680   1.896   5.401  0.4618 -0.1830  3.9025
 4534SOL     OW25063   1.879   2.901   2.735  0.1875 -0.1937  0.6185
 4534SOL    HW125064   1.957   2.904   2.680 -1.2371 -2.7402 -1.5163
 4534SOL    HW225065   1.858   2.808   2.733 -1.8358  0.3338 -1.9776
 4535SOL     OW25066   2.393   1.693   8.041  0.9588 -0.3097  0.0562
 4535SOL    HW125067   2.485   1.707   8.018  1.0359  1.2240  1.3060
 4535SOL    HW225068   2.395   1.644   8.123  0.5605 -1.0745 -0.3889
 4536SOL     OW25069   4.003   0.097   0.868  0.3501  0.0977 -0.0330
 4536SOL    HW125070   3.908   0.104   0.857  0.3716  0.4728  0.0273
 4536SOL    HW225071   4.019   0.003   0.864 -2.5436 -0.3363 -1.5745
 4537SOL     OW25072   2.372   3.122   7.591 -0.3387 -0.0118  0.1088
 4537SOL    HW125073   2.294   3.072   7.616  1.1305 -1.8993  0.9202
 4537SOL    HW225074   2.347   3.208   7.625 -0.6006  0.1492 -0.4903
 4538SOL     OW25075   0.240   2.126   2.195  0.2785  0.2495  0.2108
 4538SOL    HW125076   0.149   2.097   2.198  0.0941  0.8683  0.6040
 4538SOL    HW225077   0.236   2.203   2.251 -0.3730  1.6351 -1.7484
 4539SOL     OW25078   1.624   4.606   6.935 -0.3440  0.0914 -0.0370
 4539SOL    HW125079   1.717   4.608   6.957 -0.1230 -3.7873 -0.5490
 4539SOL    HW225080   1.615   4.523   6.887 -1.7483 -0.1498  0.6316
 4540SOL     OW25081   1.238   0.987  16.461  0.3705  0.3165  0.8059
 4540SOL    HW125082   1.201   1.037  16.388  1.2116  1.5768  1.2276
 4540SOL    HW225083   1.200   0.902  16.441 -0.8612  1.0631 -0.0538
 4541SOL     OW25084   1.249   3.406   2.898 -0.1019  0.1294 -0.7072
 4541SOL    HW125085   1.185   3.369   2.959  1.4765 -0.9631  0.2753
 4541SOL    HW225086   1.267   3.333   2.838  1.3657 -0.3924  0.3521
 4542SOL     OW25087   1.152   3.536   8.191  0.1061 -0.0277 -0.2807
 4542SOL    HW125088   1.206   3.484   8.250  0.6683 -1.9170 -2.4611
 4542SOL    HW225089   1.179   3.490   8.111 -0.5010 -0.4879 -0.2227
 4543SOL     OW25090   3.077   1.788   7.533 -0.1414  0.0841 -0.2845
 4543SOL    HW125091   3.116   1.829   7.456  0.1982 -1.1169 -0.7653
 4543SOL    HW225092   3.153   1.785   7.591 -0.0577 -3.4009 -0.5653
 4544SOL     OW25093   0.682   4.015   3.865 -0.5452  0.0657  0.3976
 4544SOL    HW125094   0.720   3.935   3.902 -1.1305 -0.5865 -0.4094
 4544SOL    HW225095   0.687   3.986   3.774  0.9354  0.0086  0.5035
 4545SOL     OW25096   2.825   0.376   3.664  0.3313 -0.3743 -0.0238
 4545SOL    HW125097   2.814   0.469   3.685  1.9529 -0.0068 -0.8462
 4545SOL    HW225098   2.788   0.382   3.576  1.2193 -0.3594 -0.3912
 4546SOL     OW25099   3.159   0.090   7.566  0.0800  0.4263 -0.2078
 4546SOL    HW125100   3.069   0.123   7.559 -0.7784 -1.8906  0.0861
 4546SOL    HW225101   3.160   4.717   7.538  1.0843 -0.0740  1.4506
 4547SOL     OW25102   4.537   4.700   5.257  0.3596  0.0259  0.4611
 4547SOL    HW125103   4.541   0.076   5.276 -1.7651  0.2827 -0.3755
 4547SOL    HW225104   4.615   4.699   5.201  0.9025  1.1722  1.1985
 4548SOL     OW25105   0.936   1.533   4.312 -0.1804  0.1536 -0.0733
 4548SOL    HW125106   0.981   1.607   4.270 -0.6307  1.0357  0.9935
 4548SOL    HW225107   1.012   1.491   4.353 -1.0790 -1.9541 -0.5981
 4549SOL     OW25108   1.184   4.045   4.250  0.0476 -0.0239 -0.4437
 4549SOL    HW125109   1.119   4.020   4.185 -0.0685 -0.7532 -0.0484
 4549SOL    HW225110   1.218   4.119   4.201  0.5846 -1.1266 -1.7374
 4550SOL     OW25111   4.041   3.534  15.496  0.3570 -0.1189 -0.0548
 4550SOL    HW125112   4.017   3.539  15.588  0.8700 -1.3720  0.1451
 4550SOL    HW225113   4.126   3.580  15.494  0.7809 -0.8709  0.6396
 4551SOL     OW25114   2.027   1.873   4.352  0.0705 -0.4071  0.1581
 4551SOL    HW125115   1.977   1.804   4.308 -1.2538  1.2780 -0.9546
 4551SOL    HW225116   2.116   1.841   4.366 -0.2960 -0.8416  1.5214
 4552SOL     OW25117   3.309   0.404   3.242 -0.4233 -0.1814  0.3735
 4552SOL    HW125118   3.227   0.413   3.292 -1.5167  0.0205 -1.4452
 4552SOL    HW225119   3.280   0.333   3.184  1.4647 -1.1984  0.6814
 4553SOL     OW25120   0.028   0.859  10.089  0.1929 -0.5449  0.7077
 4553SOL    HW125121   0.043   0.770  10.055  1.6089  0.4644 -1.3178
 4553SOL    HW225122   4.651   0.864  10.086  0.4161  2.6078 -0.3602
 4554SOL     OW25123   1.534   4.450  10.856  0.1683  0.8822 -0.0088
 4554SOL    HW125124   1.466   4.383  10.855 -1.4590  2.5496 -1.5798
 4554SOL    HW225125   1.505   4.527  10.905 -0.4885  0.4500  0.2750
 4555SOL     OW25126   4.184   0.025   8.593  0.5976  0.5862  0.2097
 4555SOL    HW125127   4.185   0.080   8.515  1.1354  0.9061  0.4477
 4555SOL    HW225128   4.096   0.046   8.625  0.2627  0.8182 -0.8566
 4556SOL     OW25129   2.721   3.933   2.865  0.1250  0.3198 -0.2939
 4556SOL    HW125130   2.800   3.949   2.916  0.4476 -1.1830 -0.3325
 4556SOL    HW225131   2.718   4.006   2.803 -2.6997 -0.1058 -0.6487
 4557SOL     OW25132   1.305   2.619   5.296  0.6436  0.0557 -0.2455
 4557SOL    HW125133   1.244   2.550   5.321 -1.5424  1.6651 -1.1505
 4557SOL    HW225134   1.266   2.656   5.217  0.7818 -1.2055 -0.9012
 4558SOL     OW25135   1.433   0.778   7.463 -0.4619 -0.3477 -0.1682
 4558SOL    HW125136   1.429   0.741   7.551 -0.8143 -0.4495 -0.2274
 4558SOL    HW225137   1.529   0.776   7.464 -0.5250 -2.1839  0.8624
 4559SOL     OW25138   3.634   2.941   6.377  0.1546  0.1870 -0.0432
 4559SOL    HW125139   3.703   2.984   6.328 -0.3480  0.3717 -0.5877
 4559SOL    HW225140   3.603   2.891   6.302  1.5130  1.5040 -1.4505
 4560SOL     OW25141   4.214   2.657   9.659 -0.6335 -0.2499 -0.3998
 4560SOL    HW125142   4.214   2.584   9.721  1.4079  2.4410  2.7285
 4560SOL    HW225143   4.123   2.677   9.640 -0.7422 -1.3532 -1.0941
 4561SOL     OW25144   1.927   1.157   7.392  0.2337  0.7719  1.1113
 4561SOL    HW125145   1.849   1.182   7.344  0.3771  1.6566  1.3523
 4561SOL    HW225146   1.978   1.109   7.326 -1.7533 -0.9037  0.8187
 4562SOL     OW25147   4.538   3.884   8.358 -0.2471  0.3332  0.3792
 4562SOL    HW125148   4.450   3.872   8.395 -0.5674 -0.4641 -0.6306
 4562SOL    HW225149   4.532   3.825   8.283 -1.6553 -0.6188  1.2333
 4563SOL     OW25150   0.190   1.671  12.267 -0.1494  0.0142  0.3581
 4563SOL    HW125151   0.142   1.589  12.259 -2.0116  1.1506 -0.1857
 4563SOL    HW225152   0.205   1.683  12.361 -1.3454  0.8841  0.4348
 4564SOL     OW25153   0.439   0.946   3.447 -0.5178  0.3633 -0.3391
 4564SOL    HW125154   0.431   0.852   3.459 -0.9824  0.2311 -1.6731
 4564SOL    HW225155   0.431   0.981   3.535  2.5201  1.2941 -0.4185
 4565SOL     OW25156   3.167   0.231   0.946 -0.0093  0.3191  0.2111
 4565SOL    HW125157   3.170   0.308   1.002  0.2554  0.9863 -0.7277
 4565SOL    HW225158   3.071   0.228   0.940  0.1239  0.5162 -1.8694
 4566SOL     OW25159   0.354   0.847   5.224 -0.9018  0.3030 -0.6280
 4566SOL    HW125160   0.442   0.866   5.254 -0.3270 -1.9777 -0.8481
 4566SOL    HW225161   0.365   0.895   5.141 -0.7781  0.6302 -0.4210
 4567SOL     OW25162   4.604   2.419   2.171  0.3241 -0.0067  0.3450
 4567SOL    HW125163   4.522   2.447   2.130  0.5523  0.5351  0.2610
 4567SOL    HW225164   4.675   2.432   2.109  0.5375  0.9938  0.8085
 4568SOL     OW25165   0.049   0.116  12.769 -0.2132  0.1635 -0.1406
 4568SOL    HW125166   0.043   0.065  12.850 -0.7129  0.1655 -0.1791
 4568SOL    HW225167   0.145   0.113  12.761 -0.0783 -1.4955  2.2272
 4569SOL     OW25168   4.384   0.719   8.395 -0.3101  0.3344 -0.0626
 4569SOL    HW125169   4.412   0.785   8.458  0.1331  0.5008 -0.4346
 4569SOL    HW225170   4.464   0.714   8.343  0.9975  0.3595  1.9180
 4570SOL     OW25171   2.087   4.149   6.565 -0.0572 -0.1509 -0.3057
 4570SOL    HW125172   2.099   4.241   6.588  0.0034 -0.0977 -0.5533
 4570SOL    HW225173   2.145   4.139   6.490  0.4584 -0.3432  0.1194
 4571SOL     OW25174   1.720   3.805  12.849  0.0540 -0.1569  0.2231
 4571SOL    HW125175   1.799   3.767  12.810 -1.3681 -2.7266 -0.1419
 4571SOL    HW225176   1.699   3.733  12.908 -1.3987  0.4298  0.4187
 4572SOL     OW25177   3.140   3.212   2.907  0.1735 -0.5608  0.0561
 4572SOL    HW125178   3.227   3.241   2.878 -0.2607  0.0311 -0.6473
 4572SOL    HW225179   3.140   3.202   3.002  2.4798  1.5951  0.3090
 4573SOL     OW25180   0.684   2.465   4.857  0.5396  0.3615  0.2950
 4573SOL    HW125181   0.684   2.414   4.776 -4.3698 -0.3979  0.7777
 4573SOL    HW225182   0.601   2.512   4.850  0.5766  0.3292 -0.3388
 4574SOL     OW25183   0.264   4.216   9.425 -0.3376 -0.0282  0.2572
 4574SOL    HW125184   0.255   4.136   9.374 -0.5443 -0.1333  0.4564
 4574SOL    HW225185   0.311   4.276   9.368 -0.4703  0.4191  0.6159
 4575SOL     OW25186   3.069   2.549  13.010 -0.2577  0.3686 -0.2833
 4575SOL    HW125187   3.084   2.471  13.064 -2.4737 -1.2069 -1.9682
 4575SOL    HW225188   3.130   2.609  13.054  0.2568  0.0296 -0.5291
 4576SOL     OW25189   4.575   3.709   0.402 -0.5139  0.2171 -0.4330
 4576SOL    HW125190   4.626   3.679   0.326 -0.8550 -0.7905 -0.2596
 4576SOL    HW225191   4.560   3.800   0.375  0.5261  0.7148  0.6829
 4577SOL     OW25192   4.009   3.292   8.577 -0.1441  0.0421 -0.6858
 4577SOL    HW125193   4.008   3.293   8.673  0.8510  2.2227 -0.6901
 4577SOL    HW225194   4.096   3.255   8.565  0.7315  1.5976  0.8160
 4578SOL     OW25195   3.655   0.221   5.259 -0.2489 -0.4980 -0.5628
 4578SOL    HW125196   3.637   0.277   5.184 -0.9524  1.8871  1.3722
 4578SOL    HW225197   3.576   0.239   5.311 -0.1942 -0.1337 -0.6066
 4579SOL     OW25198   0.256   2.079   4.519 -0.3359 -0.6985 -0.4866
 4579SOL    HW125199   0.262   2.131   4.439 -0.1507 -0.1602 -0.1285
 4579SOL    HW225200   0.175   2.029   4.509 -0.5589 -0.2194 -1.0580
 4580SOL     OW25201   2.852   1.776   5.654  0.8162  0.5818  0.5122
 4580SOL    HW125202   2.786   1.766   5.723  2.3899  2.7281  2.3147
 4580SOL    HW225203   2.797   1.813   5.586  1.1072  1.3405  0.6913
 4581SOL     OW25204   3.100   2.574   4.762  0.1743  0.2508  0.7530
 4581SOL    HW125205   3.102   2.652   4.817  0.9581  0.7752 -0.0137
 4581SOL    HW225206   3.192   2.546   4.762  0.2106  0.3790 -0.2311
 4582SOL     OW25207   2.038   4.652  13.932 -0.3603 -0.2736  0.4015
 4582SOL    HW125208   2.124   4.642  13.973  0.6680  2.0253 -1.1846
 4582SOL    HW225209   2.035   4.587  13.862  2.3555 -0.9330  0.8809
 4583SOL     OW25210   0.783   3.736   2.869  0.3150 -0.1799  0.3025
 4583SOL    HW125211   0.794   3.701   2.781 -0.2844 -2.5664  1.1686
 4583SOL    HW225212   0.873   3.734   2.903  0.7589 -1.4330 -0.9337
 4584SOL     OW25213   2.878   0.828  15.633  0.3004  0.2828 -0.0558
 4584SOL    HW125214   2.822   0.883  15.688  0.6817  0.1804  0.4290
 4584SOL    HW225215   2.875   0.746  15.681 -1.4302  1.4713  1.8889
 4585SOL     OW25216   1.254   1.437   2.247  0.0572 -0.1682  0.0423
 4585SOL    HW125217   1.275   1.388   2.167 -0.8154 -2.4388  1.2169
 4585SOL    HW225218   1.296   1.378   2.308  0.9874  0.1560 -0.2910
 4586SOL     OW25219   4.108   1.391   8.458 -0.3321 -0.0860 -0.2427
 4586SOL    HW125220   4.173   1.452   8.424 -0.5791 -1.2787 -2.8769
 4586SOL    HW225221   4.048   1.386   8.383 -1.5381 -1.6515  0.8264
 4587SOL     OW25222   0.691   1.964   8.066  0.1445  0.2923 -0.0122
 4587SOL    HW125223   0.606   1.985   8.105  0.1964 -1.2933  0.9249
 4587SOL    HW225224   0.664   1.908   7.994 -0.4436  1.5809 -0.8000
 4588SOL     OW25225   4.359   4.509   5.291  0.2660 -0.0102  0.6179
 4588SOL    HW125226   4.324   4.512   5.202 -1.3587 -0.5431  1.2269
 4588SOL    HW225227   4.436   4.565   5.280  0.7919 -0.9471 -0.4312
 4589SOL     OW25228   1.261   2.089   2.358  0.6316  0.0580  0.1701
 4589SOL    HW125229   1.329   2.063   2.418 -0.5315 -2.2733  0.4629
 4589SOL    HW225230   1.193   2.026   2.382 -0.7037  1.6010  0.4492
 4590SOL     OW25231   1.029   3.735  12.957 -0.2080 -0.2576 -0.0795
 4590SOL    HW125232   0.975   3.660  12.980  0.7781 -1.6467 -2.3228
 4590SOL    HW225233   0.964   3.802  12.979 -0.0386  0.0234 -0.4241
 4591SOL     OW25234   3.532   3.000   3.549 -0.5069  0.0872  0.0287
 4591SOL    HW125235   3.616   3.013   3.506 -2.3801  2.3838 -2.8247
 4591SOL    HW225236   3.533   3.063   3.621 -0.8550 -1.2753  1.2316
 4592SOL     OW25237   2.166   3.380   6.089  0.1661 -0.1307 -0.0128
 4592SOL    HW125238   2.192   3.454   6.145  0.9234  0.0001 -0.5415
 4592SOL    HW225239   2.180   3.310   6.152 -3.2453 -0.6572  0.1829
 4593SOL     OW25240   1.166   1.234   1.764 -0.3233  0.1734 -0.0999
 4593SOL    HW125241   1.100   1.304   1.763  1.9276  2.3544  0.8696
 4593SOL    HW225242   1.135   1.182   1.690  0.7024  0.0270 -0.4303
 4594SOL     OW25243   4.623   1.199   9.008  0.2260  0.6013  0.2858
 4594SOL    HW125244   4.627   1.215   9.103  1.3642  2.6326 -0.0839
 4594SOL    HW225245   4.540   1.153   9.006  0.0604  1.0119 -1.8322
 4595SOL     OW25246   3.322   4.078  13.341  0.0416 -0.5055  0.3531
 4595SOL    HW125247   3.258   4.134  13.297  0.2367 -2.2758 -2.1678
 4595SOL    HW225248   3.346   4.130  13.418  0.6314  2.0207 -1.5476
 4596SOL     OW25249   2.266   3.842   8.985  0.6588  0.5318  0.0679
 4596SOL    HW125250   2.243   3.922   8.938  0.9963  0.0525 -0.9265
 4596SOL    HW225251   2.294   3.787   8.911  0.3074  0.8904 -0.3271
 4597SOL     OW25252   2.152   1.063   6.036  0.1305 -0.0700 -0.2232
 4597SOL    HW125253   2.246   1.047   6.031  0.1422  0.3482 -1.3499
 4597SOL    HW225254   2.116   0.982   6.073 -3.7875  1.8521  0.1495
 4598SOL     OW25255   4.024   2.194   8.362 -0.3150  0.0717 -0.2751
 4598SOL    HW125256   3.936   2.193   8.400  0.4114  0.9116  1.3819
 4598SOL    HW225257   4.076   2.182   8.442 -0.3939  0.1357 -0.2142
 4599SOL     OW25258   3.384   4.266  15.957  0.0833  1.2403 -0.5355
 4599SOL    HW125259   3.479   4.259  15.953  0.1021  1.3895 -0.3097
 4599SOL    HW225260   3.372   4.171  15.962  0.0010  1.2765 -0.0375
 4600SOL     OW25261   0.685   0.793   6.240 -0.5457  0.0842 -0.6298
 4600SOL    HW125262   0.718   0.720   6.293 -0.5015  1.2678  0.9631
 4600SOL    HW225263   0.761   0.850   6.239 -1.9951  2.0370  0.0827
 4601SOL     OW25264   3.096   0.557   5.135 -0.9614 -0.3302  0.4885
 4601SOL    HW125265   3.018   0.610   5.151 -0.4124  0.4081  0.7185
 4601SOL    HW225266   3.099   0.503   5.215  3.8604 -0.9387 -0.0777
 4602SOL     OW25267   0.370   4.360   6.648 -0.7962  0.3825 -0.7447
 4602SOL    HW125268   0.380   4.274   6.606 -0.8842 -0.4977  1.0326
 4602SOL    HW225269   0.280   4.348   6.677 -0.6404  0.5385 -0.1935
 4603SOL     OW25270   1.448   0.932   2.656  0.5092 -0.1956  0.2579
 4603SOL    HW125271   1.418   0.976   2.577 -0.8210  0.0518  0.9135
 4603SOL    HW225272   1.398   0.851   2.649  1.2851 -0.6888  0.3098
 4604SOL     OW25273   0.037   0.097   6.364  0.5392 -0.2041  0.0409
 4604SOL    HW125274   0.119   0.074   6.408 -0.9372 -0.9624  2.4063
 4604SOL    HW225275   0.004   0.014   6.330  1.1942  0.5932 -2.5196
 4605SOL     OW25276   4.589   3.296   9.619 -0.4599  0.3472 -0.0979
 4605SOL    HW125277   4.588   3.383   9.659  2.0539  1.2928 -2.1248
 4605SOL    HW225278   4.673   3.261   9.648 -0.5797  0.4603  0.3856
 4606SOL     OW25279   0.112   1.885   6.925  0.6281 -0.0362 -0.7283
 4606SOL    HW125280   0.067   1.836   6.857 -0.1002 -1.3605  0.7057
 4606SOL    HW225281   0.128   1.815   6.987 -2.5600  1.2094  1.4984
 4607SOL     OW25282   1.658   3.880   4.098 -0.0667 -0.0939  0.0801
 4607SOL    HW125283   1.705   3.957   4.065 -0.5463 -0.3957 -1.2989
 4607SOL    HW225284   1.585   3.928   4.137 -0.1314 -1.0103  1.0916
 4608SOL     OW25285   0.626   3.101   4.188 -0.0081 -0.9187 -0.0928
 4608SOL    HW125286   0.640   3.012   4.155  0.3605 -1.0582  0.4501
 4608SOL    HW225287   0.652   3.079   4.277 -0.3755  1.9942  0.7338
 4609SOL     OW25288   1.396   4.406   7.176  0.0418  0.1056  0.0429
 4609SOL    HW125289   1.310   4.364   7.187  0.1844 -0.6399 -1.5927
 4609SOL    HW225290   1.436   4.380   7.259  1.3848  0.4434 -0.4979
 4610SOL     OW25291   0.519   1.054   2.734 -0.0818 -0.5161 -0.8696
 4610SOL    HW125292   0.482   0.991   2.673 -1.1103 -1.9278  1.2008
 4610SOL    HW225293   0.609   1.024   2.732 -0.8591 -2.9851  0.8424
 4611SOL     OW25294   1.737   0.152   6.457 -0.0991  0.2324 -0.1102
 4611SOL    HW125295   1.765   0.183   6.371  0.6539 -1.4527 -0.4554
 4611SOL    HW225296   1.784   0.202   6.524  2.8035 -1.3750 -0.9684
 4612SOL     OW25297   1.244   3.471   1.436 -0.1929 -0.4666  0.2252
 4612SOL    HW125298   1.258   3.415   1.513 -1.0379 -1.9995 -0.7530
 4612SOL    HW225299   1.232   3.563   1.463  0.4945 -0.9683  2.2770
 4613SOL     OW25300   1.373   1.746   1.921 -0.4680  0.3357 -0.1709
 4613SOL    HW125301   1.376   1.798   1.841 -2.6944  0.1597 -0.3655
 4613SOL    HW225302   1.292   1.694   1.918  0.5400 -1.1370 -2.4656
 4614SOL     OW25303   1.554   4.287   5.544 -0.1638 -0.5200  0.6479
 4614SOL    HW125304   1.499   4.229   5.491  0.1041  0.1791 -0.4152
 4614SOL    HW225305   1.638   4.274   5.499  0.1826 -0.6176  1.3367
 4615SOL     OW25306   4.558   4.156  10.281 -0.1646  0.1505 -0.2202
 4615SOL    HW125307   4.644   4.198  10.289 -0.2597 -0.1813  2.3059
 4615SOL    HW225308   4.530   4.192  10.197  0.9811  1.0610 -0.2058
 4616SOL     OW25309   1.694   1.123  13.579  0.1078 -0.5231  0.1901
 4616SOL    HW125310   1.662   1.081  13.499  0.5929 -0.0241 -0.2674
 4616SOL    HW225311   1.784   1.089  13.578 -0.0525 -1.0027  3.1586
 4617SOL     OW25312   1.624   2.002   8.533 -0.2572 -0.3249  0.0487
 4617SOL    HW125313   1.708   1.977   8.570  0.2938  0.3782 -0.7180
 4617SOL    HW225314   1.590   1.929   8.483  0.6445 -1.7777  1.5664
 4618SOL     OW25315   2.054   0.165   0.888  0.0552 -0.2410 -0.2949
 4618SOL    HW125316   2.070   0.186   0.980  0.3659 -3.4855  0.4101
 4618SOL    HW225317   2.113   0.224   0.842  0.5026 -0.5707 -0.1490
 4619SOL     OW25318   2.687   4.157   6.338 -0.5470  0.4094  0.1646
 4619SOL    HW125319   2.769   4.146   6.386 -1.0348 -1.5025  0.5668
 4619SOL    HW225320   2.715   4.151   6.247  2.0428  2.2266  0.8456
 4620SOL     OW25321   4.350   3.271  11.935 -0.2265  0.0028  0.4974
 4620SOL    HW125322   4.327   3.181  11.910 -0.2371 -0.7843  3.3532
 4620SOL    HW225323   4.406   3.258  12.012  0.4263 -1.4549 -0.2286
 4621SOL     OW25324   3.230   2.003   4.773  0.2239 -0.5235 -0.4402
 4621SOL    HW125325   3.286   2.028   4.846 -0.6378  0.5019 -0.1387
 4621SOL    HW225326   3.265   1.915   4.756  0.0617 -0.6289 -0.2421
 4622SOL     OW25327   2.712   2.489   4.153 -0.2097  0.3450  0.0370
 4622SOL    HW125328   2.750   2.496   4.240  0.7643  2.1698 -0.5414
 4622SOL    HW225329   2.619   2.483   4.174  0.2309 -0.7277  1.6546
 4623SOL     OW25330   4.049   1.796   7.225  0.0782  0.1849  0.0252
 4623SOL    HW125331   4.139   1.763   7.233  0.4642  1.4872  1.0079
 4623SOL    HW225332   4.017   1.726   7.168  1.4114 -0.1949 -0.2785
 4624SOL     OW25333   0.339   1.192   4.091 -0.5320 -0.4150  0.3764
 4624SOL    HW125334   0.431   1.218   4.080 -0.8675  0.7946  0.4959
 4624SOL    HW225335   0.328   1.147   4.008 -1.4646 -0.0091  0.2807
 4625SOL     OW25336   3.551   0.398   8.100 -0.1803 -0.0678  0.1200
 4625SOL    HW125337   3.587   0.399   8.188  0.9616  2.5737 -0.3758
 4625SOL    HW225338   3.505   0.482   8.093  2.4700  1.2450 -1.5887
 4626SOL     OW25339   1.073   3.431  14.538  0.2176  0.1932  0.2760
 4626SOL    HW125340   0.981   3.454  14.546  0.5334  1.1404  1.0893
 4626SOL    HW225341   1.111   3.508  14.580  0.0403  0.0528  0.6911
 4627SOL     OW25342   0.336   3.327  11.183  0.3295  0.1783  0.0733
 4627SOL    HW125343   0.415   3.381  11.182  0.2305  0.3245  0.1481
 4627SOL    HW225344   0.361   3.257  11.124  2.8399  0.5389  0.6970
 4628SOL     OW25345   0.429   0.495   5.889 -0.1033 -0.2639 -0.0926
 4628SOL    HW125346   0.499   0.526   5.945 -0.0952 -0.0031 -0.2465
 4628SOL    HW225347   0.461   0.408   5.862 -1.2393 -0.5752 -0.4384
 4629SOL     OW25348   2.913   0.612   4.052 -0.0579 -0.3876  0.0929
 4629SOL    HW125349   2.999   0.638   4.083  0.1972  0.0440 -0.9693
 4629SOL    HW225350   2.934   0.526   4.016 -0.7147 -1.0198  1.2089
 4630SOL     OW25351   1.112   3.096   8.225  0.5333  1.0726  0.2515
 4630SOL    HW125352   1.022   3.076   8.252  1.5682 -2.4442  1.1956
 4630SOL    HW225353   1.106   3.160   8.154 -0.7297  1.7344  0.9519
 4631SOL     OW25354   4.071   3.330   2.670 -0.3592 -0.1495  0.3872
 4631SOL    HW125355   4.147   3.334   2.611  0.1438  0.9922  1.1286
 4631SOL    HW225356   4.056   3.235   2.670 -1.0695 -0.0532 -1.0443
 4632SOL     OW25357   1.779   3.565   9.990 -0.0338 -0.3028  0.0533
 4632SOL    HW125358   1.870   3.578   9.965  0.5412  1.8011  3.2682
 4632SOL    HW225359   1.749   3.652  10.015  1.7915  0.4670 -0.4493
 4633SOL     OW25360   0.522   2.733   2.113  0.1674 -0.4355 -0.2722
 4633SOL    HW125361   0.603   2.784   2.114 -0.6809  0.9002  0.8559
 4633SOL    HW225362   0.475   2.763   2.035 -1.1930 -0.4967  0.5221
 4634SOL     OW25363   0.114   1.936  15.368 -0.7262 -0.1974  0.3048
 4634SOL    HW125364   0.193   1.883  15.380  0.2105  0.6721 -2.0176
 4634SOL    HW225365   0.127   1.959  15.276 -0.4597 -1.5145  0.0209
 4635SOL     OW25366   2.053   4.305   4.756  0.1904  0.4056  0.1904
 4635SOL    HW125367   2.098   4.284   4.838  1.4531 -1.7992 -1.0811
 4635SOL    HW225368   2.051   4.401   4.766 -0.5875  0.5232 -1.0819
 4636SOL     OW25369   2.523   1.327   1.955  0.0443  0.2533 -0.3783
 4636SOL    HW125370   2.509   1.280   2.038 -0.5373 -0.8444 -1.0884
 4636SOL    HW225371   2.446   1.384   1.954  0.8043  1.3002  0.9917
 4637SOL     OW25372   4.620   1.780   1.884  0.0673 -0.1551 -0.1058
 4637SOL    HW125373   4.667   1.743   1.809 -2.2947 -1.2634 -1.0619
 4637SOL    HW225374   4.533   1.741   1.875  0.7394 -1.8558  0.8692
 4638SOL     OW25375   0.254   2.741   6.541  0.4634  0.6682  0.1381
 4638SOL    HW125376   0.339   2.732   6.497  2.1068  0.3909  3.4117
 4638SOL    HW225377   0.235   2.657   6.583 -1.9529  1.1680  0.0300
 4639SOL     OW25378   3.297   2.204   2.060 -0.0065 -0.0896 -0.3129
 4639SOL    HW125379   3.381   2.180   2.100 -0.1356 -1.4169 -0.8307
 4639SOL    HW225380   3.318   2.160   1.977  0.7552  1.1986 -0.8025
 4640SOL     OW25381   3.018   3.676   7.120  0.1636 -0.1313 -0.9416
 4640SOL    HW125382   2.986   3.606   7.064 -2.9685  0.7252 -0.2388
 4640SOL    HW225383   2.989   3.635   7.201  0.2821  0.4520 -0.5984
 4641SOL     OW25384   0.977   1.525   3.212  0.2900 -0.1866 -0.1355
 4641SOL    HW125385   1.014   1.459   3.153  0.4285 -0.3024  0.0838
 4641SOL    HW225386   0.894   1.542   3.166  0.9278 -2.8562 -2.3078
 4642SOL     OW25387   1.522   1.861   1.038 -0.4817  0.1310  0.0371
 4642SOL    HW125388   1.449   1.800   1.031  0.7393 -1.2515 -0.8118
 4642SOL    HW225389   1.490   1.915   1.110  1.9041  0.3660  0.9287
 4643SOL     OW25390   2.989   1.152  17.666 -0.7579 -0.0866 -0.1019
 4643SOL    HW125391   2.970   1.242   0.018 -2.6074  0.3987 -2.8672
 4643SOL    HW225392   2.931   1.110   0.053 -1.2337  0.4649 -0.1689
 4644SOL     OW25393   1.078   1.880   6.452 -0.1318  0.0153  0.2600
 4644SOL    HW125394   1.046   1.799   6.493  0.4734 -0.3881 -0.0517
 4644SOL    HW225395   1.008   1.909   6.394  1.3073  0.1449 -1.4210
 4645SOL     OW25396   3.449   2.379   1.530 -0.4390 -0.1708  0.0945
 4645SOL    HW125397   3.361   2.392   1.565 -2.2161 -3.3662 -3.0692
 4645SOL    HW225398   3.495   2.462   1.523 -0.4849 -0.1547 -0.0231
 4646SOL     OW25399   1.181   3.730   6.210  0.2901  0.1501 -0.4847
 4646SOL    HW125400   1.173   3.692   6.123  1.1278 -0.5298 -0.2710
 4646SOL    HW225401   1.261   3.691   6.245 -0.1774 -0.5201 -0.1571
 4647SOL     OW25402   0.059   2.349  12.505  0.5777  0.6039  0.2714
 4647SOL    HW125403   0.132   2.409  12.489  0.6888  0.1081 -1.0230
 4647SOL    HW225404   0.051   2.309  12.419 -0.6565 -1.7789  1.4907
 4648SOL     OW25405   3.536   3.848  14.943 -0.4843  0.0657 -0.9084
 4648SOL    HW125406   3.562   3.928  14.897 -0.5616  0.1449 -0.8140
 4648SOL    HW225407   3.468   3.888  14.998 -1.3586 -0.0274 -1.9047
 4649SOL     OW25408   2.190   3.560   0.399  0.1135  0.4619  0.2182
 4649SOL    HW125409   2.159   3.470   0.391 -0.7871  0.8074 -0.2448
 4649SOL    HW225410   2.116   3.613   0.368 -1.1995  0.3963  3.1684
 4650SOL     OW25411   2.616   0.011  16.996  0.1170 -0.0413  0.5096
 4650SOL    HW125412   2.619   4.633  16.998  0.4179 -0.0417 -0.0325
 4650SOL    HW225413   2.524   0.030  17.013 -0.4010 -3.1850  1.2880
 4651SOL     OW25414   2.168   2.121   7.459  0.1690 -0.2305 -0.2436
 4651SOL    HW125415   2.169   2.063   7.535 -0.3477  0.2196  0.1072
 4651SOL    HW225416   2.209   2.058   7.400  0.7776  0.2675 -0.3493
 4652SOL     OW25417   0.006   3.786   4.488 -0.3256  0.5102 -0.1615
 4652SOL    HW125418   4.644   3.746   4.454 -1.0625 -1.0000  3.3380
 4652SOL    HW225419   0.058   3.708   4.508 -1.0719  0.4490  1.5482
 4653SOL     OW25420   1.779   1.645  15.922  0.1277  0.0425 -0.2753
 4653SOL    HW125421   1.723   1.682  15.991  0.4444  0.7503 -0.4037
 4653SOL    HW225422   1.824   1.727  15.904  0.3746  0.3997  1.9207
 4654SOL     OW25423   2.738   4.271   1.857  0.5591  0.1841 -0.1614
 4654SOL    HW125424   2.773   4.359   1.869 -1.4870  1.3843 -2.8781
 4654SOL    HW225425   2.691   4.283   1.775  1.4864  2.1948 -0.3935
 4655SOL     OW25426   3.192   2.021   4.131  0.2990 -0.0601  0.1972
 4655SOL    HW125427   3.186   1.966   4.052 -3.5297 -0.8056  1.0202
 4655SOL    HW225428   3.288   2.018   4.134  0.1620 -3.0746  1.4670
 4656SOL     OW25429   3.615   1.751   7.385 -0.4432 -0.5469 -0.8785
 4656SOL    HW125430   3.552   1.803   7.435  1.0663 -0.0468  0.5204
 4656SOL    HW225431   3.672   1.820   7.351  1.1641 -0.4439  2.0695
 4657SOL     OW25432   1.909   1.473   7.677 -0.1689  0.2082 -0.0272
 4657SOL    HW125433   1.814   1.478   7.683 -0.2023 -1.0177  0.3937
 4657SOL    HW225434   1.938   1.549   7.728  1.4124  1.3100 -2.5706
 4658SOL     OW25435   0.215   0.024  16.998 -0.0867  0.7192 -0.4317
 4658SOL    HW125436   0.301   4.715  16.967 -0.1408  1.0979 -0.9191
 4658SOL    HW225437   0.189   0.087  16.931 -0.9614 -0.1134 -0.8656
 4659SOL     OW25438   0.764   4.650  11.032 -0.6688 -0.7415 -0.8243
 4659SOL    HW125439   0.808   4.712  10.973  0.5920 -0.7518  0.0969
 4659SOL    HW225440   0.674   4.680  11.023  0.0799  1.3841 -1.0444
 4660SOL     OW25441   1.945   3.796   2.221 -0.9097  0.2040  0.5308
 4660SOL    HW125442   1.986   3.736   2.159 -1.2691  0.7864 -0.2735
 4660SOL    HW225443   1.932   3.873   2.166  0.3520 -0.4387 -0.6835
 4661SOL     OW25444   1.956   3.534   7.195  0.4782  0.0212  0.4338
 4661SOL    HW125445   1.914   3.513   7.279 -1.3737 -1.5790 -0.8946
 4661SOL    HW225446   1.883   3.501   7.143  0.8579 -0.1129 -0.0091
 4662SOL     OW25447   0.235   3.777   6.157  0.3112  0.0944 -0.2270
 4662SOL    HW125448   0.235   3.691   6.198  0.3385  0.2153  0.0254
 4662SOL    HW225449   0.255   3.830   6.234  0.0798  0.0765 -0.1540
 4663SOL     OW25450   4.215   0.699   8.657 -0.1760 -0.1326 -0.0231
 4663SOL    HW125451   4.260   0.615   8.646  1.7339  0.6055  2.0825
 4663SOL    HW225452   4.281   0.766   8.638 -0.4759  0.0418 -0.4346
 4664SOL     OW25453   0.223   3.185   7.376 -0.2762 -0.1084 -0.1587
 4664SOL    HW125454   0.305   3.206   7.420  0.0203  0.7564 -1.1331
 4664SOL    HW225455   0.221   3.089   7.380 -0.5856 -0.0406  1.3491
 4665SOL     OW25456   3.341   0.296  17.408  0.1780 -0.0370  0.3004
 4665SOL    HW125457   3.406   0.337  17.350 -0.4743 -2.2883 -2.0039
 4665SOL    HW225458   3.314   0.366  17.467 -0.1903  0.4964 -0.4948
 4666SOL     OW25459   1.378   0.462   8.248 -0.1508  0.1387  0.2413
 4666SOL    HW125460   1.369   0.556   8.232  0.3845  0.0710 -0.4501
 4666SOL    HW225461   1.359   0.457   8.342 -2.3278  0.5869 -0.1602
 4667SOL     OW25462   3.712   3.984  14.235  0.1516  0.9228  0.0056
 4667SOL    HW125463   3.685   3.903  14.191 -0.3312  0.6250  0.8477
 4667SOL    HW225464   3.745   4.035  14.161 -0.3600 -0.1355 -0.9459
 4668SOL     OW25465   4.145   1.274   2.266  0.1377 -0.6612 -0.1212
 4668SOL    HW125466   4.133   1.188   2.227  1.1229  0.5235 -3.0735
 4668SOL    HW225467   4.144   1.344   2.200 -3.8845  1.8320  2.5266
 4669SOL     OW25468   2.616   4.402   7.161 -0.0812 -0.2329  0.0571
 4669SOL    HW125469   2.596   4.440   7.247  0.7656 -0.1829  0.2286
 4669SOL    HW225470   2.558   4.451   7.102 -0.2257  0.0754  0.4536
 4670SOL     OW25471   1.247   0.051   8.380  0.1350  0.5081  0.5448
 4670SOL    HW125472   1.152   0.042   8.378  0.2689 -0.0947 -4.5370
 4670SOL    HW225473   1.261   0.006   8.463 -2.2652 -1.5129 -0.1705
 4671SOL     OW25474   1.319   2.261   5.960 -0.6457 -0.2050 -0.1548
 4671SOL    HW125475   1.291   2.343   6.001 -0.8122 -1.1529  1.6154
 4671SOL    HW225476   1.237   2.240   5.916 -0.1183 -1.1971 -0.6595
 4672SOL     OW25477   0.102   2.249   5.381  0.3505 -0.1536  0.3463
 4672SOL    HW125478   0.152   2.303   5.319  0.5142 -1.8173 -0.9529
 4672SOL    HW225479   0.174   2.229   5.442  1.1856 -0.3474 -0.6941
 4673SOL     OW25480   0.817   4.292   3.791 -0.3260 -0.0357 -0.2455
 4673SOL    HW125481   0.788   4.202   3.777  0.1828 -0.1733 -0.4084
 4673SOL    HW225482   0.817   4.332   3.704 -0.1065 -1.0614 -0.7092
 4674SOL     OW25483   1.673   1.018   3.109 -0.0006 -0.1105  0.2345
 4674SOL    HW125484   1.745   1.042   3.052  1.0470  0.6452  1.8901
 4674SOL    HW225485   1.605   1.045   3.047 -0.9513 -2.3663  0.2813
 4675SOL     OW25486   4.441   0.807   1.474 -0.2720  0.4522  0.3394
 4675SOL    HW125487   4.355   0.766   1.467 -0.1513  0.1481  0.6456
 4675SOL    HW225488   4.420   0.901   1.472  0.8323  0.7353  2.0007
 4676SOL     OW25489   2.879   0.076  16.053 -0.1609  0.0629  0.0889
 4676SOL    HW125490   2.954   0.134  16.068  1.9130 -2.2374 -1.3765
 4676SOL    HW225491   2.811   0.142  16.039 -0.1208 -0.1704 -1.1587
 4677SOL     OW25492   2.973   0.880   6.231 -0.3963 -0.2151  0.2501
 4677SOL    HW125493   2.930   0.808   6.275  1.4991 -0.3269  1.9048
 4677SOL    HW225494   3.060   0.889   6.269 -0.0572  0.2308 -0.6158
 4678SOL     OW25495   2.351   1.571  14.394  0.3032  0.4404  0.2501
 4678SOL    HW125496   2.300   1.644  14.358 -0.1530 -0.7714 -1.5408
 4678SOL    HW225497   2.280   1.530  14.443 -0.1269  2.6368  1.4806
 4679SOL     OW25498   4.540   2.192   3.495  0.4187  0.7802 -0.0360
 4679SOL    HW125499   4.471   2.159   3.437 -0.6311  1.7245  0.6695
 4679SOL    HW225500   4.617   2.181   3.440  1.2735  1.1225  1.0940
 4680SOL     OW25501   1.578   0.847  12.639 -0.2993 -0.3012 -0.0075
 4680SOL    HW125502   1.515   0.784  12.603 -3.4800  1.7344  2.0070
 4680SOL    HW225503   1.585   0.911  12.567 -1.4136  0.9167  0.9622
 4681SOL     OW25504   2.317   3.171   2.999 -0.7324  0.3393 -0.0995
 4681SOL    HW125505   2.273   3.123   3.068  1.7752  1.4023  2.2715
 4681SOL    HW225506   2.298   3.113   2.925  1.5072 -0.0296 -0.4006
 4682SOL     OW25507   3.369   4.485  16.150  0.4887 -0.1349  0.1278
 4682SOL    HW125508   3.363   4.410  16.090  0.9671 -0.1635  0.1155
 4682SOL    HW225509   3.427   4.458  16.222  0.9927 -0.0758 -0.2573
 4683SOL     OW25510   3.022   0.527  12.916 -0.7366  0.0916  0.3393
 4683SOL    HW125511   3.106   0.482  12.905 -1.0366 -0.5580  0.6494
 4683SOL    HW225512   3.008   0.552  12.825  1.1033  1.9734  0.5770
 4684SOL     OW25513   0.080   0.313   5.784  0.3105  0.1379  0.8194
 4684SOL    HW125514   0.037   0.361   5.855 -0.9286  0.8828 -0.4467
 4684SOL    HW225515   0.121   0.393   5.751  1.0475 -1.1422 -1.3759
 4685SOL     OW25516   0.734   1.918   7.788 -0.5874  0.0609 -0.5983
 4685SOL    HW125517   0.810   1.957   7.744  1.6237 -0.7531  2.5095
 4685SOL    HW225518   0.767   1.835   7.821 -2.5401 -0.5015 -0.0645
 4686SOL     OW25519   4.345   2.140  17.290 -0.0517  0.0930  0.0686
 4686SOL    HW125520   4.346   2.217  17.346  4.3787 -1.1944  1.7143
 4686SOL    HW225521   4.263   2.097  17.316  0.0482 -0.0427  0.1577
 4687SOL     OW25522   4.489   3.050  15.615  0.1540  0.3486 -0.2158
 4687SOL    HW125523   4.440   2.971  15.639 -1.0227  0.7576 -1.2798
 4687SOL    HW225524   4.438   3.098  15.549  1.6931  0.9051 -0.9932
 4688SOL     OW25525   0.517   2.084   5.475  0.0426  0.0153  0.4456
 4688SOL    HW125526   0.494   1.991   5.488 -1.3626  0.1388 -1.1719
 4688SOL    HW225527   0.511   2.092   5.380 -0.7983 -0.2995  0.4684
 4689SOL     OW25528   4.366   2.140  10.137 -0.0223  0.1217  0.1167
 4689SOL    HW125529   4.399   2.230  10.133 -0.2088  0.1071 -1.7838
 4689SOL    HW225530   4.288   2.147  10.192  0.0990 -1.7726  0.5242
 4690SOL     OW25531   4.697   3.934   4.725 -0.2873  0.0438 -0.3511
 4690SOL    HW125532   4.714   3.876   4.651 -1.0836 -1.5244  0.6841
 4690SOL    HW225533   4.700   3.876   4.801 -1.3937  1.4571  0.7784
 4691SOL     OW25534   1.632   0.046   2.428 -0.2215  0.1732  0.0606
 4691SOL    HW125535   1.537   0.052   2.437 -0.3269  0.7476 -1.4702
 4691SOL    HW225536   1.637   4.688   2.370  2.3267  0.3334  0.0721
 4692SOL     OW25537   1.912   0.339   8.264 -0.0576 -0.2989 -0.0830
 4692SOL    HW125538   1.982   0.365   8.324 -1.6399  0.4941  1.4280
 4692SOL    HW225539   1.840   0.327   8.326 -0.7444 -0.5441 -0.9309
 4693SOL     OW25540   1.610   2.873   3.515  0.0305  0.1329 -0.7707
 4693SOL    HW125541   1.547   2.945   3.517 -0.0798  0.0171  0.1293
 4693SOL    HW225542   1.643   2.871   3.605 -0.9743 -2.1866 -0.4586
 4694SOL     OW25543   3.825   0.377  12.366 -0.1026 -0.3850  0.0569
 4694SOL    HW125544   3.733   0.351  12.364 -0.4521  1.0668 -2.6580
 4694SOL    HW225545   3.860   0.336  12.287 -0.2388  3.0424 -1.7773
 4695SOL     OW25546   3.547   2.316   8.409  0.2747 -0.1971  0.3201
 4695SOL    HW125547   3.568   2.367   8.331 -0.0545 -0.0203  0.3451
 4695SOL    HW225548   3.501   2.380   8.464  3.0943 -0.9700  3.5764
 4696SOL     OW25549   1.111   0.494   8.454  0.1531 -0.4601  0.3154
 4696SOL    HW125550   1.060   0.501   8.374  0.2668 -0.3057  0.2583
 4696SOL    HW225551   1.101   0.583   8.488 -0.8375 -0.7271  0.7276
 4697SOL     OW25552   1.770   4.674  16.068 -0.3277 -0.2989  0.1143
 4697SOL    HW125553   1.770   4.675  16.164 -0.6038  2.1534  0.0975
 4697SOL    HW225554   1.829   0.030  16.058 -2.2240  1.1611 -0.2660
 4698SOL     OW25555   1.890   0.714   2.751 -0.1027  0.0843  0.3586
 4698SOL    HW125556   1.886   0.792   2.696 -0.7874 -1.8485 -2.3538
 4698SOL    HW225557   1.818   0.662   2.714  1.8335 -0.8627 -2.1256
 4699SOL     OW25558   2.252   4.328   4.965  0.5870 -0.2889 -0.3333
 4699SOL    HW125559   2.271   4.422   4.967 -0.0941 -0.1672  0.4834
 4699SOL    HW225560   2.296   4.298   5.044 -0.8496  3.5980  1.9513
 4700SOL     OW25561   3.527   2.097   7.070  0.1238  0.2208 -0.3054
 4700SOL    HW125562   3.521   2.185   7.105  1.8252  0.3441 -0.3320
 4700SOL    HW225563   3.440   2.092   7.030 -0.4871  0.6174  0.9863
 4701SOL     OW25564   3.561   3.409  16.816 -0.3890 -0.6728  0.2091
 4701SOL    HW125565   3.631   3.456  16.861  1.1002 -1.3156 -1.4421
 4701SOL    HW225566   3.492   3.429  16.880 -0.7057  0.1687 -0.3896
 4702SOL     OW25567   0.613   4.634  16.668  0.3285  0.4020  0.4965
 4702SOL    HW125568   0.550   4.683  16.720 -1.5925 -0.9265 -0.5830
 4702SOL    HW225569   0.599   4.540  16.684  0.4241 -0.1177 -2.5268
 4703SOL     OW25570   1.078   2.133  15.674  0.1428 -0.2184 -0.2184
 4703SOL    HW125571   1.073   2.061  15.611  0.6629 -0.3629 -0.0944
 4703SOL    HW225572   0.986   2.137  15.697 -0.1249 -3.2927 -0.7156
 4704SOL     OW25573   3.156   3.814  11.086 -0.1422  0.2303 -0.4158
 4704SOL    HW125574   3.238   3.768  11.070  0.8793  1.8011  0.2803
 4704SOL    HW225575   3.107   3.750  11.136 -0.0036  0.9944  0.7121
 4705SOL     OW25576   4.211   4.259  12.123  0.3317 -0.0268 -0.3746
 4705SOL    HW125577   4.120   4.279  12.101  1.2069  3.7652 -0.4544
 4705SOL    HW225578   4.213   4.278  12.217  1.0408 -0.7559 -0.2402
 4706SOL     OW25579   4.148   1.396   3.574  0.1035  0.1237  0.1059
 4706SOL    HW125580   4.064   1.383   3.529 -0.1727  0.9127  0.3840
 4706SOL    HW225581   4.138   1.479   3.622  0.8150 -0.1317  0.7002
 4707SOL     OW25582   0.316   3.437   5.862  0.4080 -0.0576  0.1121
 4707SOL    HW125583   0.371   3.452   5.939 -0.6639 -1.0687  1.0809
 4707SOL    HW225584   0.365   3.487   5.797  1.0240 -0.9890 -0.1509
 4708SOL     OW25585   1.165   2.350   3.941 -0.5188  0.1662 -0.3463
 4708SOL    HW125586   1.222   2.419   3.975  0.3692 -0.9187  0.3867
 4708SOL    HW225587   1.090   2.349   4.001  0.0441  0.7082  0.3681
 4709SOL     OW25588   1.367   2.607   6.735  0.3850 -0.2277  0.6566
 4709SOL    HW125589   1.384   2.699   6.756 -0.4397 -0.3731  1.9598
 4709SOL    HW225590   1.292   2.629   6.679 -1.0184 -2.3063  1.6882
 4710SOL     OW25591   3.531   4.580  17.527  0.3894  0.3332  0.3071
 4710SOL    HW125592   3.588   4.514  17.567 -1.7245  0.4063  3.4427
 4710SOL    HW225593   3.493   4.537  17.450  3.4435 -0.2782 -0.8708
 4711SOL     OW25594   2.480   4.039   6.705  0.7555  0.4148 -0.3233
 4711SOL    HW125595   2.415   4.099   6.742 -0.4141 -1.6916  0.9925
 4711SOL    HW225596   2.486   3.980   6.780  0.0633 -0.3017 -0.8335
 4712SOL     OW25597   2.854   1.159   5.630 -0.0544  0.2843 -0.0179
 4712SOL    HW125598   2.773   1.175   5.582 -0.4008  0.4754  0.6473
 4712SOL    HW225599   2.825   1.102   5.701  0.0079 -0.2402 -0.4102
 4713SOL     OW25600   4.638   1.427   2.032 -0.4084 -0.0382 -0.1746
 4713SOL    HW125601   4.554   1.468   2.055  0.2009  0.0194  1.9751
 4713SOL    HW225602   4.671   1.412   2.121 -1.6537 -2.3105 -0.0986
 4714SOL     OW25603   1.298   4.150   5.353 -0.1250  0.3742  0.3711
 4714SOL    HW125604   1.344   4.068   5.339  0.1674  0.8824 -1.6667
 4714SOL    HW225605   1.215   4.125   5.394  0.3157 -4.0756 -1.4328
 4715SOL     OW25606   2.358   0.903   2.830  0.1566 -0.0267  0.1751
 4715SOL    HW125607   2.379   0.941   2.744  0.1316  0.3598  0.3415
 4715SOL    HW225608   2.345   0.979   2.886  3.1246  1.6797 -1.4443
 4716SOL     OW25609   1.757   4.104   5.120 -0.2434  0.1176 -0.1154
 4716SOL    HW125610   1.799   4.178   5.165 -1.6817  1.5859 -1.1587
 4716SOL    HW225611   1.710   4.066   5.194  0.3682 -2.4843 -1.0674
 4717SOL     OW25612   2.683   1.633   4.202  0.1917 -0.5003  0.5872
 4717SOL    HW125613   2.772   1.601   4.187 -0.1430 -1.7235  1.2719
 4717SOL    HW225614   2.664   1.606   4.292 -1.2576  0.5002  0.5785
 4718SOL     OW25615   0.802   3.310  15.841  0.2404  0.3648 -0.0373
 4718SOL    HW125616   0.851   3.325  15.922  2.2338 -3.9123 -0.4657
 4718SOL    HW225617   0.712   3.328  15.869  1.0098  0.6831  2.2671
 4719SOL     OW25618   2.398   1.456   3.835  0.0578  0.7532  0.1657
 4719SOL    HW125619   2.401   1.360   3.832  3.7156  0.8356  1.3901
 4719SOL    HW225620   2.305   1.462   3.816 -0.1943 -0.6519  0.9310
 4720SOL     OW25621   2.781   0.576   1.449 -0.1205  0.0609  0.2213
 4720SOL    HW125622   2.738   0.599   1.532 -0.1376  1.2852 -0.1205
 4720SOL    HW225623   2.699   0.558   1.402  0.2792  1.9431 -1.1993
 4721SOL     OW25624   1.841   0.577   8.823 -0.2841  0.1656  0.4631
 4721SOL    HW125625   1.820   0.655   8.875  1.8464  0.6501  0.5970
 4721SOL    HW225626   1.924   0.607   8.785  0.3120  0.1588  1.7432
 4722SOL     OW25627   2.215   1.767  14.255 -0.2839  0.4514 -0.0080
 4722SOL    HW125628   2.129   1.808  14.260 -0.5551  0.0463 -1.4385
 4722SOL    HW225629   2.234   1.752  14.163 -0.6757 -1.7068  0.2612
 4723SOL     OW25630   3.070   2.217   9.255 -0.0875  0.5035 -0.2567
 4723SOL    HW125631   3.023   2.148   9.209  2.6659 -0.5708 -1.4375
 4723SOL    HW225632   3.159   2.181   9.263  0.3032  1.3123 -0.9444
 4724SOL     OW25633   2.612   1.072  14.083 -0.6882 -0.6379 -0.0476
 4724SOL    HW125634   2.582   1.019  14.157 -0.9019  0.0120  0.3346
 4724SOL    HW225635   2.651   0.996  14.038  1.5987 -0.4115  1.5233
 4725SOL     OW25636   4.450   4.517   5.020  0.0969  0.2404 -0.6452
 4725SOL    HW125637   4.521   4.456   5.038 -1.0243 -0.5066  1.2096
 4725SOL    HW225638   4.504   4.577   4.969 -0.6116  0.7030 -0.8541
 4726SOL     OW25639   4.127   3.840  15.056 -0.0846 -0.6343 -0.3663
 4726SOL    HW125640   4.159   3.774  15.117  0.5705  2.0939  2.2615
 4726SOL    HW225641   4.119   3.917  15.112 -0.9909 -0.4581 -0.7424
 4727SOL     OW25642   4.422   4.473   3.665  0.3375 -0.1013 -0.3998
 4727SOL    HW125643   4.370   4.427   3.598  0.8122 -1.3306  0.0890
 4727SOL    HW225644   4.511   4.450   3.638  0.1051 -0.6449 -0.7233
 4728SOL     OW25645   0.846   2.086   3.302 -0.6689 -0.0643  0.0560
 4728SOL    HW125646   0.813   2.089   3.392  0.3887  0.5069  0.4184
 4728SOL    HW225647   0.870   1.993   3.305 -2.3520 -0.5903 -2.3575
 4729SOL     OW25648   3.365   1.098   5.055 -0.2878 -0.0326  0.1048
 4729SOL    HW125649   3.399   1.186   5.068 -1.1858  0.3600 -0.2174
 4729SOL    HW225650   3.280   1.122   5.019  0.0406  1.2169  0.1825
 4730SOL     OW25651   4.393   2.054   2.834 -0.1325 -0.6017 -0.4169
 4730SOL    HW125652   4.311   2.035   2.788 -0.1910  0.5482 -0.7765
 4730SOL    HW225653   4.355   2.128   2.881  1.4051  0.6752 -1.2031
 4731SOL     OW25654   4.136   1.212  13.219  0.6981  0.1522  0.3884
 4731SOL    HW125655   4.156   1.218  13.125  0.1803 -0.4598  0.2371
 4731SOL    HW225656   4.143   1.306  13.236 -1.3883  0.5443 -0.9019
 4732SOL     OW25657   0.848   1.644   8.865 -0.1505  0.3613  0.3090
 4732SOL    HW125658   0.813   1.723   8.904 -0.1041 -0.4828  2.0690
 4732SOL    HW225659   0.846   1.587   8.942  0.9976 -0.6286 -0.3740
 4733SOL     OW25660   3.538   0.537   3.218  0.0222  0.2961  0.0604
 4733SOL    HW125661   3.609   0.503   3.273 -0.7750 -1.8569 -0.2329
 4733SOL    HW225662   3.469   0.471   3.222  0.8414 -0.6274 -0.8499
 4734SOL     OW25663   1.112   2.277   6.423  0.4187  0.7540 -0.2454
 4734SOL    HW125664   1.194   2.280   6.372  0.9708 -0.9083  0.5543
 4734SOL    HW225665   1.146   2.244   6.506  0.9025  0.6087 -0.4959
 4735SOL     OW25666   1.764   0.596   6.765  0.3883  0.0229 -0.4850
 4735SOL    HW125667   1.766   0.689   6.786  1.9947 -0.3493  0.9986
 4735SOL    HW225668   1.696   0.591   6.697  0.5917  3.2839 -0.9083
 4736SOL     OW25669   1.506   0.518   4.713  0.1349 -0.1540 -0.1818
 4736SOL    HW125670   1.541   0.605   4.733 -1.0460  0.6020 -1.4307
 4736SOL    HW225671   1.453   0.503   4.792  0.1768 -1.8402 -0.4757
 4737SOL     OW25672   2.855   1.894   1.041  0.5212  0.0561  0.3279
 4737SOL    HW125673   2.763   1.905   1.063  0.3727  1.1256 -0.8510
 4737SOL    HW225674   2.856   1.879   0.946  0.4861 -3.0587  0.8233
 4738SOL     OW25675   2.858   1.072  10.769 -0.3016  0.5752 -0.4112
 4738SOL    HW125676   2.878   1.166  10.773 -2.1913  0.9811 -0.5177
 4738SOL    HW225677   2.946   1.038  10.752  0.0739  1.5277 -0.4059
 4739SOL     OW25678   0.941   1.727  14.363  0.3589  0.1877 -0.6360
 4739SOL    HW125679   0.981   1.762  14.443 -0.1133 -0.3041 -0.1762
 4739SOL    HW225680   1.010   1.742  14.299  1.5811  1.6075  1.0019
 4740SOL     OW25681   4.697   2.806   4.376 -0.1499  0.3372  0.1899
 4740SOL    HW125682   4.668   2.893   4.402  1.2153  1.3193 -1.5885
 4740SOL    HW225683   0.067   2.813   4.341 -0.5765  0.8623 -0.7808
 4741SOL     OW25684   3.382   2.478   8.581 -0.4170 -0.1044  0.4274
 4741SOL    HW125685   3.394   2.570   8.557  0.5936 -0.5116 -0.6235
 4741SOL    HW225686   3.304   2.459   8.529  0.1715  1.5938 -1.1018
 4742SOL     OW25687   0.034   4.479   5.366 -0.0688 -0.5740  0.3302
 4742SOL    HW125688   0.044   4.516   5.279  0.0218 -1.4995 -0.0568
 4742SOL    HW225689   0.061   4.556   5.416  2.3451 -1.9852  1.1981
 4743SOL     OW25690   1.469   1.606  11.824  0.0079  0.1811 -0.0145
 4743SOL    HW125691   1.465   1.513  11.800 -0.7816 -0.4361  2.5240
 4743SOL    HW225692   1.520   1.604  11.905 -1.9677  2.1821  1.2890
 4744SOL     OW25693   2.577   2.465  10.742  0.3817 -0.3473  0.2638
 4744SOL    HW125694   2.611   2.449  10.654  1.6248 -1.2018  0.9039
 4744SOL    HW225695   2.493   2.419  10.737 -0.1475  0.8312 -2.0523
 4745SOL     OW25696   3.244   3.214   8.455  0.1539  0.1206 -0.0833
 4745SOL    HW125697   3.329   3.188   8.421  0.2301  0.2847 -0.0180
 4745SOL    HW225698   3.234   3.301   8.418  0.2543  0.1608 -0.0164
 4746SOL     OW25699   4.532   2.188   6.998  1.0578  0.3335  0.4554
 4746SOL    HW125700   4.484   2.105   7.003 -1.1903  1.6835  1.2610
 4746SOL    HW225701   4.554   2.187   6.905  0.0835 -0.5248  0.2278
 4747SOL     OW25702   4.270   0.099   7.901 -0.3976 -0.3007 -0.2333
 4747SOL    HW125703   4.264   0.127   7.993 -1.3867  0.2480 -0.4681
 4747SOL    HW225704   4.188   0.127   7.860 -1.7538 -0.2249  2.5285
 4748SOL     OW25705   1.351   3.717  14.610 -0.0525  0.3408  0.6033
 4748SOL    HW125706   1.270   3.741  14.565  1.0626 -0.4278 -1.7798
 4748SOL    HW225707   1.373   3.625  14.592  1.9932  1.2197 -1.3237
 4749SOL     OW25708   0.905   0.514  13.613 -0.6302 -0.3344  0.4790
 4749SOL    HW125709   0.859   0.460  13.678  0.9226 -3.4678 -1.0109
 4749SOL    HW225710   0.984   0.460  13.613 -0.3434  0.0927  3.0553
 4750SOL     OW25711   4.442   0.051  12.782 -0.0459 -0.4225 -0.0625
 4750SOL    HW125712   4.510   4.715  12.822  1.2182 -0.4954 -2.2973
 4750SOL    HW225713   4.473   0.141  12.790  3.5936 -1.6701 -0.3578
 4751SOL     OW25714   1.783   1.504  12.948  0.1218 -0.4218 -0.3212
 4751SOL    HW125715   1.730   1.566  12.898 -2.0250 -1.0829  1.1294
 4751SOL    HW225716   1.760   1.521  13.039  1.3585  1.0937 -0.3010
 4752SOL     OW25717   2.302   4.633   0.897 -0.2169 -0.0595 -0.0281
 4752SOL    HW125718   2.280   4.634   0.804 -0.4210  0.8858  0.0252
 4752SOL    HW225719   2.224   4.656   0.947  0.0331 -1.6082  1.0833
 4753SOL     OW25720   0.422   4.420   9.269 -0.3076 -0.2183  0.3177
 4753SOL    HW125721   0.506   4.461   9.291 -0.7976  1.3893 -0.8549
 4753SOL    HW225722   0.457   4.346   9.218 -2.1743  0.3738 -1.8082
 4754SOL     OW25723   0.769   1.738  14.046 -0.0779  0.2327 -0.1619
 4754SOL    HW125724   0.791   1.646  14.061 -1.0130 -0.3535 -2.4423
 4754SOL    HW225725   0.851   1.777  14.079  0.1602  0.5391 -1.1243
 4755SOL     OW25726   4.476   1.433   9.266 -0.1677 -0.4759 -0.1506
 4755SOL    HW125727   4.384   1.424   9.241 -0.3211 -0.9942  0.5940
 4755SOL    HW225728   4.481   1.507   9.327 -4.0860 -2.1641  2.2105
 4756SOL     OW25729   1.618   1.978  16.364 -0.3457  0.2482  0.1781
 4756SOL    HW125730   1.582   2.066  16.370  0.6894  0.5381  2.0239
 4756SOL    HW225731   1.554   1.930  16.416  0.3621  1.2367  1.9745
 4757SOL     OW25732   1.586   0.766   2.348  0.6188  0.0028 -0.9919
 4757SOL    HW125733   1.597   0.692   2.288  0.7298 -0.7665 -0.0335
 4757SOL    HW225734   1.677   0.775   2.375  0.0661  2.4741 -0.0105
 4758SOL     OW25735   3.276   2.120   5.768 -0.4321  0.0310 -0.1244
 4758SOL    HW125736   3.229   2.201   5.787  0.6543  0.4377  0.8018
 4758SOL    HW225737   3.331   2.120   5.847 -1.3711  3.6066  0.4933
 4759SOL     OW25738   4.294   0.354  12.353 -0.2160 -0.1418  0.2392
 4759SOL    HW125739   4.387   0.361  12.373 -0.1932  0.3888 -0.0518
 4759SOL    HW225740   4.264   0.443  12.330 -0.2811 -0.5794 -1.3613
 4760SOL     OW25741   2.795   2.650  13.205 -0.0563  0.3212  0.2555
 4760SOL    HW125742   2.822   2.671  13.294  0.2746  0.9027  0.0220
 4760SOL    HW225743   2.772   2.558  13.216  3.0634 -0.2752  1.5695
 4761SOL     OW25744   1.265   1.083   4.684  0.0154  0.7794  0.2192
 4761SOL    HW125745   1.188   1.031   4.662  0.4507 -1.1818  3.2705
 4761SOL    HW225746   1.321   1.050   4.613 -1.4702  0.4667 -0.7979
 4762SOL     OW25747   2.332   1.891   7.349 -0.2517  1.0915  0.6175
 4762SOL    HW125748   2.255   1.845   7.316 -0.7556  0.0198  3.3495
 4762SOL    HW225749   2.382   1.887   7.267  0.3754 -0.6458  1.1029
 4763SOL     OW25750   1.519   1.167   0.644  0.4532 -0.5230  0.9868
 4763SOL    HW125751   1.468   1.087   0.637 -0.1677 -0.0560  0.1868
 4763SOL    HW225752   1.534   1.183   0.551  1.2576 -1.3861  0.9710
 4764SOL     OW25753   3.145   4.588   7.138  0.8320 -0.3015 -0.1425
 4764SOL    HW125754   3.052   4.581   7.161  1.0673  1.5824  1.3810
 4764SOL    HW225755   3.159   4.649   7.066  0.4907  1.0229  0.9103
 4765SOL     OW25756   2.764   2.942   8.195 -0.5231 -0.3284 -0.2755
 4765SOL    HW125757   2.720   3.002   8.136 -2.0435  0.2004  1.3764
 4765SOL    HW225758   2.849   2.983   8.213 -0.1038 -0.1769 -2.7048
 4766SOL     OW25759   3.975   2.829   1.873 -0.1783 -0.5011  0.0943
 4766SOL    HW125760   4.030   2.751   1.883 -0.5169 -0.7372  0.1404
 4766SOL    HW225761   3.915   2.821   1.947  0.5689  4.5578  1.2505
 4767SOL     OW25762   4.468   4.323   9.372  0.8702 -0.0598 -0.0095
 4767SOL    HW125763   4.420   4.379   9.433 -1.7321 -1.5171 -0.6802
 4767SOL    HW225764   4.401   4.270   9.328  0.0541  0.2179  0.8845
 4768SOL     OW25765   1.800   3.476   3.143  0.0816 -0.2384 -0.1283
 4768SOL    HW125766   1.779   3.505   3.055  3.2112 -0.9168 -1.0668
 4768SOL    HW225767   1.863   3.406   3.130 -0.4616 -0.4890 -1.3278
 4769SOL     OW25768   1.364   0.753   8.624  0.1538  0.3943  0.0055
 4769SOL    HW125769   1.272   0.762   8.600 -0.4443 -0.2384  2.1567
 4769SOL    HW225770   1.413   0.791   8.551 -2.9012 -0.9649 -2.7708
 4770SOL     OW25771   2.327   2.513  13.902  0.4465  0.1278  0.8844
 4770SOL    HW125772   2.399   2.502  13.839 -0.7335  1.1166 -0.6264
 4770SOL    HW225773   2.265   2.441  13.893 -0.1992  0.6316  1.3678
 4771SOL     OW25774   0.033   3.311   8.883 -0.3423 -0.0418  0.1832
 4771SOL    HW125775   0.106   3.275   8.933 -0.5176 -1.2500 -0.4192
 4771SOL    HW225776   4.677   3.251   8.887  1.9824 -3.0022 -0.7896
 4772SOL     OW25777   0.881   0.910   1.682 -0.3118  0.6799  0.1978
 4772SOL    HW125778   0.804   0.855   1.670  0.6072 -1.0080  1.8984
 4772SOL    HW225779   0.859   0.967   1.756 -0.4488 -0.8363  1.3231
 4773SOL     OW25780   0.891   1.667   5.125 -0.4594  0.0525 -0.0825
 4773SOL    HW125781   0.860   1.747   5.167 -2.2684  0.5129 -2.3012
 4773SOL    HW225782   0.941   1.697   5.049 -1.0324  0.2100 -0.3921
 4774SOL     OW25783   0.335   2.073  10.045 -0.2711 -0.0600 -0.2133
 4774SOL    HW125784   0.344   2.023  10.127  1.0287 -0.3045 -0.5185
 4774SOL    HW225785   0.411   2.129  10.057  0.4519 -1.6364  2.8062
 4775SOL     OW25786   0.725   2.937   3.131  0.4311  0.2141 -0.0781
 4775SOL    HW125787   0.677   2.898   3.058 -0.8597 -0.4478  1.1016
 4775SOL    HW225788   0.677   2.892   3.202  0.9457  0.4690  0.4283
 4776SOL     OW25789   0.975   2.425   6.841 -0.1296 -0.4377  0.0505
 4776SOL    HW125790   0.968   2.366   6.915 -0.7915  0.8865  1.0428
 4776SOL    HW225791   1.068   2.440   6.823 -0.1347 -1.7439 -1.0709
 4777SOL     OW25792   4.396   2.342   2.583  0.8128  0.0157 -0.2809
 4777SOL    HW125793   4.405   2.329   2.489  1.2543 -0.7404 -0.1360
 4777SOL    HW225794   4.301   2.336   2.592  0.9275 -0.9483  0.3529
 4778SOL     OW25795   4.317   2.230   7.309  0.0753  0.1109 -0.0634
 4778SOL    HW125796   4.247   2.186   7.262  0.0580  0.7733 -0.6523
 4778SOL    HW225797   4.385   2.163   7.319 -1.8676 -1.9569 -0.7897
 4779SOL     OW25798   2.288   4.039   5.905  0.0238  0.3609  0.5268
 4779SOL    HW125799   2.204   4.004   5.934 -0.4167  0.3390 -0.7987
 4779SOL    HW225800   2.359   3.974   5.909 -1.3944 -1.2001  0.4834
 4780SOL     OW25801   1.585   3.624   1.467 -0.5300 -0.6229  0.3571
 4780SOL    HW125802   1.558   3.533   1.476 -0.1883 -0.8020 -0.3612
 4780SOL    HW225803   1.501   3.668   1.479 -0.5217  0.1724 -2.3943
 4781SOL     OW25804   2.490   3.824   3.159  0.0620  0.3894 -0.1462
 4781SOL    HW125805   2.506   3.732   3.176  0.7010  0.2330 -1.5889
 4781SOL    HW225806   2.552   3.878   3.207 -1.0228  1.7224 -0.2136
 4782SOL     OW25807   1.556   2.254  12.715 -0.2609  0.1671 -0.6827
 4782SOL    HW125808   1.553   2.348  12.702 -1.8233  0.4373  1.8046
 4782SOL    HW225809   1.591   2.256  12.804  1.9066  1.7136 -1.5698
 4783SOL     OW25810   3.666   2.966  11.087  0.3963 -0.0047  0.6066
 4783SOL    HW125811   3.641   3.049  11.127 -1.3389  0.1724 -0.8147
 4783SOL    HW225812   3.591   2.944  11.032 -1.1539  0.8925  2.3581
 4784SOL     OW25813   0.186   1.100   8.936  0.2906 -0.7964 -0.1132
 4784SOL    HW125814   0.099   1.139   8.944 -0.0333 -1.0744 -2.0761
 4784SOL    HW225815   0.196   1.110   8.841  1.4943 -1.9612 -0.1061
 4785SOL     OW25816   0.808   4.700   2.351  1.0276  0.3730  0.0993
 4785SOL    HW125817   0.720   4.670   2.376  1.0474  0.3402  0.1291
 4785SOL    HW225818   0.867   4.634   2.387  1.2662  1.2277  1.2882
 4786SOL     OW25819   3.960   1.339   7.009  0.0281  0.1987  0.0125
 4786SOL    HW125820   3.914   1.277   6.952  0.7127  1.3888 -1.8402
 4786SOL    HW225821   3.993   1.393   6.937  0.3384  1.8424  1.3762
 4787SOL     OW25822   1.739   0.367   6.244  0.6078 -0.0248  0.1024
 4787SOL    HW125823   1.705   0.434   6.185 -1.0240  0.6171  1.7694
 4787SOL    HW225824   1.765   0.299   6.182 -1.0177 -1.1663  0.6450
 4788SOL     OW25825   4.694   4.714   3.688  0.1580 -0.2051 -0.3472
 4788SOL    HW125826   0.040   4.646   3.709  1.6392  0.9095 -1.2371
 4788SOL    HW225827   4.709   0.016   3.595  0.0217 -0.8022 -0.4939
 4789SOL     OW25828   1.283   2.908   0.863 -0.4129  0.5304 -0.1309
 4789SOL    HW125829   1.234   2.939   0.786  1.9425  0.9577 -1.4713
 4789SOL    HW225830   1.374   2.924   0.837 -0.0481  0.4515  1.1273
 4790SOL     OW25831   0.237   1.954   2.879 -0.1499 -0.2789 -0.1295
 4790SOL    HW125832   0.196   2.037   2.905 -0.5299 -0.5118  0.0152
 4790SOL    HW225833   0.319   1.988   2.844 -0.7026 -0.0096 -1.1772
 4791SOL     OW25834   3.618   4.180   3.309  0.2587  0.2851 -0.2016
 4791SOL    HW125835   3.579   4.101   3.344  0.6067  0.9549  1.6865
 4791SOL    HW225836   3.547   4.227   3.265  0.0005 -1.2474 -1.4225
 4792SOL     OW25837   0.940   2.861  12.308  0.2379  0.3871 -0.6749
 4792SOL    HW125838   0.854   2.850  12.267 -1.0852 -0.0859  2.2266
 4792SOL    HW225839   0.951   2.786  12.367 -1.1077 -0.1813 -1.1449
 4793SOL     OW25840   0.788   4.010  12.746 -0.0388  0.6902 -0.3683
 4793SOL    HW125841   0.879   3.979  12.744 -0.1243  0.5149 -1.5882
 4793SOL    HW225842   0.767   3.977  12.659  1.8565  1.0064 -0.9561
 4794SOL     OW25843   2.264   1.891   7.681  0.1648  0.5509 -0.5192
 4794SOL    HW125844   2.297   1.980   7.675  0.7183  0.4334  0.7671
 4794SOL    HW225845   2.344   1.845   7.707 -0.8236 -0.3968  0.8537
 4795SOL     OW25846   3.994   2.394  15.942  0.2836  0.3880  0.2850
 4795SOL    HW125847   3.911   2.432  15.970  0.8111  1.6581  0.1222
 4795SOL    HW225848   3.978   2.299  15.944  1.7777  0.0823 -1.8783
 4796SOL     OW25849   0.686   4.329  16.501 -0.6280  0.3153  0.2721
 4796SOL    HW125850   0.691   4.234  16.511 -2.5717  0.0584 -1.1289
 4796SOL    HW225851   0.612   4.342  16.561 -2.1153  0.4601 -1.5956
 4797SOL     OW25852   4.327   0.530   6.897 -0.3974  0.3624  0.0012
 4797SOL    HW125853   4.356   0.514   6.807  2.2344 -0.6161  1.0100
 4797SOL    HW225854   4.318   0.439   6.925  1.1801  0.0378 -0.5210
 4798SOL     OW25855   3.987   4.512   9.301 -0.1011 -0.4662  0.6922
 4798SOL    HW125856   3.960   4.525   9.210 -0.5992  0.7804  1.0231
 4798SOL    HW225857   4.059   4.450   9.289  1.0303  1.2407 -1.3740
 4799SOL     OW25858   3.163   1.889   6.331 -0.3161 -0.3726 -0.1289
 4799SOL    HW125859   3.225   1.961   6.335 -1.8246  0.8334  2.1325
 4799SOL    HW225860   3.172   1.866   6.424  0.1992 -1.3703 -0.4241
 4800SOL     OW25861   1.013   0.083  14.662  0.4697  0.3304 -0.1725
 4800SOL    HW125862   0.944   0.112  14.602 -1.8938 -2.2538  1.2843
 4800SOL    HW225863   1.033   4.714  14.627  0.0619 -0.3710  1.3749
 4801SOL     OW25864   2.205   2.778  14.278  0.6443  0.3777 -0.3459
 4801SOL    HW125865   2.158   2.800  14.198  0.2986 -0.2487 -0.3194
 4801SOL    HW225866   2.284   2.745  14.236  0.7886  1.0772 -0.6281
 4802SOL     OW25867   0.473   4.700   2.125 -0.2713  0.2281 -0.4224
 4802SOL    HW125868   0.420   4.703   2.045 -2.0608 -2.0992  0.6603
 4802SOL    HW225869   0.501   4.609   2.123 -2.0298 -0.3672  2.1352
 4803SOL     OW25870   0.945   3.802   3.901  0.0435 -0.5820  0.0545
 4803SOL    HW125871   1.018   3.740   3.893  0.4487 -0.1067  0.0098
 4803SOL    HW225872   0.976   3.866   3.836 -2.3045  0.6468  0.1463
 4804SOL     OW25873   2.469   3.405   7.180 -0.2944  0.0359  0.0152
 4804SOL    HW125874   2.498   3.316   7.200 -0.0184  0.1070 -0.0728
 4804SOL    HW225875   2.408   3.405   7.106 -1.3678  0.9594  0.8893
 4805SOL     OW25876   2.572   0.655   6.159 -0.4092 -0.3722 -0.0773
 4805SOL    HW125877   2.529   0.575   6.191  1.1348 -0.6725  1.2471
 4805SOL    HW225878   2.531   0.722   6.214 -2.5939 -1.0667 -0.8635
 4806SOL     OW25879   4.065   0.136   3.622  0.4217 -0.1199 -0.0482
 4806SOL    HW125880   4.015   0.056   3.637 -1.0949  0.3875 -2.3316
 4806SOL    HW225881   4.156   0.104   3.623  0.4072 -0.1176  1.3365
 4807SOL     OW25882   2.095   0.092  16.806 -0.4508 -0.6406  0.0972
 4807SOL    HW125883   2.118   0.000  16.817  1.5706 -0.0977  0.3772
 4807SOL    HW225884   2.177   0.142  16.814 -0.1740 -0.6613 -2.6879
 4808SOL     OW25885   2.123   4.703   3.105  0.5269 -0.3529 -0.2062
 4808SOL    HW125886   2.048   0.036   3.134  1.1279  0.1311  0.4858
 4808SOL    HW225887   2.118   4.621   3.155  2.7442 -0.4982 -0.2146
 4809SOL     OW25888   3.944   2.510   7.186  0.3553 -0.2005 -0.3349
 4809SOL    HW125889   4.037   2.521   7.204  0.3744 -1.9940  0.6142
 4809SOL    HW225890   3.906   2.449   7.249 -1.5745  1.2344 -0.1116
 4810SOL     OW25891   0.378   4.147   4.430 -0.2569  0.6475 -0.8247
 4810SOL    HW125892   0.289   4.155   4.466  1.1300  3.0900  1.9969
 4810SOL    HW225893   0.368   4.057   4.398  0.6693 -0.3740  1.7077
 4811SOL     OW25894   4.432   3.425   4.076 -0.7604 -0.4394  0.2289
 4811SOL    HW125895   4.393   3.373   4.005 -1.1482 -0.4438  0.4424
 4811SOL    HW225896   4.350   3.428   4.126  0.7843 -1.2236  2.8276
 4812SOL     OW25897   2.235   0.096  16.525 -0.2168  0.0527  0.3949
 4812SOL    HW125898   2.186   0.168  16.484 -0.3903 -0.2456  0.0714
 4812SOL    HW225899   2.162   0.041  16.555 -0.6600  0.7724  0.6394
 4813SOL     OW25900   0.632   1.050   5.702 -0.2323  0.1111 -0.1400
 4813SOL    HW125901   0.549   1.003   5.702  0.3829 -0.9611  2.0770
 4813SOL    HW225902   0.598   1.125   5.751  2.3953  0.5538  0.9865
 4814SOL     OW25903   0.638   1.902   8.751 -0.5977 -0.3206  0.3753
 4814SOL    HW125904   0.720   1.951   8.752 -0.5072 -0.5450  2.5110
 4814SOL    HW225905   0.632   1.884   8.844 -0.2115 -0.8551  0.2934
 4815SOL     OW25906   2.354   4.288   5.506 -0.6198 -0.0321 -0.1989
 4815SOL    HW125907   2.373   4.337   5.585 -0.1183 -2.0320  0.9085
 4815SOL    HW225908   2.353   4.360   5.442 -1.4209  0.6913  0.6120
 4816SOL     OW25909   3.295   2.217   3.011  0.5985 -0.1035 -0.2860
 4816SOL    HW125910   3.352   2.279   3.056  0.0435  0.8017 -0.8267
 4816SOL    HW225911   3.351   2.139   3.012  0.8253  0.0752  0.5925
 4817SOL     OW25912   3.515   2.371   7.160 -0.0794 -0.1600 -0.1529
 4817SOL    HW125913   3.583   2.438   7.160 -1.0811  0.8441  2.6858
 4817SOL    HW225914   3.516   2.346   7.252 -2.0916 -0.4922 -0.2115
 4818SOL     OW25915   0.794   1.827   0.879  0.0114 -0.2953  0.2679
 4818SOL    HW125916   0.810   1.849   0.787  0.9644 -1.0221  0.2637
 4818SOL    HW225917   0.726   1.892   0.901 -0.1529 -0.4600  0.2441
 4819SOL     OW25918   0.658   3.073   4.467 -0.9538 -0.6343 -0.2635
 4819SOL    HW125919   0.707   3.097   4.546  0.1594 -0.0773 -1.1173
 4819SOL    HW225920   0.645   2.980   4.486 -1.7369 -0.6296 -0.8134
 4820SOL     OW25921   1.869   4.316   8.993  0.6756 -0.2496 -0.1348
 4820SOL    HW125922   1.938   4.266   8.950  0.7925 -2.5134  2.7052
 4820SOL    HW225923   1.839   4.250   9.056  1.1807 -0.0270  0.3358
 4821SOL     OW25924   0.541   3.797   4.822  0.6254 -0.2452  0.1473
 4821SOL    HW125925   0.488   3.811   4.900 -0.9219 -0.3889 -0.8953
 4821SOL    HW225926   0.472   3.781   4.757  0.5465  1.2221 -0.1176
 4822SOL     OW25927   1.152   4.266   7.163  0.1756  0.5183 -0.1317
 4822SOL    HW125928   1.101   4.198   7.206  0.4838  0.6154  0.3840
 4822SOL    HW225929   1.226   4.212   7.135  0.1544  1.1804 -1.4746
 4823SOL     OW25930   1.733   0.968   3.381 -0.2031  0.2024 -0.0662
 4823SOL    HW125931   1.646   0.971   3.421 -0.8484  0.7240 -1.5392
 4823SOL    HW225932   1.716   1.008   3.297 -2.3147  0.7922  0.6618
 4824SOL     OW25933   0.237   1.907  11.478  0.5303  0.1889  0.0520
 4824SOL    HW125934   0.217   2.000  11.488 -0.4329 -0.2550  2.4481
 4824SOL    HW225935   0.171   1.877  11.541  0.5449  1.3080  0.6016
 4825SOL     OW25936   3.900   2.155   7.175  0.1046 -0.3050  0.1758
 4825SOL    HW125937   3.870   2.167   7.085  1.7771  0.7311 -0.2195
 4825SOL    HW225938   3.990   2.127   7.160  0.7609  1.1613  1.5156
 4826SOL     OW25939   0.904   2.684   9.473 -0.2707  0.1566 -0.1565
 4826SOL    HW125940   0.933   2.719   9.389  3.1438 -1.4743  0.3324
 4826SOL    HW225941   0.986   2.648   9.506 -1.2031 -0.0367  1.9525
 4827SOL     OW25942   4.053   2.529   7.514  0.0045 -0.1875 -0.0944
 4827SOL    HW125943   4.060   2.624   7.502 -0.3199 -0.2791 -0.9849
 4827SOL    HW225944   4.112   2.498   7.446 -1.6001  0.2578 -1.6953
 4828SOL     OW25945   0.140   3.576   6.619  0.4188 -0.9810 -0.3466
 4828SOL    HW125946   0.165   3.505   6.677 -0.8866 -1.1466  0.0236
 4828SOL    HW225947   0.046   3.563   6.609  0.2127  1.0817 -1.1001
 4829SOL     OW25948   4.380   0.923   2.040  0.1465  0.0662  0.5061
 4829SOL    HW125949   4.366   0.833   2.069  1.6212 -1.0882 -2.3391
 4829SOL    HW225950   4.312   0.970   2.088  1.1726  3.5130 -1.4545
 4830SOL     OW25951   1.009   3.872  14.306 -0.0573 -0.0810  0.8275
 4830SOL    HW125952   1.104   3.866  14.295 -0.2028  0.2421 -0.5919
 4830SOL    HW225953   0.995   3.964  14.284 -2.2340 -0.9095 -1.1858
 4831SOL     OW25954   3.375   0.935   3.518  0.1816 -0.4638  0.0343
 4831SOL    HW125955   3.358   0.955   3.426 -0.1209 -0.0726  0.1777
 4831SOL    HW225956   3.292   0.954   3.561  1.2163 -0.8623  2.1991
 4832SOL     OW25957   0.544   0.058   9.668 -0.5460  0.3520  0.8076
 4832SOL    HW125958   0.457   0.096   9.661  1.2820  3.9057 -2.5809
 4832SOL    HW225959   0.557   0.058   9.763 -1.1219  0.2140  0.8871
 4833SOL     OW25960   3.904   4.669   8.523  0.5926  0.1182  0.2536
 4833SOL    HW125961   3.860   4.584   8.527  2.2234 -0.7851 -1.1572
 4833SOL    HW225962   3.973   4.652   8.458 -1.0256 -2.4501 -0.7713
 4834SOL     OW25963   4.652   4.688  15.745 -0.2159  0.3350  0.1392
 4834SOL    HW125964   4.694   0.055  15.731 -0.7302 -0.0372 -3.4965
 4834SOL    HW225965   4.569   4.708  15.702 -0.5874 -0.0113  0.6870
 4835SOL     OW25966   2.486   3.675  11.050  0.3313 -0.1297 -0.4699
 4835SOL    HW125967   2.418   3.609  11.067 -0.0312  0.4836  0.4667
 4835SOL    HW225968   2.452   3.754  11.093  1.6077  0.1261  0.0476
 4836SOL     OW25969   1.991   1.551   1.727  0.0935 -0.2624 -0.1751
 4836SOL    HW125970   1.948   1.621   1.775  0.9753  1.1413 -1.4411
 4836SOL    HW225971   2.053   1.597   1.670 -1.3412  3.2166  1.0842
 4837SOL     OW25972   0.101   0.273   3.728 -0.5815  0.0063 -0.3091
 4837SOL    HW125973   0.195   0.282   3.717 -0.3536 -1.7418  0.1092
 4837SOL    HW225974   0.091   0.178   3.736  1.3400 -0.2311 -0.6397
 4838SOL     OW25975   3.651   2.415  11.846 -0.0406 -0.0727  0.3281
 4838SOL    HW125976   3.727   2.374  11.887 -1.9694 -2.1953  1.8075
 4838SOL    HW225977   3.587   2.386  11.911 -0.5062  4.7842  2.0532
 4839SOL     OW25978   0.508   0.197   0.158 -0.1488 -0.2952  0.2740
 4839SOL    HW125979   0.519   0.223   0.067 -2.0650 -0.4012  0.0295
 4839SOL    HW225980   0.437   0.134   0.153  0.2589 -0.5989 -1.4875
 4840SOL     OW25981   3.877   3.647   5.199 -0.0430 -0.0557  0.0142
 4840SOL    HW125982   3.963   3.620   5.229  0.5278  0.8626 -0.7722
 4840SOL    HW225983   3.897   3.740   5.184 -1.3150  0.0795 -0.9172
 4841SOL     OW25984   0.832   2.334   6.561  0.0201 -0.4571 -0.3106
 4841SOL    HW125985   0.923   2.305   6.564 -0.3448 -1.7039 -1.3782
 4841SOL    HW225986   0.827   2.428   6.576  0.7866 -0.5400  0.4692
 4842SOL     OW25987   2.338   4.034  15.497 -0.4501  0.3175 -0.2308
 4842SOL    HW125988   2.433   4.037  15.490 -0.2497 -1.5414  1.7324
 4842SOL    HW225989   2.324   4.113  15.549  2.7329  0.3619  0.5630
 4843SOL     OW25990   3.763   1.162  12.089  0.1576 -0.1906 -0.4429
 4843SOL    HW125991   3.797   1.192  12.173  1.5034  2.6429 -2.0014
 4843SOL    HW225992   3.671   1.187  12.099  0.1489 -0.6973  0.7944
 4844SOL     OW25993   2.856   0.222   4.194 -0.0497 -0.1276  0.4561
 4844SOL    HW125994   2.940   0.183   4.171 -0.1560 -0.3630  0.4623
 4844SOL    HW225995   2.835   0.249   4.105 -0.6046 -0.2208  0.5549
 4845SOL     OW25996   1.507   3.023  12.913  0.1115  0.3479  0.3059
 4845SOL    HW125997   1.505   2.985  12.825 -1.2116 -1.4497  1.1021
 4845SOL    HW225998   1.494   3.113  12.884  0.5332  0.3989  0.2687
 4846SOL     OW25999   4.473   1.403   0.481 -0.6477  0.5028 -0.4320
 4846SOL    HW126000   4.423   1.329   0.515  1.5597 -0.4710  0.6949
 4846SOL    HW226001   4.556   1.363   0.458 -0.4398  0.9858 -0.5158
 4847SOL     OW26002   4.256   2.562   9.293 -0.0279  0.1012  0.0971
 4847SOL    HW126003   4.188   2.539   9.230  0.2372 -1.9582  0.5622
 4847SOL    HW226004   4.225   2.521   9.374 -1.2899 -2.2781 -1.6219
 4848SOL     OW26005   0.935   1.826  17.309 -0.2383  0.1699 -0.4422
 4848SOL    HW126006   0.957   1.822  17.216 -0.9195  0.8578 -0.6221
 4848SOL    HW226007   0.879   1.903  17.309 -2.9584 -1.8226  3.1485
 4849SOL     OW26008   2.703   2.934  17.672  0.2482  0.2503 -0.0527
 4849SOL    HW126009   2.724   3.026   0.010 -0.4978  0.4260 -0.0422
 4849SOL    HW226010   2.634   2.937  17.606 -1.2917 -0.5968  1.4991
 4850SOL     OW26011   3.079   0.685   8.897 -0.4228 -0.1278  0.0957
 4850SOL    HW126012   2.989   0.660   8.873 -0.3513  1.3267 -1.7258
 4850SOL    HW226013   3.075   0.724   8.984  1.4074 -2.0547  1.0499
 4851SOL     OW26014   3.983   4.679   6.005 -0.1068  0.4905  0.4050
 4851SOL    HW126015   4.030   4.662   5.924  0.4963 -0.9705  1.0581
 4851SOL    HW226016   3.950   4.591   6.024 -0.2273  0.4399 -0.0520
 4852SOL     OW26017   3.085   1.114  14.311  0.0688  0.2396  0.2159
 4852SOL    HW126018   3.178   1.131  14.322  0.1614  0.6290 -1.1582
 4852SOL    HW226019   3.064   1.122  14.404  1.0592  0.9723  0.3730
 4853SOL     OW26020   0.375   1.710   1.243  0.7225  0.0530  0.0015
 4853SOL    HW126021   0.461   1.677   1.270  0.3269  0.9954  2.4188
 4853SOL    HW226022   0.397   1.799   1.217 -0.4356  0.0908 -0.8325
 4854SOL     OW26023   0.478   1.535   9.611 -0.1438 -0.6892 -0.0513
 4854SOL    HW126024   0.428   1.498   9.538  1.1328 -2.4683 -0.0254
 4854SOL    HW226025   0.552   1.475   9.608  0.6911  0.2370  1.6864
 4855SOL     OW26026   2.520   1.455   7.203  0.6304  0.5558  0.0576
 4855SOL    HW126027   2.514   1.517   7.130  0.3426 -0.1227 -0.4995
 4855SOL    HW226028   2.563   1.377   7.167  0.4278  1.0917 -1.3378
 4856SOL     OW26029   2.980   3.361   4.317 -0.5537  0.4394 -0.9232
 4856SOL    HW126030   3.075   3.357   4.325 -0.7865 -0.4452  1.2370
 4856SOL    HW226031   2.950   3.436   4.369  0.2232 -0.3301  0.6288
 4857SOL     OW26032   2.801   3.012   6.901 -0.4926  0.2374 -0.1427
 4857SOL    HW126033   2.769   2.966   6.979  0.7848  1.3706  1.0375
 4857SOL    HW226034   2.732   3.076   6.885  0.0345  0.4876 -1.3544
 4858SOL     OW26035   1.493   0.157   7.660 -0.3461 -0.4021  0.3783
 4858SOL    HW126036   1.439   0.088   7.621  1.6740 -1.2770 -0.8298
 4858SOL    HW226037   1.560   0.170   7.593 -0.9275 -0.1133 -0.1455
 4859SOL     OW26038   1.726   2.298   7.843  0.1279 -0.1091 -0.2946
 4859SOL    HW126039   1.802   2.275   7.790  0.3232 -0.1961  0.0243
 4859SOL    HW226040   1.657   2.318   7.780  0.1833  1.4375  0.1387
 4860SOL     OW26041   1.367   1.565   8.207 -0.3602  0.3420 -0.0177
 4860SOL    HW126042   1.329   1.540   8.291 -1.4448 -3.6743 -1.7055
 4860SOL    HW226043   1.450   1.519   8.224 -0.9899 -1.0480 -0.6683
 4861SOL     OW26044   0.620   0.455   6.833  0.4077  0.5258 -0.0389
 4861SOL    HW126045   0.539   0.407   6.850  1.2982 -0.9431  0.0940
 4861SOL    HW226046   0.590   0.535   6.875  2.1567  0.8280  0.6282
 4862SOL     OW26047   4.692   2.982   3.537 -0.1768  0.0777  0.0559
 4862SOL    HW126048   4.632   3.017   3.603 -0.4158 -2.2989  1.1148
 4862SOL    HW226049   4.702   2.893   3.571  2.2597 -0.1210 -1.1647
 4863SOL     OW26050   4.652   3.273   5.946  0.4795  0.2090 -0.8312
 4863SOL    HW126051   0.007   3.262   5.884  1.3472  1.6983 -0.0756
 4863SOL    HW226052   4.656   3.368   5.955  0.7045 -0.1329  2.4054
 4864SOL     OW26053   2.323   2.520   8.032 -0.2857 -0.2501  0.0903
 4864SOL    HW126054   2.244   2.470   8.009 -0.0157 -1.4428  1.7103
 4864SOL    HW226055   2.317   2.608   7.995  0.0260 -0.2137  0.1264
 4865SOL     OW26056   4.100   4.384   4.588 -0.3115 -0.2260 -0.2360
 4865SOL    HW126057   4.183   4.360   4.629 -1.3984  0.4278  2.3389
 4865SOL    HW226058   4.129   4.385   4.497 -2.2652 -1.2743 -0.8747
 4866SOL     OW26059   4.198   2.585   3.471 -0.9203  0.1880  0.0449
 4866SOL    HW126060   4.222   2.601   3.562 -1.5155  0.6927  0.1164
 4866SOL    HW226061   4.200   2.490   3.476 -2.7683  0.2422  2.1150
 4867SOL     OW26062   1.568   2.279   6.188 -0.5977 -0.0192  0.2056
 4867SOL    HW126063   1.585   2.354   6.246  1.7994 -0.8823  0.6405
 4867SOL    HW226064   1.575   2.319   6.101 -0.0368  0.9609  0.6866
 4868SOL     OW26065   3.818   0.601   5.752  0.1696 -0.5847  0.2075
 4868SOL    HW126066   3.805   0.636   5.840 -1.8342 -0.8366 -0.0041
 4868SOL    HW226067   3.876   0.524   5.761  1.0782  0.0587 -0.1462
 4869SOL     OW26068   3.754   2.857  10.815 -0.3830 -0.1019  0.0762
 4869SOL    HW126069   3.752   2.892  10.904  2.1208 -1.6888  0.7774
 4869SOL    HW226070   3.839   2.812  10.810 -0.8441 -1.2049  1.9394
 4870SOL     OW26071   0.366   0.753  10.550 -0.4849 -0.0899  0.6654
 4870SOL    HW126072   0.355   0.679  10.491  0.3412  0.3005  0.0278
 4870SOL    HW226073   0.399   0.816  10.486  0.0194  0.4240  1.4288
 4871SOL     OW26074   1.297   1.270   2.008 -0.4559 -0.4979 -0.0962
 4871SOL    HW126075   1.359   1.201   1.986  1.4800  0.5600  2.0339
 4871SOL    HW226076   1.261   1.295   1.923  2.7446  2.8290 -0.4850
 4872SOL     OW26077   1.638   1.786  16.174 -0.2576  0.5317  0.2342
 4872SOL    HW126078   1.622   1.844  16.248 -0.3345  1.1072 -0.2310
 4872SOL    HW226079   1.614   1.847  16.103  1.9182 -0.2439 -1.1527
 4873SOL     OW26080   0.763   0.421   2.449  0.2150 -0.4111  0.2921
 4873SOL    HW126081   0.818   0.366   2.394  0.9249  0.5055  0.0871
 4873SOL    HW226082   0.696   0.355   2.469 -0.4883  0.5840  1.2145
 4874SOL     OW26083   2.512   1.718   7.703  0.1417 -0.6766  0.3369
 4874SOL    HW126084   2.515   1.625   7.678 -1.9295 -0.3712 -1.0351
 4874SOL    HW226085   2.563   1.710   7.784 -0.4236 -2.5767  0.5066
 4875SOL     OW26086   3.559   4.321  16.810 -0.0632 -0.4246  0.1101
 4875SOL    HW126087   3.589   4.318  16.901 -2.4926  1.3268  0.9822
 4875SOL    HW226088   3.551   4.229  16.785  0.5192 -0.3586 -0.3225
 4876SOL     OW26089   3.973   2.291   2.870 -0.1259  0.2013 -0.6548
 4876SOL    HW126090   3.921   2.215   2.895 -1.5007  1.6582  0.9278
 4876SOL    HW226091   4.056   2.266   2.909  0.5308  1.7735 -1.0592
 4877SOL     OW26092   2.897   0.584  15.772 -0.0304  0.3208 -0.0121
 4877SOL    HW126093   2.844   0.584  15.852  3.3210  0.2735  2.2297
 4877SOL    HW226094   2.968   0.522  15.791 -0.7150 -0.5709 -0.3525
 4878SOL     OW26095   2.956   0.450   8.246  0.0635  0.2101 -0.1044
 4878SOL    HW126096   2.919   0.454   8.158 -3.3969  0.0179  1.3488
 4878SOL    HW226097   2.870   0.462   8.288 -0.0722 -1.5213  0.1293
 4879SOL     OW26098   4.281   2.876   5.296  0.3171  1.0574  0.6102
 4879SOL    HW126099   4.237   2.920   5.223 -0.5353 -1.3178 -0.2901
 4879SOL    HW226100   4.338   2.820   5.243 -1.2489 -0.2219  0.2836
 4880SOL     OW26101   0.421   2.722   7.219  0.4156 -0.1818 -0.4001
 4880SOL    HW126102   0.376   2.674   7.150 -0.4238 -2.5402  1.8006
 4880SOL    HW226103   0.419   2.653   7.285  0.6522 -0.0912 -0.3005
 4881SOL     OW26104   2.227   0.919   7.447 -0.2565 -0.5052 -0.0292
 4881SOL    HW126105   2.150   0.878   7.485 -1.5729  0.9002 -1.1584
 4881SOL    HW226106   2.302   0.869   7.478  0.3070 -0.0945 -0.7032
 4882SOL     OW26107   1.262   2.982   4.135 -0.8620 -0.7418  0.1668
 4882SOL    HW126108   1.270   2.909   4.073 -2.6698 -0.0415 -0.8849
 4882SOL    HW226109   1.174   2.964   4.167 -1.9549  1.9104 -1.3085
 4883SOL     OW26110   0.610   0.793   5.948 -0.4780 -0.5335 -0.0209
 4883SOL    HW126111   0.578   0.836   6.027  0.9107  3.0377 -1.3836
 4883SOL    HW226112   0.531   0.797   5.894  0.2219  2.7414 -0.8311
 4884SOL     OW26113   3.760   2.724   8.014  0.1116  0.5026 -0.0327
 4884SOL    HW126114   3.823   2.660   8.047 -0.4661  1.0202  2.0306
 4884SOL    HW226115   3.732   2.689   7.929 -0.3687  0.5713  0.0971
 4885SOL     OW26116   0.785   2.891   5.203  0.3453 -0.4679  0.1463
 4885SOL    HW126117   0.844   2.936   5.143 -0.6352 -1.1177 -1.2888
 4885SOL    HW226118   0.748   2.827   5.143  1.4771 -1.2594  0.3044
 4886SOL     OW26119   3.733   1.864   5.415 -0.1087 -0.4467  0.1181
 4886SOL    HW126120   3.744   1.952   5.380 -1.1304  0.8462  2.9862
 4886SOL    HW226121   3.683   1.830   5.341  1.6671  2.0561 -2.2181
 4887SOL     OW26122   3.333   2.953   8.846 -0.0533  0.0508 -0.5903
 4887SOL    HW126123   3.384   2.970   8.767 -2.4065 -0.1469 -2.1651
 4887SOL    HW226124   3.252   2.998   8.823  0.9859  2.4821  0.6124
 4888SOL     OW26125   1.061   0.843   5.833  0.2318 -0.0582 -0.0695
 4888SOL    HW126126   0.973   0.878   5.845 -0.2124 -0.6276 -1.7367
 4888SOL    HW226127   1.113   0.864   5.911 -0.0610  1.0779 -0.1844
 4889SOL     OW26128   1.851   3.381   7.630 -0.1970  0.6181 -0.0808
 4889SOL    HW126129   1.887   3.363   7.717 -1.7394  1.2013  0.6826
 4889SOL    HW226130   1.908   3.329   7.573 -2.5487  0.3916 -2.2109
 4890SOL     OW26131   0.922   2.520  13.141 -0.5613 -0.0188 -0.5415
 4890SOL    HW126132   0.974   2.596  13.114  0.8884 -0.3619  1.2526
 4890SOL    HW226133   0.937   2.526  13.235  2.7671  0.6184 -1.1004
 4891SOL     OW26134   3.903   1.421   3.380 -0.4129  0.2263  0.0008
 4891SOL    HW126135   3.841   1.493   3.379 -0.6974  0.0110  2.2646
 4891SOL    HW226136   3.968   1.461   3.322 -0.5260 -0.3742 -0.5388
 4892SOL     OW26137   2.571   4.078   4.188  0.3958  0.2242 -0.3341
 4892SOL    HW126138   2.582   4.173   4.195 -0.9548  0.4174 -0.8375
 4892SOL    HW226139   2.646   4.039   4.232 -0.3669 -1.6751 -0.7528
 4893SOL     OW26140   2.975   2.171   5.018 -0.0508 -0.5110 -0.0578
 4893SOL    HW126141   2.925   2.195   5.096  2.0109 -2.0443  1.6988
 4893SOL    HW226142   3.064   2.192   5.047  0.2451 -0.6360 -0.8654
 4894SOL     OW26143   3.710   3.612   4.509  0.1957 -0.0450  0.4922
 4894SOL    HW126144   3.695   3.691   4.561  0.7352  0.5762 -0.3164
 4894SOL    HW226145   3.659   3.639   4.433  3.2167  2.0091 -0.7654
 4895SOL     OW26146   2.319   2.896  11.423  0.4388 -0.3216  0.1021
 4895SOL    HW126147   2.277   2.866  11.504 -0.8304  1.6374  0.1751
 4895SOL    HW226148   2.250   2.874  11.360 -0.5666 -2.0978  1.8160
 4896SOL     OW26149   3.824   3.897   8.429 -0.4814 -0.2836 -0.7810
 4896SOL    HW126150   3.761   3.841   8.384 -0.8312  0.5473 -1.3351
 4896SOL    HW226151   3.792   3.984   8.406  0.1308  1.2456  4.0855
 4897SOL     OW26152   1.170   2.831   8.806 -0.7256 -0.5508 -0.5274
 4897SOL    HW126153   1.119   2.757   8.839  1.2281 -1.6275  0.1260
 4897SOL    HW226154   1.253   2.802   8.844 -1.2548 -2.1015 -0.5285
 4898SOL     OW26155   4.587   1.496   5.827 -0.1965 -0.2477 -0.4568
 4898SOL    HW126156   4.539   1.572   5.794 -0.7227 -0.1828  0.4528
 4898SOL    HW226157   4.649   1.474   5.758  0.0895 -0.9686  0.0341
 4899SOL     OW26158   0.329   3.760   8.566  0.1544 -0.2600  0.5423
 4899SOL    HW126159   0.377   3.809   8.632  1.2070  0.7424 -0.9635
 4899SOL    HW226160   0.295   3.828   8.507 -1.1890 -2.5696 -1.3709
 4900SOL     OW26161   3.301   4.476   8.213  0.6878  0.1915  0.0500
 4900SOL    HW126162   3.273   4.567   8.204  0.6925  0.1173 -0.7056
 4900SOL    HW226163   3.227   4.441   8.164  0.9196  1.2600 -1.0615
 4901SOL     OW26164   1.261   2.730   5.607  0.2610 -0.6308  0.2947
 4901SOL    HW126165   1.285   2.659   5.547 -0.3415 -0.7820  0.2303
 4901SOL    HW226166   1.253   2.811   5.556  0.1865  0.9700  2.8881
 4902SOL     OW26167   3.712   0.144   7.691  0.0357 -0.5342 -0.2440
 4902SOL    HW126168   3.633   0.155   7.638 -0.2720 -2.0128 -0.0947
 4902SOL    HW226169   3.688   0.219   7.746  1.7559 -0.1507 -0.0070
 4903SOL     OW26170   2.291   3.251   0.285 -0.3180 -0.2260 -0.2741
 4903SOL    HW126171   2.326   3.307   0.216 -0.2543 -2.0005 -1.6851
 4903SOL    HW226172   2.371   3.202   0.305 -0.4511 -0.6173 -0.6994
 4904SOL     OW26173   3.823   3.180  10.408 -0.3952 -0.0831  0.6593
 4904SOL    HW126174   3.831   3.127  10.487 -0.2698 -1.4767 -0.2936
 4904SOL    HW226175   3.910   3.219  10.400 -0.2112 -0.1557  2.3315
 4905SOL     OW26176   1.794   1.752   6.498 -0.0421 -0.1757  0.3233
 4905SOL    HW126177   1.806   1.824   6.560 -1.2284  0.0381  0.3110
 4905SOL    HW226178   1.701   1.760   6.475 -0.0239 -2.4107 -0.4811
 4906SOL     OW26179   1.202   2.091   6.594  0.0002 -0.8531 -0.6515
 4906SOL    HW126180   1.150   2.028   6.544 -2.1982  0.1811  0.3201
 4906SOL    HW226181   1.202   2.048   6.680  0.1741 -0.7542 -0.6016
 4907SOL     OW26182   1.499   3.863   2.503 -0.0069  0.0813 -0.1274
 4907SOL    HW126183   1.587   3.882   2.472 -0.4710 -0.9428 -2.0986
 4907SOL    HW226184   1.453   3.830   2.426  1.0744  0.0707 -0.7691
 4908SOL     OW26185   3.023   2.410   7.950  0.0519 -0.2580  0.0971
 4908SOL    HW126186   2.966   2.483   7.927  1.0475  0.0973 -1.2460
 4908SOL    HW226187   3.069   2.383   7.870  1.6430  0.1398  0.8953
 4909SOL     OW26188   2.266   2.319   9.347 -0.1218  0.3399  0.3890
 4909SOL    HW126189   2.279   2.346   9.256  1.6886  0.7972  0.7844
 4909SOL    HW226190   2.196   2.376   9.379 -0.1423  0.9308 -0.6835
 4910SOL     OW26191   2.399   0.653   1.100 -0.3296 -0.2798 -0.7134
 4910SOL    HW126192   2.333   0.716   1.130  0.4141  0.2227 -0.1150
 4910SOL    HW226193   2.394   0.674   1.007  0.6220  0.7453 -0.5405
 4911SOL     OW26194   4.365   3.181   2.775 -0.0253 -0.7391  0.2980
 4911SOL    HW126195   4.443   3.221   2.736 -0.0179  1.2577  2.3290
 4911SOL    HW226196   4.291   3.221   2.730  0.0432 -0.0422  0.8045
 4912SOL     OW26197   2.279   0.280   3.129  0.4109  0.3359  0.2186
 4912SOL    HW126198   2.223   0.239   3.194  1.4715  2.0795  2.2177
 4912SOL    HW226199   2.361   0.235   3.149  0.1164 -0.6139 -0.7260
 4913SOL     OW26200   0.964   1.400   1.823 -0.2137  0.0846  0.3508
 4913SOL    HW126201   0.895   1.466   1.827 -0.8430 -0.5682  0.2479
 4913SOL    HW226202   0.918   1.325   1.859 -1.3759 -0.3187 -1.9617
 4914SOL     OW26203   1.702   1.242   7.283 -0.1626 -0.1616  0.1462
 4914SOL    HW126204   1.622   1.193   7.300 -2.2846  2.4356 -2.4544
 4914SOL    HW226205   1.689   1.245   7.188  1.9899  1.0264 -0.1135
 4915SOL     OW26206   3.127   0.528   2.942  0.3543  0.0520  0.7585
 4915SOL    HW126207   3.115   0.619   2.971  4.1250  0.2570  1.6483
 4915SOL    HW226208   3.050   0.481   2.971 -0.6966  2.6328  2.1900
 4916SOL     OW26209   4.563   1.214   6.894  0.0778 -0.4309  0.1282
 4916SOL    HW126210   4.468   1.211   6.893  0.1498 -1.6597 -1.3769
 4916SOL    HW226211   4.579   1.184   6.805 -1.2664 -0.8559  0.0424
 4917SOL     OW26212   3.182   0.280   3.553 -0.0966  0.4414  0.7547
 4917SOL    HW126213   3.108   0.242   3.601 -0.3031 -1.6738 -1.2236
 4917SOL    HW226214   3.155   0.268   3.462  1.1269 -1.4856  0.6387
 4918SOL     OW26215   0.447   2.214   8.720  0.0438 -0.0976  0.1383
 4918SOL    HW126216   0.512   2.271   8.763 -2.1000  0.7968  2.1635
 4918SOL    HW226217   0.429   2.152   8.790  2.4903 -1.8352 -0.7548
 4919SOL     OW26218   0.871   0.851   1.307  0.2814 -0.5752 -0.3971
 4919SOL    HW126219   0.872   0.765   1.349 -0.9429 -0.4836 -0.1611
 4919SOL    HW226220   0.857   0.833   1.214 -0.9327 -0.7600 -0.1793
 4920SOL     OW26221   0.773   1.444   5.022 -0.8883 -0.2552  0.2361
 4920SOL    HW126222   0.822   1.517   5.059  0.5174 -0.9512 -0.2436
 4920SOL    HW226223   0.723   1.415   5.099  0.1848  0.3095  1.1459
 4921SOL     OW26224   1.814   2.831   5.564  1.0238 -0.1783 -0.3062
 4921SOL    HW126225   1.752   2.861   5.630  1.2687  0.3703 -0.3270
 4921SOL    HW226226   1.881   2.796   5.623  0.4959 -0.4674  0.1238
 4922SOL     OW26227   1.852   3.398   4.751  0.1695  0.7989  0.7010
 4922SOL    HW126228   1.853   3.466   4.683  3.1794  0.0606  0.0213
 4922SOL    HW226229   1.756   3.401   4.755  0.1051  1.1714 -0.9839
 4923SOL     OW26230   1.383   4.628   9.878  0.5704 -0.3885 -0.3024
 4923SOL    HW126231   1.430   4.703   9.916 -1.1706  0.1379  0.8124
 4923SOL    HW226232   1.450   4.560   9.871 -0.9020 -1.7465 -0.8829
 4924SOL     OW26233   4.469   1.703   4.128  0.4369 -0.0806  0.1911
 4924SOL    HW126234   4.517   1.651   4.064 -0.0518  0.3763 -0.5327
 4924SOL    HW226235   4.511   1.692   4.214 -0.8239 -0.8100  0.7216
 4925SOL     OW26236   0.378   2.148   1.421 -0.5637 -0.3153  0.0457
 4925SOL    HW126237   0.412   2.147   1.332  0.3753  2.6250  0.3864
 4925SOL    HW226238   0.410   2.064   1.454  1.0141  0.8537  1.4941
 4926SOL     OW26239   0.237   0.283   8.992 -0.0285 -0.0587 -0.5198
 4926SOL    HW126240   0.154   0.310   8.954 -1.0981 -1.0764  1.1195
 4926SOL    HW226241   0.296   0.353   8.964  1.0214 -0.2097  1.3221
 4927SOL     OW26242   0.689   2.955   2.064 -0.1025  0.4060 -0.3142
 4927SOL    HW126243   0.687   2.990   1.975 -0.3081  2.0360  0.3222
 4927SOL    HW226244   0.761   2.999   2.111  1.3348 -0.7344 -1.4565
 4928SOL     OW26245   4.208   3.226   7.029  0.5240  0.2523 -0.3474
 4928SOL    HW126246   4.243   3.272   7.106 -0.1994  2.0061 -1.0726
 4928SOL    HW226247   4.283   3.233   6.970  0.8238  0.6951  0.0761
 4929SOL     OW26248   0.137   2.405   0.928  0.4014  0.5381 -0.0552
 4929SOL    HW126249   0.108   2.461   0.856  1.8369 -1.4464 -2.1767
 4929SOL    HW226250   0.189   2.463   0.984  0.4837  0.5876 -0.1817
 4930SOL     OW26251   0.602   2.348   8.262 -0.2417  0.0777 -0.2281
 4930SOL    HW126252   0.533   2.410   8.286  1.7307  1.3232  2.1256
 4930SOL    HW226253   0.599   2.295   8.342 -1.3690  0.6072  0.0797
 4931SOL     OW26254   4.092   2.324   6.321  0.2597  0.0076 -0.5155
 4931SOL    HW126255   4.044   2.298   6.400  0.5210  3.5907  0.8503
 4931SOL    HW226256   4.083   2.419   6.326 -1.2226 -0.1931  0.7065
 4932SOL     OW26257   0.171   1.628   2.838  0.5030 -0.4320 -0.0980
 4932SOL    HW126258   0.156   1.640   2.744  1.5493 -1.2508 -0.3738
 4932SOL    HW226259   0.249   1.682   2.851  0.2214 -0.4490  1.5726
 4933SOL     OW26260   4.302   0.470   6.272 -0.2591 -1.3179  0.0725
 4933SOL    HW126261   4.218   0.433   6.298 -1.3757  1.0599 -0.1109
 4933SOL    HW226262   4.298   0.454   6.178  1.1977 -0.8411 -0.0704
 4934SOL     OW26263   3.134   2.119  11.486  0.0266 -0.2680  0.1935
 4934SOL    HW126264   3.169   2.168  11.560 -1.3807 -0.2323  0.8408
 4934SOL    HW226265   3.161   2.030  11.509 -1.5419 -0.5955  0.8059
 4935SOL     OW26266   2.312   2.589   8.829 -0.3376 -0.3878 -0.0496
 4935SOL    HW126267   2.337   2.559   8.742 -0.3540 -0.1669 -0.1285
 4935SOL    HW226268   2.400   2.586   8.869  0.4431  0.6899 -1.6913
 4936SOL     OW26269   4.065   2.741   6.341 -0.1611  0.1559 -0.5458
 4936SOL    HW126270   4.057   2.783   6.427 -2.5320 -0.5123 -0.4319
 4936SOL    HW226271   4.025   2.655   6.352 -0.8648  0.4788 -0.5998
 4937SOL     OW26272   1.640   3.637  12.078 -0.1774 -0.3439  0.4340
 4937SOL    HW126273   1.641   3.667  12.169 -2.2255 -0.3107  0.4573
 4937SOL    HW226274   1.730   3.608  12.062  1.0265  2.7763  1.4721
 4938SOL     OW26275   2.890   2.649   4.006 -0.1053 -0.0407 -0.1894
 4938SOL    HW126276   2.939   2.575   3.970 -0.5190 -0.4446  0.0797
 4938SOL    HW226277   2.828   2.610   4.067  1.1061 -0.8312  0.5427
 4939SOL     OW26278   3.583   3.121   6.607  0.0431  0.2706 -0.0248
 4939SOL    HW126279   3.626   3.089   6.528 -0.4909 -0.2318 -0.1104
 4939SOL    HW226280   3.660   3.114   6.664  0.3352  1.8859 -0.2134
 4940SOL     OW26281   0.358   1.756   3.055 -0.0504 -0.1660  0.5871
 4940SOL    HW126282   0.453   1.754   3.061  0.0899  0.5419 -1.2878
 4940SOL    HW226283   0.327   1.833   3.007  0.8962  1.5680  2.7666
 4941SOL     OW26284   2.272   2.337  13.645 -0.1729  0.7611  0.1500
 4941SOL    HW126285   2.232   2.304  13.565 -0.9418  1.9561  0.0573
 4941SOL    HW226286   2.317   2.257  13.674  0.4387  0.6526 -1.0914
 4942SOL     OW26287   2.348   0.185   3.511 -0.4123  0.0210  0.1862
 4942SOL    HW126288   2.368   0.189   3.605 -0.2706  1.9973  0.0769
 4942SOL    HW226289   2.264   0.141   3.517  0.0599 -1.0702 -1.3190
 4943SOL     OW26290   1.057   1.243   4.881  0.2341 -0.1284  0.1548
 4943SOL    HW126291   1.028   1.193   4.957 -1.4636  0.2016 -0.2540
 4943SOL    HW226292   0.975   1.284   4.853  1.1232  1.5036 -0.0425
 4944SOL     OW26293   4.216   0.220   9.248  0.4378 -0.5837 -0.2986
 4944SOL    HW126294   4.153   0.184   9.186 -1.3245  1.5189  0.2823
 4944SOL    HW226295   4.181   0.224   9.337 -3.3017 -1.1691 -1.7480
 4945SOL     OW26296   0.068   0.643   9.053 -0.6710  0.2563 -0.0330
 4945SOL    HW126297   0.142   0.592   9.084 -0.5602 -0.1723 -1.0021
 4945SOL    HW226298   0.115   0.715   9.011 -0.1309 -0.6124 -0.9213
 4946SOL     OW26299   0.795   1.483  14.416 -0.2190 -0.0322  0.5763
 4946SOL    HW126300   0.854   1.558  14.417 -1.7481  1.1633 -0.0666
 4946SOL    HW226301   0.778   1.471  14.510 -2.2883 -0.7498  0.1192
 4947SOL     OW26302   3.633   0.251   3.655 -0.0470 -0.3998  0.8311
 4947SOL    HW126303   3.692   0.210   3.591  2.7397  1.5007  2.1933
 4947SOL    HW226304   3.558   0.273   3.600 -0.5573  1.0092  2.0946
 4948SOL     OW26305   3.023   1.675   2.506  0.6355  0.8633 -0.2888
 4948SOL    HW126306   3.059   1.623   2.578 -1.4712  0.4619  0.4566
 4948SOL    HW226307   3.026   1.757   2.554  2.4550  1.1242 -0.8433
 4949SOL     OW26308   1.523   0.609   8.005  0.2401 -0.3588  0.2917
 4949SOL    HW126309   1.578   0.547   7.956  1.4014  1.6451 -0.9828
 4949SOL    HW226310   1.582   0.685   8.006  0.9068 -0.9080  2.2681
 4950SOL     OW26311   4.135   3.403   6.765  0.4037  0.2835 -0.5593
 4950SOL    HW126312   4.176   3.375   6.683 -0.1200  0.2650 -0.8192
 4950SOL    HW226313   4.071   3.472   6.749 -1.1261 -0.9920 -0.0347
 4951SOL     OW26314   3.743   1.806   3.321 -0.1644  0.5100  0.0806
 4951SOL    HW126315   3.780   1.801   3.409  0.5911 -0.5314 -0.2909
 4951SOL    HW226316   3.749   1.713   3.297 -0.5379  0.8000 -1.1622
 4952SOL     OW26317   2.692   3.346  15.321  0.2164 -0.5304  0.0063
 4952SOL    HW126318   2.718   3.254  15.325 -3.3634 -1.3644  3.6979
 4952SOL    HW226319   2.744   3.366  15.243 -0.0727  0.8952  0.1782
 4953SOL     OW26320   1.007   2.966   4.539 -0.4981 -0.3436 -0.5350
 4953SOL    HW126321   0.943   2.975   4.609  0.0691 -0.7675  0.0384
 4953SOL    HW226322   1.019   3.059   4.519 -0.6701 -0.1306  0.3278
 4954SOL     OW26323   4.545   2.385   4.241  0.5246  0.0478  0.2826
 4954SOL    HW126324   4.499   2.412   4.162 -0.1679  0.9401  0.9927
 4954SOL    HW226325   4.612   2.329   4.202  2.8331  0.9359  2.9516
 4955SOL     OW26326   3.435   4.353   3.143 -0.1030 -0.5636  0.3874
 4955SOL    HW126327   3.393   4.439   3.148  1.1914  0.1425 -0.6672
 4955SOL    HW226328   3.509   4.367   3.084 -0.7123 -0.0506 -0.2507
 4956SOL     OW26329   2.780   4.194   6.796  0.2962  0.0795  0.3149
 4956SOL    HW126330   2.730   4.271   6.822  1.0403  1.0158 -1.0044
 4956SOL    HW226331   2.766   4.193   6.701 -0.4191  0.4661  0.4175
 4957SOL     OW26332   0.835   1.637   2.748  0.0762 -0.0750 -0.2839
 4957SOL    HW126333   0.926   1.613   2.771  0.8458  2.9363 -0.2094
 4957SOL    HW226334   0.843   1.729   2.773 -0.8135 -0.3793  1.0954
 4958SOL     OW26335   4.477   4.161   4.260 -0.7120 -0.1230  0.6688
 4958SOL    HW126336   4.436   4.118   4.185 -1.6906  0.6718  0.7404
 4958SOL    HW226337   4.565   4.124   4.267 -0.6581  0.3899  2.8156
 4959SOL     OW26338   2.657   0.855   7.993  0.1840  0.5370  0.1192
 4959SOL    HW126339   2.693   0.789   7.933  2.3277  2.0036 -0.2123
 4959SOL    HW226340   2.566   0.826   7.996  0.1736  1.0447  4.3997
 4960SOL     OW26341   0.344   3.994   2.210 -0.0075 -0.3106  0.3043
 4960SOL    HW126342   0.255   4.022   2.232 -0.6995 -2.1294 -0.2122
 4960SOL    HW226343   0.328   3.920   2.151  0.7931 -1.4507  1.5236
 4961SOL     OW26344   3.384   2.755   7.008 -0.2960 -0.1451  0.0768
 4961SOL    HW126345   3.420   2.844   7.003  2.8208 -1.3927  0.0817
 4961SOL    HW226346   3.293   2.761   6.979 -0.1808 -0.3537 -0.3167
 4962SOL     OW26347   1.275   0.647   4.822 -0.1819  0.5313 -0.2291
 4962SOL    HW126348   1.180   0.659   4.824 -0.0643  1.6293 -1.5187
 4962SOL    HW226349   1.290   0.671   4.731 -1.3415  1.4231 -0.1778
 4963SOL     OW26350   1.147   3.885   6.658 -0.6894 -0.0987  0.0015
 4963SOL    HW126351   1.148   3.819   6.727  1.6121 -0.9626 -0.8470
 4963SOL    HW226352   1.113   3.966   6.694  1.3664  0.2876  1.0624
 4964SOL     OW26353   3.010   2.837  12.862 -0.1883  0.1865  0.1822
 4964SOL    HW126354   2.981   2.849  12.772 -1.1711  0.0651  0.4789
 4964SOL    HW226355   3.100   2.817  12.837 -0.2856 -0.3314  0.2456
 4965SOL     OW26356   2.974   0.841   8.660  0.2162 -0.2026 -0.4634
 4965SOL    HW126357   2.922   0.907   8.706 -1.0180 -0.6119 -1.2758
 4965SOL    HW226358   2.923   0.761   8.678 -0.5915  0.1027 -1.4208
 4966SOL     OW26359   1.698   3.571  15.668  0.6485 -0.7297 -0.6700
 4966SOL    HW126360   1.772   3.615  15.627 -0.0218 -1.1383 -2.3254
 4966SOL    HW226361   1.635   3.604  15.604  0.0402 -0.2689  0.1685
 4967SOL     OW26362   1.916   1.417   8.644 -0.5896 -0.2172  0.2446
 4967SOL    HW126363   1.907   1.445   8.735 -0.5218  2.7986 -0.6635
 4967SOL    HW226364   1.944   1.327   8.659 -1.4331 -0.2853  1.3606
 4968SOL     OW26365   2.719   3.546   4.778  0.0181  0.4979 -0.0793
 4968SOL    HW126366   2.781   3.567   4.848  0.9486 -1.5904 -0.2710
 4968SOL    HW226367   2.635   3.545   4.824 -0.5361  0.3780 -1.1006
 4969SOL     OW26368   3.495   3.445   5.932  0.4198  0.6339  0.1060
 4969SOL    HW126369   3.578   3.470   5.972  0.4175 -0.9486  1.0749
 4969SOL    HW226370   3.470   3.531   5.898  0.1747  0.9035  0.9853
 4970SOL     OW26371   0.014   0.387   8.866 -0.1839  0.3484 -0.0462
 4970SOL    HW126372   4.658   0.402   8.924 -0.4087  0.8667 -0.4682
 4970SOL    HW226373   4.693   0.359   8.784  2.3462  1.1403 -1.5332
 4971SOL     OW26374   4.308   2.141   8.967 -0.4131 -0.2080  0.6725
 4971SOL    HW126375   4.312   2.129   9.062 -0.5108 -1.9349  0.4643
 4971SOL    HW226376   4.255   2.063   8.950 -1.0292  0.0951  1.1547
 4972SOL     OW26377   4.317   3.335   2.553 -0.0371  0.1764 -0.0796
 4972SOL    HW126378   4.360   3.415   2.523 -0.4438 -0.6232 -2.7952
 4972SOL    HW226379   4.386   3.273   2.530 -0.3514  0.1208 -0.8524
 4973SOL     OW26380   2.461   1.259  13.035 -0.3951 -0.4896  0.2654
 4973SOL    HW126381   2.481   1.168  13.056 -0.4619 -0.8635 -1.3275
 4973SOL    HW226382   2.383   1.247  12.981 -0.4841 -2.5705  0.8629
 4974SOL     OW26383   0.244   1.550   4.018  0.0816  0.5880 -0.2163
 4974SOL    HW126384   0.217   1.471   3.971  1.4953  0.1010 -0.1912
 4974SOL    HW226385   0.274   1.599   3.941  1.6979  0.0996  0.1084
 4975SOL     OW26386   3.024   4.197   7.284 -0.1964  0.6407 -0.1773
 4975SOL    HW126387   2.933   4.226   7.293 -0.0242  1.5094 -1.2131
 4975SOL    HW226388   3.033   4.229   7.194 -1.8008 -1.5873 -1.1280
 4976SOL     OW26389   3.870   0.504   8.238  0.3512  0.6774  0.0728
 4976SOL    HW126390   3.906   0.586   8.272  2.6918  0.0275 -0.8416
 4976SOL    HW226391   3.787   0.492   8.284 -0.6760 -0.0015 -1.9795
 4977SOL     OW26392   4.056   2.557  12.960  0.2973 -0.1037 -0.3118
 4977SOL    HW126393   3.988   2.522  12.902  2.1025 -0.2237 -2.3364
 4977SOL    HW226394   4.120   2.486  12.967 -1.0455 -1.2669  0.1697
 4978SOL     OW26395   0.141   3.684   3.682 -0.2409 -0.1178  0.2280
 4978SOL    HW126396   0.086   3.745   3.731 -2.3144 -1.4081 -0.4757
 4978SOL    HW226397   0.139   3.722   3.594  2.0464  2.8253  1.4413
 4979SOL     OW26398   0.590   0.262   8.013 -0.3285  0.2306  0.0552
 4979SOL    HW126399   0.504   0.223   7.994  0.4207 -0.7595 -1.2740
 4979SOL    HW226400   0.611   0.267   7.919 -1.6180  0.8387 -0.2096
 4980SOL     OW26401   2.654   3.034   4.491  0.1757  0.3392 -0.2925
 4980SOL    HW126402   2.613   3.079   4.417 -1.7203  1.3530  1.3602
 4980SOL    HW226403   2.732   3.088   4.505 -1.0420  2.0570 -0.0040
 4981SOL     OW26404   4.353   3.247   8.085 -0.3296 -0.1782  0.2119
 4981SOL    HW126405   4.429   3.207   8.044  0.2664 -1.5468  2.6668
 4981SOL    HW226406   4.346   3.182   8.154 -2.1419  0.7882  0.9611
 4982SOL     OW26407   4.066   2.471   9.484 -0.8337  0.3776 -0.2175
 4982SOL    HW126408   4.093   2.441   9.571  0.8201  1.7970 -0.2281
 4982SOL    HW226409   3.973   2.453   9.494 -0.1045 -3.0875  0.0964
 4983SOL     OW26410   2.745   3.220   4.701  0.0500  0.2358 -0.1455
 4983SOL    HW126411   2.670   3.276   4.717  0.3147  0.2463  1.0904
 4983SOL    HW226412   2.741   3.154   4.771  0.1619  1.7739  1.3312
 4984SOL     OW26413   0.336   4.002   1.908  0.2070 -0.2919  0.2943
 4984SOL    HW126414   0.249   4.038   1.927 -1.4228 -3.2937 -1.4191
 4984SOL    HW226415   0.340   3.927   1.967  1.8390  1.8484  2.8951
 4985SOL     OW26416   1.680   1.374   3.431 -0.1618  0.7796  0.2247
 4985SOL    HW126417   1.651   1.462   3.405 -2.5756 -0.0261  0.2133
 4985SOL    HW226418   1.641   1.362   3.517  0.1473  0.5732  0.3342
 4986SOL     OW26419   3.735   1.341  17.426  0.2994 -0.0197 -0.1429
 4986SOL    HW126420   3.672   1.289  17.376 -1.2850  0.1472  1.6869
 4986SOL    HW226421   3.820   1.329  17.384  0.2521 -0.3574 -0.1479
 4987SOL     OW26422   4.172   3.145  13.478  0.1494  0.0482 -0.1506
 4987SOL    HW126423   4.110   3.140  13.551  0.2194  2.1878  0.0764
 4987SOL    HW226424   4.152   3.062  13.436 -3.8251  1.9965 -2.1537
 4988SOL     OW26425   3.864   3.859  15.318 -0.1890 -0.0584 -0.1599
 4988SOL    HW126426   3.904   3.937  15.357 -1.2322 -0.3348  1.4830
 4988SOL    HW226427   3.831   3.907  15.241 -0.5571  1.8825  1.1997
 4989SOL     OW26428   3.497   0.887  16.941 -0.1069 -0.1083  0.2694
 4989SOL    HW126429   3.482   0.896  16.847  0.4562 -2.8253 -0.0767
 4989SOL    HW226430   3.429   0.939  16.982  1.1143  1.9211 -0.2993
 4990SOL     OW26431   0.160   0.712   4.391 -0.3969 -0.5477  0.4523
 4990SOL    HW126432   0.073   0.680   4.369 -0.3601 -1.1427  1.1662
 4990SOL    HW226433   0.211   0.632   4.377  0.9499 -0.0728  2.5748
 4991SOL     OW26434   2.215   0.639  15.080  0.2076  0.0107 -0.0330
 4991SOL    HW126435   2.292   0.695  15.076 -0.0988  0.3388 -1.3205
 4991SOL    HW226436   2.249   0.550  15.066 -0.5784  0.0517 -2.3244
 4992SOL     OW26437   2.379   4.226   2.693  0.5493 -0.0086 -0.1636
 4992SOL    HW126438   2.356   4.224   2.785  0.0944 -1.0297 -0.3006
 4992SOL    HW226439   2.468   4.190   2.697 -0.3616 -2.1582  0.4056
 4993SOL     OW26440   3.307   3.304   6.510  0.6495 -0.3337  0.0878
 4993SOL    HW126441   3.400   3.313   6.490  0.4609 -0.6471 -0.8852
 4993SOL    HW226442   3.315   3.232   6.573  1.1925 -1.4153 -1.2118
 4994SOL     OW26443   2.447   1.243   6.582  0.0084 -0.2645  0.1642
 4994SOL    HW126444   2.469   1.287   6.664 -1.6196  1.6292 -0.4309
 4994SOL    HW226445   2.529   1.266   6.538  0.3703  0.2846  1.1305
 4995SOL     OW26446   2.176   3.661  12.652 -0.1809  0.1378 -0.3564
 4995SOL    HW126447   2.170   3.650  12.747  1.1347  0.6704 -0.2118
 4995SOL    HW226448   2.245   3.726  12.640 -0.3585  0.4719  0.4459
 4996SOL     OW26449   2.835   0.348  16.492  0.7217 -0.2771  0.3209
 4996SOL    HW126450   2.824   0.418  16.428  0.5593  0.7812  1.5071
 4996SOL    HW226451   2.873   0.276  16.441  0.0805 -0.9195  0.7503
 4997SOL     OW26452   1.352   0.011  11.359  0.3000  0.3774  0.1540
 4997SOL    HW126453   1.367   0.078  11.292  1.5742 -2.8143 -2.7378
 4997SOL    HW226454   1.272   4.691  11.323  1.4389 -0.7386 -1.2105
 4998SOL     OW26455   3.603   0.024   0.536  0.1578 -0.3738 -0.1560
 4998SOL    HW126456   3.517   4.702   0.536 -0.0343  0.0389 -0.7283
 4998SOL    HW226457   3.640   4.699   0.459  2.8063  4.0817 -1.3847
 4999SOL     OW26458   2.558   3.805  11.983 -0.5270  0.0705 -0.5209
 4999SOL    HW126459   2.603   3.721  11.993 -1.3820 -0.5256 -1.6392
 4999SOL    HW226460   2.484   3.775  11.929 -1.2318  1.9190 -0.5792
 5000SOL     OW26461   2.220   3.022   8.414  0.8278 -0.0787  0.5030
 5000SOL    HW126462   2.232   2.985   8.501  1.1814  0.6366  0.7545
 5000SOL    HW226463   2.307   3.023   8.375  0.7395  1.0829  0.3224
 5001SOL     OW26464   2.102   0.853  10.968 -0.2901 -0.2895  0.0281
 5001SOL    HW126465   2.133   0.888  11.051 -0.1134  0.8560 -0.5212
 5001SOL    HW226466   2.020   0.902  10.962 -0.1142 -0.0706 -0.5705
 5002SOL     OW26467   0.063   3.704   7.814 -0.4916  0.1531 -0.0093
 5002SOL    HW126468   0.001   3.707   7.741 -1.1117 -0.5906  0.4938
 5002SOL    HW226469   0.125   3.637   7.787 -0.5476 -0.0796  0.4371
 5003SOL     OW26470   0.895   2.182   9.578 -0.3234  0.1639  0.2477
 5003SOL    HW126471   0.911   2.258   9.522 -0.1357 -0.1214 -0.0921
 5003SOL    HW226472   0.971   2.191   9.636 -1.4546  0.8852  1.6180
 5004SOL     OW26473   0.574   3.729  16.108 -0.0323  0.0051 -0.3340
 5004SOL    HW126474   0.503   3.668  16.126 -0.1499  0.1778 -0.2127
 5004SOL    HW226475   0.644   3.665  16.093  0.1426 -0.4706  2.5373
 5005SOL     OW26476   1.277   3.825   4.752 -0.0809 -0.3013  0.0742
 5005SOL    HW126477   1.297   3.889   4.685 -1.2578 -0.1640 -0.1473
 5005SOL    HW226478   1.188   3.798   4.731  0.4968 -0.2196 -2.4650
 5006SOL     OW26479   0.718   4.691   0.431 -0.3151  0.0373  0.3322
 5006SOL    HW126480   0.760   0.044   0.479  0.5826  0.8714 -1.6692
 5006SOL    HW226481   0.634   4.700   0.476  0.6541 -0.2352  2.1940
 5007SOL     OW26482   3.385   4.242  15.546  0.3848 -1.1312  0.8953
 5007SOL    HW126483   3.310   4.288  15.507  0.9037  0.2436  1.5337
 5007SOL    HW226484   3.389   4.292  15.627  0.6986 -0.1594  0.2800
 5008SOL     OW26485   4.191   2.766   9.025 -0.1097  0.1083  0.2035
 5008SOL    HW126486   4.273   2.768   9.074  1.0867 -2.6213 -1.7219
 5008SOL    HW226487   4.200   2.675   8.997 -0.3835 -0.4293  1.8996
 5009SOL     OW26488   4.700   2.673   8.770 -0.0648 -0.6744 -0.2528
 5009SOL    HW126489   0.043   2.732   8.726  0.4816  0.5773  2.1728
 5009SOL    HW226490   0.044   2.615   8.814 -0.4539  0.9883  2.5079
 5010SOL     OW26491   3.968   4.290  14.266 -0.1105 -0.3555  0.7701
 5010SOL    HW126492   3.900   4.287  14.332  0.3322  0.4213  1.2694
 5010SOL    HW226493   3.930   4.325  14.185  2.2150  0.3673 -0.0012
 5011SOL     OW26494   3.704   2.995   9.760  0.8715  0.0687  0.0635
 5011SOL    HW126495   3.732   3.023   9.672  1.3439  0.0289  0.2010
 5011SOL    HW226496   3.735   2.905   9.759  1.2270  0.1845  1.2978
 5012SOL     OW26497   1.475   0.102  10.039  0.0906  0.1723 -0.3447
 5012SOL    HW126498   1.438   0.172  10.092 -1.4798  1.3260 -2.9344
 5012SOL    HW226499   1.564   0.089  10.072  0.0414 -1.7609 -0.9905
 5013SOL     OW26500   0.088   4.079   2.964 -0.0830 -0.8324  0.4670
 5013SOL    HW126501   0.163   4.030   2.998 -1.8799 -3.0239  1.2618
 5013SOL    HW226502   0.111   4.165   3.001  0.1543  0.5918 -2.9940
 5014SOL     OW26503   4.647   1.485  11.399 -0.3373 -0.1238  0.0005
 5014SOL    HW126504   4.653   1.572  11.358 -2.5492  0.4472  0.8846
 5014SOL    HW226505   4.553   1.473  11.386 -0.0706 -1.2579 -0.8837
 5015SOL     OW26506   3.332   0.361  16.396 -0.0525 -0.1926  0.5519
 5015SOL    HW126507   3.277   0.386  16.471  0.6491 -1.2983  1.4342
 5015SOL    HW226508   3.313   0.433  16.335 -0.9996 -0.7128  0.2237
 5016SOL     OW26509   0.232   3.034   7.843 -0.0477  0.5970 -0.4666
 5016SOL    HW126510   0.300   2.985   7.797 -0.3453  0.4299 -0.7269
 5016SOL    HW226511   0.201   2.970   7.907  0.3739  1.8146  0.9822
 5017SOL     OW26512   1.610   2.205   3.313 -0.0782 -0.1992  0.4542
 5017SOL    HW126513   1.660   2.204   3.231 -0.9980 -0.5122 -0.1088
 5017SOL    HW226514   1.650   2.130   3.356  0.6169  1.8742  3.4216
 5018SOL     OW26515   3.576   4.197   6.607  0.3031 -0.4774  0.4094
 5018SOL    HW126516   3.547   4.172   6.519 -2.1307  1.1808  0.7382
 5018SOL    HW226517   3.627   4.277   6.596  1.4200 -0.8192  3.0384
 5019SOL     OW26518   1.271   3.888  14.327  0.0286 -0.6476  0.2810
 5019SOL    HW126519   1.334   3.942  14.374 -0.7676  0.9832 -0.5317
 5019SOL    HW226520   1.313   3.914  14.244 -1.7383 -1.5771 -0.8935
 5020SOL     OW26521   1.631   1.248   4.097  0.2731  0.0842 -0.6678
 5020SOL    HW126522   1.695   1.319   4.094  2.4967 -1.8900 -0.3339
 5020SOL    HW226523   1.560   1.296   4.055  0.5022  1.3652  0.4227
 5021SOL     OW26524   2.358   2.491  14.442 -0.3522  0.0778  0.5111
 5021SOL    HW126525   2.265   2.490  14.420 -0.2233 -0.1866 -0.0379
 5021SOL    HW226526   2.392   2.499  14.352  1.4940 -1.3041  1.1013
 5022SOL     OW26527   4.427   3.088   4.898 -0.2427 -0.6124  0.5763
 5022SOL    HW126528   4.470   3.012   4.859 -0.3343 -1.0471  1.3450
 5022SOL    HW226529   4.449   3.084   4.991  0.3575 -0.7738  0.4281
 5023SOL     OW26530   3.588   3.577  14.200 -0.6202 -0.2388 -0.5005
 5023SOL    HW126531   3.569   3.484  14.215 -0.1299 -0.5916 -2.0690
 5023SOL    HW226532   3.681   3.587  14.221 -1.1113 -1.3423  2.2208
 5024SOL     OW26533   4.700   1.298   5.973  0.0959  0.3291  0.1082
 5024SOL    HW126534   4.709   1.341   6.058 -0.9487 -1.3015  1.0412
 5024SOL    HW226535   4.649   1.358   5.919 -1.2190 -0.7822  0.1179
 5025SOL     OW26536   2.009   3.999   2.913  0.2706 -0.3921  0.1604
 5025SOL    HW126537   1.998   3.972   2.822  2.9429 -0.4109 -0.1523
 5025SOL    HW226538   1.944   3.940   2.949 -0.7757 -0.6643 -2.1580
 5026SOL     OW26539   1.985   2.380   9.478 -0.5319  0.0003  0.2201
 5026SOL    HW126540   1.891   2.390   9.492 -0.7800 -0.5050 -1.0881
 5026SOL    HW226541   2.006   2.294   9.514 -1.0540 -0.6151 -0.9229
 5027SOL     OW26542   3.667   2.520   0.698 -0.3204  0.4508  0.8544
 5027SOL    HW126543   3.575   2.545   0.694 -0.3952  0.4390  2.4727
 5027SOL    HW226544   3.693   2.602   0.739 -2.5076  2.5908 -1.9897
 5028SOL     OW26545   2.249   0.398  11.766  0.4654 -0.1433 -0.1678
 5028SOL    HW126546   2.329   0.348  11.783 -0.3635 -1.4545 -0.0796
 5028SOL    HW226547   2.263   0.474  11.822 -0.6703 -0.7163  0.9067
 5029SOL     OW26548   2.144   3.644   8.288  0.3367 -0.2395 -0.1804
 5029SOL    HW126549   2.117   3.621   8.377  1.4295 -2.7242 -0.5038
 5029SOL    HW226550   2.138   3.740   8.289  0.8982 -0.1565 -3.9335
 5030SOL     OW26551   2.440   3.267   1.041 -0.4432  0.1296  0.1605
 5030SOL    HW126552   2.372   3.253   1.107  0.6513 -0.4051  1.1951
 5030SOL    HW226553   2.450   3.361   1.055  0.7347  0.2084 -1.2002
 5031SOL     OW26554   4.227   1.888   6.260  0.1701 -0.4780 -0.4046
 5031SOL    HW126555   4.320   1.896   6.239 -0.3544  2.5797 -1.5903
 5031SOL    HW226556   4.198   1.800   6.238 -1.4549  0.0031 -0.2067
 5032SOL     OW26557   4.421   1.932   8.045 -0.2486  0.5834  0.2566
 5032SOL    HW126558   4.367   1.874   7.990 -0.5977 -0.8160  2.0338
 5032SOL    HW226559   4.371   1.929   8.127 -1.0065  2.3636 -0.1443
 5033SOL     OW26560   4.204   4.695   4.554  0.1360 -0.1570 -0.0882
 5033SOL    HW126561   4.222   4.676   4.463 -0.6528  4.6654 -1.2866
 5033SOL    HW226562   4.295   4.679   4.579 -0.4018  0.1624  2.0982
 5034SOL     OW26563   0.572   4.206   3.087 -0.0528 -0.0632 -0.1842
 5034SOL    HW126564   0.555   4.121   3.128 -1.3466 -0.8142 -2.2960
 5034SOL    HW226565   0.542   4.278   3.142 -1.3423 -1.5254  1.0378
 5035SOL     OW26566   2.941   2.853  14.547 -0.0164  0.4322  0.8349
 5035SOL    HW126567   3.035   2.862  14.534  0.2355  1.0391  3.0724
 5035SOL    HW226568   2.946   2.780  14.609 -0.5984  0.7473  1.2525
 5036SOL     OW26569   1.985   4.355  15.103 -0.0899 -0.2851  0.4393
 5036SOL    HW126570   1.894   4.366  15.130 -0.9183 -0.9535 -2.0694
 5036SOL    HW226571   2.010   4.441  15.069  1.9697 -1.7423 -1.7790
 5037SOL     OW26572   3.417   3.445   3.050  0.0630  0.0310 -0.2763
 5037SOL    HW126573   3.389   3.533   3.076 -0.2160  0.2303 -1.2615
 5037SOL    HW226574   3.474   3.448   2.973 -0.3824 -0.4522 -0.6184
 5038SOL     OW26575   3.779   3.667  17.279  0.2530 -0.1184  0.4220
 5038SOL    HW126576   3.708   3.730  17.269 -1.0642 -1.0889  3.7492
 5038SOL    HW226577   3.809   3.679  17.369  2.9946 -0.7966 -0.3894
 5039SOL     OW26578   0.438   4.061  16.456  0.3806  0.2523 -0.0166
 5039SOL    HW126579   0.421   4.057  16.550  0.8944 -2.2511 -0.0473
 5039SOL    HW226580   0.397   4.145  16.433 -3.6522 -1.6919  0.1624
 5040SOL     OW26581   2.478   2.080   4.354  0.3486 -0.1098  0.4985
 5040SOL    HW126582   2.547   2.113   4.413 -0.1783  1.6190  0.1530
 5040SOL    HW226583   2.533   2.035   4.290  0.4770  1.3247 -0.4006
 5041SOL     OW26584   2.155   4.069   0.965 -0.3528 -0.0988 -0.1376
 5041SOL    HW126585   2.105   4.003   0.917  1.0356 -1.1483 -0.1239
 5041SOL    HW226586   2.167   4.146   0.909 -0.8788  1.3850  1.7884
 5042SOL     OW26587   3.296   3.496   7.080  0.6492 -0.0847 -0.2137
 5042SOL    HW126588   3.218   3.474   7.030  2.0446 -1.7233 -1.6618
 5042SOL    HW226589   3.263   3.475   7.168  0.6304  2.1155  0.3267
 5043SOL     OW26590   0.390   4.427   6.359 -0.4989  0.2320  0.0656
 5043SOL    HW126591   0.417   4.447   6.449  0.7488  1.4558 -0.5728
 5043SOL    HW226592   0.398   4.331   6.357  1.4206  0.4348 -2.3890
 5044SOL     OW26593   1.187   1.342   1.461 -0.1047  0.0781  0.1513
 5044SOL    HW126594   1.136   1.267   1.490 -2.2568  1.5563  0.1557
 5044SOL    HW226595   1.176   1.340   1.366 -0.5629 -0.1232  0.2082
 5045SOL     OW26596   3.922   2.451   5.181 -0.8572  0.1990  0.4230
 5045SOL    HW126597   3.890   2.541   5.171  0.3921  0.3833 -1.7532
 5045SOL    HW226598   4.004   2.448   5.132 -0.4142 -0.1319  1.1794
 5046SOL     OW26599   3.320   2.563   5.253 -0.1780 -0.0595  0.2300
 5046SOL    HW126600   3.268   2.532   5.179 -1.7108 -0.7761  1.6122
 5046SOL    HW226601   3.366   2.640   5.217  1.3938 -0.4830  1.3321
 5047SOL     OW26602   1.117   1.641   1.915 -0.0539 -0.2133 -0.1644
 5047SOL    HW126603   1.082   1.700   1.848  0.9204  2.7628  1.9713
 5047SOL    HW226604   1.106   1.554   1.875  1.2509 -0.0735 -0.8247
 5048SOL     OW26605   1.306   1.420  10.798  0.6318  0.1582 -0.5326
 5048SOL    HW126606   1.237   1.367  10.759  1.5825 -1.1422 -0.4686
 5048SOL    HW226607   1.334   1.357  10.864 -0.4335  0.9704  0.6852
 5049SOL     OW26608   3.004   2.889  13.402 -0.1901  0.5642  0.3177
 5049SOL    HW126609   2.974   2.928  13.484  0.9043  3.9896 -0.8779
 5049SOL    HW226610   3.070   2.824  13.426 -0.2778  0.7767  1.1315
 5050SOL     OW26611   3.413   4.563   1.503 -0.3645  0.3968 -0.2624
 5050SOL    HW126612   3.397   4.599   1.591 -0.4639  3.9145 -1.7152
 5050SOL    HW226613   3.509   4.567   1.496 -0.5877  0.5354 -3.1001
 5051SOL     OW26614   1.460   3.547   5.610  0.0135 -0.0834 -0.2769
 5051SOL    HW126615   1.517   3.501   5.549  1.1199 -0.0285  0.7047
 5051SOL    HW226616   1.467   3.639   5.586 -0.6806 -0.3246 -1.3995
 5052SOL     OW26617   0.882   2.910   0.216 -0.4125  0.4108 -0.0345
 5052SOL    HW126618   0.903   3.003   0.211  1.4507 -0.0540 -1.2615
 5052SOL    HW226619   0.788   2.914   0.203 -0.5279 -0.7179  0.4316
 5053SOL     OW26620   0.677   3.335   4.945 -0.0504  0.4955 -0.8166
 5053SOL    HW126621   0.644   3.362   4.859 -2.3729 -1.2660 -0.4937
 5053SOL    HW226622   0.772   3.346   4.938  0.0175 -0.2735 -1.1848
 5054SOL     OW26623   3.563   0.114  10.769 -0.5661 -0.3096  0.3442
 5054SOL    HW126624   3.492   0.157  10.818  0.9304  0.6101  1.7090
 5054SOL    HW226625   3.634   0.166  10.805 -3.5901  3.5459  0.7946
 5055SOL     OW26626   3.805   0.102   8.070 -0.1441 -0.0984 -0.3981
 5055SOL    HW126627   3.888   0.104   8.022  0.6929  2.1053  1.1548
 5055SOL    HW226628   3.756   0.172   8.026 -0.3170  0.5809  0.8891
 5056SOL     OW26629   2.941   3.525   2.626  0.1370  0.0411 -0.3449
 5056SOL    HW126630   2.994   3.545   2.549  0.3601  1.5472  0.1887
 5056SOL    HW226631   2.856   3.508   2.585  0.3811 -0.8965 -0.4718
 5057SOL     OW26632   2.216   0.052   2.264  0.3368  0.3341  0.4141
 5057SOL    HW126633   2.256   0.100   2.336  0.4035  1.9411 -0.6843
 5057SOL    HW226634   2.290   4.712   2.244 -1.6548 -0.8962 -3.4079
 5058SOL     OW26635   3.937   2.604   4.869 -0.4907 -0.3529 -0.2384
 5058SOL    HW126636   3.859   2.562   4.833  0.7729 -0.5999 -2.7586
 5058SOL    HW226637   4.008   2.555   4.825  0.1565 -0.0482  0.4666
 5059SOL     OW26638   2.291   3.033   5.489  0.1909  0.1140  0.1831
 5059SOL    HW126639   2.271   3.074   5.405 -0.7229  0.2709  0.4789
 5059SOL    HW226640   2.367   3.083   5.520 -0.5084 -0.4230  2.7254
 5060SOL     OW26641   3.140   2.343   9.644 -0.7370  0.4397 -0.6563
 5060SOL    HW126642   3.144   2.400   9.567 -2.4450 -0.3680 -1.3243
 5060SOL    HW226643   3.206   2.278   9.619 -0.9680 -0.3553  0.8413
 5061SOL     OW26644   1.252   0.136   5.667 -0.3312 -0.3743  0.2806
 5061SOL    HW126645   1.261   0.064   5.605 -1.0709  1.8809 -2.4569
 5061SOL    HW226646   1.333   0.183   5.650 -0.4760  0.2638  1.3379
 5062SOL     OW26647   0.709   1.977  16.743  0.1263 -0.7708  0.1468
 5062SOL    HW126648   0.645   1.939  16.683 -1.2975  0.4041  0.9235
 5062SOL    HW226649   0.749   2.050  16.695  1.0398 -2.0153 -0.9716
 5063SOL     OW26650   0.543   2.913   3.905  0.4628 -0.1202 -0.9820
 5063SOL    HW126651   0.622   2.863   3.925 -0.2934 -1.2790 -0.9202
 5063SOL    HW226652   0.577   3.003   3.904 -0.5606  0.2833 -0.4644
 5064SOL     OW26653   4.277   2.104  11.112 -0.0402 -0.1413  0.3013
 5064SOL    HW126654   4.198   2.155  11.092  1.0768  1.3954 -0.1716
 5064SOL    HW226655   4.263   2.027  11.058 -1.2980  1.4290 -1.6253
 5065SOL     OW26656   4.306   0.343   5.815  0.1885  0.6640 -0.3160
 5065SOL    HW126657   4.365   0.285   5.864  4.3367  5.3869  0.1821
 5065SOL    HW226658   4.300   0.290   5.736 -0.3941  0.5514 -0.1997
 5066SOL     OW26659   0.130   0.462   6.451 -0.3912  0.3157 -0.0103
 5066SOL    HW126660   0.072   0.427   6.383  0.1029  0.1055 -0.3192
 5066SOL    HW226661   0.203   0.500   6.403  0.9117 -2.6383 -0.3200
 5067SOL     OW26662   4.448   2.329   5.251  0.0784 -0.0739  0.1557
 5067SOL    HW126663   4.456   2.330   5.156  2.6780 -0.9584  0.3653
 5067SOL    HW226664   4.429   2.236   5.265  0.6869 -0.2304 -0.0519
 5068SOL     OW26665   1.792   4.690   4.909  0.3490  0.0664 -0.3309
 5068SOL    HW126666   1.771   0.062   4.885  0.8100  0.2105 -0.1885
 5068SOL    HW226667   1.727   4.665   4.975  1.7150  1.2730  1.4368
 5069SOL     OW26668   1.161   3.384  15.183 -0.1409  0.1141  0.5661
 5069SOL    HW126669   1.166   3.477  15.205  0.6544  0.0234  0.7552
 5069SOL    HW226670   1.123   3.376  15.096  2.4367  0.8546 -0.6284
 5070SOL     OW26671   2.197   0.862   9.806 -0.2857  0.3964 -0.1066
 5070SOL    HW126672   2.230   0.854   9.896 -3.1057 -1.4175  0.7538
 5070SOL    HW226673   2.107   0.882   9.832 -0.3088  0.8339 -0.5363
 5071SOL     OW26674   4.474   3.758   4.362 -0.3812 -0.4224  0.2718
 5071SOL    HW126675   4.513   3.730   4.279  0.4143 -0.9941  0.8421
 5071SOL    HW226676   4.388   3.782   4.329  0.3239  0.3942 -1.0113
 5072SOL     OW26677   3.798   2.538  15.242 -0.1050  0.2795  0.0502
 5072SOL    HW126678   3.744   2.532  15.321  1.0336  1.0724  0.8852
 5072SOL    HW226679   3.793   2.447  15.211 -1.1632  0.7420 -1.1361
 5073SOL     OW26680   1.332   1.783   7.133 -0.0248  0.1391  0.5856
 5073SOL    HW126681   1.421   1.756   7.111 -1.5094 -1.6132 -3.3419
 5073SOL    HW226682   1.290   1.702   7.163  0.5439  0.2039  1.5469
 5074SOL     OW26683   1.953   0.661  11.780 -0.2717  0.7168  0.1783
 5074SOL    HW126684   1.874   0.694  11.737  0.4814 -1.1028 -2.5815
 5074SOL    HW226685   2.016   0.662  11.708  0.8885 -1.0354  1.1685
 5075SOL     OW26686   1.072   1.949   1.109 -0.3239  0.1773  0.1339
 5075SOL    HW126687   1.023   1.894   1.049 -0.3432 -0.8224  1.0696
 5075SOL    HW226688   1.052   2.036   1.074  0.4605 -0.4733 -1.9015
 5076SOL     OW26689   1.109   4.368   0.873  0.1700  0.0658  0.1586
 5076SOL    HW126690   1.034   4.342   0.821 -1.2443  1.2872  1.6026
 5076SOL    HW226691   1.164   4.290   0.861 -1.1340 -1.1433  1.9894
 5077SOL     OW26692   2.606   1.111  10.669 -0.0716  0.6332 -0.5614
 5077SOL    HW126693   2.697   1.085  10.687 -0.0871  1.1239  0.2509
 5077SOL    HW226694   2.566   1.080  10.750  1.8727 -2.1248 -0.6459
 5078SOL     OW26695   4.496   1.657  13.928  0.2376  0.4516 -0.1625
 5078SOL    HW126696   4.407   1.649  13.962  0.5187  1.2667  0.7588
 5078SOL    HW226697   4.521   1.565  13.939 -0.0277  0.2923 -0.8636
 5079SOL     OW26698   0.781   2.613   6.592 -0.4525 -0.2642 -0.3216
 5079SOL    HW126699   0.746   2.615   6.503 -1.2478 -4.4588 -0.1151
 5079SOL    HW226700   0.783   2.707   6.612 -2.2519 -0.2907 -0.0053
 5080SOL     OW26701   0.370   3.231   6.476  0.1175  0.4257  0.2704
 5080SOL    HW126702   0.398   3.323   6.470 -0.1560  0.4512 -0.6338
 5080SOL    HW226703   0.294   3.235   6.419 -0.2954 -0.3905  0.7791
 5081SOL     OW26704   0.417   1.782  14.296 -0.6732 -0.0937  0.2545
 5081SOL    HW126705   0.444   1.814  14.210 -2.7157  1.4276  0.1513
 5081SOL    HW226706   0.392   1.863  14.341 -1.8562  1.6893 -3.6474
 5082SOL     OW26707   3.157   2.990  11.152 -0.1209  0.6740 -0.4394
 5082SOL    HW126708   3.062   2.988  11.167  0.2010 -0.4190  1.4148
 5082SOL    HW226709   3.160   2.956  11.063 -1.7284  3.6973 -1.6494
 5083SOL     OW26710   1.306   2.761   2.692  0.4513 -0.2318  0.1030
 5083SOL    HW126711   1.304   2.682   2.639  3.5903  1.0594 -1.9566
 5083SOL    HW226712   1.314   2.727   2.781 -1.9809 -1.9415 -0.3342
 5084SOL     OW26713   1.249   3.081  13.880  0.6244 -0.7494  0.6507
 5084SOL    HW126714   1.252   3.052  13.972  1.0664 -0.2556  0.7904
 5084SOL    HW226715   1.260   3.176  13.869  1.8030 -1.1510 -1.4963
 5085SOL     OW26716   2.114   4.029   1.491  0.4619 -0.3905 -0.3531
 5085SOL    HW126717   2.162   4.045   1.409  0.1329 -0.9049 -0.6487
 5085SOL    HW226718   2.138   3.939   1.513  0.6798 -0.0676  0.6835
 5086SOL     OW26719   4.466   2.523  16.547 -0.2067  0.4889 -0.5757
 5086SOL    HW126720   4.389   2.579  16.545  0.0484  0.8376 -0.7194
 5086SOL    HW226721   4.457   2.497  16.638 -0.0614 -1.0173 -0.9897
 5087SOL     OW26722   2.071   0.626   1.309 -0.1446 -0.2217 -0.1362
 5087SOL    HW126723   2.029   0.670   1.382 -1.1960 -0.1662 -0.7784
 5087SOL    HW226724   2.111   0.703   1.269 -0.9124 -0.5466 -1.5482
 5088SOL     OW26725   1.960   0.173   1.730  0.1320 -0.2354  0.3586
 5088SOL    HW126726   2.013   0.193   1.807  3.1370  0.9615 -2.0416
 5088SOL    HW226727   1.896   0.244   1.736  1.4435  0.7848  2.3082
 5089SOL     OW26728   2.676   3.241   9.380 -0.1521  0.0652  0.0360
 5089SOL    HW126729   2.583   3.237   9.401 -0.2585  1.7069 -0.1321
 5089SOL    HW226730   2.703   3.149   9.375 -0.2816  0.0455 -0.2596
 5090SOL     OW26731   4.702   2.925  15.110 -0.0415  0.2430 -0.1008
 5090SOL    HW126732   4.715   3.019  15.096  0.1043  0.3630  0.8437
 5090SOL    HW226733   4.671   2.924  15.201 -0.3471 -0.5987 -0.2181
 5091SOL     OW26734   1.824   3.232   5.077  0.1049  0.0713 -0.1907
 5091SOL    HW126735   1.879   3.164   5.116  1.0122  1.5459  1.0947
 5091SOL    HW226736   1.896   3.272   5.029 -0.2236  1.3079  0.3533
 5092SOL     OW26737   1.136   3.246   4.572  0.7029 -0.3425 -0.1516
 5092SOL    HW126738   1.117   3.340   4.566  0.6365 -0.3540 -0.1263
 5092SOL    HW226739   1.177   3.236   4.486  1.1752 -1.8572  0.2602
 5093SOL     OW26740   0.700   3.496   1.006 -0.1842 -0.5975 -0.8936
 5093SOL    HW126741   0.727   3.447   1.084 -0.0701 -0.6229 -0.9493
 5093SOL    HW226742   0.654   3.567   1.051 -1.7583 -0.5830 -2.5167
 5094SOL     OW26743   1.795   0.801  12.131  0.0447  0.4477 -0.5714
 5094SOL    HW126744   1.822   0.872  12.072  1.2424  0.9355  0.5624
 5094SOL    HW226745   1.874   0.792  12.184 -2.2001  0.7945  2.8643
 5095SOL     OW26746   3.739   4.495   5.727  0.1014 -0.4131 -0.4210
 5095SOL    HW126747   3.807   4.543   5.679 -1.6332 -1.0418 -3.4605
 5095SOL    HW226748   3.671   4.562   5.725 -0.2220 -0.7284  0.0135
 5096SOL     OW26749   4.001   3.385   6.182  0.0081 -0.6021  0.2820
 5096SOL    HW126750   4.046   3.447   6.239 -0.1420 -0.0832 -0.1644
 5096SOL    HW226751   4.043   3.305   6.212  0.6334  0.1412  1.3687
 5097SOL     OW26752   4.229   3.808  12.688 -0.0298  0.3905  0.3639
 5097SOL    HW126753   4.315   3.808  12.645 -0.0782 -1.8538  0.2449
 5097SOL    HW226754   4.255   3.782  12.776  2.6670  2.2173  0.0903
 5098SOL     OW26755   1.081   1.165   2.385 -0.1722 -0.0760  0.3723
 5098SOL    HW126756   1.028   1.093   2.419  0.7732 -1.3118 -0.7759
 5098SOL    HW226757   1.066   1.150   2.292  0.1186  0.7852  0.1800
 5099SOL     OW26758   2.268   1.995   5.906 -0.1541  0.9730 -0.0361
 5099SOL    HW126759   2.358   2.025   5.916 -0.4332  1.1491  2.0107
 5099SOL    HW226760   2.281   1.904   5.881  1.6280  0.5771  2.3453
 5100SOL     OW26761   3.527   0.277   2.859 -0.1089 -0.2403 -0.1647
 5100SOL    HW126762   3.507   0.368   2.838  0.2170 -0.5145 -1.6696
 5100SOL    HW226763   3.540   0.243   2.771 -0.0736 -0.9943  0.1273
 5101SOL     OW26764   2.676   4.364   2.513  0.4634 -0.1007 -0.6457
 5101SOL    HW126765   2.618   4.294   2.482 -1.5121  0.9034  0.7623
 5101SOL    HW226766   2.767   4.343   2.493  0.7337  0.3260  0.1237
 5102SOL     OW26767   1.130   3.089   8.721 -0.8102 -0.4180  0.8019
 5102SOL    HW126768   1.133   3.081   8.625 -0.2114  3.1712  0.5234
 5102SOL    HW226769   1.140   2.995   8.737 -3.8130 -0.7407  0.7990
 5103SOL     OW26770   0.100   2.825  11.264  0.2274 -0.2713 -0.1184
 5103SOL    HW126771   0.127   2.783  11.183  2.7772 -0.6984  0.9311
 5103SOL    HW226772   0.066   2.904  11.223 -0.6224 -1.0132 -0.8418
 5104SOL     OW26773   2.405   2.824  11.707 -0.5670  0.2135  0.0049
 5104SOL    HW126774   2.382   2.779  11.788 -0.5904 -1.4564 -0.9108
 5104SOL    HW226775   2.361   2.907  11.723 -0.9079  0.0034  0.1506
 5105SOL     OW26776   1.017   4.349   9.474  0.0022  0.4190 -0.0744
 5105SOL    HW126777   1.004   4.380   9.385  1.0696 -0.4973 -0.5582
 5105SOL    HW226778   1.112   4.350   9.484 -0.2907  0.0511  3.0206
 5106SOL     OW26779   4.582   4.678   8.305 -0.6263 -0.2444  0.1352
 5106SOL    HW126780   4.663   4.680   8.357  0.9167 -0.0569 -2.2692
 5106SOL    HW226781   4.568   0.054   8.307  1.6857  0.1055 -0.3166
 5107SOL     OW26782   3.067   3.032   8.501 -0.3009  0.0886  0.5676
 5107SOL    HW126783   3.023   3.068   8.424  1.4303 -1.6313 -1.1946
 5107SOL    HW226784   3.151   3.079   8.498 -0.2831  0.0961  1.1590
 5108SOL     OW26785   4.155   2.984   5.050 -0.0185  0.5336 -0.4307
 5108SOL    HW126786   4.187   3.070   5.023 -0.0054  0.7087  0.1280
 5108SOL    HW226787   4.063   3.001   5.031  0.2502  1.9889 -0.4286
 5109SOL     OW26788   2.127   0.204   0.103 -0.1455  0.1321  0.1362
 5109SOL    HW126789   2.063   0.266   0.139  0.7806  1.4983 -0.5956
 5109SOL    HW226790   2.123   0.209   0.008 -0.5183  1.1707  0.2080
 5110SOL     OW26791   0.474   3.704   0.957 -0.0714  0.5314  0.0790
 5110SOL    HW126792   0.410   3.715   1.026 -1.0605 -1.9488 -0.4507
 5110SOL    HW226793   0.420   3.681   0.881  3.7857  0.2564 -2.5983
 5111SOL     OW26794   0.600   4.184  16.188  0.3552  0.0436 -0.6750
 5111SOL    HW126795   0.643   4.103  16.214 -3.5955 -1.6205  0.7394
 5111SOL    HW226796   0.510   4.150  16.187  0.3848 -0.0028 -1.5108
 5112SOL     OW26797   0.913   2.619  12.466  0.1192  0.0321  0.1813
 5112SOL    HW126798   0.857   2.689  12.498  0.8654  0.8767 -0.3741
 5112SOL    HW226799   0.992   2.633  12.518  1.0233 -1.1066 -0.8809
 5113SOL     OW26800   0.916   2.637   7.220 -0.3429 -0.2261 -0.3961
 5113SOL    HW126801   0.833   2.596   7.198  0.5506 -1.7737 -0.8336
 5113SOL    HW226802   0.885   2.710   7.275  1.0079 -0.2523  0.4076
 5114SOL     OW26803   1.878   4.497   7.157 -0.4590  0.3908  0.1613
 5114SOL    HW126804   1.950   4.472   7.099  0.7376 -0.3860  1.9773
 5114SOL    HW226805   1.841   4.409   7.164  1.0644 -0.0485  2.6968
 5115SOL     OW26806   2.774   0.014   8.292  0.5049  0.7438 -1.1708
 5115SOL    HW126807   2.793   4.639   8.285  0.2076  0.4634  1.7914
 5115SOL    HW226808   2.788   0.036   8.200  1.2135  1.1173 -0.9770
 5116SOL     OW26809   3.229   2.727  13.123 -0.0295  0.3468 -0.0294
 5116SOL    HW126810   3.301   2.789  13.105  0.5516 -0.4928 -0.5977
 5116SOL    HW226811   3.266   2.691  13.203  1.8306  0.9514 -0.6100
 5117SOL     OW26812   1.986   1.049   8.318 -0.1939  0.3752  0.1528
 5117SOL    HW126813   2.026   1.123   8.272  1.6573 -0.0645  1.0428
 5117SOL    HW226814   2.057   1.023   8.377 -0.4400  2.1276  1.2368
 5118SOL     OW26815   4.226   0.570  12.197 -0.2138 -0.6309  0.1074
 5118SOL    HW126816   4.204   0.663  12.203  1.5580 -0.2633  0.8591
 5118SOL    HW226817   4.226   0.554  12.102  0.7374  0.7150 -0.1211
 5119SOL     OW26818   3.833   3.413   8.137 -0.3016  0.2972  0.5806
 5119SOL    HW126819   3.872   3.439   8.220 -0.2003  2.1391 -0.0588
 5119SOL    HW226820   3.780   3.338   8.164  1.6038 -1.0563  0.5386
 5120SOL     OW26821   2.878   1.076  12.075 -0.0243 -0.3897 -0.6976
 5120SOL    HW126822   2.905   1.158  12.118 -1.2004 -0.4498  0.1709
 5120SOL    HW226823   2.790   1.073  12.113 -0.0054 -3.0517 -0.8863
 5121SOL     OW26824   2.428   4.670   9.540 -0.4318 -0.2252 -0.7025
 5121SOL    HW126825   2.406   4.581   9.514 -0.4737  0.5174 -3.1457
 5121SOL    HW226826   2.339   4.705   9.531  0.0837  0.6543 -2.3190
 5122SOL     OW26827   3.413   1.488   1.087  0.1326  0.8693  0.3286
 5122SOL    HW126828   3.374   1.483   1.175 -0.3541 -0.8014  0.0205
 5122SOL    HW226829   3.349   1.536   1.035  1.1002  0.0974 -1.5822
 5123SOL     OW26830   2.544   2.735   3.349 -0.7572  0.3060  0.0129
 5123SOL    HW126831   2.515   2.807   3.293 -1.4170 -0.4734 -0.6558
 5123SOL    HW226832   2.620   2.703   3.301  0.2828  0.3380  1.6478
 5124SOL     OW26833   0.620   0.193   2.520  0.3452 -0.5215  0.2285
 5124SOL    HW126834   0.676   0.146   2.582 -0.0888 -1.1235  0.1661
 5124SOL    HW226835   0.586   0.119   2.469  0.1046 -1.6710  2.0731
 5125SOL     OW26836   0.692   3.048   5.727  0.3971 -0.6541 -0.0199
 5125SOL    HW126837   0.637   3.104   5.673  0.5621  1.7130  2.2676
 5125SOL    HW226838   0.734   2.995   5.659 -0.5786 -0.1899 -0.9884
 5126SOL     OW26839   0.773   0.107  12.561  0.2034  0.1550 -0.5698
 5126SOL    HW126840   0.821   0.064  12.490  2.7459 -1.9262  2.4023
 5126SOL    HW226841   0.844   0.163  12.591  0.6822 -0.4423 -0.5821
 5127SOL     OW26842   0.742   2.263   1.352  0.0412 -0.6107  0.4498
 5127SOL    HW126843   0.757   2.321   1.426  1.3310 -0.5428  0.1337
 5127SOL    HW226844   0.828   2.223   1.336 -0.0679 -0.4899 -0.4597
 5128SOL     OW26845   2.884   1.279   3.349 -0.3730 -1.2481  0.0391
 5128SOL    HW126846   2.837   1.338   3.408 -0.4292 -2.3616  1.0990
 5128SOL    HW226847   2.909   1.207   3.407 -0.4557 -0.2055  1.3773
 5129SOL     OW26848   2.084   0.828   4.722 -0.0185  0.2931  0.8026
 5129SOL    HW126849   2.085   0.906   4.778  2.0398  0.3399  0.7171
 5129SOL    HW226850   2.165   0.781   4.739  0.1818  1.5766  3.3880
 5130SOL     OW26851   3.025   1.381   4.783 -0.4435 -0.2192  0.1113
 5130SOL    HW126852   3.084   1.362   4.855 -2.2831  0.6957  1.8804
 5130SOL    HW226853   2.949   1.398   4.839  0.6472  0.5403  1.3528
 5131SOL     OW26854   4.138   2.497   4.754  0.1668  0.9224  0.3794
 5131SOL    HW126855   4.185   2.414   4.746 -0.6169  0.5131  0.0089
 5131SOL    HW226856   4.170   2.540   4.675 -0.8252  0.5751 -0.2152
 5132SOL     OW26857   3.566   3.024   9.033 -0.5786 -0.3328 -0.1281
 5132SOL    HW126858   3.493   2.998   8.976 -1.4744  1.0443  0.3684
 5132SOL    HW226859   3.619   3.089   8.986 -2.1978 -0.0094 -1.5201
 5133SOL     OW26860   2.625   3.252   3.390  0.7387 -0.2292 -0.2556
 5133SOL    HW126861   2.565   3.284   3.323  1.1715  1.8230  0.3405
 5133SOL    HW226862   2.710   3.256   3.345  0.1410  0.9312 -1.2816
 5134SOL     OW26863   1.705   1.234  14.742  0.7616  0.5589  0.4262
 5134SOL    HW126864   1.754   1.315  14.756  0.9936  0.8296 -1.9768
 5134SOL    HW226865   1.628   1.264  14.694 -0.9602 -0.8925  2.2881
 5135SOL     OW26866   3.147   1.824   3.408 -0.2744 -0.2089  0.0900
 5135SOL    HW126867   3.070   1.875   3.383  0.9381  0.5494 -2.0968
 5135SOL    HW226868   3.205   1.894   3.437 -0.0576 -0.8607  1.2678
 5136SOL     OW26869   1.895   4.431   6.662 -0.9425 -0.3545  0.2903
 5136SOL    HW126870   1.816   4.384   6.637 -2.0101  0.8460  1.3891
 5136SOL    HW226871   1.903   4.493   6.590  3.5736  1.1794  2.1108
 5137SOL     OW26872   0.793   2.035  15.546  0.2126  0.4629  0.1644
 5137SOL    HW126873   0.859   2.084  15.497  0.6305  1.0841  1.3710
 5137SOL    HW226874   0.771   2.102  15.610  0.9144  0.4739  0.3892
 5138SOL     OW26875   2.835   2.555   9.626  0.5398  0.3386  0.0310
 5138SOL    HW126876   2.754   2.516   9.659 -0.3266  1.6100 -0.6046
 5138SOL    HW226877   2.889   2.550   9.705  1.1083  0.0568 -0.3737
 5139SOL     OW26878   1.369   4.307   5.144 -0.1329  0.4666  0.4176
 5139SOL    HW126879   1.407   4.364   5.211 -0.2441  0.9605  0.0560
 5139SOL    HW226880   1.319   4.255   5.207  0.7822 -2.3457 -1.1743
 5140SOL     OW26881   0.498   1.111   3.237 -0.1986 -0.0533 -0.4415
 5140SOL    HW126882   0.459   1.080   3.155  2.0588 -0.3273 -1.3888
 5140SOL    HW226883   0.473   1.045   3.301 -1.7703  0.2234 -0.7457
 5141SOL     OW26884   0.816   0.561   1.396 -0.2664 -0.1197 -0.1681
 5141SOL    HW126885   0.725   0.585   1.378 -0.3922 -0.5393 -0.0915
 5141SOL    HW226886   0.834   0.535   1.305  1.4872  0.8110 -0.0807
 5142SOL     OW26887   0.698   3.974   2.681 -0.0058 -0.1647  0.4185
 5142SOL    HW126888   0.788   3.985   2.648 -0.1242  1.2005  0.5655
 5142SOL    HW226889   0.702   3.905   2.747 -1.4167 -2.8905 -2.3400
 5143SOL     OW26890   2.782   3.591  13.078  0.1860 -0.2687  0.1275
 5143SOL    HW126891   2.714   3.657  13.062  0.3610  0.1236  1.0259
 5143SOL    HW226892   2.841   3.600  13.003  1.0647  1.4653  1.0148
 5144SOL     OW26893   3.520   0.214  12.080  0.7825  0.2427 -0.5513
 5144SOL    HW126894   3.426   0.227  12.066  0.5540  0.0523  0.7287
 5144SOL    HW226895   3.536   0.143  12.019 -0.2129  0.4240 -1.0089
 5145SOL     OW26896   0.528   0.577  13.107  0.2904 -0.0560  0.5129
 5145SOL    HW126897   0.450   0.560  13.055  0.9562 -1.9255  0.1133
 5145SOL    HW226898   0.501   0.654  13.158 -0.2838  0.3085 -0.3466
 5146SOL     OW26899   2.555   0.721   1.629 -0.1280  0.5208 -0.0677
 5146SOL    HW126900   2.530   0.791   1.569 -0.1707  0.7444  0.2079
 5146SOL    HW226901   2.619   0.763   1.687 -0.9043  1.6436 -0.0297
 5147SOL     OW26902   1.962   1.563   3.356 -0.3257 -0.0292 -0.3728
 5147SOL    HW126903   1.898   1.493   3.346  2.0928 -2.2630 -0.3983
 5147SOL    HW226904   1.943   1.601   3.442  1.4863  0.0286  0.0214
 5148SOL     OW26905   4.050   3.961   7.986 -0.0077  0.1320 -0.3645
 5148SOL    HW126906   4.053   3.968   8.082  0.2842  0.7157 -0.4179
 5148SOL    HW226907   4.130   4.006   7.959  0.3286 -0.5697 -0.5506
 5149SOL     OW26908   1.667   0.498   0.951 -0.2197  0.3103 -0.7578
 5149SOL    HW126909   1.718   0.449   0.887 -0.0115  1.2149 -1.2632
 5149SOL    HW226910   1.717   0.471   1.029 -3.0527  0.1825  1.0413
 5150SOL     OW26911   1.634   2.375   5.967  0.4618  0.0727  0.5343
 5150SOL    HW126912   1.575   2.414   5.903 -2.0687 -2.3453  1.4151
 5150SOL    HW226913   1.659   2.294   5.923 -1.2813 -0.6118  0.8050
 5151SOL     OW26914   0.678   0.125   4.046 -0.0553  0.0279 -0.2387
 5151SOL    HW126915   0.664   0.031   4.042  4.1445 -0.5315 -1.7175
 5151SOL    HW226916   0.604   0.162   3.998  0.1923  0.5954 -0.1836
 5152SOL     OW26917   2.864   4.335   5.282 -0.4433  0.4830 -0.1025
 5152SOL    HW126918   2.878   4.423   5.317 -0.0307 -0.8580  3.0405
 5152SOL    HW226919   2.950   4.319   5.245 -0.0037  1.0946  0.6770
 5153SOL     OW26920   3.164   4.677   5.397  0.7460  0.1969 -0.8394
 5153SOL    HW126921   3.110   4.608   5.360 -0.7421  0.9252 -0.0362
 5153SOL    HW226922   3.248   4.655   5.356  2.7290 -0.3524  3.5531
 5154SOL     OW26923   1.325   2.935  11.660 -0.3061  0.5567 -0.1751
 5154SOL    HW126924   1.414   2.946  11.694 -0.9861  0.5431  1.6296
 5154SOL    HW226925   1.341   2.848  11.623 -1.8814  0.4518 -0.6133
 5155SOL     OW26926   0.558   1.559   4.034 -0.5627  0.1656  0.4254
 5155SOL    HW126927   0.470   1.525   4.020 -1.5339  2.6828  0.3176
 5155SOL    HW226928   0.604   1.485   4.074 -2.0762 -1.5192 -0.9830
 5156SOL     OW26929   3.357   3.996  15.079 -0.1535  0.2885 -0.4675
 5156SOL    HW126930   3.263   3.984  15.091  0.1049 -1.4654 -0.0791
 5156SOL    HW226931   3.369   4.090  15.066  0.0377  0.1271 -1.4457
 5157SOL     OW26932   3.973   4.657  13.026 -0.0607 -0.4661 -0.7464
 5157SOL    HW126933   3.978   4.666  13.121  4.9340 -1.5758 -0.8713
 5157SOL    HW226934   4.042   0.001  13.004  1.0601 -1.1985  0.7259
 5158SOL     OW26935   3.382   2.398   3.833  0.2208 -0.0816 -0.0943
 5158SOL    HW126936   3.362   2.467   3.896 -0.3897 -0.2463 -0.1095
 5158SOL    HW226937   3.329   2.334   3.881  0.0419 -0.8249 -1.2841
 5159SOL     OW26938   2.367   2.874   8.638  0.1102  0.3202 -0.0856
 5159SOL    HW126939   2.334   2.929   8.708  0.7361  1.7909 -0.9415
 5159SOL    HW226940   2.423   2.825   8.698  0.3350 -0.8912 -1.2697
 5160SOL     OW26941   2.060   2.616   1.424  0.4355 -0.7629 -0.2659
 5160SOL    HW126942   1.999   2.547   1.450  2.0404 -0.8936  3.1488
 5160SOL    HW226943   2.021   2.637   1.339 -2.6131 -0.6092  1.1959
 5161SOL     OW26944   1.836   4.146   4.251 -0.1193  0.3207  0.2205
 5161SOL    HW126945   1.929   4.138   4.271  0.2717  2.0385 -0.9144
 5161SOL    HW226946   1.818   4.216   4.314 -1.7269  0.3862 -0.2912
 5162SOL     OW26947   1.413   2.185  16.643  0.0357  0.9344 -0.0946
 5162SOL    HW126948   1.439   2.210  16.732 -0.3213  1.1142 -0.0392
 5162SOL    HW226949   1.497   2.155  16.610  0.3408  0.6874  0.9022
 5163SOL     OW26950   0.324   2.514  17.628 -0.2312 -0.0748  0.2453
 5163SOL    HW126951   0.272   2.592  17.645  0.0672  0.5292 -1.6778
 5163SOL    HW226952   0.255   2.458  17.593 -0.5233  0.3015  0.2197
 5164SOL     OW26953   1.293   1.031  12.076  0.1695  0.5479  0.3223
 5164SOL    HW126954   1.375   1.067  12.043 -1.5334  0.3849 -4.0981
 5164SOL    HW226955   1.327   0.960  12.130 -1.4825  0.1288  0.8126
 5165SOL     OW26956   2.181   4.279   5.840 -0.7101 -0.2625  0.1537
 5165SOL    HW126957   2.250   4.336   5.806  1.0193 -0.8694  2.6866
 5165SOL    HW226958   2.230   4.198   5.852 -2.5314 -1.6906 -1.9803
 5166SOL     OW26959   0.813   0.303   7.711  0.1908  0.1591 -0.6532
 5166SOL    HW126960   0.763   0.234   7.666 -1.6298  0.8611  0.2729
 5166SOL    HW226961   0.897   0.257   7.713  0.0806  0.0067  0.4349
 5167SOL     OW26962   2.175   4.181   7.082  0.6315 -0.0921  0.1979
 5167SOL    HW126963   2.097   4.151   7.127 -1.1580  1.0120 -2.1669
 5167SOL    HW226964   2.237   4.148   7.147 -0.8726  1.6611  2.4992
 5168SOL     OW26965   1.867   0.785   8.985  0.1488  0.0622 -0.0141
 5168SOL    HW126966   1.802   0.816   9.048 -0.9775  1.2773 -1.7794
 5168SOL    HW226967   1.915   0.867   8.972  1.0518 -0.8083 -2.1275
 5169SOL     OW26968   4.296   4.670   2.893 -0.2722  0.2102 -0.5479
 5169SOL    HW126969   4.255   4.588   2.863 -0.0955  0.0612 -0.3815
 5169SOL    HW226970   4.214   4.717   2.905 -0.7407 -0.5230 -0.9030
 5170SOL     OW26971   2.254   2.398  13.288 -0.2215 -0.0061 -0.2637
 5170SOL    HW126972   2.219   2.337  13.223 -0.5159  0.0577 -0.1644
 5170SOL    HW226973   2.180   2.451  13.316 -1.3914 -1.8312  0.1068
 5171SOL     OW26974   1.565   2.007   7.585 -0.1931  0.1252  0.1819
 5171SOL    HW126975   1.595   1.938   7.525 -2.3281 -0.2138 -0.5027
 5171SOL    HW226976   1.648   2.024   7.629  1.3036 -2.2107 -1.7051
 5172SOL     OW26977   1.161   0.211   5.005 -0.6998  0.3716  0.2313
 5172SOL    HW126978   1.085   0.159   4.976 -0.0484 -0.3235 -0.2460
 5172SOL    HW226979   1.185   0.255   4.923  0.6133 -2.3713 -0.8820
 5173SOL     OW26980   1.873   1.106  12.612  0.6774 -0.6577 -0.1690
 5173SOL    HW126981   1.923   1.094  12.692  2.1972 -2.3088 -1.3744
 5173SOL    HW226982   1.882   1.024  12.564 -0.0415  0.7391 -2.6878
 5174SOL     OW26983   3.815   1.836   4.571  0.1803 -0.0836  0.3239
 5174SOL    HW126984   3.809   1.815   4.664  2.6327 -0.0495  0.5036
 5174SOL    HW226985   3.853   1.755   4.537 -0.4900  0.3461 -1.4493
 5175SOL     OW26986   4.392   3.040   8.251 -0.4631 -0.4676  0.3482
 5175SOL    HW126987   4.458   3.084   8.305 -1.8053  1.2067  0.6703
 5175SOL    HW226988   4.355   2.993   8.325 -3.6922  0.1092 -0.8852
 5176SOL     OW26989   3.353   3.272  17.574  0.3735  0.0565 -0.1440
 5176SOL    HW126990   3.428   3.324  17.604  2.0806 -1.9646 -0.8455
 5176SOL    HW226991   3.279   3.330  17.559  0.0993  0.9264  4.6095
 5177SOL     OW26992   4.678   1.872  13.890  0.5108 -1.0662 -0.2189
 5177SOL    HW126993   4.650   1.901  13.976  0.8512 -1.0397 -0.1169
 5177SOL    HW226994   4.616   1.803  13.867  0.4424 -1.2111  0.4056
 5178SOL     OW26995   3.708   4.073   6.167 -0.6497  0.2035  1.2487
 5178SOL    HW126996   3.729   4.028   6.085  0.0721  1.3555  0.7918
 5178SOL    HW226997   3.728   4.011   6.237 -0.6362 -1.0558  0.1294
 5179SOL     OW26998   4.695   4.627   9.571 -0.0953  0.0241 -0.1902
 5179SOL    HW126999   4.607   4.652   9.542 -0.2860 -0.6725 -0.1996
 5179SOL    HW227000   4.675   4.548   9.621 -0.6559  0.5511  0.4317
 5180SOL     OW27001   4.168   4.639   5.744  0.1515 -0.2896 -0.0312
 5180SOL    HW127002   4.089   4.668   5.698 -1.5462 -2.7057  1.3177
 5180SOL    HW227003   4.221   4.609   5.671  0.1403  0.2150 -0.2454
 5181SOL     OW27004   3.155   0.939   3.682  0.2843 -0.3744 -0.1753
 5181SOL    HW127005   3.173   0.845   3.674 -1.0860 -0.5598 -1.0672
 5181SOL    HW227006   3.150   0.938   3.778  1.6075 -2.6200 -0.1373
 5182SOL     OW27007   3.672   3.497   7.922  0.2424  0.1525  0.4230
 5182SOL    HW127008   3.731   3.470   7.992 -0.1571 -1.1987  0.2455
 5182SOL    HW227009   3.739   3.556   7.888 -0.2047  0.6844  0.4735
 5183SOL     OW27010   1.181   4.471   6.841 -0.3958  0.2130 -0.1372
 5183SOL    HW127011   1.115   4.429   6.785 -1.3074  0.4207  0.7785
 5183SOL    HW227012   1.239   4.516   6.780 -1.8581 -1.5633 -2.8533
 5184SOL     OW27013   2.452   3.537   1.081 -0.4968  0.2452 -0.6478
 5184SOL    HW127014   2.443   3.630   1.101  0.3376  0.1323  0.3052
 5184SOL    HW227015   2.498   3.519   1.163  0.9302  2.0757 -1.0563
 5185SOL     OW27016   2.380   4.377   2.946  0.1070 -0.0951  0.0681
 5185SOL    HW127017   2.323   4.452   2.929 -2.2065 -1.5999  1.2874
 5185SOL    HW227018   2.463   4.403   2.905  0.6224 -3.2863 -0.8626
 5186SOL     OW27019   0.722   4.242   2.828 -0.1833  0.0234 -0.6644
 5186SOL    HW127020   0.718   4.169   2.767 -2.6454 -0.6648  0.2992
 5186SOL    HW227021   0.677   4.216   2.908 -0.1822  0.6124 -0.4677
 5187SOL     OW27022   3.576   3.545   5.617 -0.3642 -0.1626 -0.5795
 5187SOL    HW127023   3.547   3.583   5.700  0.9696 -0.6337  0.0998
 5187SOL    HW227024   3.602   3.623   5.568 -3.2498  1.0944 -0.0891
 5188SOL     OW27025   2.470   4.306   8.096  0.0977  0.4836 -0.5108
 5188SOL    HW127026   2.485   4.277   8.186 -0.9567  2.8439  0.4361
 5188SOL    HW227027   2.537   4.261   8.046  0.1281  0.6689 -0.6372
 5189SOL     OW27028   1.450   3.521   3.025  0.9278 -0.1873 -0.3306
 5189SOL    HW127029   1.383   3.488   2.966 -0.4764 -4.6163  3.7995
 5189SOL    HW227030   1.514   3.452   3.044 -1.1706 -1.5756  1.6977
 5190SOL     OW27031   1.009   3.985   3.723  0.1652 -0.1926  0.0524
 5190SOL    HW127032   1.087   4.040   3.734  1.3562 -1.3978 -2.2812
 5190SOL    HW227033   1.026   3.956   3.634 -0.7394 -0.4819 -0.0246
 5191SOL     OW27034   2.539   3.886   3.520 -0.1238 -0.5276  0.3383
 5191SOL    HW127035   2.632   3.905   3.520 -0.7555  2.5937 -0.6861
 5191SOL    HW227036   2.500   3.974   3.527  0.5661 -0.1306 -0.9157
 5192SOL     OW27037   3.699   3.206   8.602 -0.1425 -0.1977  0.2216
 5192SOL    HW127038   3.720   3.298   8.588  0.6744  0.0006  2.6556
 5192SOL    HW227039   3.780   3.172   8.564  0.2144 -0.4808  1.2167
 5193SOL     OW27040   4.100   2.036   1.910 -0.1497 -0.0998 -0.4326
 5193SOL    HW127041   4.191   2.019   1.935  0.3843  2.3071 -0.7680
 5193SOL    HW227042   4.096   2.132   1.907 -1.2815 -0.0892  1.0053
 5194SOL     OW27043   1.905   0.217   8.794  0.3344  0.4910 -0.5826
 5194SOL    HW127044   1.820   0.260   8.788  0.6322  0.9500 -1.4809
 5194SOL    HW227045   1.952   0.272   8.858  1.2919  1.6395 -2.2724
 5195SOL     OW27046   3.839   3.606   2.763 -0.2026  0.5189  0.0199
 5195SOL    HW127047   3.788   3.687   2.776  1.0660  1.3683 -0.3072
 5195SOL    HW227048   3.786   3.568   2.693 -1.6877 -0.6162  1.7590
 5196SOL     OW27049   3.757   2.463   9.035 -0.3328  0.4229  0.2546
 5196SOL    HW127050   3.708   2.545   9.031  0.9026  1.1432  0.0099
 5196SOL    HW227051   3.816   2.476   9.110 -0.0620 -0.0980  0.1345
 5197SOL     OW27052   0.103   4.672  12.225  0.3921 -0.0366  0.4774
 5197SOL    HW127053   0.149   4.672  12.309 -0.6414 -0.0211  1.0506
 5197SOL    HW227054   0.035   4.607  12.241  1.7806 -1.8901 -1.1619
 5198SOL     OW27055   2.622   0.739  15.350  0.4671 -0.3622  0.0911
 5198SOL    HW127056   2.717   0.741  15.354  0.4447  0.3797  0.3441
 5198SOL    HW227057   2.599   0.648  15.332  0.7913 -1.0422  3.1663
 5199SOL     OW27058   3.413   4.065   0.141  0.1976  0.2603  0.7871
 5199SOL    HW127059   3.400   3.980   0.182 -1.7300 -0.7108 -1.8555
 5199SOL    HW227060   3.490   4.060   0.084 -0.7034  0.2067 -0.4193
 5200SOL     OW27061   0.782   4.570  14.495  0.0380  0.0006  0.0624
 5200SOL    HW127062   0.751   4.535  14.412 -0.0732 -0.0968  0.1449
 5200SOL    HW227063   0.777   4.665  14.482  2.9992 -0.1942 -2.6219
 5201SOL     OW27064   3.091   3.251  10.158  0.0130  0.1448  0.0211
 5201SOL    HW127065   3.099   3.330  10.104 -3.4363  1.1211  0.9236
 5201SOL    HW227066   3.129   3.191  10.094  0.8547 -0.0408  0.6927
 5202SOL     OW27067   0.108   3.166   9.700  0.2467  0.3870 -0.1583
 5202SOL    HW127068   0.126   3.135   9.788  0.7716 -0.0431 -0.4118
 5202SOL    HW227069   0.071   3.086   9.661 -0.4034  1.3430 -1.4976
 5203SOL     OW27070   2.304   2.586  12.917 -0.5519  0.3177  0.3549
 5203SOL    HW127071   2.294   2.665  12.970  1.2661 -0.6892  2.2538
 5203SOL    HW227072   2.381   2.612  12.866 -0.3912 -0.5614  0.1455
 5204SOL     OW27073   1.371   0.802  12.226  0.4697 -0.2562  0.5619
 5204SOL    HW127074   1.321   0.722  12.213  0.3670 -0.0460 -0.3306
 5204SOL    HW227075   1.432   0.777  12.157 -1.7901  0.1724 -1.5687
 5205SOL     OW27076   0.065   0.103  11.989  0.4209  0.2673 -0.0842
 5205SOL    HW127077   0.029   0.167  12.050 -0.4731  0.8279 -1.1983
 5205SOL    HW227078   0.088   0.042  12.059  0.8630 -0.2525 -0.6808
 5206SOL     OW27079   1.089   3.934   3.428 -0.5335 -0.4995 -0.3000
 5206SOL    HW127080   1.099   4.010   3.370 -0.0499 -0.3203  0.0263
 5206SOL    HW227081   0.994   3.918   3.424 -0.2831 -2.1817  1.0817
 5207SOL     OW27082   2.951   0.917   1.010  0.2031 -0.4593 -0.2579
 5207SOL    HW127083   3.025   0.898   1.069 -0.0975  0.5074  0.4203
 5207SOL    HW227084   2.879   0.878   1.059  1.6999  0.4242  2.6309
 5208SOL     OW27085   0.012   2.266  14.046 -0.7225 -0.2550 -0.0242
 5208SOL    HW127086   4.702   2.265  14.138 -1.1419  0.0678 -0.1461
 5208SOL    HW227087   0.026   2.173  14.029  0.1340 -0.1012 -0.1334
 5209SOL     OW27088   3.139   3.696   2.894  0.5661 -0.2401 -0.0288
 5209SOL    HW127089   3.061   3.641   2.884  0.0073  0.1157  2.3892
 5209SOL    HW227090   3.095   3.776   2.922 -2.4520 -2.2675  1.0620
 5210SOL     OW27091   0.503   1.851   1.882 -0.3395  0.6093 -0.2124
 5210SOL    HW127092   0.409   1.863   1.870 -0.6096 -2.5663 -1.3343
 5210SOL    HW227093   0.497   1.812   1.969 -0.6460  2.4822  0.6048
 5211SOL     OW27094   4.570   0.138   3.918  0.3934  0.0620 -0.0596
 5211SOL    HW127095   4.529   0.058   3.951  1.1541 -0.0136  0.7155
 5211SOL    HW227096   4.586   0.116   3.826 -0.3016 -0.2740 -0.1005
 5212SOL     OW27097   2.993   0.826  12.818 -0.5060  0.5311  0.1220
 5212SOL    HW127098   2.928   0.811  12.750  1.0444 -0.1084 -1.2297
 5212SOL    HW227099   3.073   0.839  12.766 -0.0634  2.6951  1.3451
 5213SOL     OW27100   3.111   1.368   1.933 -0.5289 -0.1117 -0.7854
 5213SOL    HW127101   3.121   1.317   1.852 -2.7434  0.2623 -1.3027
 5213SOL    HW227102   3.192   1.343   1.976  0.1324  0.9670 -1.4271
 5214SOL     OW27103   1.693   1.513  13.230 -0.5776  0.1431 -0.1709
 5214SOL    HW127104   1.676   1.424  13.199  0.1269 -0.1374  0.2507
 5214SOL    HW227105   1.703   1.488  13.322 -1.5984 -0.8133 -0.3160
 5215SOL     OW27106   1.832   4.140   9.187  0.5468  0.2179  0.0330
 5215SOL    HW127107   1.820   4.189   9.268 -2.1529  1.9803 -1.4403
 5215SOL    HW227108   1.875   4.060   9.218 -1.6492  0.0000  2.5726
 5216SOL     OW27109   0.544   3.151  16.556 -0.1242 -0.6375 -0.2638
 5216SOL    HW127110   0.570   3.174  16.645  0.3694 -2.5587  0.0960
 5216SOL    HW227111   0.450   3.164  16.557  0.0055  0.3133 -0.8517
 5217SOL     OW27112   0.644   4.504   3.799 -0.3749  0.4439  0.4309
 5217SOL    HW127113   0.605   4.549   3.874 -0.5254  0.3360  0.4171
 5217SOL    HW227114   0.691   4.428   3.831 -3.1748 -0.8948  1.3928
 5218SOL     OW27115   0.328   0.545   8.875  0.6803 -0.4189 -0.3717
 5218SOL    HW127116   0.356   0.631   8.908 -0.6711  0.1533 -0.7162
 5218SOL    HW227117   0.367   0.543   8.788  2.2417  0.8737  0.2751
 5219SOL     OW27118   1.102   3.454   7.778 -0.5314 -0.1538  0.3337
 5219SOL    HW127119   1.019   3.482   7.817 -0.0326 -0.1724  1.4081
 5219SOL    HW227120   1.152   3.426   7.854  2.2643 -1.3610 -1.9842
 5220SOL     OW27121   2.105   3.752  11.395  0.5461  0.8077  0.6997
 5220SOL    HW127122   2.066   3.702  11.467 -3.6726  2.9429 -0.0975
 5220SOL    HW227123   2.199   3.738  11.404  0.3593 -1.6634 -0.9674
 5221SOL     OW27124   2.421   0.804   5.495  1.1678  0.2029  0.2141
 5221SOL    HW127125   2.429   0.709   5.487 -0.3861 -0.0323  1.3519
 5221SOL    HW227126   2.493   0.837   5.442  0.7554  0.4561 -0.1965
 5222SOL     OW27127   2.808   1.849   8.086 -0.3011 -0.4883  0.0602
 5222SOL    HW127128   2.847   1.907   8.151 -0.5669 -1.1995  0.8557
 5222SOL    HW227129   2.782   1.911   8.017  1.4572 -0.6445 -0.7499
 5223SOL     OW27130   1.428   4.534   5.760  0.0697 -0.2437 -0.6175
 5223SOL    HW127131   1.403   4.442   5.758  0.1910 -0.2976  0.2756
 5223SOL    HW227132   1.373   4.571   5.691 -1.3695  0.1836  0.7793
 5224SOL     OW27133   1.322   0.058   2.056  0.3659  0.0741 -0.5482
 5224SOL    HW127134   1.345   0.138   2.008  1.2552 -0.7620 -1.5067
 5224SOL    HW227135   1.278   0.000   1.994  0.1005 -0.5372  0.2134
 5225SOL     OW27136   2.330   1.637   5.981  0.1616 -0.2806  1.0543
 5225SOL    HW127137   2.270   1.572   6.019 -0.9943 -0.6754 -1.5042
 5225SOL    HW227138   2.415   1.595   5.992 -1.8882 -3.7859  3.5727
 5226SOL     OW27139   3.214   1.675   2.778  0.3489 -0.0264  0.1626
 5226SOL    HW127140   3.229   1.605   2.715 -0.8557  0.6347 -0.8663
 5226SOL    HW227141   3.224   1.628   2.861 -1.3757  1.6509  1.3188
 5227SOL     OW27142   2.852   2.805   6.236 -0.5675  0.1959 -0.2450
 5227SOL    HW127143   2.769   2.853   6.241 -1.8488 -2.2519  1.4944
 5227SOL    HW227144   2.907   2.881   6.215  0.1470 -0.1850  0.2534
 5228SOL     OW27145   3.475   1.665   5.770  0.1833  0.1572  0.5455
 5228SOL    HW127146   3.563   1.702   5.764 -0.1291  1.1860  2.1032
 5228SOL    HW227147   3.446   1.733   5.831 -0.8215 -0.4461  0.7411
 5229SOL     OW27148   3.961   0.556   2.900  0.0152  0.5054 -0.0685
 5229SOL    HW127149   3.941   0.544   2.993  0.9318 -2.0462 -0.2031
 5229SOL    HW227150   3.908   0.484   2.864 -0.5420 -0.2640  2.2665
 5230SOL     OW27151   1.618   0.779  14.971 -0.7272  0.0584  0.3208
 5230SOL    HW127152   1.711   0.782  14.951 -1.2796 -2.9383 -2.7103
 5230SOL    HW227153   1.592   0.853  14.915 -1.6055  1.0001  1.9915
 5231SOL     OW27154   1.470   1.792   8.060  0.5277  0.4516  0.4848
 5231SOL    HW127155   1.522   1.809   8.138 -0.6962  2.9573  0.7572
 5231SOL    HW227156   1.443   1.701   8.074  0.2533  0.8561  2.5563
 5232SOL     OW27157   2.202   4.648   0.247 -0.5553 -0.1426  0.2944
 5232SOL    HW127158   2.178   4.671   0.337 -0.8696  1.4307 -0.1842
 5232SOL    HW227159   2.198   0.015   0.203  1.1146 -0.2152  0.0144
 5233SOL     OW27160   1.282   2.979   5.101  0.3669  0.0706 -0.1286
 5233SOL    HW127161   1.307   2.915   5.035 -3.5324 -1.8075  0.2452
 5233SOL    HW227162   1.190   2.953   5.105  0.0390  0.9840 -1.5108
 5234SOL     OW27163   0.991   4.662   8.418 -0.3684 -0.4901 -0.3449
 5234SOL    HW127164   0.970   4.584   8.469 -0.5476  0.5429  1.1708
 5234SOL    HW227165   0.909   4.711   8.414 -0.1558 -0.1135 -0.0329
 5235SOL     OW27166   1.080   4.343   3.555 -0.1639  0.4222  0.4941
 5235SOL    HW127167   1.121   4.353   3.641  0.6866 -0.6739  0.2147
 5235SOL    HW227168   1.086   4.437   3.537  1.9911  0.0579 -0.6580
 5236SOL     OW27169   3.467   1.352  15.557 -0.7449 -0.3183  0.0424
 5236SOL    HW127170   3.522   1.294  15.503  0.5441  0.1399  0.8508
 5236SOL    HW227171   3.524   1.427  15.573 -0.0706 -0.7893 -0.1431
 5237SOL     OW27172   2.164   0.010   4.087 -0.3243 -0.1690 -0.0287
 5237SOL    HW127173   2.244   4.686   4.057 -0.9541 -1.9358  0.7629
 5237SOL    HW227174   2.186   0.049   4.172 -0.8993 -0.1063  0.0914
 5238SOL     OW27175   0.458   3.952  15.946  0.0755  0.7466 -0.1224
 5238SOL    HW127176   0.384   3.998  15.906 -1.0313 -1.0902 -0.2222
 5238SOL    HW227177   0.415   3.870  15.971  1.8752  0.2044  1.2013
 5239SOL     OW27178   2.266   2.665   4.161 -0.2232 -0.0125 -0.1925
 5239SOL    HW127179   2.216   2.738   4.197  0.4464  0.7642 -0.8343
 5239SOL    HW227180   2.351   2.703   4.136  1.0286 -2.5122  0.2563
 5240SOL     OW27181   3.645   4.616   6.829  0.1744 -0.1518  0.1009
 5240SOL    HW127182   3.681   4.635   6.916 -1.1831 -1.2761  0.9073
 5240SOL    HW227183   3.620   4.705   6.805  0.2451 -0.6485 -1.8275
 5241SOL     OW27184   2.470   2.569   7.016 -0.0074  0.4928  0.6897
 5241SOL    HW127185   2.389   2.548   6.970  1.0913 -0.0690 -1.0268
 5241SOL    HW227186   2.444   2.542   7.104  1.7410 -0.8794  0.7970
 5242SOL     OW27187   4.214   3.255   5.364  1.0079 -0.1217  0.2345
 5242SOL    HW127188   4.242   3.292   5.281  1.2974 -0.2721  0.2648
 5242SOL    HW227189   4.301   3.242   5.403 -0.7800 -4.3556  2.8535
 5243SOL     OW27190   2.371   2.687  13.288 -0.2786 -0.1184 -0.2637
 5243SOL    HW127191   2.438   2.708  13.353 -0.1167  0.5990 -0.6652
 5243SOL    HW227192   2.307   2.635  13.337 -1.0568 -0.9160 -2.1593
 5244SOL     OW27193   0.006   2.851   3.122 -0.3013 -0.1557 -0.0455
 5244SOL    HW127194   4.704   2.940   3.151 -0.0557 -0.2111  0.2957
 5244SOL    HW227195   0.014   2.857   3.026 -2.4895  0.4130 -0.1999
 5245SOL     OW27196   1.475   1.032   2.914  0.3480 -0.0623 -0.3458
 5245SOL    HW127197   1.513   1.111   2.875 -0.3273  0.7471  0.6285
 5245SOL    HW227198   1.444   0.993   2.832 -1.6794  0.0723  0.3606
 5246SOL     OW27199   2.061   2.495   9.230 -0.1096  0.4954  0.2588
 5246SOL    HW127200   1.976   2.537   9.218 -0.3971  0.1508  1.0136
 5246SOL    HW227201   2.038   2.455   9.314 -1.2601  1.3523  0.3425
 5247SOL     OW27202   1.553   0.394   2.800  0.0662  0.5946 -0.5719
 5247SOL    HW127203   1.573   0.339   2.876 -1.6801 -0.1969 -0.6989
 5247SOL    HW227204   1.464   0.428   2.807  0.7771  1.9087  2.0975
 5248SOL     OW27205   0.696   3.482   8.526  0.3740  0.0580  0.2267
 5248SOL    HW127206   0.768   3.542   8.507 -0.3214  0.2395 -1.8183
 5248SOL    HW227207   0.646   3.503   8.447  1.1207 -2.7007 -0.9931
 5249SOL     OW27208   0.747   2.853   8.060  0.3576  0.1172  0.3563
 5249SOL    HW127209   0.840   2.851   8.038  0.4367  0.1367  0.6930
 5249SOL    HW227210   0.704   2.841   7.975 -1.5199  0.9984  1.1813
 5250SOL     OW27211   2.316   0.097   9.168  0.3832  0.2274  0.4089
 5250SOL    HW127212   2.302   0.182   9.210  0.0239  0.5247 -0.3241
 5250SOL    HW227213   2.401   0.066   9.200  1.0579  0.5985 -1.0185
 5251SOL     OW27214   3.693   0.013   4.850  1.0433  0.0504 -0.5272
 5251SOL    HW127215   3.685   4.713   4.944  2.2633 -0.3473 -0.5011
 5251SOL    HW227216   3.649   0.098   4.847  0.2088 -0.3835 -0.5006
 5252SOL     OW27217   4.168   2.763   4.306 -0.6159 -0.1207  0.8933
 5252SOL    HW127218   4.203   2.837   4.355  0.4090 -0.6968  1.0427
 5252SOL    HW227219   4.128   2.712   4.378  0.8260 -2.1368  0.2639
 5253SOL     OW27220   4.712   4.210   6.325  0.7024  0.4507 -0.6840
 5253SOL    HW127221   4.656   4.240   6.254  0.0849 -2.4173 -1.4087
 5253SOL    HW227222   0.071   4.179   6.277  1.1357 -0.6835  0.7388
 5254SOL     OW27223   0.933   4.366   6.731  0.0324 -0.0094  0.5661
 5254SOL    HW127224   0.900   4.413   6.807 -2.3499 -0.1868 -0.3781
 5254SOL    HW227225   0.871   4.295   6.714 -0.8392  1.6900 -3.5189
 5255SOL     OW27226   0.455   4.558   6.148 -0.3231  0.1660 -0.4274
 5255SOL    HW127227   0.433   4.518   6.232 -0.4780 -0.0621 -0.5770
 5255SOL    HW227228   0.445   4.483   6.089  1.1454  0.9408 -1.6348
 5256SOL     OW27229   0.816   3.812  14.111 -0.4503 -0.4481 -0.4498
 5256SOL    HW127230   0.778   3.747  14.170 -0.7552  0.7742  0.7039
 5256SOL    HW227231   0.902   3.818  14.151  0.6493  1.5818 -3.1358
 5257SOL     OW27232   4.433   2.945   6.560  0.7026 -0.0025 -1.3253
 5257SOL    HW127233   4.509   2.933   6.502  0.6310 -1.7270 -1.0690
 5257SOL    HW227234   4.469   2.923   6.646 -1.9974  0.2881 -0.1136
 5258SOL     OW27235   1.763   4.086  10.076  0.0559 -0.3970 -0.3828
 5258SOL    HW127236   1.735   4.143  10.005 -1.3852 -1.2936 -0.5311
 5258SOL    HW227237   1.849   4.129  10.081 -0.1097  0.0464 -1.2895
 5259SOL     OW27238   0.576   0.056   9.952 -0.4267 -0.4805 -0.4132
 5259SOL    HW127239   0.548   0.072  10.042 -3.2669  2.4632 -1.8046
 5259SOL    HW227240   0.663   0.017   9.962  0.5388  1.5937 -0.5940
 5260SOL     OW27241   3.473   2.361  16.692 -0.0574  0.7184 -0.1539
 5260SOL    HW127242   3.416   2.310  16.750 -0.2241 -0.3735 -1.2638
 5260SOL    HW227243   3.519   2.292  16.643 -1.6466 -1.2619  1.1280
 5261SOL     OW27244   3.377   2.640   2.399 -0.3397  0.3652 -0.4351
 5261SOL    HW127245   3.367   2.673   2.309  1.6126  1.2457 -0.3253
 5261SOL    HW227246   3.352   2.716   2.451 -1.4271 -0.5421  0.3522
 5262SOL     OW27247   3.784   0.571   2.008  0.1984  0.8825  0.0131
 5262SOL    HW127248   3.783   0.657   1.968  0.6940  1.4846  1.2902
 5262SOL    HW227249   3.843   0.518   1.954 -0.9185  1.0536 -1.3609
 5263SOL     OW27250   4.713   2.026   3.738 -0.2200  0.0657  0.4336
 5263SOL    HW127251   0.039   2.110   3.751 -3.8239  2.2016 -1.1009
 5263SOL    HW227252   0.028   2.013   3.649 -1.2168 -0.4612  0.1312
 5264SOL     OW27253   4.031   1.503   7.542 -0.1761  0.1991  0.1439
 5264SOL    HW127254   3.951   1.555   7.537  0.9999  1.8720 -1.3735
 5264SOL    HW227255   4.075   1.564   7.601 -0.3738  0.0319  0.4623
 5265SOL     OW27256   1.612   2.001   6.065  0.8197 -0.0312 -0.2648
 5265SOL    HW127257   1.617   2.082   6.116  0.2909  0.3396 -0.8137
 5265SOL    HW227258   1.517   2.000   6.054  0.5371  0.0662  2.1838
 5266SOL     OW27259   0.055   1.973   7.683 -0.0945  1.1693 -0.0708
 5266SOL    HW127260   0.148   1.986   7.699  0.0233  0.4562 -0.1650
 5266SOL    HW227261   0.013   1.986   7.768  1.6905  2.4457  0.6099
 5267SOL     OW27262   4.384   0.634   3.145  0.2574  0.3896  0.1938
 5267SOL    HW127263   4.311   0.626   3.083  1.0423 -0.8459 -0.5835
 5267SOL    HW227264   4.390   0.726   3.169 -2.2568  0.2490  1.2985
 5268SOL     OW27265   0.744   2.687   5.716 -0.2162 -0.3220 -0.2889
 5268SOL    HW127266   0.823   2.633   5.723 -0.8178 -1.2293 -0.4722
 5268SOL    HW227267   0.669   2.640   5.752 -1.1428 -0.3164 -2.1841
 5269SOL     OW27268   1.538   1.967  14.651 -0.5298 -0.3007  0.3897
 5269SOL    HW127269   1.565   1.962  14.743 -2.1541  1.1589  0.9526
 5269SOL    HW227270   1.443   1.956  14.648 -0.7280  0.8894  2.0562
 5270SOL     OW27271   1.740   0.190   7.457 -0.3506  0.2761 -0.3251
 5270SOL    HW127272   1.751   0.100   7.426  0.4345  0.3496 -0.2769
 5270SOL    HW227273   1.696   0.230   7.382 -1.7897 -0.2646  0.2287
 5271SOL     OW27274   4.318   0.042   7.137  0.2308 -0.1315  0.2550
 5271SOL    HW127275   4.303   0.004   7.050 -0.8281  0.0951  0.3478
 5271SOL    HW227276   4.394   0.095   7.111 -0.6243  1.0698  0.2024
 5272SOL     OW27277   0.154   2.009   3.504  0.3535 -0.7547  0.1101
 5272SOL    HW127278   0.230   1.969   3.462  0.0061 -0.9801 -0.2964
 5272SOL    HW227279   0.140   2.085   3.447  0.3649  1.2735  2.7829
 5273SOL     OW27280   3.257   2.416   8.236  0.1375 -0.4737  0.3769
 5273SOL    HW127281   3.252   2.472   8.158  2.2503 -2.3231 -1.0618
 5273SOL    HW227282   3.204   2.473   8.292  1.3448 -0.1733  1.2054
 5274SOL     OW27283   4.045   4.033   4.686  0.1110  0.1359  0.4593
 5274SOL    HW127284   3.953   4.044   4.662  0.6934  1.8862 -1.0123
 5274SOL    HW227285   4.073   3.956   4.636 -1.4576 -0.7340  0.9451
 5275SOL     OW27286   0.880   1.302   2.735 -0.3822 -0.2535  0.3947
 5275SOL    HW127287   0.822   1.350   2.676  2.2511  1.0865 -1.1285
 5275SOL    HW227288   0.964   1.340   2.707 -0.4614 -2.3369 -2.7334
 5276SOL     OW27289   3.982   4.631   6.690 -0.4218  0.9779  0.1566
 5276SOL    HW127290   3.932   4.550   6.704  1.4576  0.1224  1.8356
 5276SOL    HW227291   3.924   4.681   6.633  1.8390  1.3895 -1.8065
 5277SOL     OW27292   3.371   3.128   7.776 -0.5637 -0.0344  0.1591
 5277SOL    HW127293   3.395   3.054   7.720  0.5831 -0.3173  1.0130
 5277SOL    HW227294   3.460   3.149   7.806 -0.1956  1.3443 -1.8442
 5278SOL     OW27295   1.931   3.730  13.527  0.2243  0.2886 -0.2574
 5278SOL    HW127296   1.981   3.710  13.448  0.1206 -0.2883 -0.1792
 5278SOL    HW227297   2.003   3.757  13.585  0.1460  1.8701 -0.9069
 5279SOL     OW27298   1.473   1.011   3.395 -0.0863  0.5153 -0.1846
 5279SOL    HW127299   1.432   1.050   3.473  0.0003 -1.1273  0.6625
 5279SOL    HW227300   1.413   1.029   3.323  0.3232  1.9544 -0.1667
 5280SOL     OW27301   0.825   1.511  15.592  0.0933  0.2578  0.4486
 5280SOL    HW127302   0.902   1.467  15.555  1.3495  1.7929  1.2837
 5280SOL    HW227303   0.748   1.457  15.574 -0.7008  1.8978 -1.1126
 5281SOL     OW27304   4.544   1.062   5.754  0.0054  0.0969  0.3849
 5281SOL    HW127305   4.546   1.132   5.689  0.8469 -0.2238  0.0604
 5281SOL    HW227306   4.460   1.028   5.725 -0.2828  2.2489 -1.2879
 5282SOL     OW27307   3.619   3.278   7.730  0.7278 -0.2754 -0.2382
 5282SOL    HW127308   3.548   3.337   7.703 -0.7358 -1.0665  1.9167
 5282SOL    HW227309   3.666   3.330   7.794  0.6383 -0.5140  0.0184
 5283SOL     OW27310   3.611   4.402   4.363  0.5809  0.0187  0.0106
 5283SOL    HW127311   3.653   4.334   4.311  1.7117  0.6743  0.0618
 5283SOL    HW227312   3.669   4.478   4.360 -0.1083  0.5831  0.8534
 5284SOL     OW27313   4.714   4.425   5.869 -0.1173 -0.0782  0.3047
 5284SOL    HW127314   0.045   4.501   5.898  0.1929 -1.2893  2.9304
 5284SOL    HW227315   4.649   4.468   5.813 -0.6815 -0.3661  0.7384
 5285SOL     OW27316   0.283   1.271   7.892  0.2332 -0.0029 -0.0086
 5285SOL    HW127317   0.328   1.225   7.821 -2.5344  1.9625 -3.0458
 5285SOL    HW227318   0.327   1.355   7.904  1.0225 -0.3297 -0.5866
 5286SOL     OW27319   2.397   1.881  16.378 -0.5287  0.2998  0.6996
 5286SOL    HW127320   2.342   1.866  16.455 -1.2985 -2.1597 -0.3079
 5286SOL    HW227321   2.336   1.926  16.319  0.9572  0.3596 -0.7849
 5287SOL     OW27322   4.333   0.874   3.238  0.0822  0.3458  0.2950
 5287SOL    HW127323   4.310   0.846   3.326 -1.3483 -2.3764 -0.9285
 5287SOL    HW227324   4.294   0.962   3.240  0.8719  0.6946  0.5424
 5288SOL     OW27325   1.949   3.998   4.652 -0.1395 -0.4468 -0.6081
 5288SOL    HW127326   1.937   3.985   4.746  0.4582  0.2244 -0.4349
 5288SOL    HW227327   2.027   4.054   4.655 -3.0148  3.5195  1.4627
 5289SOL     OW27328   0.113   0.371   2.321  0.0036  0.0748  0.3239
 5289SOL    HW127329   0.097   0.413   2.406  1.6575 -1.5692  1.4627
 5289SOL    HW227330   0.182   0.422   2.278 -0.6669  1.5432  0.9925
 5290SOL     OW27331   3.729   4.692   2.080  0.0001 -0.5788 -0.3881
 5290SOL    HW127332   3.808   0.027   2.073 -0.9402  0.7156 -1.1038
 5290SOL    HW227333   3.666   0.028   2.032  0.3319  0.1617  0.0127
 5291SOL     OW27334   3.953   1.455  17.571 -0.4395 -0.7460 -0.5033
 5291SOL    HW127335   3.874   1.404  17.555 -1.1256  0.4552 -0.9590
 5291SOL    HW227336   3.949   1.482  17.663  1.5581 -3.3274  0.3547
 5292SOL     OW27337   2.116   3.018   6.014  0.0331 -0.7369 -0.1344
 5292SOL    HW127338   2.141   2.976   5.931 -0.0191  1.8418 -1.4597
 5292SOL    HW227339   2.041   3.072   5.988  0.2055  0.4273  1.7943
 5293SOL     OW27340   3.566   1.063   5.541  0.3677 -0.1512 -0.2364
 5293SOL    HW127341   3.640   1.051   5.601  1.0002 -1.7950 -1.3446
 5293SOL    HW227342   3.491   1.039   5.595 -1.0652 -0.4933 -2.3940
 5294SOL     OW27343   2.635   1.435   6.497 -0.5025 -0.5772  0.3292
 5294SOL    HW127344   2.554   1.483   6.480 -0.0791  0.5220  1.3853
 5294SOL    HW227345   2.665   1.478   6.576  0.7583  2.1634 -1.6380
 5295SOL     OW27346   3.225   3.071  17.189 -0.2607 -0.0657  0.0982
 5295SOL    HW127347   3.242   3.117  17.106  2.4405 -2.0927 -0.4738
 5295SOL    HW227348   3.236   3.148  17.245  0.6500  0.5459 -0.9190
 5296SOL     OW27349   1.632   1.587  12.035 -0.2217 -0.0291  0.0248
 5296SOL    HW127350   1.674   1.667  12.065 -0.3850 -0.0677  0.3567
 5296SOL    HW227351   1.595   1.553  12.116 -0.1711 -0.8807 -0.3099
 5297SOL     OW27352   3.219   2.289  11.671 -0.3720  0.2848 -0.0121
 5297SOL    HW127353   3.296   2.318  11.622  0.1675  0.1094  0.7153
 5297SOL    HW227354   3.239   2.306  11.763 -0.7645  0.7494 -0.0134
 5298SOL     OW27355   1.895   3.445   4.241 -0.2135  0.0304 -0.0715
 5298SOL    HW127356   1.866   3.520   4.189  0.3836  0.1111 -0.2859
 5298SOL    HW227357   1.990   3.450   4.245 -0.0931 -1.2852 -1.0118
 5299SOL     OW27358   3.821   0.009   0.125  0.0098  0.2962  0.2784
 5299SOL    HW127359   3.899   0.065   0.126  0.1147  0.2096 -1.4587
 5299SOL    HW227360   3.773   0.046   0.050  1.9261  1.3614 -0.4420
 5300SOL     OW27361   4.547   3.684   4.111 -0.5399  0.0014  0.0231
 5300SOL    HW127362   4.512   3.596   4.099 -0.1083  0.0280 -1.4452
 5300SOL    HW227363   4.506   3.719   4.032  1.2174  0.9121 -0.4798
 5301SOL     OW27364   2.235   1.222   8.427 -0.0229  0.6992 -0.1725
 5301SOL    HW127365   2.228   1.150   8.491 -0.3925  1.7017  0.9098
 5301SOL    HW227366   2.326   1.221   8.399 -0.5514 -0.4942 -1.8600
 5302SOL     OW27367   1.778   1.833   7.914  0.1062 -0.2590 -0.3288
 5302SOL    HW127368   1.795   1.918   7.955  0.9060  0.7465 -2.7479
 5302SOL    HW227369   1.786   1.844   7.819 -0.3322  0.4997 -0.2793
 5303SOL     OW27370   1.400   2.736   8.896  0.5732  0.0810  0.3563
 5303SOL    HW127371   1.434   2.652   8.928  0.0758 -0.8726 -1.6448
 5303SOL    HW227372   1.473   2.793   8.921  0.9070 -0.3934  0.4573
 5304SOL     OW27373   3.075   4.629   3.334  0.0438 -0.0442  0.1274
 5304SOL    HW127374   3.101   4.643   3.425 -0.3112  0.2927  0.1754
 5304SOL    HW227375   3.028   4.546   3.343  1.3872 -0.7672  0.3800
 5305SOL     OW27376   1.682   1.362   3.063  0.2913 -0.2181  0.2861
 5305SOL    HW127377   1.731   1.334   3.141  0.3428 -2.2120 -0.4615
 5305SOL    HW227378   1.755   1.405   3.018 -0.1898  1.7378  1.3805
 5306SOL     OW27379   1.010   1.506   8.230 -0.1232  0.1318 -0.8181
 5306SOL    HW127380   0.929   1.556   8.226 -0.7334 -0.7013  0.9506
 5306SOL    HW227381   1.006   1.473   8.140  0.5456 -0.0562 -0.7810
 5307SOL     OW27382   0.105   4.253   4.192 -0.5835  0.3754 -0.0361
 5307SOL    HW127383   0.121   4.159   4.182 -1.3803  0.2033  0.2503
 5307SOL    HW227384   0.071   4.281   4.107 -1.5369  0.6653  0.4439
 5308SOL     OW27385   1.561   0.108  13.821 -0.2508 -0.5732  0.0027
 5308SOL    HW127386   1.524   0.116  13.908 -1.1635  0.8399 -0.5074
 5308SOL    HW227387   1.650   0.144  13.824 -0.0564 -0.9924 -0.5654
 5309SOL     OW27388   2.691   0.655   6.947  0.2796 -0.4390  0.7495
 5309SOL    HW127389   2.689   0.744   6.982 -1.9301 -0.4750  0.7282
 5309SOL    HW227390   2.655   0.672   6.860  1.1055 -1.6430  0.1752
 5310SOL     OW27391   1.368   2.999   8.086 -0.3864 -0.0187  0.1962
 5310SOL    HW127392   1.395   2.940   8.157 -2.3189 -0.0225  0.9285
 5310SOL    HW227393   1.286   3.031   8.123 -0.5915  1.2400 -1.3577
 5311SOL     OW27394   2.400   0.679   6.846  0.0525  0.0343  0.2934
 5311SOL    HW127395   2.341   0.604   6.845  1.2514 -0.9132  0.6378
 5311SOL    HW227396   2.461   0.657   6.775  0.6935  2.7727 -0.0396
 5312SOL     OW27397   1.037   1.532   7.775 -0.3751  0.6854 -0.2456
 5312SOL    HW127398   1.011   1.459   7.719  0.5460 -0.1169  0.3867
 5312SOL    HW227399   1.102   1.492   7.833 -2.6223  0.2725  1.9658
 5313SOL     OW27400   2.074   0.226   3.331  0.1380 -0.4453 -0.0238
 5313SOL    HW127401   2.066   0.203   3.424 -0.9112 -0.3476 -0.0920
 5313SOL    HW227402   1.987   0.195   3.305  0.6287 -0.3307 -1.7567
 5314SOL     OW27403   3.210   0.377  12.312 -0.2027 -0.0004 -0.0032
 5314SOL    HW127404   3.154   0.301  12.300  0.8765 -0.6111 -1.1789
 5314SOL    HW227405   3.141   0.443  12.310 -0.6808 -0.4994  0.2218
 5315SOL     OW27406   0.124   1.586  11.925 -1.0770  0.3035  0.0853
 5315SOL    HW127407   0.197   1.646  11.939  0.2353 -0.7187 -2.1599
 5315SOL    HW227408   0.176   1.506  11.930  0.9506  1.6234  0.0890
 5316SOL     OW27409   3.803   2.256  14.226 -0.2314 -0.0519  0.4515
 5316SOL    HW127410   3.870   2.263  14.294  1.7547  1.8791 -1.6980
 5316SOL    HW227411   3.822   2.174  14.181 -0.9029 -0.2924  0.6106
 5317SOL     OW27412   3.869   4.228   5.675 -0.2347 -0.5429  0.1248
 5317SOL    HW127413   3.818   4.301   5.641  0.0044  0.3616  1.7144
 5317SOL    HW227414   3.832   4.158   5.621  0.6060 -0.9685  0.1049
 5318SOL     OW27415   0.537   4.525   0.067  0.4223  0.3492 -0.6034
 5318SOL    HW127416   0.520   4.612   0.103  1.0698  0.6632 -1.0379
 5318SOL    HW227417   0.477   4.474   0.120 -0.6154  0.3412 -1.7860
 5319SOL     OW27418   0.832   0.840   2.063  0.0265 -0.4803  0.2051
 5319SOL    HW127419   0.908   0.895   2.045  0.9852 -1.8113  0.1489
 5319SOL    HW227420   0.782   0.901   2.117  1.2223 -1.3194  2.3020
 5320SOL     OW27421   0.704   2.134  11.170  0.5465  0.0664 -0.2076
 5320SOL    HW127422   0.681   2.205  11.111  0.1851 -0.1482 -0.3265
 5320SOL    HW227423   0.698   2.060  11.109 -3.4162 -0.6715  1.0563
 5321SOL     OW27424   0.094   0.895   7.295  0.5219  0.6931  0.2681
 5321SOL    HW127425   0.016   0.894   7.350  0.5182  3.2998  0.3299
 5321SOL    HW227426   0.075   0.967   7.235  0.3783  0.9048  0.5659
 5322SOL     OW27427   4.185   3.397   5.609  0.3038  0.4337  0.2562
 5322SOL    HW127428   4.203   3.475   5.556  1.1450 -0.5502 -0.8657
 5322SOL    HW227429   4.148   3.339   5.543  1.4396  0.3652 -0.3014
 5323SOL     OW27430   0.491   0.669  14.196  0.5377  0.2169 -0.0193
 5323SOL    HW127431   0.543   0.738  14.237 -1.8290  1.8045  0.3161
 5323SOL    HW227432   0.400   0.700  14.201 -0.1463 -1.5329 -1.3975
 5324SOL     OW27433   0.389   1.971  10.282  0.0359 -0.0415 -0.4248
 5324SOL    HW127434   0.398   1.879  10.304 -0.3295  0.5786  2.2523
 5324SOL    HW227435   0.449   2.002  10.349 -0.9117 -0.8254  0.7770
 5325SOL     OW27436   1.299   4.502  11.047 -0.0955  0.1533  0.2102
 5325SOL    HW127437   1.241   4.452  10.990  1.4127 -1.0947 -0.2085
 5325SOL    HW227438   1.237   4.554  11.099  0.7293  2.3431 -1.0241
 5326SOL     OW27439   2.384   1.413   9.964  0.0476  0.3392 -0.0139
 5326SOL    HW127440   2.455   1.468   9.997 -0.1209  0.2215  0.5454
 5326SOL    HW227441   2.400   1.405   9.870 -0.2104 -2.0512  0.1537
 5327SOL     OW27442   0.436   4.608   5.755 -0.5711  0.0374  0.2337
 5327SOL    HW127443   0.528   4.586   5.740 -1.1748 -3.2832  1.3886
 5327SOL    HW227444   0.388   4.586   5.676  0.9314 -0.1656 -0.6208
 5328SOL     OW27445   3.666   2.812   5.516 -0.1083 -0.2642 -0.3715
 5328SOL    HW127446   3.730   2.801   5.586 -0.4924  1.5949  0.2776
 5328SOL    HW227447   3.712   2.874   5.460 -0.8478  0.9886  0.4033
 5329SOL     OW27448   3.839   2.510  12.792 -0.1184  0.4357  0.0554
 5329SOL    HW127449   3.813   2.480  12.705  0.4280 -1.1133  0.4320
 5329SOL    HW227450   3.831   2.605  12.777  0.4204  0.4286 -0.2759
 5330SOL     OW27451   1.542   2.001   5.195  0.3858 -0.1104 -0.1400
 5330SOL    HW127452   1.629   2.038   5.179 -0.6620  1.5395 -2.0905
 5330SOL    HW227453   1.551   1.917   5.148 -2.6865 -0.7707  0.5039
 5331SOL     OW27454   3.510   0.471   4.560  0.2710 -0.2691 -0.7530
 5331SOL    HW127455   3.471   0.551   4.596  0.4656 -0.0810 -0.9594
 5331SOL    HW227456   3.524   0.501   4.470 -0.2855 -1.9547 -1.3984
 5332SOL     OW27457   3.507   3.728   5.810  0.0995  0.1337 -0.1079
 5332SOL    HW127458   3.486   3.764   5.724 -2.4953  0.0488  0.4715
 5332SOL    HW227459   3.511   3.807   5.864  1.3243 -0.6621  0.9527
 5333SOL     OW27460   2.364   0.667  12.658 -0.5114  0.6624 -0.4574
 5333SOL    HW127461   2.398   0.669  12.569  0.1705  3.0753 -0.1682
 5333SOL    HW227462   2.281   0.622  12.643  0.1647  0.0866 -2.4433
 5334SOL     OW27463   0.894   3.536   7.922  0.0798 -0.8792 -0.6492
 5334SOL    HW127464   0.827   3.471   7.898 -0.9418 -0.0055 -0.1494
 5334SOL    HW227465   0.870   3.556   8.012 -0.2378 -1.0283 -0.6997
 5335SOL     OW27466   3.943   1.049  11.525  0.0194 -0.0306 -0.2458
 5335SOL    HW127467   3.993   1.103  11.587  1.9507 -0.3524 -1.5222
 5335SOL    HW227468   3.854   1.056  11.560 -0.2481  4.4022 -1.9112
 5336SOL     OW27469   1.373   2.797   8.273 -0.4368 -0.0804 -0.8923
 5336SOL    HW127470   1.417   2.775   8.355  0.3226 -1.6218 -1.7221
 5336SOL    HW227471   1.308   2.726   8.273  0.1863 -0.6513 -0.0463
 5337SOL     OW27472   4.508   3.107   7.874  0.0464  0.5093  0.5619
 5337SOL    HW127473   4.568   3.036   7.850 -1.3108  0.1227 -1.7742
 5337SOL    HW227474   4.433   3.057   7.907  0.4237 -0.1733  0.3965
 5338SOL     OW27475   2.658   3.705   6.067  0.3456 -0.0858  0.0444
 5338SOL    HW127476   2.677   3.705   6.161  1.8273  0.5265 -0.2562
 5338SOL    HW227477   2.569   3.739   6.074  0.0600 -0.6540 -0.9025
 5339SOL     OW27478   1.401   3.887  10.346 -0.4354 -0.0419  0.4830
 5339SOL    HW127479   1.384   3.885  10.252 -1.0593  1.8014  0.5488
 5339SOL    HW227480   1.445   3.971  10.359 -1.8560  0.4537  2.0727
 5340SOL     OW27481   2.762   0.091  10.101 -0.1035  0.2921  0.8880
 5340SOL    HW127482   2.672   0.071  10.129 -0.5304 -0.9064 -1.3740
 5340SOL    HW227483   2.817   0.028  10.148 -2.0465 -1.1705  1.2327
 5341SOL     OW27484   3.222   2.857   2.524 -0.3413  0.0902  0.5837
 5341SOL    HW127485   3.165   2.822   2.592 -1.0666  1.6597  0.7867
 5341SOL    HW227486   3.171   2.930   2.489 -2.1828 -1.0434  0.9100
 5342SOL     OW27487   2.648   3.616   0.557 -0.0408 -0.4639  0.0064
 5342SOL    HW127488   2.594   3.585   0.485 -1.3334  0.2673  0.6710
 5342SOL    HW227489   2.579   3.657   0.608  0.9350 -0.4566  1.3041
 5343SOL     OW27490   3.538   1.626   7.708  0.2020  0.0119  0.5186
 5343SOL    HW127491   3.552   1.720   7.692 -0.6152 -0.3983 -2.5824
 5343SOL    HW227492   3.445   1.618   7.727  0.0973 -2.0121 -0.8559
 5344SOL     OW27493   2.657   0.897  14.787  0.2638  0.0379 -0.1409
 5344SOL    HW127494   2.709   0.961  14.739 -0.6663  0.5669 -0.4233
 5344SOL    HW227495   2.728   0.837  14.812 -0.5585  0.4326  3.0348
 5345SOL     OW27496   2.852   3.773   5.886 -0.1869 -0.1578 -0.3855
 5345SOL    HW127497   2.931   3.761   5.939 -0.2379  2.5865  0.3236
 5345SOL    HW227498   2.777   3.758   5.944 -0.2125 -1.1497 -0.6833
 5346SOL     OW27499   4.078   3.942  14.655  0.2694 -0.1621  0.1063
 5346SOL    HW127500   4.056   3.982  14.740 -0.0416 -0.9119  0.3749
 5346SOL    HW227501   4.005   3.971  14.600 -0.0102 -0.3930  0.3575
 5347SOL     OW27502   4.583   4.463   0.554 -0.4323  0.1491  0.0479
 5347SOL    HW127503   4.659   4.405   0.562 -1.5257 -1.2725  0.0190
 5347SOL    HW227504   4.527   4.406   0.501 -0.0759  0.1229 -0.3039
 5348SOL     OW27505   1.857   2.420   4.528 -0.3084 -0.3943 -0.2958
 5348SOL    HW127506   1.790   2.420   4.596 -0.6444  1.0092 -0.6265
 5348SOL    HW227507   1.924   2.366   4.571  0.1562  0.0298 -0.4895
 5349SOL     OW27508   2.002   2.869   6.336  0.2290  0.3848  0.1468
 5349SOL    HW127509   1.968   2.881   6.425 -0.4068 -0.7834  0.0530
 5349SOL    HW227510   1.950   2.934   6.289 -3.0924 -1.5892  1.0771
 5350SOL     OW27511   3.167   2.001  10.447  0.2155 -0.3009  0.4129
 5350SOL    HW127512   3.106   2.053  10.499 -1.7365 -0.8172 -1.3957
 5350SOL    HW227513   3.165   1.914  10.487  0.2745  0.7614  2.6956
 5351SOL     OW27514   1.916   4.247   8.716 -0.4879 -0.2392 -0.8442
 5351SOL    HW127515   1.922   4.335   8.680  2.8059 -0.6432 -1.2671
 5351SOL    HW227516   1.833   4.249   8.763  1.4855  0.4498  2.5657
 5352SOL     OW27517   1.438   4.436  14.674  0.2676 -0.4778 -0.2117
 5352SOL    HW127518   1.441   4.468  14.764  2.0869  2.3344 -1.2584
 5352SOL    HW227519   1.347   4.451  14.649  0.0270 -3.2258 -0.9554
 5353SOL     OW27520   3.358   0.128   5.139  0.1548 -0.7109  0.4315
 5353SOL    HW127521   3.422   0.158   5.074  0.7669  1.3703  2.0178
 5353SOL    HW227522   3.284   0.176   5.102  1.2301  2.1027  1.9848
 5354SOL     OW27523   1.016   3.938   0.823 -0.2135 -0.0575  0.1550
 5354SOL    HW127524   0.991   4.005   0.887 -0.4840 -1.9134  1.9661
 5354SOL    HW227525   0.999   3.982   0.740  0.1725 -0.2316 -0.0135
 5355SOL     OW27526   2.970   0.617   1.274 -0.2678  0.4194  0.0530
 5355SOL    HW127527   2.920   0.584   1.349 -0.4137 -1.1376 -0.7352
 5355SOL    HW227528   2.907   0.687   1.258 -1.0392 -0.4208 -0.5676
 5356SOL     OW27529   2.358   0.272   7.398  0.1532  0.2068  0.3012
 5356SOL    HW127530   2.400   0.188   7.415 -0.5970 -0.1232  0.5087
 5356SOL    HW227531   2.299   0.265   7.323 -1.6527  0.5547  1.6868
 5357SOL     OW27532   1.423   1.862  12.006  0.0233 -0.5193 -0.4755
 5357SOL    HW127533   1.405   1.956  12.017 -0.2074 -0.7429  1.0878
 5357SOL    HW227534   1.513   1.861  12.039 -0.8115  0.1488  1.8425
 5358SOL     OW27535   2.452   4.308   0.676 -0.1112  0.3316 -0.8890
 5358SOL    HW127536   2.504   4.387   0.690 -1.3352  0.8333  0.9299
 5358SOL    HW227537   2.528   4.255   0.654  0.5785  0.7685  0.4734
 5359SOL     OW27538   1.190   1.712   2.919  0.1707 -0.5788 -0.5506
 5359SOL    HW127539   1.262   1.670   2.966 -0.8352 -1.7532 -0.0584
 5359SOL    HW227540   1.235   1.743   2.840  1.7589  0.4113  0.7335
 5360SOL     OW27541   4.428   3.898   9.347  0.1322 -0.5586  0.1327
 5360SOL    HW127542   4.474   3.882   9.265  1.3565  1.3294  0.4381
 5360SOL    HW227543   4.380   3.975   9.316  0.9999 -0.0666  0.0134
 5361SOL     OW27544   1.632   3.736   1.757  0.2923 -0.0371 -0.1042
 5361SOL    HW127545   1.651   3.752   1.665  0.3950  0.6476  0.0361
 5361SOL    HW227546   1.615   3.642   1.750  1.3131 -0.3139  0.9898
 5362SOL     OW27547   0.267   3.957   6.994 -0.6239  0.4543 -0.6269
 5362SOL    HW127548   0.189   3.947   6.939 -3.0802 -0.6806  3.0589
 5362SOL    HW227549   0.268   4.052   7.004  1.0000  0.3090  0.5581
 5363SOL     OW27550   4.701   3.006   2.437  0.0493  0.0951  0.3431
 5363SOL    HW127551   0.014   2.977   2.351  1.9343  1.6691  0.4964
 5363SOL    HW227552   0.038   3.082   2.453  0.8545 -0.2957 -0.5441
 5364SOL     OW27553   1.512   3.025   0.767 -0.4136  0.7067 -0.2448
 5364SOL    HW127554   1.548   3.039   0.680 -0.6836 -0.5619 -0.5473
 5364SOL    HW227555   1.509   3.115   0.801  0.0896  0.5637  0.1847
 5365SOL     OW27556   3.125   1.165   4.943  0.1180 -0.5589  0.5825
 5365SOL    HW127557   3.071   1.182   5.020 -0.4368 -0.8014  0.2392
 5365SOL    HW227558   3.088   1.083   4.911 -2.0175  1.5472 -2.3673
 5366SOL     OW27559   1.849   3.780   4.530 -0.0540 -0.0729 -0.0031
 5366SOL    HW127560   1.931   3.766   4.481  0.1248  2.7247 -0.5246
 5366SOL    HW227561   1.869   3.854   4.587 -0.4059  1.0134 -1.2807
 5367SOL     OW27562   0.514   3.981   7.457 -0.5551  0.2614  0.9531
 5367SOL    HW127563   0.486   3.895   7.488 -2.1336 -0.7991 -3.5342
 5367SOL    HW227564   0.488   3.977   7.365  0.5048  2.7778  0.5364
 5368SOL     OW27565   2.154   0.942   1.555  0.8585  0.2955  0.4220
 5368SOL    HW127566   2.148   1.014   1.492  0.1953 -0.3999 -0.3138
 5368SOL    HW227567   2.064   0.910   1.561  0.8332 -0.1102 -2.1649
 5369SOL     OW27568   3.685   4.360   7.094 -0.0431  0.4484 -0.2798
 5369SOL    HW127569   3.775   4.352   7.061  0.0683  0.9482 -0.0879
 5369SOL    HW227570   3.634   4.391   7.019  2.4882  2.4448 -1.1527
 5370SOL     OW27571   2.645   3.289  17.341 -1.0089 -0.5007  0.4973
 5370SOL    HW127572   2.645   3.215  17.280  0.7015 -0.3391  0.2794
 5370SOL    HW227573   2.732   3.295  17.382  0.1977 -0.5886 -2.0814
 5371SOL     OW27574   1.274   1.000   9.614 -0.5608  0.2476 -0.3555
 5371SOL    HW127575   1.307   1.090   9.619  0.7930 -0.2451 -0.3096
 5371SOL    HW227576   1.181   1.011   9.633  0.1691  2.0819  2.0564
 5372SOL     OW27577   1.597   4.425  11.554 -0.3534  0.2394  0.4091
 5372SOL    HW127578   1.523   4.366  11.541  1.9482 -3.1935  3.2014
 5372SOL    HW227579   1.581   4.492  11.487 -1.1027 -1.0921 -0.7539
 5373SOL     OW27580   4.212   2.184   8.173  0.9097 -0.3460 -0.5537
 5373SOL    HW127581   4.292   2.183   8.227 -0.8374 -4.2717  1.9633
 5373SOL    HW227582   4.141   2.194   8.236  0.1848 -0.8652 -1.2971
 5374SOL     OW27583   1.139   1.063   4.323  0.1993  0.3202 -0.0572
 5374SOL    HW127584   1.099   1.090   4.406  0.4330 -0.1428  0.2047
 5374SOL    HW227585   1.088   0.986   4.301  2.1433 -0.9909  0.0576
 5375SOL     OW27586   3.955   0.642  17.003  0.8308  0.3018  0.0111
 5375SOL    HW127587   3.860   0.651  17.012  0.6310 -1.8996  0.1186
 5375SOL    HW227588   3.981   0.714  16.945 -0.1443  1.5583  1.1471
 5376SOL     OW27589   0.649   2.356   3.562 -0.3716  0.3527 -0.8376
 5376SOL    HW127590   0.626   2.263   3.571 -2.5303  0.9264 -0.3883
 5376SOL    HW227591   0.564   2.400   3.564  0.4172  1.7776  0.4570
 5377SOL     OW27592   1.332   2.994   3.771 -0.3113 -0.1558  0.2245
 5377SOL    HW127593   1.368   3.072   3.812 -0.1326 -0.5180  0.7583
 5377SOL    HW227594   1.351   2.924   3.834 -0.8517 -0.7208 -0.2315
 5378SOL     OW27595   3.142   4.382   4.318  0.1494 -0.2851  0.0880
 5378SOL    HW127596   3.230   4.379   4.280  0.0638 -0.8851 -0.0596
 5378SOL    HW227597   3.084   4.357   4.246 -1.9941  1.7969  1.1039
 5379SOL     OW27598   0.915   3.636   4.111  0.1171 -0.2180  0.0368
 5379SOL    HW127599   0.924   3.694   4.187 -0.0275 -0.3831  0.1779
 5379SOL    HW227600   0.913   3.703   4.042  1.2381 -0.3803 -0.1514
 5380SOL     OW27601   4.311   4.055   8.936 -0.5400  0.1783 -0.6882
 5380SOL    HW127602   4.285   3.988   8.873 -3.1912 -1.3523  2.0513
 5380SOL    HW227603   4.276   4.133   8.893  0.1673  1.2479  0.6925
 5381SOL     OW27604   0.496   4.073   4.061  0.1656  0.0250  0.0155
 5381SOL    HW127605   0.418   4.105   4.015 -0.0964 -1.9461 -0.9323
 5381SOL    HW227606   0.552   4.034   3.994  1.4002 -0.4661  1.3360
 5382SOL     OW27607   3.901   3.025   4.995 -0.5426  0.1791  0.5553
 5382SOL    HW127608   3.846   2.997   4.922  0.3931 -0.5363  0.1182
 5382SOL    HW227609   3.837   3.069   5.050 -0.4030  2.0223 -0.7482
 5383SOL     OW27610   3.500   2.103   5.394  0.3758 -0.0284 -0.2632
 5383SOL    HW127611   3.524   2.189   5.429  2.6792 -0.8868  0.2578
 5383SOL    HW227612   3.569   2.106   5.328 -0.2273  0.8273 -0.8578
 5384SOL     OW27613   2.488   2.012   6.269  0.0930 -0.4437  0.0901
 5384SOL    HW127614   2.505   2.053   6.184 -0.2360  0.2166  0.3423
 5384SOL    HW227615   2.416   1.965   6.227  0.9886 -0.5778 -1.2812
 5385SOL     OW27616   4.126   1.133   4.094  0.5958  0.2691 -0.1329
 5385SOL    HW127617   4.089   1.214   4.128  1.9462  0.9247 -0.2023
 5385SOL    HW227618   4.097   1.139   4.003  0.6928  2.7976 -0.0079
 5386SOL     OW27619   2.106   0.913   5.384  0.3307  0.4384 -0.4291
 5386SOL    HW127620   2.172   0.970   5.344 -0.0815 -0.6279 -2.6581
 5386SOL    HW227621   2.029   0.969   5.381 -0.6257 -0.8818 -0.6503
 5387SOL     OW27622   0.704   1.656   0.152 -0.2577 -0.4809 -0.3060
 5387SOL    HW127623   0.748   1.664   0.067 -0.9757  1.1820 -0.5296
 5387SOL    HW227624   0.614   1.641   0.121 -0.0076  1.0690 -1.8004
 5388SOL     OW27625   4.469   3.161   6.925  0.1710  0.1668  0.5761
 5388SOL    HW127626   4.457   3.083   6.870 -0.7018  1.3105 -0.8357
 5388SOL    HW227627   4.528   3.130   6.993 -0.5806 -0.8518  0.7660
 5389SOL     OW27628   4.260   3.382  10.311  0.2707  0.3390 -0.0513
 5389SOL    HW127629   4.323   3.421  10.251 -1.0365  2.1534 -0.2599
 5389SOL    HW227630   4.259   3.290  10.287 -1.4052  0.1927  0.5718
 5390SOL     OW27631   1.920   4.282   7.840 -0.4646  0.3871  0.4277
 5390SOL    HW127632   1.972   4.205   7.864 -0.5962  0.9061  2.3480
 5390SOL    HW227633   1.937   4.334   7.918  3.1106  0.6745 -0.5575
 5391SOL     OW27634   1.887   1.140   1.562  0.2150  0.1673  0.4175
 5391SOL    HW127635   1.890   1.047   1.543 -0.9173  0.0027  1.0481
 5391SOL    HW227636   1.974   1.174   1.540  0.1847 -0.4808 -0.6918
 5392SOL     OW27637   4.456   1.033  15.849 -0.1609 -0.3045  0.2371
 5392SOL    HW127638   4.424   0.978  15.777 -2.2962  0.7586  0.3798
 5392SOL    HW227639   4.495   1.103  15.796 -2.0421 -1.1226 -2.2445
 5393SOL     OW27640   1.269   3.361   6.621 -0.2632 -0.4771  0.6875
 5393SOL    HW127641   1.197   3.348   6.683 -1.5924  0.0143 -0.7670
 5393SOL    HW227642   1.223   3.383   6.540 -0.0673 -0.2595  0.6343
 5394SOL     OW27643   4.086   1.140   6.437  0.2099 -0.1690 -0.1686
 5394SOL    HW127644   4.137   1.079   6.384 -3.6936 -4.7463  1.2984
 5394SOL    HW227645   4.038   1.088   6.502 -1.5645 -1.6394 -2.6880
 5395SOL     OW27646   4.253   0.841  17.121  0.3516 -0.4270 -0.1035
 5395SOL    HW127647   4.243   0.915  17.061 -2.5661 -0.0619  0.8184
 5395SOL    HW227648   4.346   0.843  17.143  0.0758 -1.0219  1.1485
 5396SOL     OW27649   2.392   1.454  15.687  0.2933  0.1844  0.3618
 5396SOL    HW127650   2.382   1.387  15.754  0.8558 -0.8488 -0.5878
 5396SOL    HW227651   2.398   1.535  15.739 -0.9890 -0.9616  2.2959
 5397SOL     OW27652   4.118   2.913  13.348  0.0506 -0.0722 -0.1282
 5397SOL    HW127653   4.052   2.938  13.284  1.4823  1.2573 -1.0914
 5397SOL    HW227654   4.066   2.859  13.408 -2.0994  0.5090 -1.4648
 5398SOL     OW27655   3.768   2.817  15.220  0.2137  0.5307 -0.5800
 5398SOL    HW127656   3.789   2.726  15.242 -0.0007 -0.0767 -2.8851
 5398SOL    HW227657   3.851   2.857  15.244  0.5778 -2.1013  2.6263
 5399SOL     OW27658   4.502   3.631   6.890 -0.0363 -0.1314  0.2634
 5399SOL    HW127659   4.489   3.668   6.802  0.5314  0.7682  0.5638
 5399SOL    HW227660   4.516   3.701   6.953 -0.8207  2.1141 -2.0401
 5400SOL     OW27661   4.638   3.707   2.805 -0.3226  0.1542  0.5325
 5400SOL    HW127662   4.681   3.684   2.723  0.0739  0.1374  0.7474
 5400SOL    HW227663   4.714   3.689   2.860 -1.4090  1.0388  2.3575
 5401SOL     OW27664   3.974   3.740   4.139 -0.3318  0.4766 -0.6738
 5401SOL    HW127665   3.889   3.750   4.182  0.3372  0.8901  0.5507
 5401SOL    HW227666   3.951   3.727   4.047  0.8723 -1.6617 -0.6702
 5402SOL     OW27667   0.163   4.113   7.897 -0.0582 -0.2314 -0.2894
 5402SOL    HW127668   0.106   4.133   7.971 -0.1882 -1.4708 -0.0511
 5402SOL    HW227669   0.163   4.019   7.914 -2.2834 -0.0934  0.4972
 5403SOL     OW27670   1.842   1.739  13.415  0.0356 -0.0720  0.0924
 5403SOL    HW127671   1.825   1.645  13.416 -0.9597  0.0964 -1.0500
 5403SOL    HW227672   1.757   1.774  13.444  0.0078 -0.8020  0.8729
 5404SOL     OW27673   1.159   1.733  11.938 -0.1108 -0.2871 -0.1106
 5404SOL    HW127674   1.097   1.796  11.902 -1.7014 -1.5109  0.4626
 5404SOL    HW227675   1.106   1.653  11.938  0.9608 -0.9880 -2.6184
 5405SOL     OW27676   2.837   1.140   0.493 -0.5426 -0.2123 -0.1846
 5405SOL    HW127677   2.883   1.088   0.558  1.5775  1.1096 -0.5947
 5405SOL    HW227678   2.772   1.188   0.544  0.9236 -0.5049  1.9592
 5406SOL     OW27679   2.938   3.813  17.279 -0.3063  0.8222  0.3129
 5406SOL    HW127680   2.858   3.762  17.260 -0.2829  0.5797  0.8827
 5406SOL    HW227681   2.906   3.903  17.272 -1.3700  0.3705 -0.6582
 5407SOL     OW27682   1.787   3.835  15.078  0.5231  0.3797  0.0059
 5407SOL    HW127683   1.719   3.779  15.040  2.1877 -1.2574 -0.5528
 5407SOL    HW227684   1.746   3.897  15.139 -2.1079 -0.6071 -0.7862
 5408SOL     OW27685   0.193   2.128   8.248  0.1501  0.3027 -0.1177
 5408SOL    HW127686   0.100   2.103   8.251 -0.5020  2.9111  1.3268
 5408SOL    HW227687   0.202   2.140   8.343  0.2395  1.5552 -0.2802
 5409SOL     OW27688   1.560   0.362   9.895  0.1014 -0.0526  0.0590
 5409SOL    HW127689   1.622   0.413   9.946 -0.3653 -0.8617  1.4633
 5409SOL    HW227690   1.513   0.315   9.965  0.2303 -0.6393 -0.2465
 5410SOL     OW27691   2.590   4.553   3.991  0.2617  0.0104 -0.4275
 5410SOL    HW127692   2.605   4.567   4.084 -3.1843  0.3409  0.0850
 5410SOL    HW227693   2.622   4.463   3.985  0.8233  0.1644  0.2733
 5411SOL     OW27694   1.646   0.428   7.814  0.0557 -0.2257 -0.0375
 5411SOL    HW127695   1.639   0.442   7.719 -0.2109  0.5457  0.0948
 5411SOL    HW227696   1.574   0.366   7.826  1.3167 -0.9772  3.4866
 5412SOL     OW27697   3.670   0.648  11.053 -0.7658  0.6778  0.2382
 5412SOL    HW127698   3.672   0.681  11.142 -1.7667 -1.7881  1.1710
 5412SOL    HW227699   3.753   0.602  11.035 -0.9844  1.2400 -2.2400
 5413SOL     OW27700   3.564   2.135   8.761 -0.2173 -0.2800  0.8351
 5413SOL    HW127701   3.594   2.213   8.714 -1.4822  0.6974  1.6544
 5413SOL    HW227702   3.574   2.167   8.851  2.2804  0.9721  0.1199
 5414SOL     OW27703   2.143   0.852   7.908 -0.3765 -0.6042  0.0414
 5414SOL    HW127704   2.103   0.929   7.949  1.0577  0.1968 -0.0627
 5414SOL    HW227705   2.131   0.796   7.984 -1.0692 -1.6057 -0.8050
 5415SOL     OW27706   1.032   4.408   3.982  0.8132  0.3589  0.3544
 5415SOL    HW127707   0.966   4.392   3.915  0.8219 -1.7426  0.8464
 5415SOL    HW227708   1.048   4.316   4.006 -1.5394 -0.4497 -1.1870
 5416SOL     OW27709   2.062   1.495  12.620 -0.0146 -0.4841 -0.0946
 5416SOL    HW127710   1.997   1.508  12.551  0.1986  1.1559 -0.0001
 5416SOL    HW227711   2.014   1.452  12.690 -1.7646  0.8504 -0.4690
 5417SOL     OW27712   3.177   4.075   8.994  0.3487 -0.2617 -0.2802
 5417SOL    HW127713   3.191   4.163   9.030  0.4955 -0.0919 -0.7451
 5417SOL    HW227714   3.266   4.048   8.971  0.3315  0.5906 -1.3475
 5418SOL     OW27715   4.475   0.865   8.958 -0.9392 -0.0049 -0.4265
 5418SOL    HW127716   4.453   0.925   9.029  3.0427  0.8855  0.0459
 5418SOL    HW227717   4.563   0.895   8.936 -0.6452  0.0586  0.8154
 5419SOL     OW27718   0.594   1.613   7.552  0.5570  0.2952 -0.2729
 5419SOL    HW127719   0.626   1.524   7.542  1.2921  0.7300 -1.7049
 5419SOL    HW227720   0.518   1.603   7.610  0.5007  0.7333 -0.2701
 5420SOL     OW27721   3.431   2.001  17.645 -0.0611  0.5923  0.4370
 5420SOL    HW127722   3.403   1.952  17.568  0.7447 -2.4121  2.0439
 5420SOL    HW227723   3.426   1.939   0.042  2.0760 -0.5257 -0.3639
 5421SOL     OW27724   2.836   0.328   5.793 -0.2251 -0.5140 -0.1878
 5421SOL    HW127725   2.857   0.276   5.870 -3.1479 -3.4017 -1.3407
 5421SOL    HW227726   2.809   0.404   5.845 -0.5304  0.3710 -1.6363
 5422SOL     OW27727   0.744   4.366   7.413 -0.2581  0.5161 -0.1023
 5422SOL    HW127728   0.693   4.390   7.490 -1.2532 -0.5013 -0.4412
 5422SOL    HW227729   0.741   4.270   7.416 -0.7505  0.5667  1.0176
 5423SOL     OW27730   4.516   2.113   4.528  0.4133  0.5030  0.0168
 5423SOL    HW127731   4.505   2.029   4.574 -0.7329  0.1468 -0.9115
 5423SOL    HW227732   4.506   2.079   4.439  0.0192  1.0057 -0.1329
 5424SOL     OW27733   2.324   2.601   3.140 -0.5161  0.1281  0.8879
 5424SOL    HW127734   2.300   2.511   3.163  0.3672 -0.7596 -1.6861
 5424SOL    HW227735   2.295   2.646   3.219 -4.1552 -1.1515  0.2966
 5425SOL     OW27736   2.576   1.181   6.171  0.1303 -0.0947 -0.1505
 5425SOL    HW127737   2.510   1.183   6.103  0.9470 -0.6735 -0.9485
 5425SOL    HW227738   2.526   1.139   6.241  0.1364 -0.3065 -0.2766
 5426SOL     OW27739   2.684   2.294   5.156 -0.1929 -0.5122 -0.6942
 5426SOL    HW127740   2.732   2.259   5.232  0.2653 -0.2559 -0.8672
 5426SOL    HW227741   2.684   2.388   5.176  0.1237 -0.4971 -0.7602
 5427SOL     OW27742   1.309   3.223   2.403  0.3587  0.4724 -0.2007
 5427SOL    HW127743   1.214   3.226   2.404  0.2788 -2.0082  1.4663
 5427SOL    HW227744   1.318   3.139   2.449 -0.1760 -0.4996 -1.8478
 5428SOL     OW27745   1.311   0.976   0.091  0.0218 -0.0429 -0.0264
 5428SOL    HW127746   1.303   1.031   0.169 -0.9339  3.7940 -2.8279
 5428SOL    HW227747   1.221   0.968   0.060  0.2407 -1.0050 -0.4248
 5429SOL     OW27748   3.462   4.072   4.915  0.1929 -0.3970 -0.2904
 5429SOL    HW127749   3.389   4.040   4.862 -0.9283  1.5293  0.0994
 5429SOL    HW227750   3.477   3.991   4.963 -2.7842 -0.4493  0.5180
 5430SOL     OW27751   4.341   1.691  14.674 -0.5681  0.5022 -0.1886
 5430SOL    HW127752   4.331   1.759  14.608 -0.0230  2.4201  1.7416
 5430SOL    HW227753   4.433   1.671  14.661 -0.6869 -0.8458  0.9866
 5431SOL     OW27754   4.526   0.534   9.075 -0.5981  0.0436 -0.5913
 5431SOL    HW127755   4.619   0.549   9.093 -0.3893 -1.9215 -0.0225
 5431SOL    HW227756   4.530   0.595   9.002  1.3504  0.3807 -0.2136
 5432SOL     OW27757   3.606   2.318   4.830 -0.1752 -0.5408 -0.2817
 5432SOL    HW127758   3.566   2.401   4.855 -0.0669 -0.8587  0.9181
 5432SOL    HW227759   3.674   2.308   4.896 -0.2803 -0.6733 -0.1947
 5433SOL     OW27760   1.444   0.641   9.221  0.1805  0.2747 -0.2003
 5433SOL    HW127761   1.408   0.721   9.183 -0.2167  0.8969  1.4778
 5433SOL    HW227762   1.416   0.651   9.312  0.8173  1.3770 -0.1211
 5434SOL     OW27763   3.376   2.407   4.674 -0.2980  0.5738 -0.2360
 5434SOL    HW127764   3.360   2.320   4.637  0.6485  0.4355 -0.3281
 5434SOL    HW227765   3.471   2.402   4.687  0.0919 -1.3887 -3.8438
 5435SOL     OW27766   2.578   2.809   7.351  0.4130  0.0688  0.0224
 5435SOL    HW127767   2.657   2.764   7.321  0.0754 -1.6845  1.7196
 5435SOL    HW227768   2.539   2.747   7.413  0.1084  0.4063  0.1632
 5436SOL     OW27769   0.287   4.515   6.973 -0.2319 -0.0312  0.0289
 5436SOL    HW127770   0.316   4.541   7.060  0.2072 -0.9341  0.1572
 5436SOL    HW227771   0.300   4.594   6.921  0.1923 -1.2228 -1.7009
 5437SOL     OW27772   1.193   0.071   0.653 -0.6596 -0.3406 -0.5089
 5437SOL    HW127773   1.154   0.006   0.712  2.7742 -0.6980  1.4026
 5437SOL    HW227774   1.230   0.015   0.585 -0.2604  0.3855 -0.8907
 5438SOL     OW27775   3.266   2.437   9.153 -0.7044  0.3567  0.3211
 5438SOL    HW127776   3.183   2.403   9.186 -2.0009  2.4048 -0.8937
 5438SOL    HW227777   3.334   2.382   9.192 -0.7998 -0.5812 -0.8248
 5439SOL     OW27778   1.905   1.451   5.298 -0.5586  0.2634 -0.0922
 5439SOL    HW127779   1.921   1.523   5.359 -1.9660 -0.9712  1.7177
 5439SOL    HW227780   1.814   1.467   5.270  0.1143  1.2725 -1.7717
 5440SOL     OW27781   3.650   0.670  16.961 -0.1494 -0.5938  0.2273
 5440SOL    HW127782   3.606   0.618  17.028  1.1083  1.3309  2.5331
 5440SOL    HW227783   3.586   0.740  16.949 -1.0841 -1.6606 -1.0270
 5441SOL     OW27784   0.694   3.340   7.878 -0.0595 -0.4224 -0.6229
 5441SOL    HW127785   0.648   3.270   7.833 -0.2847 -0.2787 -0.6184
 5441SOL    HW227786   0.718   3.299   7.960 -3.0416 -4.0391 -1.5702
 5442SOL     OW27787   0.835   3.214   6.130 -0.4775 -0.1471 -0.1726
 5442SOL    HW127788   0.805   3.141   6.076  0.4876 -0.4726 -0.2628
 5442SOL    HW227789   0.779   3.190   6.204  0.7323 -0.2712  0.7050
 5443SOL     OW27790   3.400   1.833   5.495  0.9076  0.2551  0.5563
 5443SOL    HW127791   3.430   1.919   5.525  1.5717  0.4023 -0.5481
 5443SOL    HW227792   3.482   1.799   5.461  0.1403 -0.4193 -0.6420
 5444SOL     OW27793   4.022   1.017   8.280  0.1709 -0.3288 -0.4880
 5444SOL    HW127794   3.969   1.097   8.279 -1.0925 -1.1874 -1.1056
 5444SOL    HW227795   4.059   1.035   8.367 -3.8053  0.4036  1.0321
 5445SOL     OW27796   4.427   3.612   2.511 -0.1527 -0.4582 -0.4624
 5445SOL    HW127797   4.427   3.669   2.588 -3.7412 -0.3212 -0.5409
 5445SOL    HW227798   4.379   3.668   2.449 -0.6522 -0.5048 -0.1251
 5446SOL     OW27799   3.394   0.278   5.417  0.3760  0.0404  0.0716
 5446SOL    HW127800   3.315   0.294   5.468  0.9878  1.3735  0.5972
 5446SOL    HW227801   3.356   0.250   5.334  0.3538 -0.4127  0.2365
 5447SOL     OW27802   4.087   0.587   4.146 -0.8766  0.2910  0.7894
 5447SOL    HW127803   4.008   0.541   4.118  1.3850 -0.8606 -3.6329
 5447SOL    HW227804   4.058   0.676   4.124  2.4846  0.5426 -2.4886
 5448SOL     OW27805   1.738   0.055  10.680 -0.4699 -0.0908 -0.3522
 5448SOL    HW127806   1.770   0.120  10.741 -3.5560  1.4446 -0.3456
 5448SOL    HW227807   1.644   0.065  10.697 -0.4959 -1.0566  0.0761
 5449SOL     OW27808   0.605   0.677   2.402  0.1164  0.0461 -0.0225
 5449SOL    HW127809   0.543   0.609   2.429  2.0786 -1.2893  1.0963
 5449SOL    HW227810   0.681   0.621   2.386  0.7608  0.6600  0.8491
 5450SOL     OW27811   1.424   2.007   9.193  0.3676 -0.2451 -0.3865
 5450SOL    HW127812   1.339   1.977   9.162 -0.0573  2.6034 -1.9409
 5450SOL    HW227813   1.439   1.977   9.283 -0.1473 -0.3957 -0.3521
 5451SOL     OW27814   4.246   3.797   4.190 -0.5144 -0.0348  0.4801
 5451SOL    HW127815   4.152   3.781   4.182 -0.8602  1.0558  2.2829
 5451SOL    HW227816   4.282   3.723   4.140 -3.2847 -0.3889 -0.9866
 5452SOL     OW27817   1.148   0.866   1.416  1.0446 -0.3574 -0.5141
 5452SOL    HW127818   1.139   0.771   1.423 -1.1231  0.0908  2.7660
 5452SOL    HW227819   1.075   0.881   1.356 -1.1132 -2.0102  1.7089
 5453SOL     OW27820   2.836   1.553   8.531 -0.6508 -0.1412  0.2827
 5453SOL    HW127821   2.790   1.617   8.586  0.4264  0.2617  0.7089
 5453SOL    HW227822   2.920   1.598   8.522 -0.6071  0.2779  2.8161
 5454SOL     OW27823   3.195   1.456   2.618  0.1411 -0.3595  0.2913
 5454SOL    HW127824   3.225   1.431   2.530  0.2812  2.4540 -0.4460
 5454SOL    HW227825   3.153   1.378   2.653 -1.2237  0.2623  0.0394
 5455SOL     OW27826   0.125   3.359  17.402 -0.3825 -0.1753  0.0530
 5455SOL    HW127827   0.184   3.422  17.444 -0.2165  0.0643 -0.5270
 5455SOL    HW227828   0.042   3.392  17.436 -1.3982 -2.0037 -0.6633
 5456SOL     OW27829   0.872   2.885   4.326  0.9089 -0.6067 -0.1583
 5456SOL    HW127830   0.910   2.894   4.414  0.1834  0.3043  0.0660
 5456SOL    HW227831   0.879   2.974   4.291 -0.0850 -0.5998 -0.3361
 5457SOL     OW27832   4.212   4.162   7.359 -0.4226 -0.1692 -0.6369
 5457SOL    HW127833   4.223   4.080   7.407  1.4181  0.0334 -0.7118
 5457SOL    HW227834   4.227   4.211   7.440  1.9140 -2.6435  0.4454
 5458SOL     OW27835   1.089   3.522   9.128 -0.5893  0.7895 -0.3286
 5458SOL    HW127836   1.122   3.441   9.166 -2.1022  0.4565  0.2521
 5458SOL    HW227837   1.047   3.570   9.198  0.3221  1.6150 -0.3433
 5459SOL     OW27838   4.068   3.462   3.596 -0.4605 -0.4427 -0.0340
 5459SOL    HW127839   4.107   3.498   3.675 -0.6745 -0.1967 -0.0410
 5459SOL    HW227840   4.034   3.543   3.559  0.4799  0.1686  0.4325
 5460SOL     OW27841   4.077   2.264  12.427 -0.0675 -0.0277  0.6888
 5460SOL    HW127842   4.135   2.209  12.480 -0.5757 -2.2716 -1.0741
 5460SOL    HW227843   4.126   2.346  12.428  0.7473 -0.5584  2.8220
 5461SOL     OW27844   0.764   4.702   0.829 -0.6112  0.0733 -0.2876
 5461SOL    HW127845   0.693   0.001   0.891  0.4486 -1.7923  1.4710
 5461SOL    HW227846   0.718   4.697   0.745 -0.2673  2.5328 -0.6203
 5462SOL     OW27847   4.392   2.175   2.052 -0.2341 -0.7003 -0.1038
 5462SOL    HW127848   4.459   2.231   2.092  0.2313 -0.7332 -0.8495
 5462SOL    HW227849   4.331   2.226   1.997  1.2327  2.5172  1.2186
 5463SOL     OW27850   1.858   0.382   0.812 -0.1060 -0.2066 -0.8456
 5463SOL    HW127851   1.942   0.347   0.841 -0.1368 -0.6758 -1.3137
 5463SOL    HW227852   1.871   0.472   0.783  0.6401  0.8212  2.6728
 5464SOL     OW27853   2.876   0.129   6.882 -0.3128 -0.5795 -0.2631
 5464SOL    HW127854   2.887   0.224   6.876 -1.3370 -0.5700 -1.9332
 5464SOL    HW227855   2.814   0.110   6.812 -0.7396 -2.3752  0.5840
 5465SOL     OW27856   4.644   1.035   5.428  0.0748 -0.2177 -0.6553
 5465SOL    HW127857   4.706   1.013   5.497  0.6513 -0.5355 -1.2708
 5465SOL    HW227858   4.624   1.127   5.442  0.8014 -0.3801  1.4264
 5466SOL     OW27859   2.953   1.465   5.595  0.1243  0.3348  0.0047
 5466SOL    HW127860   3.008   1.398   5.553  0.6614 -0.6756  2.3506
 5466SOL    HW227861   2.872   1.464   5.544 -1.3612  0.5975  2.3840
 5467SOL     OW27862   2.547   0.299   9.442 -0.0821  0.1927 -0.4834
 5467SOL    HW127863   2.467   0.310   9.492 -0.6465  0.9401 -1.5471
 5467SOL    HW227864   2.537   0.362   9.370 -0.8911  0.9054  0.2604
 5468SOL     OW27865   3.962   2.653   3.208 -0.2737 -0.8730  0.4871
 5468SOL    HW127866   3.888   2.594   3.192  2.0275 -3.0756 -2.0870
 5468SOL    HW227867   4.035   2.592   3.224  0.0984 -0.1599  1.4865
 5469SOL     OW27868   1.016   1.064   9.686 -0.2779 -0.0512  0.8640
 5469SOL    HW127869   0.964   1.136   9.721 -1.7629 -0.8833  0.3947
 5469SOL    HW227870   0.948   0.998   9.673  0.3491  0.0279 -2.8448
 5470SOL     OW27871   4.219   3.932   2.103  0.2105 -0.3802  0.2435
 5470SOL    HW127872   4.173   3.978   2.033  0.0502  0.9151  1.2101
 5470SOL    HW227873   4.267   4.002   2.147 -1.8590  0.7503  0.6613
 5471SOL     OW27874   0.434   2.599   4.898 -0.1720  0.6109 -0.2349
 5471SOL    HW127875   0.458   2.647   4.977 -0.4782 -1.4940  1.1666
 5471SOL    HW227876   0.340   2.586   4.914 -0.1677  0.8635 -0.0083
 5472SOL     OW27877   1.641   2.418   7.277  0.3185  0.0816 -0.4785
 5472SOL    HW127878   1.715   2.470   7.307 -0.1714  0.5661 -0.1046
 5472SOL    HW227879   1.571   2.470   7.316 -0.1344 -0.1129 -1.0300
 5473SOL     OW27880   2.190   3.844   3.617 -0.4857  0.7146  0.1011
 5473SOL    HW127881   2.130   3.835   3.543 -1.9151  1.1925  1.2110
 5473SOL    HW227882   2.234   3.922   3.585  0.3500 -0.2382 -1.0748
 5474SOL     OW27883   4.242   3.636  10.484  0.1454 -0.2860 -0.1916
 5474SOL    HW127884   4.153   3.626  10.520  0.0815  0.1879 -0.2144
 5474SOL    HW227885   4.260   3.561  10.427 -2.1628 -0.8332 -0.2034
 5475SOL     OW27886   4.159   2.667  15.169  0.7493 -0.7158  0.5182
 5475SOL    HW127887   4.219   2.665  15.094  0.4057 -0.3007  0.2314
 5475SOL    HW227888   4.093   2.707  15.112  0.4784 -0.0684  1.2949
 5476SOL     OW27889   3.146   1.546   6.099  0.1722 -0.3256 -0.2400
 5476SOL    HW127890   3.083   1.611   6.131  1.3568  0.1211  1.2125
 5476SOL    HW227891   3.227   1.596   6.089 -0.1331 -0.1078 -1.5380
 5477SOL     OW27892   0.557   1.392   4.373 -0.9939  0.1491  0.0416
 5477SOL    HW127893   0.528   1.466   4.427 -2.7019  0.4294 -1.2816
 5477SOL    HW227894   0.483   1.334   4.391 -1.8548  1.3304  0.2939
 5478SOL     OW27895   2.332   3.380   0.802  0.0671 -0.1081  0.2142
 5478SOL    HW127896   2.395   3.339   0.861  0.3915  0.5932  0.3569
 5478SOL    HW227897   2.350   3.323   0.727 -1.8467  0.1434 -0.4385
 5479SOL     OW27898   2.224   1.531   6.869 -0.2536  0.3016 -0.4330
 5479SOL    HW127899   2.208   1.462   6.804 -0.4484  0.1943 -0.2710
 5479SOL    HW227900   2.227   1.479   6.949 -0.5553 -0.9271 -1.2193
 5480SOL     OW27901   0.138   2.804  12.248  0.0178  0.1061 -0.3364
 5480SOL    HW127902   0.154   2.724  12.297 -1.2011  1.0660  1.6391
 5480SOL    HW227903   0.189   2.781  12.171  2.2363  1.8032  0.5990
 5481SOL     OW27904   2.540   2.234   3.054  1.1049 -0.0633  0.2508
 5481SOL    HW127905   2.570   2.293   3.124  0.4420 -1.8650  2.0501
 5481SOL    HW227906   2.564   2.279   2.973  0.3374  0.0899  0.1057
 5482SOL     OW27907   3.835   4.011   1.123  0.2798  0.2121 -0.1735
 5482SOL    HW127908   3.928   4.004   1.147 -0.3897 -0.5796  2.2282
 5482SOL    HW227909   3.817   3.942   1.060  2.5250 -1.4362  0.9770
 5483SOL     OW27910   2.702   2.058   8.657 -0.1040  0.3758 -0.7633
 5483SOL    HW127911   2.656   2.024   8.581  1.9660  0.8168 -2.2213
 5483SOL    HW227912   2.785   2.064   8.610  0.9763 -2.4111  0.7860
 5484SOL     OW27913   1.613   0.536   6.075 -0.6119 -0.0379 -0.4503
 5484SOL    HW127914   1.564   0.454   6.064  0.5167 -0.9448  1.1341
 5484SOL    HW227915   1.542   0.599   6.062 -0.9107  0.0642  1.6102
 5485SOL     OW27916   2.595   2.070   5.403  0.6636  0.2117 -0.1932
 5485SOL    HW127917   2.579   2.038   5.492 -0.2004  1.3320  0.0609
 5485SOL    HW227918   2.579   2.162   5.424 -0.5964 -0.0168 -0.1426
 5486SOL     OW27919   1.325   2.282   8.006 -0.3146  0.0491 -1.1099
 5486SOL    HW127920   1.401   2.225   7.994 -0.1971 -0.0819  0.3372
 5486SOL    HW227921   1.326   2.289   8.101  0.7316 -1.3332 -0.9993
 5487SOL     OW27922   1.732   0.291   8.472 -0.6849 -0.0500  0.0811
 5487SOL    HW127923   1.647   0.268   8.434  0.9932 -0.8979 -3.1000
 5487SOL    HW227924   1.697   0.328   8.554  0.5289 -1.1295  1.0630
 5488SOL     OW27925   3.072   2.413  13.994 -0.1460  0.0102 -0.1111
 5488SOL    HW127926   3.044   2.504  13.980 -0.0599  0.2032  1.0258
 5488SOL    HW227927   3.150   2.411  13.938  0.5279  1.4196  0.7668
 5489SOL     OW27928   1.568   4.321  10.549  0.2009 -0.3821  0.1154
 5489SOL    HW127929   1.545   4.414  10.554  0.4580 -0.3495  0.7472
 5489SOL    HW227930   1.516   4.287  10.622 -0.2250 -0.0187 -0.0191
 5490SOL     OW27931   1.833   2.811   5.883  0.7284 -0.2163  0.1623
 5490SOL    HW127932   1.743   2.839   5.867  0.7216 -1.0611 -1.2622
 5490SOL    HW227933   1.818   2.782   5.973 -0.6136  1.2043  0.3930
 5491SOL     OW27934   1.048   3.965   5.311  0.2671  0.0089 -0.5765
 5491SOL    HW127935   1.059   3.985   5.404 -0.5100  1.2279 -0.7510
 5491SOL    HW227936   1.009   4.046   5.279  0.7179  0.3387 -0.2925
 5492SOL     OW27937   3.565   3.881  17.242 -0.2370  0.1039  0.0490
 5492SOL    HW127938   3.643   3.931  17.218 -1.0912  0.9914 -0.8244
 5492SOL    HW227939   3.508   3.912  17.172  1.2896 -1.0639 -1.7286
 5493SOL     OW27940   2.765   0.393   6.857 -0.2642  0.1244  0.2577
 5493SOL    HW127941   2.828   0.455   6.820 -1.2938  0.5418 -0.8071
 5493SOL    HW227942   2.699   0.451   6.895  0.3220  0.0237  1.4342
 5494SOL     OW27943   1.793   0.985  11.933  0.3525  0.1441  0.4619
 5494SOL    HW127944   1.721   0.953  11.878  1.6950 -1.5266 -0.3224
 5494SOL    HW227945   1.873   0.952  11.893 -0.4954 -0.0480 -1.0909
 5495SOL     OW27946   3.324   2.426   6.960  0.3331  0.1863 -0.8438
 5495SOL    HW127947   3.384   2.469   6.899 -0.2003 -0.6558 -1.9397
 5495SOL    HW227948   3.388   2.396   7.025 -0.0126 -1.5354 -1.3028
 5496SOL     OW27949   3.691   1.301  13.195  0.0096  0.0590  0.3276
 5496SOL    HW127950   3.765   1.251  13.161 -0.1981  1.7606 -2.6369
 5496SOL    HW227951   3.621   1.238  13.178  1.2031 -0.9123 -1.0797
 5497SOL     OW27952   1.758   0.473   3.425  0.1515  0.2001 -0.1108
 5497SOL    HW127953   1.769   0.555   3.377  0.3945  0.8020  0.9689
 5497SOL    HW227954   1.663   0.480   3.433  0.2284 -2.0260  2.7324
 5498SOL     OW27955   0.871   4.236  17.444  0.5105  0.4651  0.3790
 5498SOL    HW127956   0.834   4.299  17.383  0.5030  0.2230  0.1322
 5498SOL    HW227957   0.849   4.272  17.529  3.2654  0.5238  1.0819
 5499SOL     OW27958   4.662   0.910  12.901  0.2308 -0.0898 -0.3494
 5499SOL    HW127959   4.669   0.819  12.932 -0.4283  0.6417  1.9958
 5499SOL    HW227960   4.569   0.931  12.906  0.4917  0.5560  2.1056
 5500SOL     OW27961   0.351   2.352   4.655 -0.2467  0.1565  0.0985
 5500SOL    HW127962   0.326   2.421   4.593 -0.6043  0.7184  0.8601
 5500SOL    HW227963   0.415   2.312   4.597 -0.6177  1.0233 -0.9097
 5501SOL     OW27964   1.157   2.789   3.740  0.0827 -0.1397  0.0096
 5501SOL    HW127965   1.244   2.759   3.715  0.3759 -0.9613  2.0399
 5501SOL    HW227966   1.171   2.880   3.716  0.2562 -0.8515 -2.7097
 5502SOL     OW27967   4.444   1.934   4.987 -0.6869 -0.2228  0.1752
 5502SOL    HW127968   4.408   1.933   4.899 -1.1299 -2.3046  0.3978
 5502SOL    HW227969   4.504   2.009   4.990 -0.1554 -0.6956  1.4954
 5503SOL     OW27970   0.679   4.395   6.221  0.3988  0.6947 -0.0670
 5503SOL    HW127971   0.656   4.331   6.154  1.2331 -0.6893  0.9483
 5503SOL    HW227972   0.613   4.464   6.225 -0.4624 -0.1845  1.0380
 5504SOL     OW27973   2.510   2.485   7.288 -0.1348 -0.0128 -0.7839
 5504SOL    HW127974   2.492   2.447   7.374  1.7682  2.6749  0.8364
 5504SOL    HW227975   2.602   2.512   7.296 -0.4630  1.2762 -1.3234
 5505SOL     OW27976   0.330   1.891   8.615  0.7537  0.2463  0.1493
 5505SOL    HW127977   0.352   1.803   8.585  0.8207 -0.4314  2.1311
 5505SOL    HW227978   0.417   1.924   8.593  0.0913  0.2749 -2.3397
 5506SOL     OW27979   1.388   3.593   9.886  0.2301  0.4337  0.0261
 5506SOL    HW127980   1.336   3.520   9.853 -0.5676  1.1907 -0.3926
 5506SOL    HW227981   1.391   3.581   9.981  1.9762  0.4048 -0.0428
 5507SOL     OW27982   2.386   2.780   4.445 -0.8307 -0.6908 -0.0123
 5507SOL    HW127983   2.397   2.875   4.453 -2.0570 -0.6418  1.0687
 5507SOL    HW227984   2.314   2.763   4.506 -2.3964  0.7938 -1.4573
 5508SOL     OW27985   2.111   1.306   1.767 -0.0807 -0.4138 -0.1474
 5508SOL    HW127986   2.105   1.274   1.677 -0.6128 -2.0373  0.4599
 5508SOL    HW227987   2.057   1.385   1.768 -1.7817 -1.5804  0.2837
 5509SOL     OW27988   1.831   3.264   1.879  1.4039  0.3278  0.0505
 5509SOL    HW127989   1.921   3.234   1.891  1.1768  0.2551  1.5174
 5509SOL    HW227990   1.791   3.233   1.960 -2.0991  0.4440 -1.6267
 5510SOL     OW27991   3.822   4.233   8.430  0.1436  0.4413  0.5766
 5510SOL    HW127992   3.807   4.315   8.383 -2.8782 -0.7474 -0.5406
 5510SOL    HW227993   3.916   4.228   8.416  0.1835 -0.3236  1.1431
 5511SOL     OW27994   0.956   0.519   0.408  0.0943 -0.1929  0.3381
 5511SOL    HW127995   1.046   0.511   0.441 -0.5638 -0.8688  1.9589
 5511SOL    HW227996   0.975   0.522   0.314  0.4826  2.0451  0.5084
 5512SOL     OW27997   3.957   3.561  12.893 -0.1562 -0.0503  0.1459
 5512SOL    HW127998   3.988   3.651  12.882  1.4242 -0.7111 -0.8043
 5512SOL    HW227999   3.989   3.547  12.983  0.4081 -0.0753 -0.0572
 5513SOL     OW28000   3.436   3.133   0.471  0.0411  0.3633  0.1939
 5513SOL    HW128001   3.385   3.071   0.418 -0.2647 -0.3116  1.2876
 5513SOL    HW228002   3.469   3.203   0.415  0.8200 -1.0955 -1.1917
 5514SOL     OW28003   3.157   0.037   7.888  0.2545  0.0623  0.0538
 5514SOL    HW128004   3.242   0.075   7.910 -1.2358  0.9641  4.3426
 5514SOL    HW228005   3.121   0.109   7.836 -0.4843 -0.3646 -0.0270
 5515SOL     OW28006   2.641   3.594  11.500  0.0489  0.2301  0.2539
 5515SOL    HW128007   2.574   3.558  11.442  0.1319  3.0278 -1.5399
 5515SOL    HW228008   2.585   3.586  11.577 -2.0822  0.4768 -1.2755
 5516SOL     OW28009   3.655   2.664   4.814 -0.5549  0.3710 -0.1135
 5516SOL    HW128010   3.706   2.744   4.806 -0.0848 -0.0159 -0.9240
 5516SOL    HW228011   3.674   2.627   4.728 -1.8530 -0.4828 -0.0392
 5517SOL     OW28012   3.959   0.858   9.038  0.2240 -0.4124  0.3773
 5517SOL    HW128013   4.018   0.784   9.024  1.1892  0.3596  0.3776
 5517SOL    HW228014   3.874   0.815   9.045  0.6291 -1.2636  0.0393
 5518SOL     OW28015   0.229   4.342   2.483 -0.0791 -0.1978  0.4366
 5518SOL    HW128016   0.167   4.414   2.476 -0.4135 -0.6733 -1.3251
 5518SOL    HW228017   0.260   4.322   2.395  0.2640 -1.1913  0.7825
 5519SOL     OW28018   0.300   0.461   0.117  0.2158 -0.2384  0.0743
 5519SOL    HW128019   0.333   0.443   0.205 -0.0234 -2.0065 -0.1996
 5519SOL    HW228020   0.254   0.542   0.141  0.1257  0.3832 -2.1387
 5520SOL     OW28021   1.851   2.795   1.583 -0.2995 -0.3587 -0.1381
 5520SOL    HW128022   1.805   2.773   1.664 -2.6920  2.3971 -0.7613
 5520SOL    HW228023   1.824   2.721   1.530 -0.7688 -0.4345  0.2122
 5521SOL     OW28024   2.345   2.170   3.574 -0.0123 -0.3147 -0.1478
 5521SOL    HW128025   2.352   2.109   3.647  0.0349 -0.7495 -0.5177
 5521SOL    HW228026   2.427   2.219   3.583 -0.9934  0.7680  2.7977
 5522SOL     OW28027   2.951   1.891   4.798  0.5248 -0.4909 -0.2666
 5522SOL    HW128028   2.940   1.903   4.703  0.7100  0.0098 -0.2231
 5522SOL    HW228029   3.045   1.909   4.795  0.5282 -0.8251 -2.0232
 5523SOL     OW28030   0.201   3.115   5.545 -0.1887  0.4922 -0.2787
 5523SOL    HW128031   0.264   3.049   5.516  0.5966  0.8347  0.6422
 5523SOL    HW228032   0.139   3.117   5.472 -1.3462  0.5645  0.7104
 5524SOL     OW28033   2.337   0.505   2.116 -0.5792 -0.1861  0.6117
 5524SOL    HW128034   2.278   0.558   2.170 -0.8680 -0.7405  0.8452
 5524SOL    HW228035   2.419   0.524   2.162  0.6735  0.5208 -1.9449
 5525SOL     OW28036   1.729   0.658   5.794 -0.1050 -0.4299  0.2966
 5525SOL    HW128037   1.664   0.708   5.843 -0.9124  0.9734 -2.1711
 5525SOL    HW228038   1.801   0.652   5.856 -0.0451 -0.1754  0.2542
 5526SOL     OW28039   0.142   1.046  14.045  0.4304 -0.0451 -0.2721
 5526SOL    HW128040   0.070   0.987  14.069  0.0299  0.8991  0.8706
 5526SOL    HW228041   0.207   0.997  13.994 -0.3806 -1.3090 -0.1086
 5527SOL     OW28042   1.565   0.382   7.219  0.2978 -0.1537  0.0841
 5527SOL    HW128043   1.475   0.400   7.191 -0.1244  0.2750  1.6955
 5527SOL    HW228044   1.549   0.304   7.272  0.6840  1.6380  2.8581
 5528SOL     OW28045   3.584   3.209  11.160 -0.0061 -0.3862  0.1639
 5528SOL    HW128046   3.491   3.231  11.161  0.4275  1.4937 -0.7097
 5528SOL    HW228047   3.610   3.289  11.206  1.8383 -0.4578 -0.7467
 5529SOL     OW28048   1.046   3.891   5.874  0.3216  0.1118  0.6106
 5529SOL    HW128049   1.067   3.803   5.906 -0.9072  0.4508  2.3551
 5529SOL    HW228050   1.122   3.934   5.915  0.5402  0.1366  0.1833
 5530SOL     OW28051   0.690   3.181   3.274  0.0299 -0.4866 -0.3675
 5530SOL    HW128052   0.696   3.098   3.227 -0.2661 -0.6235 -0.1636
 5530SOL    HW228053   0.694   3.136   3.358  0.1175 -0.7495 -0.5127
 5531SOL     OW28054   3.688   3.628   3.059 -0.3485 -0.0950  0.1899
 5531SOL    HW128055   3.635   3.703   3.084  1.0282  0.1068  2.5003
 5531SOL    HW228056   3.652   3.600   2.975 -0.1185  0.6589 -0.1596
 5532SOL     OW28057   0.082   0.134   6.930  0.0661 -0.1206 -0.5807
 5532SOL    HW128058   0.073   0.134   6.834 -1.9116  1.6120 -0.3958
 5532SOL    HW228059   0.097   0.226   6.953 -1.5131 -0.4715  1.8595
 5533SOL     OW28060   3.372   4.687  11.698 -0.3317  0.0512  0.1733
 5533SOL    HW128061   3.323   4.616  11.657 -0.0938  0.8703 -1.5333
 5533SOL    HW228062   3.313   0.004  11.764  0.3099  0.4982  0.5045
 5534SOL     OW28063   4.679   2.349   7.215 -0.3136 -0.3618  0.6934
 5534SOL    HW128064   4.640   2.273   7.171 -1.8574 -0.1350  1.6589
 5534SOL    HW228065   0.039   2.313   7.257  1.9656  2.8316 -0.9197
 5535SOL     OW28066   4.265   4.038   1.702 -0.6096 -0.1830  0.2489
 5535SOL    HW128067   4.342   4.035   1.758 -1.1399  0.2782  1.0074
 5535SOL    HW228068   4.243   4.131   1.699 -1.4937 -0.4686 -1.6978
 5536SOL     OW28069   0.562   0.893   8.504  0.6620 -0.5463  0.1708
 5536SOL    HW128070   0.637   0.849   8.463  0.7131 -2.3816  2.1992
 5536SOL    HW228071   0.604   0.938   8.578  0.2668 -1.0645  0.7051
 5537SOL     OW28072   0.666   3.150   3.877  0.1578  0.2101  0.6755
 5537SOL    HW128073   0.716   3.166   3.797 -0.3783  2.0699  0.7022
 5537SOL    HW228074   0.726   3.183   3.944  0.3589  0.7347  0.2375
 5538SOL     OW28075   2.503   0.541   2.329  0.1174 -0.4903  0.1598
 5538SOL    HW128076   2.517   0.459   2.376  1.8363  0.6486  1.6026
 5538SOL    HW228077   2.450   0.596   2.387  1.7509  2.1972 -0.8622
 5539SOL     OW28078   2.041   2.161   2.961 -0.1480  0.1065 -0.0317
 5539SOL    HW128079   2.062   2.149   2.868  1.1980 -0.3327  0.3276
 5539SOL    HW228080   2.124   2.151   3.009 -0.6546  0.3374  0.8811
 5540SOL     OW28081   2.211   2.220   4.397 -0.6218 -0.2755 -0.2834
 5540SOL    HW128082   2.119   2.196   4.395 -0.5204 -0.6535 -0.3321
 5540SOL    HW228083   2.244   2.130   4.399  0.3606  0.0717 -0.7322
 5541SOL     OW28084   4.359   1.896   2.339  0.0712 -0.2719 -0.3405
 5541SOL    HW128085   4.375   1.877   2.432  0.7384 -1.7265 -0.7544
 5541SOL    HW228086   4.296   1.967   2.352 -0.4160 -1.2154  2.4413
 5542SOL     OW28087   3.406   1.575   3.258  0.1193  0.0882  0.3474
 5542SOL    HW128088   3.345   1.501   3.260 -1.5799  1.4326 -2.1331
 5542SOL    HW228089   3.349   1.648   3.281  0.1127  0.0881  0.3316
 5543SOL     OW28090   4.077   0.429   5.073 -0.1976 -0.3256 -0.1959
 5543SOL    HW128091   4.049   0.459   4.987  0.3335 -0.0104 -0.2552
 5543SOL    HW228092   4.050   0.509   5.116 -1.1342  0.4854 -2.3023
 5544SOL     OW28093   2.408   1.772   5.267  0.5179  0.8979 -0.5014
 5544SOL    HW128094   2.382   1.863   5.286 -2.4802 -0.1028  0.1771
 5544SOL    HW228095   2.371   1.761   5.179  0.9837  0.5175 -0.6451
 5545SOL     OW28096   0.549   0.679   7.460 -0.7926  0.2902 -0.3189
 5545SOL    HW128097   0.595   0.688   7.377  0.6337  2.0293  0.6653
 5545SOL    HW228098   0.484   0.748   7.452 -1.4156 -0.2154  0.3605
 5546SOL     OW28099   2.580   2.671   3.030  0.1362 -0.2136 -0.6334
 5546SOL    HW128100   2.496   2.631   3.053 -0.7424  0.8401 -2.0112
 5546SOL    HW228101   2.640   2.643   3.099 -1.5474  1.0072  1.2902
 5547SOL     OW28102   4.449   4.236   5.341 -0.3481  0.0875 -0.0603
 5547SOL    HW128103   4.361   4.233   5.303  0.0291  1.2712 -1.0388
 5547SOL    HW228104   4.463   4.330   5.328  0.7501 -0.4074 -2.4680
 5548SOL     OW28105   0.378   3.534   7.303 -0.2033 -0.1582 -0.0418
 5548SOL    HW128106   0.294   3.500   7.336  0.5439 -1.7706  0.2338
 5548SOL    HW228107   0.348   3.620   7.276 -0.1810  0.1024  0.7794
 5549SOL     OW28108   4.347   1.930  13.055 -0.4496 -0.1259 -0.1465
 5549SOL    HW128109   4.304   1.923  13.140  0.1525  0.7931  0.2401
 5549SOL    HW228110   4.416   1.993  13.077 -0.5764 -1.2209  3.3558
 5550SOL     OW28111   2.679   1.794   6.853 -0.2781 -0.2925  0.4467
 5550SOL    HW128112   2.774   1.795   6.856 -0.2381 -1.0261 -0.3862
 5550SOL    HW228113   2.668   1.888   6.844  0.9234 -0.0038  2.0660
 5551SOL     OW28114   3.330   1.758   4.657  0.3136  0.7654  0.0546
 5551SOL    HW128115   3.241   1.763   4.622 -0.2984 -0.0932  1.4743
 5551SOL    HW228116   3.380   1.748   4.576 -0.9451 -1.0944 -0.4933
 5552SOL     OW28117   2.748   3.000   8.602 -0.5401  0.2867 -0.0851
 5552SOL    HW128118   2.745   2.916   8.556 -1.8080  0.1546  0.2506
 5552SOL    HW228119   2.708   2.985   8.687  1.4939 -1.5643  0.5708
 5553SOL     OW28120   3.905   3.150   6.577  0.3385  0.1703  0.1154
 5553SOL    HW128121   3.927   3.057   6.586 -1.6043 -0.4842 -1.5907
 5553SOL    HW228122   3.915   3.176   6.668 -0.2832 -1.3971  0.6367
 5554SOL     OW28123   3.563   0.779   9.221  0.2077 -0.7110 -0.0094
 5554SOL    HW128124   3.571   0.840   9.294 -0.3148  1.1111 -1.4807
 5554SOL    HW228125   3.619   0.825   9.158  1.4797 -1.3632  0.6516
 5555SOL     OW28126   0.754   3.740   7.246 -0.1264  0.1905 -0.4371
 5555SOL    HW128127   0.736   3.720   7.154  0.6470  0.9000 -0.7462
 5555SOL    HW228128   0.745   3.836   7.245 -2.2912 -0.0211  0.1330
 5556SOL     OW28129   3.908   3.484   8.386 -0.1022 -0.6058 -0.1089
 5556SOL    HW128130   3.830   3.494   8.441  0.6508  2.4825  0.4308
 5556SOL    HW228131   3.969   3.447   8.450  0.1918 -2.2396 -1.3455
 5557SOL     OW28132   3.872   0.900   6.613  0.4707  0.2250 -0.2712
 5557SOL    HW128133   3.849   0.920   6.522  2.6221 -1.6923 -1.2336
 5557SOL    HW228134   3.967   0.907   6.606  0.5328  0.0979  0.4635
 5558SOL     OW28135   4.206   4.372   6.836  0.0018  0.3923 -0.1362
 5558SOL    HW128136   4.173   4.358   6.747  2.1330  2.0487 -1.1941
 5558SOL    HW228137   4.240   4.285   6.855  0.0855  0.4205 -0.1557
 5559SOL     OW28138   3.521   2.219  14.335  0.0789 -0.9276  0.1369
 5559SOL    HW128139   3.534   2.314  14.334 -0.7043 -0.8379 -1.3594
 5559SOL    HW228140   3.589   2.193  14.273  2.3657  3.7960  0.5950
 5560SOL     OW28141   1.110   0.978   6.280  0.5076  0.3905 -0.0310
 5560SOL    HW128142   1.063   1.053   6.246 -1.5305 -0.8083  0.1259
 5560SOL    HW228143   1.153   1.022   6.353 -1.1873 -0.8107  1.7028
 5561SOL     OW28144   2.802   3.194   0.116  0.4191 -0.0884  0.4294
 5561SOL    HW128145   2.877   3.139   0.137  0.5137 -0.1411 -0.0611
 5561SOL    HW228146   2.831   3.280   0.085  1.0600 -0.3756  0.2369
 5562SOL     OW28147   3.442   2.082   4.000  0.2010  0.1242 -0.1381
 5562SOL    HW128148   3.506   2.059   3.933 -0.2721 -1.7908  0.0581
 5562SOL    HW228149   3.497   2.072   4.078  0.8731  1.7064 -0.4099
 5563SOL     OW28150   4.224   3.933  16.907 -0.1648 -0.0382 -0.3395
 5563SOL    HW128151   4.221   3.964  16.998 -3.0462 -1.4939  0.0629
 5563SOL    HW228152   4.220   4.012  16.853  1.7599  0.1154 -0.2868
 5564SOL     OW28153   4.687   2.279   1.827 -0.1107 -0.6111  0.0732
 5564SOL    HW128154   0.017   2.239   1.754  1.6252 -1.8888  1.9131
 5564SOL    HW228155   4.631   2.205   1.848 -1.8400  0.9651  0.9528
 5565SOL     OW28156   2.858   0.883   4.068 -0.5406  0.8407 -0.1842
 5565SOL    HW128157   2.862   0.788   4.061  2.2430  0.9626 -0.3456
 5565SOL    HW228158   2.784   0.899   4.126 -0.3456 -0.7965  0.5034
 5566SOL     OW28159   2.554   0.279   8.979  0.0472 -0.0068  0.2443
 5566SOL    HW128160   2.464   0.247   8.968  1.6555 -3.5777 -2.5305
 5566SOL    HW228161   2.545   0.308   9.069 -0.2239  1.2454 -0.1941
 5567SOL     OW28162   2.317   2.457  16.418 -0.2180  0.0335 -0.4188
 5567SOL    HW128163   2.288   2.489  16.332  1.6434 -1.7130 -1.6755
 5567SOL    HW228164   2.337   2.367  16.392  0.0580  0.3877 -1.4340
 5568SOL     OW28165   1.979   0.977  12.849  0.3955  0.5428  0.4661
 5568SOL    HW128166   2.066   0.938  12.861 -1.1848 -2.8160  1.1732
 5568SOL    HW228167   1.927   0.898  12.866  4.6600 -2.3210  0.1096
 5569SOL     OW28168   2.543   3.909  13.244 -0.2192 -0.8376  0.1823
 5569SOL    HW128169   2.611   3.977  13.242 -0.6328 -0.4897 -2.8690
 5569SOL    HW228170   2.557   3.868  13.329 -1.0300 -1.9632 -0.2360
 5570SOL     OW28171   2.048   3.914   8.330  0.6757  0.2873 -0.4946
 5570SOL    HW128172   1.967   3.869   8.311  1.1525 -0.6176 -0.3690
 5570SOL    HW228173   2.025   3.968   8.406  0.9500 -2.9912  1.9153
 5571SOL     OW28174   2.313   0.622   6.508 -0.7342 -0.1253  0.2236
 5571SOL    HW128175   2.345   0.557   6.571 -0.3151  0.1771  0.3268
 5571SOL    HW228176   2.262   0.681   6.563 -0.1349 -2.5552  3.3982
 5572SOL     OW28177   3.263   0.487  12.027 -0.2489  0.0826  0.0292
 5572SOL    HW128178   3.281   0.443  12.110  0.6415 -2.7334 -1.6557
 5572SOL    HW228179   3.187   0.436  11.996  1.2556 -0.9682 -1.9639
 5573SOL     OW28180   3.012   2.538   2.393 -0.2824 -0.0080  0.1255
 5573SOL    HW128181   3.077   2.606   2.374 -1.4445  1.1074  0.1807
 5573SOL    HW228182   2.966   2.571   2.470 -0.7065  0.4832 -0.3418
 5574SOL     OW28183   3.227   0.566   4.524  0.5901 -1.2526 -0.5456
 5574SOL    HW128184   3.253   0.634   4.586 -1.9644  0.2212 -1.0735
 5574SOL    HW228185   3.149   0.611   4.490  1.1456 -1.1725 -1.6954
 5575SOL     OW28186   1.981   2.837   8.536  0.0018 -0.2614  0.2022
 5575SOL    HW128187   2.029   2.835   8.618 -0.6755 -1.4357  0.5623
 5575SOL    HW228188   1.939   2.753   8.554  0.4952 -0.8230 -1.2498
 5576SOL     OW28189   0.648   1.819  13.300 -0.0202  0.0521 -0.6340
 5576SOL    HW128190   0.647   1.845  13.208 -1.4705 -3.4264 -1.5957
 5576SOL    HW228191   0.725   1.762  13.298  1.9826  2.7142  1.8903
 5577SOL     OW28192   1.758   2.420   3.884 -0.1706  0.3616  0.3644
 5577SOL    HW128193   1.779   2.488   3.821 -1.5866 -0.3864 -0.9361
 5577SOL    HW228194   1.847   2.401   3.913  0.2912  1.4149 -0.3972
 5578SOL     OW28195   4.590   1.692   6.333 -0.3024  0.0431  0.0610
 5578SOL    HW128196   4.565   1.744   6.257  1.5960 -1.5877 -1.6744
 5578SOL    HW228197   4.669   1.740   6.358 -0.6210  0.2218  0.7433
 5579SOL     OW28198   2.405   1.745   3.522  0.3958 -0.3209  0.2230
 5579SOL    HW128199   2.445   1.687   3.586 -0.6193 -1.1680  0.0719
 5579SOL    HW228200   2.329   1.779   3.568 -0.5744 -1.9205 -0.1816
 5580SOL     OW28201   4.580   0.127  16.094  0.5821 -0.0784 -0.2362
 5580SOL    HW128202   4.651   0.077  16.133  0.2024 -0.2020  0.2902
 5580SOL    HW228203   4.630   0.183  16.034 -0.7019 -0.4718 -1.6727
 5581SOL     OW28204   4.067   3.550   7.176  0.0907  0.0188 -0.0077
 5581SOL    HW128205   4.064   3.574   7.268 -0.1167 -0.6473  0.1566
 5581SOL    HW228206   4.156   3.514   7.170  0.4842  1.2342 -1.4796
 5582SOL     OW28207   1.468   0.530  13.939 -0.3614  0.1995 -0.2927
 5582SOL    HW128208   1.501   0.478  14.013 -1.0746 -1.4180 -1.1167
 5582SOL    HW228209   1.447   0.620  13.965 -0.0902 -0.2265  1.3846
 5583SOL     OW28210   3.447   1.904   7.704 -0.0781 -0.8080 -0.0169
 5583SOL    HW128211   3.355   1.929   7.715  0.2421 -0.5163  1.9517
 5583SOL    HW228212   3.452   1.916   7.609  1.9206  0.1617  0.2324
 5584SOL     OW28213   2.836   1.100   2.926  0.0367  0.1697  0.0189
 5584SOL    HW128214   2.805   1.140   3.007  0.5258  0.4630  0.0627
 5584SOL    HW228215   2.762   1.114   2.867 -1.8017  0.2572  2.3844
 5585SOL     OW28216   3.264   3.230  13.762 -0.0069 -0.7267 -0.0199
 5585SOL    HW128217   3.183   3.282  13.768  0.2616 -0.1072 -1.6840
 5585SOL    HW228218   3.297   3.226  13.852 -1.4232 -1.8243  0.4696
 5586SOL     OW28219   3.145   1.786   7.878  0.8461 -0.5190  0.1530
 5586SOL    HW128220   3.156   1.747   7.964  0.8776  0.0311  0.4003
 5586SOL    HW228221   3.124   1.874   7.909 -1.5724 -0.7611 -0.8539
 5587SOL     OW28222   0.520   3.180   5.116 -0.0321 -0.2219 -0.1049
 5587SOL    HW128223   0.497   3.236   5.191 -0.0564 -0.5921  0.1647
 5587SOL    HW228224   0.594   3.225   5.075  0.0742  0.8210  1.2110
 5588SOL     OW28225   0.099   2.502   3.005  0.2069 -0.3876  0.3356
 5588SOL    HW128226   0.061   2.426   3.050 -0.0642 -0.3875  0.1075
 5588SOL    HW228227   0.044   2.506   2.927 -0.9487  0.1590  1.1733
 5589SOL     OW28228   3.639   2.490   2.274  0.5115 -0.5392 -0.2495
 5589SOL    HW128229   3.563   2.433   2.267  1.2829 -1.3719 -1.9074
 5589SOL    HW228230   3.611   2.544   2.348  0.9945  0.2596 -0.6509
 5590SOL     OW28231   4.420   0.807   6.134 -0.0471  0.0776 -0.5376
 5590SOL    HW128232   4.478   0.732   6.148  0.1687  0.2425 -0.5526
 5590SOL    HW228233   4.478   0.870   6.091 -0.2124  0.2787 -0.4673
 5591SOL     OW28234   2.559   1.525   1.404 -0.0603 -0.3023 -0.6349
 5591SOL    HW128235   2.477   1.563   1.435  0.3286 -2.1906  2.7592
 5591SOL    HW228236   2.521   1.488   1.325 -1.0411 -1.5990  0.4488
 5592SOL     OW28237   2.230   1.906  10.349  0.0809  0.2508  0.2287
 5592SOL    HW128238   2.311   1.931  10.393 -0.1591  0.3370  0.6172
 5592SOL    HW228239   2.239   1.965  10.274  1.7562 -0.9234 -0.4857
 5593SOL     OW28240   3.596   2.234   2.526  0.0168  0.3610 -1.2158
 5593SOL    HW128241   3.656   2.265   2.594  0.6309 -0.4497 -1.3879
 5593SOL    HW228242   3.522   2.291   2.546  0.1164  0.7857 -2.0420
 5594SOL     OW28243   2.683   0.707  15.048  0.8278  0.3370  0.0438
 5594SOL    HW128244   2.697   0.616  15.076 -0.2511  0.7100  1.8117
 5594SOL    HW228245   2.738   0.726  14.972  0.3131 -1.0624 -0.6861
 5595SOL     OW28246   0.118   4.702  16.110 -0.1647 -0.2442 -0.5083
 5595SOL    HW128247   0.149   0.014  16.195 -0.7321  2.0715 -1.1048
 5595SOL    HW228248   0.198   4.703  16.056  0.5071 -1.2123  0.4704
 5596SOL     OW28249   0.425   1.492   8.012 -0.3274 -0.1454 -0.0954
 5596SOL    HW128250   0.417   1.585   8.036 -1.5790  0.3005 -2.2786
 5596SOL    HW228251   0.409   1.445   8.095  1.0568 -1.1299 -0.3918
 5597SOL     OW28252   4.331   2.754   7.474 -0.0809  0.3541 -0.3220
 5597SOL    HW128253   4.237   2.772   7.468 -0.1034  0.0567 -0.8550
 5597SOL    HW228254   4.368   2.795   7.396 -1.0833  0.5763 -0.6906
 5598SOL     OW28255   2.189   0.528  12.530 -0.7557 -0.0950  0.7961
 5598SOL    HW128256   2.224   0.586  12.463  2.8846 -2.2367  0.8140
 5598SOL    HW228257   2.108   0.571  12.557 -1.0355  0.8494 -1.6254
 5599SOL     OW28258   3.411   3.248   2.729  0.8404 -0.3385  0.1608
 5599SOL    HW128259   3.451   3.278   2.647 -0.8272 -1.0803 -0.9382
 5599SOL    HW228260   3.358   3.326   2.747  1.5117 -0.2299  1.6320
 5600SOL     OW28261   3.738   1.732   0.741 -0.5057 -0.0305 -0.1953
 5600SOL    HW128262   3.747   1.764   0.831 -0.2715  1.1238 -0.6409
 5600SOL    HW228263   3.807   1.780   0.697 -1.7021 -0.3926 -2.4558
 5601SOL     OW28264   2.772   1.229  12.997  0.0872  0.0877  0.1786
 5601SOL    HW128265   2.705   1.194  12.938  0.8190  0.5219 -0.9073
 5601SOL    HW228266   2.842   1.165  13.009  0.5014  0.8900  2.1039
 5602SOL     OW28267   1.039   1.716   4.913  0.0243  0.0511  0.0987
 5602SOL    HW128268   1.030   1.804   4.876  2.2796 -0.2587 -1.1373
 5602SOL    HW228269   1.076   1.667   4.840 -1.7789 -0.7703 -0.2717
 5603SOL     OW28270   0.606   1.537   1.993  0.0933 -0.3472  0.2416
 5603SOL    HW128271   0.675   1.555   2.058 -0.5803 -2.3138  1.5012
 5603SOL    HW228272   0.543   1.581   2.051  0.1872 -0.1713  0.2110
 5604SOL     OW28273   1.503   0.345   9.072  0.1995 -0.6595 -0.2416
 5604SOL    HW128274   1.563   0.416   9.095 -0.3832 -0.3045  0.1729
 5604SOL    HW228275   1.510   0.345   8.976 -1.3666  1.8433 -0.3484
 5605SOL     OW28276   0.685   2.793  14.274 -0.1268  0.1836 -0.1772
 5605SOL    HW128277   0.779   2.777  14.266 -0.4550 -0.3691 -2.9730
 5605SOL    HW228278   0.648   2.727  14.215 -2.4005  1.4203 -0.1054
 5606SOL     OW28279   0.634   2.462   7.573 -0.1534 -0.0346 -0.2910
 5606SOL    HW128280   0.695   2.467   7.647 -0.6240 -0.4898  0.1241
 5606SOL    HW228281   0.666   2.388   7.523 -0.9521 -0.8519  0.4208
 5607SOL     OW28282   1.512   1.990   1.954 -0.3570  0.3776 -0.0109
 5607SOL    HW128283   1.454   1.923   1.988 -1.2022  0.0576 -2.0723
 5607SOL    HW228284   1.567   1.934   1.899  0.7033  1.3224  0.0864
 5608SOL     OW28285   1.467   4.261   8.220  0.3047 -0.1683 -0.4835
 5608SOL    HW128286   1.443   4.316   8.294 -1.4452 -1.5763 -0.0077
 5608SOL    HW228287   1.388   4.257   8.167  0.4926  2.0938 -0.8976
 5609SOL     OW28288   0.751   1.673   6.733  0.0364  0.1608  0.2446
 5609SOL    HW128289   0.821   1.633   6.681 -0.3336 -0.8660  0.5370
 5609SOL    HW228290   0.762   1.767   6.715  2.2268  0.1617  1.5063
 5610SOL     OW28291   2.184   2.400   4.137  0.1603 -0.4053  0.1159
 5610SOL    HW128292   2.202   2.491   4.161  0.8038 -0.0035 -1.8643
 5610SOL    HW228293   2.191   2.348   4.217  0.4241  0.3742  0.5932
 5611SOL     OW28294   3.235   3.242   3.461 -0.0274  0.2201 -0.0575
 5611SOL    HW128295   3.267   3.227   3.371 -0.9372  0.0328 -0.3529
 5611SOL    HW228296   3.184   3.323   3.453  0.6552  0.7471  1.1188
 5612SOL     OW28297   2.356   4.048  12.020  0.3607  0.5446  0.0319
 5612SOL    HW128298   2.370   4.018  11.930  2.0099  2.0007 -0.2039
 5612SOL    HW228299   2.305   4.128  12.003  1.8483  1.2575 -1.1350
 5613SOL     OW28300   3.137   1.050   7.723  0.4305  0.0727 -0.2373
 5613SOL    HW128301   3.213   1.035   7.779 -0.1060  1.7376  0.9327
 5613SOL    HW228302   3.064   1.006   7.766  0.4499  2.4583  2.2567
 5614SOL     OW28303   0.635   3.917  13.875 -0.2758 -0.4170  0.3055
 5614SOL    HW128304   0.695   3.973  13.924  0.5350 -0.9124 -0.1217
 5614SOL    HW228305   0.660   3.828  13.898  2.4809 -0.8130 -4.3153
 5615SOL     OW28306   1.893   0.278  11.128  0.4067 -0.0057 -0.0387
 5615SOL    HW128307   1.825   0.346  11.134  0.9167  0.2970  2.6489
 5615SOL    HW228308   1.903   0.267  11.034 -2.3905 -0.5852 -0.2686
 5616SOL     OW28309   3.328   2.062   3.632  0.2528 -0.0936 -0.1769
 5616SOL    HW128310   3.401   2.122   3.645 -0.4063  0.3316  1.5108
 5616SOL    HW228311   3.360   1.997   3.569 -0.8365 -0.0918 -0.7266
 5617SOL     OW28312   0.299   4.111  15.126  0.4494 -0.0074 -0.2325
 5617SOL    HW128313   0.338   4.096  15.040 -1.6139  1.7161 -1.4598
 5617SOL    HW228314   0.214   4.070  15.114  0.7348 -0.5041 -0.5258
 5618SOL     OW28315   1.735   4.546   1.721  0.3279  0.0105 -0.1050
 5618SOL    HW128316   1.729   4.613   1.790 -0.2305 -0.4021  0.2445
 5618SOL    HW228317   1.652   4.499   1.719  0.4746 -0.2451 -0.2184
 5619SOL     OW28318   3.243   0.022   2.696 -0.2756  0.2874 -0.8340
 5619SOL    HW128319   3.275   4.685   2.624 -0.8114  0.9775 -1.5930
 5619SOL    HW228320   3.215   0.107   2.661 -1.2341 -0.6967 -2.4748
 5620SOL     OW28321   3.771   0.081  11.533  0.0312  0.3001 -0.2168
 5620SOL    HW128322   3.772   0.001  11.586 -1.2054 -0.9578 -2.0658
 5620SOL    HW228323   3.835   0.134  11.581  1.1201 -0.1283 -1.1837
 5621SOL     OW28324   4.246   0.702   2.397 -0.5495  0.4107  0.5806
 5621SOL    HW128325   4.254   0.688   2.302  0.5441 -0.1658  0.7558
 5621SOL    HW228326   4.211   0.791   2.393 -0.2557  0.4863 -0.3283
 5622SOL     OW28327   1.563   3.552   6.953  0.4395  0.0272 -0.1524
 5622SOL    HW128328   1.550   3.462   6.982 -0.0115  0.5265  1.2187
 5622SOL    HW228329   1.543   3.541   6.860  0.1436 -1.5465  0.0940
 5623SOL     OW28330   1.640   0.106  15.154 -0.3469  0.4770 -0.0005
 5623SOL    HW128331   1.735   0.109  15.168 -0.0900  1.2190 -1.8822
 5623SOL    HW228332   1.619   0.199  15.141  0.2666  0.6918  0.5344
 5624SOL     OW28333   0.960   2.534  13.753  0.1253 -0.0269 -0.2701
 5624SOL    HW128334   0.886   2.546  13.694  0.0797  2.3432  0.2461
 5624SOL    HW228335   0.916   2.557  13.835 -0.4932  0.4556 -0.7433
 5625SOL     OW28336   3.650   1.859  11.309 -0.0741  0.0371  0.3473
 5625SOL    HW128337   3.690   1.785  11.355 -0.1217 -0.8713 -1.0838
 5625SOL    HW228338   3.723   1.904  11.266  0.0741 -0.5104  0.0198
 5626SOL     OW28339   0.651   0.899   4.677 -0.3468  0.3057  0.1267
 5626SOL    HW128340   0.582   0.964   4.691 -0.7913  0.0380 -0.7975
 5626SOL    HW228341   0.677   0.872   4.765  1.5843  0.1019 -0.4961
 5627SOL     OW28342   2.453   1.018  10.858  0.3048  0.1967 -0.4679
 5627SOL    HW128343   2.372   0.981  10.823  0.6406  0.1296 -1.1658
 5627SOL    HW228344   2.420   1.107  10.872 -1.0794 -0.2847 -0.7146
 5628SOL     OW28345   1.812   4.597   9.890  0.0397  0.2008  0.6146
 5628SOL    HW128346   1.879   4.619   9.826 -1.8622 -1.3449 -1.9105
 5628SOL    HW228347   1.735   4.608   9.833  0.8792  1.5855 -0.2528
 5629SOL     OW28348   3.695   0.807  10.300  0.1972  0.2704 -0.0347
 5629SOL    HW128349   3.759   0.850  10.243  1.0913  0.4318  1.1055
 5629SOL    HW228350   3.750   0.770  10.369 -1.4311 -2.8368 -0.3726
 5630SOL     OW28351   4.632   3.560   6.274  0.7367  0.2043  0.1767
 5630SOL    HW128352   4.642   3.488   6.336 -3.4773  1.2902  2.1908
 5630SOL    HW228353   4.690   3.620   6.321  0.4736 -0.3665  1.2387
 5631SOL     OW28354   3.409   1.400   2.886 -0.4693 -0.2733 -0.0154
 5631SOL    HW128355   3.394   1.308   2.863  0.0720 -0.4634  0.3977
 5631SOL    HW228356   3.338   1.416   2.949  0.3267 -2.0360  1.3551
 5632SOL     OW28357   0.889   3.741  15.883 -0.3113 -0.6387 -0.0536
 5632SOL    HW128358   0.926   3.799  15.950  0.1863 -0.0520 -0.8355
 5632SOL    HW228359   0.812   3.785  15.846  0.4489  1.6108  0.9932
 5633SOL     OW28360   0.702   4.284   4.076  0.6051 -0.2039 -1.2346
 5633SOL    HW128361   0.639   4.214   4.094  2.4442 -1.6987 -0.6241
 5633SOL    HW228362   0.767   4.232   4.028 -1.3023 -1.3402 -2.6071
 5634SOL     OW28363   1.093   0.951   1.946 -0.4849 -0.1018  0.0600
 5634SOL    HW128364   1.108   0.904   1.863 -0.4713 -1.1542  0.6559
 5634SOL    HW228365   1.184   0.953   1.977 -0.2649  1.9103 -0.7606
 5635SOL     OW28366   3.390   2.198   9.817 -0.2750 -0.0488 -0.2724
 5635SOL    HW128367   3.356   2.225   9.902  2.0731  0.8023  0.3884
 5635SOL    HW228368   3.450   2.126   9.837  0.6751  0.3625 -1.6971
 5636SOL     OW28369   2.944   0.147   1.735  0.0538 -0.3293 -0.7402
 5636SOL    HW128370   2.922   0.142   1.642 -0.1106  3.3056 -0.9023
 5636SOL    HW228371   2.912   0.063   1.768  0.4562  0.1099  0.7700
 5637SOL     OW28372   1.180   1.499   4.147 -0.2783  0.3213 -0.3240
 5637SOL    HW128373   1.128   1.568   4.189 -0.8754 -1.7352  2.3530
 5637SOL    HW228374   1.153   1.506   4.056 -0.2556 -0.0647 -0.3609
 5638SOL     OW28375   3.772   2.759  12.687  0.0641 -0.0767  0.2755
 5638SOL    HW128376   3.742   2.685  12.634 -1.3914  2.9244 -3.0807
 5638SOL    HW228377   3.815   2.814  12.621 -0.0681 -1.4451 -0.9593
 5639SOL     OW28378   1.437   2.261   4.456 -0.1861  0.1604 -0.0987
 5639SOL    HW128379   1.528   2.236   4.440  0.3718  1.0758  1.6658
 5639SOL    HW228380   1.430   2.339   4.401 -1.3628 -0.0017 -0.1876
 5640SOL     OW28381   3.564   0.691   3.472 -0.1167  0.4138 -0.0034
 5640SOL    HW128382   3.572   0.647   3.557  0.0258  1.3767  0.4927
 5640SOL    HW228383   3.525   0.625   3.416  1.4326 -1.9628  1.7270
 5641SOL     OW28384   1.185   3.528   3.208 -0.6149  0.1924 -0.1979
 5641SOL    HW128385   1.261   3.515   3.153 -0.2748 -1.0395  0.5585
 5641SOL    HW228386   1.140   3.445   3.194 -0.1527 -0.0180 -0.4083
 5642SOL     OW28387   0.764   3.016   3.507 -0.5001 -0.2528  0.5402
 5642SOL    HW128388   0.748   3.104   3.542 -1.0831 -0.1548  0.0134
 5642SOL    HW228389   0.812   2.973   3.578  1.2190  0.7279 -0.0310
 5643SOL     OW28390   3.691   3.870  12.880  0.5409  0.1597  0.3672
 5643SOL    HW128391   3.716   3.950  12.926  1.3314 -0.8048  1.5929
 5643SOL    HW228392   3.774   3.826  12.868  0.0336 -0.4876 -0.7433
 5644SOL     OW28393   2.901   1.924   3.251  0.1249 -0.0666 -0.2196
 5644SOL    HW128394   2.850   1.990   3.297  0.2893  0.4295 -0.7510
 5644SOL    HW228395   2.829   1.885   3.200 -1.2708 -0.5899  2.1408
 5645SOL     OW28396   0.322   2.995  12.420 -0.9724  0.0216 -0.1408
 5645SOL    HW128397   0.253   2.984  12.355 -0.5457 -2.8603 -0.1190
 5645SOL    HW228398   0.361   3.083  12.415  0.0712 -0.5554 -2.1478
 5646SOL     OW28399   1.371   3.858   5.305 -0.3329 -0.0976 -0.4349
 5646SOL    HW128400   1.368   3.844   5.211 -0.1849 -0.3462 -0.4023
 5646SOL    HW228401   1.303   3.802   5.342  0.5820 -0.9473 -0.0338
 5647SOL     OW28402   4.209   3.034   7.791  0.0606 -0.1593  0.0843
 5647SOL    HW128403   4.127   3.015   7.836  0.4635  1.4344  1.4803
 5647SOL    HW228404   4.265   2.983   7.849 -4.5588 -3.1318  1.9000
 5648SOL     OW28405   0.259   0.455  10.116  0.2280 -0.0808  0.3451
 5648SOL    HW128406   0.283   0.370  10.153 -5.3143 -1.4356  0.7902
 5648SOL    HW228407   0.315   0.467  10.039  0.3295  1.2103  0.6248
 5649SOL     OW28408   1.153   3.117   4.849 -0.2911 -0.1817 -0.4132
 5649SOL    HW128409   1.221   3.168   4.892 -1.9435  0.2686  1.6528
 5649SOL    HW228410   1.142   3.181   4.778 -0.2737  0.6308  0.3114
 5650SOL     OW28411   2.167   1.611   8.332 -0.3466 -0.2869  0.1729
 5650SOL    HW128412   2.133   1.565   8.256 -0.5370 -0.9119  0.6374
 5650SOL    HW228413   2.260   1.599   8.314 -0.1459  1.5603 -0.0217
 5651SOL     OW28414   1.396   1.504   7.287  0.2129  0.0416  0.0640
 5651SOL    HW128415   1.395   1.516   7.192 -1.6333  1.3765  0.2417
 5651SOL    HW228416   1.337   1.430   7.297  0.6059 -0.0274  1.9349
 5652SOL     OW28417   4.624   0.552   3.096 -0.3965  0.5155 -0.0915
 5652SOL    HW128418   4.533   0.582   3.090 -0.4063  0.4962 -0.0390
 5652SOL    HW228419   4.624   0.533   3.190  2.3522  0.3160 -0.1501
 5653SOL     OW28420   0.942   1.358   6.632 -0.3754  0.4602  0.3908
 5653SOL    HW128421   0.932   1.273   6.588  0.4813  0.9577 -0.7449
 5653SOL    HW228422   0.882   1.335   6.703 -0.1410 -0.8885  0.1527
 5654SOL     OW28423   4.102   0.142   6.173 -0.2213  0.3130 -0.2523
 5654SOL    HW128424   4.061   0.212   6.122 -0.1728  1.2961  1.0551
 5654SOL    HW228425   4.075   0.067   6.120  0.3786 -0.8186  1.0493
 5655SOL     OW28426   4.209   1.600   6.551  0.1296 -0.4197  0.8367
 5655SOL    HW128427   4.190   1.610   6.458  2.7728  0.7565  0.4447
 5655SOL    HW228428   4.177   1.510   6.560 -0.4208 -0.4902 -1.9135
 5656SOL     OW28429   3.066   1.945   2.122 -0.0757 -0.3392 -0.0320
 5656SOL    HW128430   3.161   1.958   2.117  0.1045 -0.7707  2.4399
 5656SOL    HW228431   3.046   1.886   2.049 -0.1786 -1.0915  0.6185
 5657SOL     OW28432   3.325   4.500   2.298 -0.3208 -0.7339  0.2253
 5657SOL    HW128433   3.419   4.498   2.282 -0.7637 -2.0675 -2.2088
 5657SOL    HW228434   3.332   4.566   2.368 -2.0707  0.4576 -0.7113
 5658SOL     OW28435   4.624   0.979   1.829  0.0044  0.4237  0.2899
 5658SOL    HW128436   4.623   1.066   1.787  0.2298  0.5191  0.4890
 5658SOL    HW228437   4.575   0.991   1.910  0.1524  0.9691  0.2980
 5659SOL     OW28438   0.814   1.361   1.451 -0.6579  0.0879  0.0476
 5659SOL    HW128439   0.837   1.381   1.360 -1.1484 -0.1379 -0.1305
 5659SOL    HW228440   0.799   1.266   1.456 -2.2993  0.3066 -0.7261
 5660SOL     OW28441   3.063   3.396   6.627 -0.5957  0.2388 -0.0527
 5660SOL    HW128442   3.143   3.380   6.576  0.5287  1.1509  1.4222
 5660SOL    HW228443   3.094   3.392   6.718  3.0851 -1.6836 -1.3837
 5661SOL     OW28444   2.441   1.021   2.590  0.4556 -0.1175 -0.2078
 5661SOL    HW128445   2.498   0.971   2.531  1.7244  0.7414  0.2954
 5661SOL    HW228446   2.382   1.058   2.524  0.2327  1.8426  1.1146
 5662SOL     OW28447   4.208   1.757   2.699 -0.4387 -0.3188  0.4617
 5662SOL    HW128448   4.156   1.831   2.729  1.2735  0.9643  0.2753
 5662SOL    HW228449   4.146   1.719   2.637 -1.8890  1.0011  1.1094
 5663SOL     OW28450   1.351   4.156   9.771 -0.3938 -0.3812  0.1704
 5663SOL    HW128451   1.400   4.075   9.754  0.7296  0.1317  0.9299
 5663SOL    HW228452   1.265   4.122   9.792 -0.1759 -1.1989 -0.2690
 5664SOL     OW28453   2.462   0.379   6.973 -0.6828 -0.1077  0.2006
 5664SOL    HW128454   2.488   0.287   6.966 -1.9857 -0.3875 -0.9803
 5664SOL    HW228455   2.367   0.380   6.969 -0.7299 -1.6104  1.1920
 5665SOL     OW28456   2.426   0.603  13.145  0.3631 -0.0633  0.2252
 5665SOL    HW128457   2.413   0.559  13.061 -1.1640 -0.5479  0.7107
 5665SOL    HW228458   2.484   0.538  13.184  1.1715  0.1665 -0.5866
 5666SOL     OW28459   0.562   1.060  17.177  0.0175 -0.1866  0.0198
 5666SOL    HW128460   0.512   1.078  17.257 -1.1627  0.6137 -0.9005
 5666SOL    HW228461   0.629   1.127  17.168 -0.7419  0.7034  0.9048
 5667SOL     OW28462   4.464   1.259   4.985 -0.4987  0.4271  0.3094
 5667SOL    HW128463   4.459   1.301   5.072 -2.9735  2.1031 -0.6327
 5667SOL    HW228464   4.498   1.174   5.012  0.5701  0.3285 -1.3682
 5668SOL     OW28465   4.596   1.214   3.727  0.0143 -0.2751 -0.4833
 5668SOL    HW128466   4.581   1.190   3.635 -0.4139  0.9605 -0.7296
 5668SOL    HW228467   4.626   1.304   3.716 -0.4246 -0.1272 -0.4821
 5669SOL     OW28468   1.173   1.687  10.779  0.4889 -0.1675  0.3230
 5669SOL    HW128469   1.261   1.722  10.790  1.3190 -1.7715 -1.2403
 5669SOL    HW228470   1.193   1.596  10.803  0.6958 -0.7986 -2.2940
 5670SOL     OW28471   3.905   1.660   3.743 -0.3448 -0.5653  0.2537
 5670SOL    HW128472   3.865   1.669   3.829 -2.3515  0.1744 -0.7647
 5670SOL    HW228473   3.995   1.633   3.764  0.1836  1.3520  0.4421
 5671SOL     OW28474   1.529   3.265   8.748 -0.1083 -0.5646  0.1432
 5671SOL    HW128475   1.540   3.171   8.756  0.7560 -0.3620  1.4015
 5671SOL    HW228476   1.530   3.301   8.837  1.1996  0.2482 -0.1962
 5672SOL     OW28477   0.853   2.221   0.462 -0.1395 -0.1653  0.1258
 5672SOL    HW128478   0.771   2.255   0.425 -0.1722 -0.9943 -0.5657
 5672SOL    HW228479   0.921   2.279   0.429 -0.2736  0.1339  0.3750
 5673SOL     OW28480   0.170   4.110  12.296 -0.6203 -0.0888 -0.1064
 5673SOL    HW128481   0.173   4.153  12.381 -0.5900  0.8229 -0.5590
 5673SOL    HW228482   0.120   4.174  12.244 -1.2322 -0.8227 -0.4235
 5674SOL     OW28483   1.113   0.864   2.340 -0.4485  0.0908  0.2151
 5674SOL    HW128484   1.066   0.808   2.278  0.0911  2.3009 -2.1606
 5674SOL    HW228485   1.040   0.915   2.374 -0.3448 -0.2148  0.9119
 5675SOL     OW28486   3.395   1.674  14.726 -0.2724  0.5445  0.7379
 5675SOL    HW128487   3.347   1.644  14.804 -0.3185  0.8384  0.8223
 5675SOL    HW228488   3.485   1.649  14.747 -0.3348  0.4452  0.8884
 5676SOL     OW28489   3.261   0.034  17.478  0.2122 -0.1363  0.3103
 5676SOL    HW128490   3.242   0.057  17.568  0.6806 -1.6173  0.7895
 5676SOL    HW228491   3.285   0.120  17.444 -0.9652 -0.4350 -1.2540
 5677SOL     OW28492   3.578   4.302   4.830 -0.2180  0.2335  0.0729
 5677SOL    HW128493   3.521   4.231   4.859  0.9158 -0.6311  0.1688
 5677SOL    HW228494   3.540   4.301   4.742  1.4741  0.4044 -0.6611
 5678SOL     OW28495   0.436   2.680   7.650 -0.1045  0.0805  0.0662
 5678SOL    HW128496   0.431   2.618   7.577 -1.0816  0.0357  0.1657
 5678SOL    HW228497   0.347   2.712   7.664 -0.4475 -0.8081 -0.0900
 5679SOL     OW28498   2.642   1.577  13.499  0.4238  0.0038  0.0438
 5679SOL    HW128499   2.710   1.550  13.560 -0.5184 -0.7336  0.7746
 5679SOL    HW228500   2.595   1.638  13.555 -1.2254  0.9231 -2.3338
 5680SOL     OW28501   0.712   2.250   5.548  0.5164  0.2413 -0.1191
 5680SOL    HW128502   0.646   2.182   5.537  1.6893 -0.6065 -1.9242
 5680SOL    HW228503   0.785   2.216   5.497  1.2008 -0.6842  1.4688
 5681SOL     OW28504   3.758   1.168   6.892 -0.0605 -0.2524  0.2190
 5681SOL    HW128505   3.691   1.197   6.954  2.8076  1.2442  2.6041
 5681SOL    HW228506   3.786   1.086   6.933  1.4589  0.3566  0.3681
 5682SOL     OW28507   0.366   3.943  12.500 -0.3566  0.2569  0.2550
 5682SOL    HW128508   0.308   4.011  12.533 -0.4176  1.4651 -2.2644
 5682SOL    HW228509   0.343   3.951  12.407 -2.3997  3.6777  1.0503
 5683SOL     OW28510   0.652   0.117   6.632 -0.5744  0.0313 -0.1966
 5683SOL    HW128511   0.600   0.182   6.585 -1.4247  0.3061  1.1028
 5683SOL    HW228512   0.585   0.051   6.649  0.7845 -1.5881 -1.1462
 5684SOL     OW28513   0.103   1.510  15.424 -0.0540  0.4320 -0.2974
 5684SOL    HW128514   0.165   1.523  15.353 -1.3914  0.4897 -1.4612
 5684SOL    HW228515   0.153   1.529  15.503  0.4411 -0.6941 -0.3481
 5685SOL     OW28516   1.194   1.639   3.671  0.0081 -0.3360 -0.2637
 5685SOL    HW128517   1.137   1.643   3.595 -2.5793 -0.8710  1.6384
 5685SOL    HW228518   1.276   1.639   3.622 -0.0336  0.1876 -0.3290
 5686SOL     OW28519   1.906   0.204  10.857 -0.5369  0.0039  0.0308
 5686SOL    HW128520   1.949   0.256  10.788 -0.7852 -0.6806 -0.6368
 5686SOL    HW228521   1.933   0.114  10.840 -0.1471  0.0020  0.6738
 5687SOL     OW28522   4.394   4.362  10.421 -0.0386 -0.2885  0.4041
 5687SOL    HW128523   4.448   4.295  10.464 -1.2132 -1.6115 -0.1837
 5687SOL    HW228524   4.370   4.324  10.337  1.7399 -1.8024  0.5659
 5688SOL     OW28525   0.188   0.651   5.156 -0.6080 -0.5137 -0.1294
 5688SOL    HW128526   0.126   0.724   5.158 -0.6651 -0.5474 -0.7080
 5688SOL    HW228527   0.251   0.695   5.213 -1.4749  0.4691  0.0745
 5689SOL     OW28528   4.490   2.021   7.331  0.6474 -0.6994  0.3839
 5689SOL    HW128529   4.461   1.944   7.381 -1.7191  0.2239  0.4204
 5689SOL    HW228530   4.551   2.064   7.391  0.2126  0.0585  0.2773
 5690SOL     OW28531   1.303   1.874   1.672 -1.1249  0.1077  0.3001
 5690SOL    HW128532   1.370   1.806   1.660 -1.0609  0.5554 -1.9337
 5690SOL    HW228533   1.226   1.819   1.664 -1.2027  0.4266 -1.2549
 5691SOL     OW28534   4.639   1.617  13.034 -0.9447  0.2226 -0.7359
 5691SOL    HW128535   4.701   1.669  13.086  1.0609 -1.6691 -1.2825
 5691SOL    HW228536   4.689   1.577  12.963  1.4596  0.5414  0.7834
 5692SOL     OW28537   3.475   2.756  12.159 -0.5764 -0.4492 -0.3557
 5692SOL    HW128538   3.422   2.826  12.196  1.2037  1.7553 -1.9929
 5692SOL    HW228539   3.495   2.802  12.077 -2.1567  0.0852 -0.4404
 5693SOL     OW28540   2.570   3.204   7.390  0.5655 -0.4690  0.3374
 5693SOL    HW128541   2.500   3.180   7.451  0.1988  0.3581  0.2334
 5693SOL    HW228542   2.643   3.171   7.443  0.2859 -2.5257 -0.5224
 5694SOL     OW28543   2.816   3.289   8.095 -0.3039  0.4895  0.6635
 5694SOL    HW128544   2.723   3.296   8.117 -0.2015 -1.1026  1.5764
 5694SOL    HW228545   2.811   3.216   8.034  0.2734  0.9650  0.0528
 5695SOL     OW28546   1.034   1.168   8.169  0.2302 -0.7084  0.1464
 5695SOL    HW128547   1.027   1.249   8.118 -1.1214 -1.1776 -0.4110
 5695SOL    HW228548   0.949   1.132   8.143  0.7462 -0.7937 -1.4156
 5696SOL     OW28549   3.235   1.722   2.347 -0.3035  0.6548 -0.1205
 5696SOL    HW128550   3.231   1.703   2.254 -1.7024  0.3542 -0.0006
 5696SOL    HW228551   3.155   1.685   2.385 -1.8746  4.4313  0.2259
 5697SOL     OW28552   0.263   0.837   8.999 -0.0815  0.4324 -0.0242
 5697SOL    HW128553   0.268   0.838   9.095  0.3963 -1.4407 -0.0313
 5697SOL    HW228554   0.246   0.928   8.976 -0.7540  1.0124  2.7778
 5698SOL     OW28555   3.741   1.532  11.176  0.3754 -0.1333 -0.0614
 5698SOL    HW128556   3.648   1.512  11.178  0.3657 -0.1781 -1.0338
 5698SOL    HW228557   3.750   1.578  11.260 -0.7450 -0.9350  0.4878
 5699SOL     OW28558   3.826   0.642   4.952  0.4370  0.2370  0.3260
 5699SOL    HW128559   3.740   0.679   4.936 -0.2005 -1.3462  0.1246
 5699SOL    HW228560   3.817   0.555   4.991 -0.8665  0.3003  0.1694
 5700SOL     OW28561   2.004   2.994   8.113  0.3115  0.3777 -0.5413
 5700SOL    HW128562   2.070   2.990   8.183  2.3972  0.3734 -2.4865
 5700SOL    HW228563   1.972   3.083   8.121 -1.3526 -0.3267  0.6225
 5701SOL     OW28564   4.322   1.421   8.988 -0.6495  0.5802  0.5072
 5701SOL    HW128565   4.232   1.451   8.986 -1.1612 -0.9410  0.5902
 5701SOL    HW228566   4.369   1.501   9.011  1.2069 -0.2432 -0.3663
 5702SOL     OW28567   0.327   3.636   6.832 -0.0279 -0.6965 -0.7189
 5702SOL    HW128568   0.244   3.602   6.864  0.3827  0.7092  1.8948
 5702SOL    HW228569   0.305   3.646   6.740  1.7310  0.0356 -1.0585
 5703SOL     OW28570   2.093   3.155   4.708 -0.0990 -0.3715  0.1990
 5703SOL    HW128571   2.026   3.180   4.645 -1.1233 -2.7307  0.3682
 5703SOL    HW228572   2.086   3.217   4.781 -2.7825 -0.1541 -0.2579
 5704SOL     OW28573   3.867   0.891   6.922  0.0175  0.0392 -0.1198
 5704SOL    HW128574   3.775   0.867   6.924 -0.2737  1.1565 -0.0490
 5704SOL    HW228575   3.896   0.862   6.836 -0.7300  1.2899 -0.7849
 5705SOL     OW28576   0.452   3.337   3.897  0.1016 -0.0586 -0.0710
 5705SOL    HW128577   0.464   3.409   3.835  0.3437 -0.4155 -0.4354
 5705SOL    HW228578   0.525   3.276   3.888 -1.3435 -1.5516 -1.7663
 5706SOL     OW28579   1.034   1.898   3.708 -0.2634  0.3321  0.0339
 5706SOL    HW128580   1.087   1.977   3.712 -0.8940  0.8261 -1.2648
 5706SOL    HW228581   1.107   1.836   3.708  0.0448  0.7090 -0.9478
 5707SOL     OW28582   2.257   0.412   1.891  0.4326  0.2992  0.1546
 5707SOL    HW128583   2.297   0.464   1.960  1.8714  1.7866 -1.7927
 5707SOL    HW228584   2.168   0.395   1.922 -0.0595  0.0367 -1.3936
 5708SOL     OW28585   1.618   4.310   4.040  0.0829 -0.3194  0.0893
 5708SOL    HW128586   1.641   4.375   4.107 -1.6714 -2.4262  2.7601
 5708SOL    HW228587   1.689   4.247   4.049  2.0641  2.1065  1.5123
 5709SOL     OW28588   2.974   0.521  14.964 -0.0033 -0.7587  0.2543
 5709SOL    HW128589   3.058   0.513  15.009  0.5394 -1.8201 -0.9386
 5709SOL    HW228590   2.978   0.454  14.895 -3.1174 -0.4964 -0.1407
 5710SOL     OW28591   1.165   0.084   5.961 -0.0410 -0.1208  0.8339
 5710SOL    HW128592   1.190   0.097   5.870 -1.2583 -3.7269 -0.0089
 5710SOL    HW228593   1.194   4.712   5.976  1.1846  0.3134  1.1148
 5711SOL     OW28594   2.995   0.698   6.005  0.7078 -0.1067 -0.3823
 5711SOL    HW128595   2.952   0.716   5.921  1.1667 -1.1284 -0.8309
 5711SOL    HW228596   2.975   0.771   6.064  1.9386 -0.3627  0.3373
 5712SOL     OW28597   0.294   3.230  14.762  0.0909  0.0256  0.0507
 5712SOL    HW128598   0.262   3.269  14.681 -1.5515 -0.7051  0.3394
 5712SOL    HW228599   0.276   3.297  14.827  0.2419  1.8486 -1.7828
 5713SOL     OW28600   2.022   2.442   8.922  0.3172  0.0730 -0.6796
 5713SOL    HW128601   2.045   2.388   8.846  0.2514 -0.6708 -0.1808
 5713SOL    HW228602   1.931   2.418   8.934  0.8529 -0.6831  1.9568
 5714SOL     OW28603   0.153   1.816   1.711  0.0181  0.0132  0.4960
 5714SOL    HW128604   0.169   1.882   1.779 -0.1574 -0.6314  1.1567
 5714SOL    HW228605   0.124   1.873   1.639  0.1350  0.1082  0.5241
 5715SOL     OW28606   1.411   3.467   0.238 -0.4676 -0.2458  0.4485
 5715SOL    HW128607   1.332   3.520   0.227  0.8393  1.7463  0.6422
 5715SOL    HW228608   1.431   3.471   0.331  0.5416  0.1486  0.2216
 5716SOL     OW28609   3.919   0.659  11.745 -0.0226 -0.5434  0.0288
 5716SOL    HW128610   3.927   0.575  11.789 -1.9166 -1.0429 -0.5749
 5716SOL    HW228611   4.007   0.696  11.742 -0.0715 -0.7142 -4.1462
 5717SOL     OW28612   2.627   0.978   4.222 -0.3553  0.2318 -0.0514
 5717SOL    HW128613   2.634   0.948   4.313  0.0177 -0.9177 -0.4579
 5717SOL    HW228614   2.607   1.070   4.239  1.4214  0.4877  0.6960
 5718SOL     OW28615   2.411   1.580   1.137 -0.2472  0.0029 -0.0127
 5718SOL    HW128616   2.391   1.642   1.068 -0.7677  1.4046  1.3948
 5718SOL    HW228617   2.333   1.524   1.128 -0.8822  1.0940 -1.3611
 5719SOL     OW28618   1.738   2.159   5.435  0.1962 -0.0714 -0.3534
 5719SOL    HW128619   1.677   2.221   5.396  1.3785  0.9111 -0.6627
 5719SOL    HW228620   1.671   2.099   5.466  2.0596 -1.2942  1.3409
 5720SOL     OW28621   3.359   1.193  14.696  0.4526 -0.0667  0.0697
 5720SOL    HW128622   3.443   1.160  14.728  0.1124 -1.8112 -0.8149
 5720SOL    HW228623   3.296   1.125  14.723  1.0766 -0.2467  1.0948
 5721SOL     OW28624   3.805   4.179  10.751  0.3066  0.1697 -0.3809
 5721SOL    HW128625   3.760   4.120  10.690 -1.6220  3.1385 -1.8207
 5721SOL    HW228626   3.808   4.256  10.695  3.4556  0.9755  0.8889
 5722SOL     OW28627   3.451   3.576  17.299 -0.2702  0.3450  0.2865
 5722SOL    HW128628   3.481   3.667  17.303  1.2182 -0.1567  0.6423
 5722SOL    HW228629   3.430   3.566  17.206  1.6265  0.5618 -0.1583
 5723SOL     OW28630   1.922   3.408  10.257  0.2531  0.2734  0.0862
 5723SOL    HW128631   1.835   3.368  10.265  0.2938  0.6624  2.4625
 5723SOL    HW228632   1.920   3.425  10.163  0.3711 -1.2941 -0.2064
 5724SOL     OW28633   0.174   3.223   5.023 -0.0902 -0.0859 -0.6315
 5724SOL    HW128634   0.095   3.220   4.968  0.1545 -0.3842 -0.9696
 5724SOL    HW228635   0.140   3.274   5.096  2.6056  1.6861 -0.6324
 5725SOL     OW28636   2.938   4.680   6.379 -0.0982  0.2653 -0.0095
 5725SOL    HW128637   2.927   4.598   6.333 -0.9040 -0.3681  1.3096
 5725SOL    HW228638   2.895   0.029   6.327  0.9723  1.8306  1.0804
 5726SOL     OW28639   2.104   0.981   0.828 -0.3468  0.5117 -0.5651
 5726SOL    HW128640   2.103   0.998   0.734  0.1977  2.4189 -0.2314
 5726SOL    HW228641   2.103   1.070   0.863 -1.1870 -0.8160  2.7483
 5727SOL     OW28642   2.061   0.876  15.626  0.0261  0.4850  0.5313
 5727SOL    HW128643   2.011   0.915  15.697 -0.3361  0.3141  0.3723
 5727SOL    HW228644   2.148   0.915  15.639  0.9096 -0.7013 -1.6261
 5728SOL     OW28645   4.340   2.558   3.026  0.7636  0.7724  0.2573
 5728SOL    HW128646   4.349   2.631   2.965 -0.4911  0.8600  0.1867
 5728SOL    HW228647   4.309   2.609   3.101 -0.6694  0.1390  0.0875
 5729SOL     OW28648   2.364   0.153   2.775 -0.1764  0.0179 -0.1418
 5729SOL    HW128649   2.293   0.199   2.820 -0.0711 -0.8865  0.9596
 5729SOL    HW228650   2.424   0.223   2.747 -0.6442  0.4051 -0.1773
 5730SOL     OW28651   1.327   1.875   6.127  0.0286  0.6028  0.6145
 5730SOL    HW128652   1.332   1.831   6.042  1.4000  2.6104 -0.3406
 5730SOL    HW228653   1.260   1.944   6.118 -2.3540 -1.4947  2.2276
 5731SOL     OW28654   0.997   3.844   4.677  0.2227 -0.5189 -0.1849
 5731SOL    HW128655   1.034   3.930   4.656  0.1020  0.2824  2.9379
 5731SOL    HW228656   0.922   3.870   4.730  0.4684 -1.7942  0.8012
 5732SOL     OW28657   3.740   1.433   8.699  0.0605  0.0752  0.4837
 5732SOL    HW128658   3.785   1.493   8.639  2.2160 -0.5169  1.5003
 5732SOL    HW228659   3.790   1.440   8.780  0.6085  0.1417  0.1433
 5733SOL     OW28660   2.437   1.086   4.474 -0.0156 -0.5024  0.0695
 5733SOL    HW128661   2.500   1.074   4.544  1.6726 -0.4795 -1.4472
 5733SOL    HW228662   2.401   0.998   4.463 -2.3712  0.4004  0.4120
 5734SOL     OW28663   0.670   2.257   8.968  0.4304 -0.0831 -0.1061
 5734SOL    HW128664   0.679   2.339   8.920  2.5103 -0.7744 -0.9025
 5734SOL    HW228665   0.704   2.198   8.900  0.8824 -0.1591  0.1813
 5735SOL     OW28666   3.221   4.336   3.977  0.3694 -0.1278  0.7113
 5735SOL    HW128667   3.184   4.419   4.008 -1.4628 -1.7096  2.7507
 5735SOL    HW228668   3.290   4.320   4.042 -0.3574 -2.3469  0.9259
 5736SOL     OW28669   2.188   3.442  12.469 -0.5742 -0.2731 -0.6186
 5736SOL    HW128670   2.209   3.511  12.533 -0.1530  1.6810 -2.8508
 5736SOL    HW228671   2.221   3.365  12.515  0.4373 -0.0165 -0.9121
 5737SOL     OW28672   2.310   4.616  17.646  0.4770  0.5079  0.0630
 5737SOL    HW128673   2.355   4.701  17.638 -0.2464  0.7583 -1.5105
 5737SOL    HW228674   2.222   4.646  17.624  0.9312 -0.1645 -2.6662
 5738SOL     OW28675   4.287   4.531   9.396  0.8192 -0.2755  0.8947
 5738SOL    HW128676   4.324   4.562   9.313 -1.7612  0.7583  0.1285
 5738SOL    HW228677   4.314   4.607   9.447 -0.6948  2.0913 -1.8168
 5739SOL     OW28678   0.609   2.820   2.675 -0.3473  0.3645  0.5489
 5739SOL    HW128679   0.616   2.751   2.610 -2.3497  1.2153 -0.5765
 5739SOL    HW228680   0.668   2.789   2.744 -0.6255  1.7926  1.4342
 5740SOL     OW28681   1.238   2.562   2.522  0.7387 -0.7887  0.4020
 5740SOL    HW128682   1.178   2.527   2.588  0.4962  0.7315  0.9694
 5740SOL    HW228683   1.279   2.481   2.491  0.4318 -1.0443  0.6648
 5741SOL     OW28684   0.787   0.416  10.069 -0.0952 -0.5035  0.1410
 5741SOL    HW128685   0.774   0.321  10.079  2.0218 -0.7659  0.4157
 5741SOL    HW228686   0.744   0.457  10.144  0.0522 -0.4924  0.2179
 5742SOL     OW28687   0.923   1.899   5.721 -0.3325 -0.5065 -0.5288
 5742SOL    HW128688   0.923   1.918   5.627 -2.2962 -0.0492 -0.4313
 5742SOL    HW228689   1.008   1.932   5.750 -1.3773  2.5915 -1.0327
 5743SOL     OW28690   1.248   4.576   8.055  0.8062 -0.0960  0.2871
 5743SOL    HW128691   1.226   4.523   8.132  2.6661  1.9398  2.2015
 5743SOL    HW228692   1.303   4.517   8.003  0.2595  0.6221 -1.1331
 5744SOL     OW28693   1.401   0.813   3.900 -0.1421 -0.1337  0.0342
 5744SOL    HW128694   1.390   0.763   3.981 -0.7275 -1.4059 -0.8333
 5744SOL    HW228695   1.411   0.901   3.935  0.5277  0.3676 -1.4386
 5745SOL     OW28696   2.733   0.573  10.743  0.3904  0.7864  0.5963
 5745SOL    HW128697   2.673   0.648  10.746 -0.6749 -0.0887  1.1314
 5745SOL    HW228698   2.788   0.605  10.671 -0.8546 -1.0768 -1.1985
 5746SOL     OW28699   1.170   4.558   1.385  0.0552  0.1014  0.5839
 5746SOL    HW128700   1.093   4.517   1.424 -0.8506  0.5950 -0.6736
 5746SOL    HW228701   1.241   4.494   1.388 -0.1762 -0.1358  0.9594
 5747SOL     OW28702   0.417   3.923   4.258 -0.0265 -0.7010  0.3518
 5747SOL    HW128703   0.329   3.900   4.230  0.3926 -0.2294 -1.3319
 5747SOL    HW228704   0.441   3.975   4.182  1.6109 -1.0282  0.6429
 5748SOL     OW28705   4.308   0.886   1.164  0.6891  0.9078  0.4711
 5748SOL    HW128706   4.301   0.942   1.242 -3.0781  1.6553 -0.4050
 5748SOL    HW228707   4.365   0.943   1.112 -1.1900  0.9262 -1.5566
 5749SOL     OW28708   1.805   2.179   9.189 -0.3324 -0.2723 -0.0337
 5749SOL    HW128709   1.744   2.241   9.150  0.2226  0.7766  0.7758
 5749SOL    HW228710   1.825   2.221   9.273  0.3713 -0.1947 -0.2341
 5750SOL     OW28711   3.429   3.765   4.593  0.4135  0.1425 -0.7592
 5750SOL    HW128712   3.397   3.679   4.621  0.5012  0.7724  1.3076
 5750SOL    HW228713   3.501   3.783   4.653  1.1484 -0.6108 -1.4217
 5751SOL     OW28714   1.310   3.746   3.444  0.2969  0.0782  0.1640
 5751SOL    HW128715   1.359   3.829   3.442 -1.7787  1.2429 -1.9191
 5751SOL    HW228716   1.226   3.787   3.425 -0.8006 -2.4209 -0.3557
 5752SOL     OW28717   2.705   2.577   5.177 -0.0192  0.4713  0.3656
 5752SOL    HW128718   2.653   2.592   5.098 -1.6100  0.2336  1.3610
 5752SOL    HW228719   2.651   2.629   5.236  0.2898  0.2300  0.8521
 5753SOL     OW28720   1.311   1.030   3.163  0.0118 -0.0221  0.5657
 5753SOL    HW128721   1.369   1.016   3.089 -2.3529  0.2029 -1.3343
 5753SOL    HW228722   1.225   1.020   3.122  0.1264  0.6030  0.1810
 5754SOL     OW28723   4.234   2.114  16.047  0.6969 -0.1325 -0.3059
 5754SOL    HW128724   4.223   2.059  16.126 -0.6393  1.3629  0.5605
 5754SOL    HW228725   4.216   2.203  16.079  0.2468 -0.7478  1.1991
 5755SOL     OW28726   3.530   3.253   9.769 -0.1080 -0.2103 -0.2320
 5755SOL    HW128727   3.570   3.182   9.819  0.0932  0.9509  1.2596
 5755SOL    HW228728   3.463   3.197   9.729 -1.9260  1.2823  0.7415
 5756SOL     OW28729   1.506   0.823   5.786 -0.0989 -0.2319 -0.2772
 5756SOL    HW128730   1.541   0.912   5.796 -0.1156 -0.4086  1.4276
 5756SOL    HW228731   1.425   0.847   5.741  1.4256  1.0507 -2.3131
 5757SOL     OW28732   2.935   1.743   7.187  0.2299 -0.2169  0.7683
 5757SOL    HW128733   2.924   1.676   7.254 -1.5678 -0.5027  0.1795
 5757SOL    HW228734   2.892   1.817   7.230 -2.0054 -0.6047 -0.8098
 5758SOL     OW28735   4.491   0.753  10.370  0.2058  0.7823  0.1341
 5758SOL    HW128736   4.475   0.790  10.283  1.0487  0.0141 -0.3583
 5758SOL    HW228737   4.455   0.665  10.356  1.4910  0.2254  0.3145
 5759SOL     OW28738   4.650   2.084   8.244 -0.6260  0.0136  0.5007
 5759SOL    HW128739   4.579   2.131   8.201 -1.9064 -0.9073  1.5928
 5759SOL    HW228740   4.597   2.048   8.315 -2.0363  2.1868  0.5464
 5760SOL     OW28741   3.349   2.149   4.518  0.1371 -0.2596  0.0236
 5760SOL    HW128742   3.347   2.086   4.591  1.4917  0.4177  0.6544
 5760SOL    HW228743   3.429   2.115   4.478 -0.5811 -2.0449  0.0813
 5761SOL     OW28744   0.602   0.611   8.107  0.3976  0.2039  0.6032
 5761SOL    HW128745   0.534   0.547   8.086 -0.0863  1.0946 -0.4792
 5761SOL    HW228746   0.672   0.582   8.049 -2.3599 -0.1222 -2.5226
 5762SOL     OW28747   0.259   1.402   3.802 -0.4625 -0.4765 -0.2003
 5762SOL    HW128748   0.334   1.368   3.752 -0.9593 -0.0276 -1.2447
 5762SOL    HW228749   0.205   1.424   3.726 -0.5460 -0.2002 -0.0598
 5763SOL     OW28750   2.410   2.672   6.277  0.6320  0.0037 -0.1933
 5763SOL    HW128751   2.338   2.724   6.240 -1.3784 -0.6199  2.8599
 5763SOL    HW228752   2.381   2.613   6.346  1.6321 -1.4112 -0.9912
 5764SOL     OW28753   0.520   1.665   9.158 -0.2091  0.5294  0.0973
 5764SOL    HW128754   0.445   1.725   9.157 -0.8867 -0.3323 -0.5434
 5764SOL    HW228755   0.575   1.711   9.222  0.3746  0.0290 -0.0479
 5765SOL     OW28756   2.904   0.143  13.695 -0.3706  0.6761 -0.4898
 5765SOL    HW128757   2.995   0.153  13.723  0.0634 -1.3533 -1.1662
 5765SOL    HW228758   2.865   0.209  13.752  0.5415 -0.0682  1.0189
 5766SOL     OW28759   0.684   3.172   8.553 -0.4330  0.2318 -0.0343
 5766SOL    HW128760   0.700   3.262   8.581 -0.7604 -0.8540  3.6391
 5766SOL    HW228761   0.635   3.150   8.633  1.1184 -1.3012  0.4957
 5767SOL     OW28762   3.169   3.160   7.992 -0.4092 -0.0941 -0.1534
 5767SOL    HW128763   3.246   3.155   7.936 -0.2296 -0.0901  0.0922
 5767SOL    HW228764   3.099   3.129   7.935 -1.7504 -0.1607  1.5317
 5768SOL     OW28765   2.905   4.609   1.685 -0.1768  0.1797 -0.4205
 5768SOL    HW128766   2.980   4.628   1.628 -0.1054 -1.3576 -0.8357
 5768SOL    HW228767   2.922   4.515   1.689  0.7183  0.3530 -0.1307
 5769SOL     OW28768   3.940   2.731  12.409  0.3820  0.4996 -0.0107
 5769SOL    HW128769   3.871   2.785  12.370  0.1577 -0.0271 -0.3397
 5769SOL    HW228770   3.949   2.651  12.357  1.3916 -0.5435  1.7749
 5770SOL     OW28771   2.511   3.813   9.866 -0.0873  0.5423  0.0640
 5770SOL    HW128772   2.445   3.840   9.803 -1.5481  0.5847  1.6224
 5770SOL    HW228773   2.505   3.720   9.847 -1.2957  0.1509  2.3241
 5771SOL     OW28774   3.984   1.049   7.958  0.2222 -0.2581  0.0722
 5771SOL    HW128775   3.932   0.984   7.911 -0.5754  1.0058 -0.7631
 5771SOL    HW228776   4.013   1.007   8.040  0.5614  1.7847  0.9934
 5772SOL     OW28777   3.093   4.270   2.871 -0.4216 -0.1608 -0.8603
 5772SOL    HW128778   3.029   4.206   2.839 -0.3666 -0.8709  0.4658
 5772SOL    HW228779   3.118   4.323   2.796  2.6022  0.0120  0.2916
 5773SOL     OW28780   3.730   0.383   6.940  0.2485 -0.3765 -0.0831
 5773SOL    HW128781   3.686   0.445   6.999 -0.9389  1.3678 -2.7976
 5773SOL    HW228782   3.815   0.373   6.981 -1.0265 -0.4486  2.5620
 5774SOL     OW28783   1.688   3.150   7.619  0.3495 -0.7143 -0.6264
 5774SOL    HW128784   1.756   3.217   7.625 -0.0784 -0.3708  0.3421
 5774SOL    HW228785   1.703   3.087   7.689  0.5310  0.0412  0.0218
 5775SOL     OW28786   2.138   4.097  13.593  0.1208 -0.6883  0.4203
 5775SOL    HW128787   2.203   4.164  13.616 -0.2507 -0.7725  1.7422
 5775SOL    HW228788   2.129   4.055  13.679  1.5897 -0.3448  0.7439
 5776SOL     OW28789   3.925   0.843   5.657 -0.1015  0.7466  0.2463
 5776SOL    HW128790   3.874   0.774   5.700 -0.5423 -0.0572 -1.5438
 5776SOL    HW228791   3.960   0.800   5.579  2.6206  0.6216  1.5203
 5777SOL     OW28792   3.077   2.887   7.545 -0.1149  0.3993  0.3604
 5777SOL    HW128793   3.084   2.857   7.635 -2.6876  0.4844  0.5948
 5777SOL    HW228794   3.028   2.818   7.500 -0.7202 -0.1817  1.9385
 5778SOL     OW28795   2.230   3.445  10.843  0.2319  0.1624  0.4918
 5778SOL    HW128796   2.289   3.403  10.905  0.4509  0.4669  0.4907
 5778SOL    HW228797   2.159   3.443  10.907  1.4684  1.6160  1.8898
 5779SOL     OW28798   0.031   0.735   7.599  0.2788  0.4098 -0.1842
 5779SOL    HW128799   0.001   0.658   7.552  0.7682  1.7641 -2.7560
 5779SOL    HW228800   4.673   0.784   7.631  1.1572  2.2833 -0.9176
 5780SOL     OW28801   3.747   1.119   8.341  0.4735  0.5273 -0.4764
 5780SOL    HW128802   3.672   1.096   8.396  0.4384 -0.7564 -1.0479
 5780SOL    HW228803   3.716   1.204   8.311  0.0812  0.8344  0.7931
 5781SOL     OW28804   4.422   4.324  11.421  0.4660 -0.4256 -0.5209
 5781SOL    HW128805   4.488   4.262  11.389  1.8033  0.2182  0.9786
 5781SOL    HW228806   4.363   4.258  11.457 -1.3635  0.9225 -1.0548
 5782SOL     OW28807   3.022   0.298   9.041 -0.1850  0.0986  0.7316
 5782SOL    HW128808   3.056   0.336   9.122  2.9578 -1.3586  0.0882
 5782SOL    HW228809   2.988   0.217   9.079 -1.4504  0.8711  1.2533
 5783SOL     OW28810   2.753   0.343   4.433 -0.6030  0.0641 -0.0793
 5783SOL    HW128811   2.745   0.249   4.448 -1.2416  0.0159 -0.7340
 5783SOL    HW228812   2.793   0.342   4.346 -1.9049 -2.1066 -0.6565
 5784SOL     OW28813   0.826   1.088   3.196  0.1295 -0.6577  0.2036
 5784SOL    HW128814   0.852   1.150   3.128 -1.3825  0.5410  0.7392
 5784SOL    HW228815   0.900   1.096   3.256 -0.9501 -1.3243  1.6044
 5785SOL     OW28816   2.999   2.893  10.209  0.3861  0.0984  0.0223
 5785SOL    HW128817   2.915   2.919  10.170  1.0861  0.0977 -1.4643
 5785SOL    HW228818   2.994   2.937  10.294 -1.6157  1.2840 -0.7102
 5786SOL     OW28819   1.129   0.929  10.709  0.2413  0.1634  0.4946
 5786SOL    HW128820   1.202   0.866  10.713 -1.3948 -1.6595  1.6692
 5786SOL    HW228821   1.130   0.972  10.624  0.3093 -0.6433  0.0853
 5787SOL     OW28822   0.408   3.211   8.457  0.1094  0.4967 -0.3046
 5787SOL    HW128823   0.483   3.197   8.515 -0.8140  0.2907  0.8385
 5787SOL    HW228824   0.375   3.298   8.481  2.0716  1.1854 -0.0899
 5788SOL     OW28825   3.871   2.101  14.565 -0.3261 -0.0048  0.0107
 5788SOL    HW128826   3.796   2.041  14.562 -1.1387  0.8853  1.9470
 5788SOL    HW228827   3.874   2.128  14.657  0.9044  0.3035 -0.1236
 5789SOL     OW28828   1.214   2.197   0.041  0.0988 -0.7179  0.5774
 5789SOL    HW128829   1.147   2.243  17.665  0.8851 -0.1580  0.0604
 5789SOL    HW228830   1.223   2.263   0.109  0.7081  0.5386 -0.7282
 5790SOL     OW28831   3.448   4.605  10.682  0.4363  0.5044  0.1532
 5790SOL    HW128832   3.488   4.684  10.718  1.2716  0.0583  0.2072
 5790SOL    HW228833   3.360   4.642  10.677 -0.8674 -2.5095  0.9999
 5791SOL     OW28834   3.417   0.953   9.427  0.3147 -0.0458  0.4959
 5791SOL    HW128835   3.348   0.999   9.379 -1.9802 -1.6934  2.2494
 5791SOL    HW228836   3.376   0.919   9.506 -0.9759  1.0688  0.3089
 5792SOL     OW28837   1.457   3.157   5.360  0.4976 -0.3539 -0.5262
 5792SOL    HW128838   1.511   3.123   5.289  1.9949  0.6704  0.1136
 5792SOL    HW228839   1.522   3.177   5.428 -1.5205 -1.9195  1.8355
 5793SOL     OW28840   0.397   0.851   6.664  0.6932  0.3998  0.2338
 5793SOL    HW128841   0.350   0.933   6.677 -0.7473  0.0199 -2.5525
 5793SOL    HW228842   0.323   0.791   6.664  0.0676  1.1808 -1.0239
 5794SOL     OW28843   1.483   1.634   3.586 -0.0262  0.5069 -0.2871
 5794SOL    HW128844   1.485   1.730   3.593 -1.3504  0.3569  2.0512
 5794SOL    HW228845   1.511   1.628   3.494  0.7478  0.0085 -0.0267
 5795SOL     OW28846   0.437   2.560  11.175  0.3921  0.9072  0.0746
 5795SOL    HW128847   0.469   2.597  11.093  0.5236  1.6169  0.4488
 5795SOL    HW228848   0.435   2.639  11.229  0.7297  0.8717  0.1397
 5796SOL     OW28849   4.223   3.612   6.937 -0.2075  0.4993 -0.2278
 5796SOL    HW128850   4.316   3.629   6.920  0.1841  0.1624  1.5757
 5796SOL    HW228851   4.215   3.526   6.896  0.8974  0.4689 -0.3792
 5797SOL     OW28852   0.960   3.406  12.892  0.1126  0.0935  0.2045
 5797SOL    HW128853   0.926   3.340  12.953 -1.2557  1.3784  0.8457
 5797SOL    HW228854   0.880   3.455  12.874  0.6016  0.1918 -1.6331
 5798SOL     OW28855   3.885   3.626   6.986  0.4328  0.2185  0.4328
 5798SOL    HW128856   3.939   3.628   7.065  0.2447  1.9469  0.5173
 5798SOL    HW228857   3.824   3.699   7.001 -0.0890 -0.5150  1.9189
 5799SOL     OW28858   1.239   0.882  11.540  0.9548 -0.1109 -0.0039
 5799SOL    HW128859   1.157   0.873  11.588  0.7790  0.7052 -0.1545
 5799SOL    HW228860   1.297   0.836  11.601  0.6039 -0.7930 -0.1849
 5800SOL     OW28861   4.022   0.583   3.841  0.4933 -0.1518  0.0549
 5800SOL    HW128862   4.000   0.631   3.921  1.2176 -2.6559  1.7419
 5800SOL    HW228863   4.117   0.592   3.836  0.4503  0.7649  0.7602
 5801SOL     OW28864   4.140   1.037   2.150 -0.1752 -0.1163 -0.0054
 5801SOL    HW128865   4.065   1.088   2.119 -1.2748 -2.4545 -1.2180
 5801SOL    HW228866   4.100   0.956   2.184 -0.1737  0.0664  0.4264
 5802SOL     OW28867   0.839   3.865  15.046 -0.2677 -0.2645  0.5630
 5802SOL    HW128868   0.754   3.891  15.080 -0.2045  1.9888 -1.0064
 5802SOL    HW228869   0.899   3.922  15.095  0.0798  0.6133 -0.8906
 5803SOL     OW28870   0.835   3.085  12.757  0.3431 -0.1186 -0.0111
 5803SOL    HW128871   0.807   3.094  12.666 -0.1715 -0.4013  0.1235
 5803SOL    HW228872   0.919   3.131  12.753  0.8249 -0.9833  0.1574
 5804SOL     OW28873   1.011   3.712   3.054  0.1696  0.2200 -0.1138
 5804SOL    HW128874   1.052   3.643   3.107  1.0007  1.2689  0.6091
 5804SOL    HW228875   1.086   3.762   3.021 -0.6013  2.3334  1.3292
 5805SOL     OW28876   1.327   3.062  16.483 -0.0983  0.2588  0.0649
 5805SOL    HW128877   1.404   3.072  16.428 -1.4402  1.3378 -1.5994
 5805SOL    HW228878   1.280   2.998  16.428  0.5206  0.2058 -0.3961
 5806SOL     OW28879   2.808   0.681   8.817 -0.1925  0.1969 -0.5148
 5806SOL    HW128880   2.722   0.697   8.777 -0.0425  1.1519 -0.4621
 5806SOL    HW228881   2.794   0.595   8.857 -3.4858  1.7275  1.6758
 5807SOL     OW28882   1.150   1.998   5.802  0.3395 -0.6635  0.3922
 5807SOL    HW128883   1.199   1.938   5.857  0.5812  0.4190  1.3585
 5807SOL    HW228884   1.218   2.039   5.748 -0.5774 -0.7256 -0.8098
 5808SOL     OW28885   0.300   4.583   7.780 -0.6433  0.0107  0.3772
 5808SOL    HW128886   0.302   4.494   7.815  1.4582 -0.1325 -0.1253
 5808SOL    HW228887   0.218   4.609   7.824 -0.3869  0.0891  0.8121
 5809SOL     OW28888   2.274   2.391  12.493 -0.8409 -0.7125 -0.0566
 5809SOL    HW128889   2.184   2.363  12.511 -0.9557  0.5578  1.3818
 5809SOL    HW228890   2.320   2.307  12.504 -0.9445 -0.7054  0.4234
 5810SOL     OW28891   0.948   4.371  16.425  0.0930 -0.4922  0.5168
 5810SOL    HW128892   0.969   4.291  16.375 -1.8467  0.8141 -2.4014
 5810SOL    HW228893   0.853   4.370  16.416 -0.0166 -0.0148  1.6422
 5811SOL     OW28894   4.145   1.443   8.726 -0.0535 -0.2796 -0.0345
 5811SOL    HW128895   4.121   1.420   8.637  0.1352  0.4012 -0.2630
 5811SOL    HW228896   4.235   1.476   8.725 -0.2362  0.1541 -1.0789
 5812SOL     OW28897   0.330   3.950  10.678  0.1651  0.7973 -0.4114
 5812SOL    HW128898   0.324   3.887  10.750  2.8793 -1.1501 -1.8886
 5812SOL    HW228899   0.403   4.006  10.702  0.5845  0.0235  0.1160
 5813SOL     OW28900   3.824   4.136  12.993  0.2639  0.0462  0.3181
 5813SOL    HW128901   3.899   4.153  12.936  1.0478  2.9874  2.2428
 5813SOL    HW228902   3.872   4.127  13.075  0.6956  1.4516  0.2154
 5814SOL     OW28903   1.900   0.677   3.208  0.1568  0.6923 -0.3570
 5814SOL    HW128904   1.955   0.739   3.159  1.0550  0.4489  0.3311
 5814SOL    HW228905   1.811   0.710   3.201 -0.2718 -0.6491 -1.2540
 5815SOL     OW28906   4.245   1.797   8.640 -0.4060 -0.5686 -0.4717
 5815SOL    HW128907   4.155   1.772   8.663 -0.4010  1.7536  2.0186
 5815SOL    HW228908   4.278   1.709   8.626  1.0465 -0.0640 -0.2041
 5816SOL     OW28909   0.825   3.399   8.737  0.1521 -0.6870  0.0950
 5816SOL    HW128910   0.774   3.428   8.662  0.8786  2.6207  0.8805
 5816SOL    HW228911   0.807   3.474   8.794 -1.8111 -0.2211 -1.1637
 5817SOL     OW28912   0.397   4.621   5.088  0.7310 -0.2330  0.1728
 5817SOL    HW128913   0.366   4.532   5.105  0.4438  0.0538  1.1301
 5817SOL    HW228914   0.385   4.652   5.178 -0.0313 -0.6016  0.1969
 5818SOL     OW28915   0.687   2.365   4.607  0.8942 -0.4915 -0.2448
 5818SOL    HW128916   0.713   2.455   4.584  0.7026 -0.1622  0.8282
 5818SOL    HW228917   0.648   2.325   4.529 -3.0557  0.7227  1.1082
 5819SOL     OW28918   4.519   0.962   4.744  0.3395 -0.7024 -0.3770
 5819SOL    HW128919   4.521   0.899   4.672  0.3036 -2.2733  0.9888
 5819SOL    HW228920   4.603   0.939   4.784  0.8888  1.3473 -0.3618
 5820SOL     OW28921   0.630   1.745   3.826 -0.4413  0.7124  0.0704
 5820SOL    HW128922   0.666   1.826   3.860 -1.4470  1.5533 -0.8437
 5820SOL    HW228923   0.643   1.682   3.896  0.5609  0.3532 -0.4426
 5821SOL     OW28924   4.187   0.286  17.229  0.3704  0.2183  0.4634
 5821SOL    HW128925   4.148   0.365  17.191  0.0853  0.3609  1.0514
 5821SOL    HW228926   4.191   0.299  17.324  1.4517 -1.0789  0.5945
 5822SOL     OW28927   2.491   0.470   5.156 -0.0104  0.2659 -0.5507
 5822SOL    HW128928   2.408   0.455   5.109  0.3842  2.2681 -1.8707
 5822SOL    HW228929   2.515   0.557   5.125 -0.4255  0.7976  0.6278
 5823SOL     OW28930   0.831   1.521   9.119 -0.2777 -0.5561 -0.2555
 5823SOL    HW128931   0.890   1.445   9.129  1.4861  0.4582 -2.6994
 5823SOL    HW228932   0.850   1.567   9.200 -2.9924 -1.8085  1.0801
 5824SOL     OW28933   0.064   1.933   6.189 -0.1385 -0.2470 -0.3417
 5824SOL    HW128934   0.072   1.896   6.277 -1.7925  1.7894  0.6626
 5824SOL    HW228935   4.689   1.940   6.169 -0.2429  0.4532  0.3775
 5825SOL     OW28936   3.949   1.817  12.639 -0.0700 -0.1033 -0.4097
 5825SOL    HW128937   3.984   1.734  12.607  0.7856 -0.2792  0.9745
 5825SOL    HW228938   4.013   1.839  12.707  0.5007 -0.6249 -0.7738
 5826SOL     OW28939   3.934   2.597  14.350  0.5818 -0.1383 -0.0300
 5826SOL    HW128940   3.877   2.659  14.304 -1.0389 -0.0235  2.1011
 5826SOL    HW228941   3.954   2.529  14.287 -1.2245 -1.7476  1.1502
 5827SOL     OW28942   1.926   2.877   4.746  0.4349  0.4466 -0.5639
 5827SOL    HW128943   1.854   2.830   4.789  1.2359 -1.3425 -1.1714
 5827SOL    HW228944   1.893   2.967   4.754 -0.2100  0.0809  0.9690
 5828SOL     OW28945   3.800   2.207   8.502 -0.4536 -0.3488 -0.5280
 5828SOL    HW128946   3.723   2.230   8.450 -0.4968  2.1332  0.6163
 5828SOL    HW228947   3.798   2.264   8.579  0.4646 -0.9342 -0.0694
 5829SOL     OW28948   2.998   4.561   0.852  0.2533 -0.0451 -0.8438
 5829SOL    HW128949   3.010   4.487   0.912  2.6836  0.6913 -0.4238
 5829SOL    HW228950   2.968   4.627   0.915 -3.0497 -0.9655 -1.4736
 5830SOL     OW28951   4.034   4.098  14.907 -0.4265 -0.0274  0.3890
 5830SOL    HW128952   4.076   4.068  14.988  1.7058  0.4250 -0.5462
 5830SOL    HW228953   3.968   4.157  14.942  0.2485  2.0012 -1.7781
 5831SOL     OW28954   3.932   4.129   9.689  0.1979  0.7444 -0.4812
 5831SOL    HW128955   4.022   4.161   9.681  0.2288  0.3726 -1.6395
 5831SOL    HW228956   3.937   4.078   9.770  0.6325 -1.3608 -1.8196
 5832SOL     OW28957   2.827   1.825   2.223  0.3619  0.0280  0.0316
 5832SOL    HW128958   2.763   1.869   2.166 -0.1364  2.8473  2.7454
 5832SOL    HW228959   2.910   1.869   2.205  1.2563 -1.2333  1.1382
 5833SOL     OW28960   3.568   3.578  16.371 -0.1562  0.1575  0.7409
 5833SOL    HW128961   3.628   3.503  16.373  0.6097  0.6721 -2.1781
 5833SOL    HW228962   3.582   3.623  16.454  2.1136 -0.0627  0.4760
 5834SOL     OW28963   1.580   1.053   7.889  0.3030  0.3287  0.7892
 5834SOL    HW128964   1.488   1.040   7.914  0.8823 -1.9303  1.8043
 5834SOL    HW228965   1.580   1.094   7.803  1.1272  2.7525  1.9573
 5835SOL     OW28966   4.718   2.103  12.673 -0.3386  0.9050 -0.4339
 5835SOL    HW128967   0.014   2.180  12.619  3.0656 -0.1210 -1.0281
 5835SOL    HW228968   4.638   2.075  12.629  0.2777 -0.2423 -0.8360
 5836SOL     OW28969   0.802   0.887   2.985  0.8721 -0.1404  0.5555
 5836SOL    HW128970   0.805   0.950   3.056 -0.4668 -0.3324  0.7931
 5836SOL    HW228971   0.713   0.898   2.950  0.8200  1.0780  1.0869
 5837SOL     OW28972   4.222   0.764   8.929 -0.2916  0.5305 -0.7627
 5837SOL    HW128973   4.313   0.791   8.919 -0.3690  2.0496  2.7354
 5837SOL    HW228974   4.196   0.752   8.838  0.1084  2.0114 -1.0575
 5838SOL     OW28975   2.370   4.383  17.485 -0.3263 -0.1166 -0.1825
 5838SOL    HW128976   2.324   4.301  17.499 -0.2509 -0.1786 -0.3031
 5838SOL    HW228977   2.316   4.438  17.542  1.9046  0.0376  1.8153
 5839SOL     OW28978   1.719   4.192  15.370 -0.2856 -0.7536  0.5339
 5839SOL    HW128979   1.658   4.126  15.337 -0.0730 -0.2744 -0.7997
 5839SOL    HW228980   1.656   4.257  15.402  1.6880  1.4064  0.0411
 5840SOL     OW28981   4.493   1.426   0.785  0.7766  0.0171 -0.1168
 5840SOL    HW128982   4.400   1.448   0.790  0.7635 -0.2131  0.6006
 5840SOL    HW228983   4.504   1.407   0.692 -1.3294  0.8390 -0.5162
 5841SOL     OW28984   0.160   1.079   1.920  0.5078  0.2408 -0.1749
 5841SOL    HW128985   0.101   1.134   1.971  0.6657 -0.7586  1.1124
 5841SOL    HW228986   0.101   1.038   1.857  0.2077 -0.6389  0.6725
 5842SOL     OW28987   1.971   2.986   9.264  0.2323  0.0428  0.3553
 5842SOL    HW128988   1.925   2.915   9.308 -3.3662  1.5908 -0.8559
 5842SOL    HW228989   1.907   3.025   9.204 -0.9375  0.4687  1.8841
 5843SOL     OW28990   3.262   3.581   1.906 -0.2056  0.4587 -0.7091
 5843SOL    HW128991   3.300   3.613   1.824 -0.6038 -3.0452 -2.2509
 5843SOL    HW228992   3.313   3.631   1.970  0.8412 -2.4916  0.7740
 5844SOL     OW28993   0.981   2.610   3.578 -0.6946  0.3277  0.1540
 5844SOL    HW128994   1.036   2.673   3.625  0.6530 -0.1378 -0.7906
 5844SOL    HW228995   0.979   2.652   3.492 -1.4092 -1.5669 -0.7742
 5845SOL     OW28996   3.004   2.405   3.933 -0.7009  0.1263  0.1773
 5845SOL    HW128997   3.062   2.334   3.907  0.1580 -0.2327  3.1451
 5845SOL    HW228998   3.016   2.384   4.026  0.2574 -1.2304 -0.2425
 5846SOL     OW28999   2.126   3.481   0.119 -0.0021 -0.3736 -0.6008
 5846SOL    HW129000   2.209   3.528   0.127  1.0894 -2.2932 -0.7943
 5846SOL    HW229001   2.061   3.533   0.166 -0.9863 -0.6144 -1.6795
 5847SOL     OW29002   0.568   2.504  16.715  0.0189 -0.2904 -0.1186
 5847SOL    HW129003   0.475   2.492  16.737  0.1861 -0.0151  0.7391
 5847SOL    HW229004   0.588   2.432  16.655 -1.7251  1.3838 -2.6977
 5848SOL     OW29005   4.099   1.495  13.248 -0.0951  0.1124 -0.3769
 5848SOL    HW129006   4.028   1.494  13.183 -1.6367  2.9378  1.2659
 5848SOL    HW229007   4.046   1.529  13.321 -1.2180 -0.5743 -0.8665
 5849SOL     OW29008   3.586   2.791   5.086 -0.6167 -0.0690  0.1412
 5849SOL    HW129009   3.559   2.794   5.178 -0.5722 -2.4882  0.2177
 5849SOL    HW229010   3.501   2.771   5.047 -0.2471  0.6529 -1.0330
 5850SOL     OW29011   1.528   1.367   4.853 -0.3848 -0.3903  0.2679
 5850SOL    HW129012   1.451   1.386   4.799  1.0624  4.0044 -0.1928
 5850SOL    HW229013   1.495   1.291   4.902 -0.7987  0.3361  1.1239
 5851SOL     OW29014   0.009   2.087  13.746 -0.0590 -0.0991  0.2487
 5851SOL    HW129015   0.002   2.012  13.806  1.5391 -0.0431  0.5221
 5851SOL    HW229016   4.708   2.049  13.661  0.3614 -0.2870  0.2352
 5852SOL     OW29017   1.937   2.600  17.242 -0.2701 -0.3874 -0.9590
 5852SOL    HW129018   1.917   2.647  17.323  0.1206  1.9572 -2.2314
 5852SOL    HW229019   1.966   2.673  17.189 -0.7483 -0.6664 -1.6091
 5853SOL     OW29020   1.079   2.270   8.456 -0.0736  0.5672 -0.1394
 5853SOL    HW129021   1.048   2.196   8.404 -0.1243  1.1566 -0.9557
 5853SOL    HW229022   0.998   2.295   8.501  0.4836  2.3787 -0.1242
 5854SOL     OW29023   2.096   0.535   9.917  0.1809 -0.0609  0.1451
 5854SOL    HW129024   2.083   0.523  10.011 -2.4262 -0.7828 -0.3100
 5854SOL    HW229025   2.049   0.615   9.894  0.7539  0.1663 -0.2444
 5855SOL     OW29026   2.364   0.024  12.667 -0.1267  0.2578 -0.6300
 5855SOL    HW129027   2.340   0.117  12.671 -1.1320 -0.0181 -0.0888
 5855SOL    HW229028   2.328   4.707  12.749  2.1000  0.0643  0.2640
 5856SOL     OW29029   2.682   0.998   4.598  0.0286 -0.3183 -0.0091
 5856SOL    HW129030   2.692   0.961   4.686  1.1554 -0.4224 -0.1751
 5856SOL    HW229031   2.684   0.913   4.555 -0.6145 -0.4365  0.2023
 5857SOL     OW29032   4.464   0.849  10.108 -0.3706 -0.4312  0.0955
 5857SOL    HW129033   4.442   0.774  10.054 -1.1453 -0.2086  0.0917
 5857SOL    HW229034   4.450   0.924  10.049  1.3815  1.3835  1.9967
 5858SOL     OW29035   0.596   3.641   4.016 -0.1749  0.2557  0.4779
 5858SOL    HW129036   0.664   3.622   3.952 -1.6014 -3.7962  0.1830
 5858SOL    HW229037   0.631   3.590   4.089 -0.4694  0.9287  1.0876
 5859SOL     OW29038   0.000   0.719  10.958  0.6122 -0.6760 -0.3740
 5859SOL    HW129039   0.043   0.634  10.969 -1.1296 -1.3513  1.1203
 5859SOL    HW229040   0.075   0.770  10.925  1.1783 -1.3308 -0.0946
 5860SOL     OW29041   4.452   4.201   2.837  0.0182 -0.5164  0.4270
 5860SOL    HW129042   4.446   4.163   2.749  0.2127  2.0211 -0.6833
 5860SOL    HW229043   4.470   4.118   2.881  1.1357 -0.5945 -0.1918
 5861SOL     OW29044   1.950   3.982   5.704  0.5489 -0.1328  0.1953
 5861SOL    HW129045   1.957   4.069   5.665  0.6007  0.1059  0.7365
 5861SOL    HW229046   1.959   3.996   5.798  0.3359 -1.3362  0.3900
 5862SOL     OW29047   3.357   3.411   3.641 -0.1731  0.4550 -0.8181
 5862SOL    HW129048   3.305   3.343   3.600 -1.5085  1.2066 -0.3657
 5862SOL    HW229049   3.434   3.399   3.585  1.0673  1.2914  0.6835
 5863SOL     OW29050   3.893   0.901  13.940  0.6419 -0.5309  0.5540
 5863SOL    HW129051   3.979   0.934  13.965  0.8441 -0.0494 -0.7814
 5863SOL    HW229052   3.916   0.818  13.899 -1.9840 -1.0847  0.2378
 5864SOL     OW29053   2.417   0.100   6.984 -0.0294  0.0992 -0.6675
 5864SOL    HW129054   2.421   0.015   7.028 -0.6994 -0.5602 -1.8698
 5864SOL    HW229055   2.323   0.115   6.986  0.0061 -0.2733  2.9425
 5865SOL     OW29056   4.472   1.975   3.836  0.8037 -0.1196  0.5253
 5865SOL    HW129057   4.554   2.012   3.803 -0.2492 -1.4592 -3.5902
 5865SOL    HW229058   4.432   1.949   3.753  1.0437 -0.4401  0.5073
 5866SOL     OW29059   4.669   2.956   6.828  0.2082  0.1463  0.1919
 5866SOL    HW129060   0.005   2.982   6.902 -0.6340 -1.6438  1.4292
 5866SOL    HW229061   4.589   2.923   6.869  0.6489  1.2412  1.9509
 5867SOL     OW29062   4.639   1.020   5.058 -0.3337 -0.4849  0.2551
 5867SOL    HW129063   4.635   0.925   5.054  3.3792 -0.6327  0.2173
 5867SOL    HW229064   4.672   1.028   5.148  0.6748 -1.1823 -0.0543
 5868SOL     OW29065   0.438   3.128   6.713 -0.2862  0.3613 -0.0226
 5868SOL    HW129066   0.439   3.207   6.767  3.0513  0.6206 -0.4679
 5868SOL    HW229067   0.410   3.168   6.632 -0.2331  2.1685  0.8579
 5869SOL     OW29068   0.452   4.315   6.027  0.5487  0.1694  0.0557
 5869SOL    HW129069   0.397   4.273   5.961  1.3625  0.0856 -0.5776
 5869SOL    HW229070   0.487   4.245   6.083  0.7170  0.1197 -0.1117
 5870SOL     OW29071   0.166   2.267   6.717 -0.1591  0.1610  0.0959
 5870SOL    HW129072   0.174   2.225   6.802 -0.3523  2.9937  1.5340
 5870SOL    HW229073   0.162   2.191   6.659 -0.3604 -0.4979  0.9888
 5871SOL     OW29074   4.434   1.395   7.494  0.2090 -0.3440 -0.1948
 5871SOL    HW129075   4.364   1.397   7.559  0.6563 -0.4765  0.2887
 5871SOL    HW229076   4.509   1.420   7.548 -1.9591 -0.1957  2.7743
 5872SOL     OW29077   1.889   0.693   3.729 -0.3190 -0.0182 -0.6489
 5872SOL    HW129078   1.809   0.743   3.743 -1.3107 -1.0969 -2.4123
 5872SOL    HW229079   1.897   0.646   3.813  2.3349  0.3162 -0.7104
 5873SOL     OW29080   1.078   0.650   6.461  0.2158  0.0396 -0.3304
 5873SOL    HW129081   1.062   0.556   6.467  1.7767 -0.1084  1.3823
 5873SOL    HW229082   1.001   0.673   6.409 -0.0666  0.0386  0.0892
 5874SOL     OW29083   2.525   2.355   7.987  0.1611  0.1014  0.3013
 5874SOL    HW129084   2.482   2.272   7.965  2.1538 -1.0757  0.9138
 5874SOL    HW229085   2.450   2.414   7.985 -0.7507 -1.0850 -0.6231
 5875SOL     OW29086   2.825   4.487  10.422  0.2311  0.5352 -0.2513
 5875SOL    HW129087   2.848   4.407  10.374  0.8650  1.5695 -1.6704
 5875SOL    HW229088   2.872   4.561  10.385  1.0732 -0.2299 -0.7075
 5876SOL     OW29089   3.571   4.312   6.075  0.1991  0.3904 -0.3891
 5876SOL    HW129090   3.583   4.293   5.982  0.3559 -1.0428 -0.0777
 5876SOL    HW229091   3.627   4.248   6.119  1.6310  0.3285 -2.2888
 5877SOL     OW29092   3.624   4.618  17.132  0.0561 -0.0665 -0.2597
 5877SOL    HW129093   3.540   4.575  17.125 -0.3882  0.8875 -0.8368
 5877SOL    HW229094   3.605   4.674  17.056  1.0391  0.8318  0.1472
 5878SOL     OW29095   1.169   2.591  10.750 -0.0733  0.0344 -0.7232
 5878SOL    HW129096   1.149   2.651  10.678 -0.9139  0.6521  0.0253
 5878SOL    HW229097   1.263   2.599  10.769 -0.5816 -0.8275  2.1196
 5879SOL     OW29098   0.865   2.806   7.773 -0.3979  0.0459 -0.6097
 5879SOL    HW129099   0.795   2.748   7.800 -0.5920  0.1234 -0.9517
 5879SOL    HW229100   0.854   2.790   7.679 -2.4769 -2.8751  0.1474
 5880SOL     OW29101   3.331   4.668  13.751 -0.1576 -0.2620  0.3050
 5880SOL    HW129102   3.401   4.620  13.706 -0.4543  0.0358 -0.4729
 5880SOL    HW229103   3.265   4.599  13.750 -1.1689  0.7150  0.5215
 5881SOL     OW29104   2.436   4.518   8.322  0.1856  0.5129  0.1361
 5881SOL    HW129105   2.503   4.500   8.388  2.6620  2.3435 -1.8820
 5881SOL    HW229106   2.443   4.445   8.261 -0.6248  0.4853  0.0840
 5882SOL     OW29107   1.441   3.448   7.260 -0.3311 -0.5379  0.1457
 5882SOL    HW129108   1.511   3.512   7.270  0.2163 -0.7879 -2.0793
 5882SOL    HW229109   1.458   3.407   7.175  0.9826 -1.6714  0.9579
 5883SOL     OW29110   1.932   1.474   7.167  0.4148 -1.1713  0.1617
 5883SOL    HW129111   1.913   1.512   7.082  1.0476 -2.2393 -0.4570
 5883SOL    HW229112   1.996   1.404   7.158  1.4285 -0.0881 -0.9518
 5884SOL     OW29113   1.365   0.447   3.728  0.1935  0.5601 -0.0137
 5884SOL    HW129114   1.321   0.365   3.749 -0.4789  1.3164  1.4907
 5884SOL    HW229115   1.364   0.438   3.633 -3.0125  1.0770 -0.0137
 5885SOL     OW29116   2.274   3.533   1.398  0.5919 -0.2223 -0.1101
 5885SOL    HW129117   2.248   3.455   1.349  0.1876 -0.6121  0.7134
 5885SOL    HW229118   2.369   3.532   1.395  0.5836 -0.4466 -0.2682
 5886SOL     OW29119   0.076   4.522  15.161 -0.8039  0.3095  0.4653
 5886SOL    HW129120   0.046   4.559  15.244  0.7638  0.1347  1.1165
 5886SOL    HW229121   0.015   4.448  15.166 -0.7396  0.3948  2.7120
 5887SOL     OW29122   3.843   0.513   4.070 -0.0370  0.3661 -0.0840
 5887SOL    HW129123   3.771   0.560   4.028  1.4107  1.3286 -1.5039
 5887SOL    HW229124   3.814   0.425   4.045  0.3088  0.1303  0.3380
 5888SOL     OW29125   2.661   2.866  17.304  0.1221  0.4230 -0.3668
 5888SOL    HW129126   2.651   2.919  17.383  2.1320 -0.5224  0.5251
 5888SOL    HW229127   2.582   2.812  17.306 -0.6232  1.4947 -1.6944
 5889SOL     OW29128   4.185   0.705   7.758 -0.4827 -0.0051 -0.0837
 5889SOL    HW129129   4.185   0.721   7.852  0.2099 -1.3771  0.1599
 5889SOL    HW229130   4.126   0.772   7.723 -0.8540 -0.2303  0.1185
 5890SOL     OW29131   2.640   0.009  12.723  0.2920  0.2355 -0.6115
 5890SOL    HW129132   2.547   0.017  12.703  0.0302 -2.4186 -0.4283
 5890SOL    HW229133   2.688   0.036  12.645 -0.6948  0.2346 -1.2196
 5891SOL     OW29134   1.962   4.168  12.667 -0.1085  0.7381  0.0218
 5891SOL    HW129135   2.040   4.223  12.678  0.0206  0.8608 -1.6124
 5891SOL    HW229136   1.909   4.218  12.605 -0.8472 -1.3607 -1.0256
 5892SOL     OW29137   2.677   1.805   3.178  0.0519 -0.5388  0.1121
 5892SOL    HW129138   2.720   1.721   3.197 -1.0110 -0.4974  2.6955
 5892SOL    HW229139   2.646   1.843   3.260  2.1499  2.4334 -0.4720
 5893SOL     OW29140   4.569   0.341   5.991 -0.2103 -0.0894 -0.2706
 5893SOL    HW129141   4.565   0.336   6.086 -0.1375 -2.3030 -0.3883
 5893SOL    HW229142   4.569   0.246   5.976 -0.3751 -0.2367  0.6915
 5894SOL     OW29143   2.244   0.333   7.658  0.0652 -0.3301 -0.3516
 5894SOL    HW129144   2.159   0.347   7.615 -0.0176  1.9650  0.5191
 5894SOL    HW229145   2.293   0.283   7.593  0.1938  0.1133 -0.6028
 5895SOL     OW29146   3.145   4.515   8.520  0.1981 -0.1890  0.3825
 5895SOL    HW129147   3.172   4.442   8.575  0.9626 -0.4021 -0.2802
 5895SOL    HW229148   3.053   4.505   8.546  0.4048  0.0520  1.1868
 5896SOL     OW29149   0.788   0.405   2.776  0.4748  0.1281  0.5256
 5896SOL    HW129150   0.755   0.431   2.690  2.2905  1.5925  0.2501
 5896SOL    HW229151   0.769   0.312   2.784  0.1875  0.0224 -1.4652
 5897SOL     OW29152   4.010   1.043   8.814  0.2427  0.8092  0.7098
 5897SOL    HW129153   4.092   1.004   8.784 -0.8060 -2.0436  1.5611
 5897SOL    HW229154   3.989   0.977   8.880 -0.2831  0.0871 -0.1731
 5898SOL     OW29155   1.210   3.225   4.292 -0.6743  0.3567 -0.1011
 5898SOL    HW129156   1.248   3.288   4.231 -0.5546 -0.3283 -0.7170
 5898SOL    HW229157   1.219   3.140   4.249  2.6103  0.9693 -0.5743
 5899SOL     OW29158   1.970   3.268   3.120 -0.5410  0.1113  0.3772
 5899SOL    HW129159   1.975   3.199   3.054  3.5229  2.4612 -1.7659
 5899SOL    HW229160   1.966   3.221   3.204 -0.2844  0.0228  0.3397
 5900SOL     OW29161   2.798   1.065   6.080 -0.5383 -0.5480 -0.2661
 5900SOL    HW129162   2.837   1.009   6.147 -0.7743  1.9014  1.9115
 5900SOL    HW229163   2.719   1.099   6.121  0.9903  2.5761  0.0760
 5901SOL     OW29164   3.481   4.712   2.950 -0.1058 -0.4427  0.3567
 5901SOL    HW129165   3.508   0.015   3.040 -0.2120  0.4743  0.1736
 5901SOL    HW229166   3.482   0.082   2.912  0.3311 -0.5074  0.2252
 5902SOL     OW29167   1.480   1.167  16.425  0.1751 -0.5952  0.4155
 5902SOL    HW129168   1.445   1.078  16.429  0.7276 -0.7733  1.2578
 5902SOL    HW229169   1.517   1.158  16.337 -2.1055  1.4240 -0.7537
 5903SOL     OW29170   3.050   4.297   0.651  0.2797  0.0990 -0.2352
 5903SOL    HW129171   3.061   4.380   0.699 -0.6394  1.2071 -1.9191
 5903SOL    HW229172   3.069   4.333   0.565 -0.1248 -0.6277 -0.6283
 5904SOL     OW29173   2.307   4.639   7.214  0.4510  0.1211 -0.4473
 5904SOL    HW129174   2.218   4.672   7.227  0.3562 -0.4178  0.3153
 5904SOL    HW229175   2.293   4.560   7.162 -1.1823  1.3351 -1.8112
 5905SOL     OW29176   0.304   0.469  15.616 -0.7276  0.2337 -0.0728
 5905SOL    HW129177   0.363   0.427  15.553 -1.1382  0.8262 -0.8578
 5905SOL    HW229178   0.323   0.563  15.624 -0.7659  0.2541 -0.2198
 5906SOL     OW29179   0.219   4.295  15.740  0.1077  0.1921 -0.1529
 5906SOL    HW129180   0.278   4.255  15.676  0.9325  0.4215  0.4631
 5906SOL    HW229181   0.215   4.385  15.707  0.1224 -0.0525 -0.8242
 5907SOL     OW29182   2.064   2.684   8.740 -0.5492 -0.0981  0.1672
 5907SOL    HW129183   2.022   2.599   8.751  1.2621 -1.1341 -0.7738
 5907SOL    HW229184   2.151   2.652   8.765 -1.0027 -0.4712  1.2665
 5908SOL     OW29185   3.048   1.488  13.274 -0.4960  0.8197  0.5762
 5908SOL    HW129186   2.999   1.408  13.254 -0.4146  1.7052 -3.1910
 5908SOL    HW229187   3.089   1.506  13.190  1.7862 -0.3411  1.4442
 5909SOL     OW29188   1.824   3.931   7.056  0.3633 -0.2473 -0.2216
 5909SOL    HW129189   1.835   3.850   7.005  1.2392 -1.1279  1.3977
 5909SOL    HW229190   1.820   3.993   6.983 -1.2508  0.1803  0.2384
 5910SOL     OW29191   3.237   4.167  17.067  0.0455 -0.3272  0.3082
 5910SOL    HW129192   3.145   4.195  17.069  0.0290 -0.3591  0.0439
 5910SOL    HW229193   3.292   4.241  17.094  0.9046 -1.7045  2.2860
 5911SOL     OW29194   0.953   3.167   4.309 -0.4868  0.4510  0.0301
 5911SOL    HW129195   1.042   3.202   4.308  0.3718 -1.7588  0.7801
 5911SOL    HW229196   0.904   3.249   4.322 -1.1034  0.1349 -0.3306
 5912SOL     OW29197   3.182   2.238   2.709  0.4001 -0.1986 -0.2788
 5912SOL    HW129198   3.267   2.279   2.697 -0.4965  1.3649 -1.3346
 5912SOL    HW229199   3.155   2.222   2.618  0.4315 -0.3986 -0.2531
 5913SOL     OW29200   2.834   4.530   4.568 -0.2193 -0.6055  0.0228
 5913SOL    HW129201   2.928   4.543   4.575 -0.1620  0.0893 -2.0292
 5913SOL    HW229202   2.829   4.481   4.650  0.8147  0.4061  0.6887
 5914SOL     OW29203   0.798   0.071   8.721 -0.0202  0.4633  0.5508
 5914SOL    HW129204   0.757   0.040   8.640  0.9953  0.6183 -0.0293
 5914SOL    HW229205   0.826   0.157   8.690 -0.2906 -0.0549 -1.1693
 5915SOL     OW29206   3.788   1.888   8.018  0.0592  0.1257  0.1779
 5915SOL    HW129207   3.843   1.817   7.986 -3.0613 -3.4835  2.8319
 5915SOL    HW229208   3.855   1.954   8.037  0.3413  0.1101 -0.7564
 5916SOL     OW29209   0.714   2.836   1.711 -0.0183 -0.3489 -0.0624
 5916SOL    HW129210   0.784   2.796   1.762 -0.4867 -0.0129  0.8541
 5916SOL    HW229211   0.713   2.920   1.757  0.7888  0.0246 -0.7384
 5917SOL     OW29212   1.310   1.137  15.765 -0.0519  0.1364  0.1936
 5917SOL    HW129213   1.348   1.202  15.707 -2.2023  2.2728  1.1391
 5917SOL    HW229214   1.385   1.081  15.781 -2.3570 -3.6363 -2.2888
 5918SOL     OW29215   2.375   2.907  17.023  0.0053  0.0388  0.2215
 5918SOL    HW129216   2.386   2.867  17.109  0.4992 -0.7211 -0.1962
 5918SOL    HW229217   2.452   2.869  16.980 -0.0867  0.9864 -0.7970
 5919SOL     OW29218   1.849   1.884   0.586  0.2495  0.4550 -0.5558
 5919SOL    HW129219   1.859   1.944   0.660 -2.9383 -0.2446  0.4236
 5919SOL    HW229220   1.890   1.937   0.517 -0.0030 -2.2137 -2.7430
 5920SOL     OW29221   4.657   3.158  17.157  0.0961 -0.0838 -0.0311
 5920SOL    HW129222   4.628   3.199  17.239 -0.4544 -0.9259  0.2016
 5920SOL    HW229223   4.607   3.076  17.163 -1.3347  0.7909 -0.0297
 5921SOL     OW29224   3.778   2.513   9.507 -0.4248 -0.1248  0.1556
 5921SOL    HW129225   3.682   2.503   9.509 -0.4541  0.5681  1.6831
 5921SOL    HW229226   3.790   2.566   9.429 -1.6849  1.1270  0.8102
 5922SOL     OW29227   3.253   3.646   3.202  0.0979  0.0056  0.3468
 5922SOL    HW129228   3.269   3.739   3.215  1.4014 -0.2969  0.9241
 5922SOL    HW229229   3.175   3.643   3.146  1.2205  0.3112 -1.2301
 5923SOL     OW29230   4.232   1.462  11.040 -0.2836 -0.6652 -0.7245
 5923SOL    HW129231   4.265   1.389  10.987  0.6478 -1.8381  1.4673
 5923SOL    HW229232   4.139   1.448  11.057 -0.9608  0.2181 -3.6386
 5924SOL     OW29233   0.819   2.233  15.746  0.2204 -0.5770  0.2055
 5924SOL    HW129234   0.791   2.198  15.830  2.6518 -0.9823  0.8430
 5924SOL    HW229235   0.827   2.327  15.757 -1.5691 -0.2755 -1.0421
 5925SOL     OW29236   2.221   0.352   7.976  0.4564  0.0425 -0.2716
 5925SOL    HW129237   2.217   0.374   7.883  0.4718 -1.0026 -0.5224
 5925SOL    HW229238   2.160   0.278   7.979  0.0931  0.3239 -0.6627
 5926SOL     OW29239   2.096   2.773   3.055 -0.4018  0.0152  0.0957
 5926SOL    HW129240   2.181   2.756   3.096  0.3248  0.6882 -1.1460
 5926SOL    HW229241   2.067   2.683   3.041 -0.3843 -0.0211  0.2922
 5927SOL     OW29242   4.569   2.375  16.347 -0.2520 -0.5197 -0.1523
 5927SOL    HW129243   4.527   2.423  16.418 -1.3045  0.4215 -1.3972
 5927SOL    HW229244   4.524   2.290  16.345 -0.0473 -0.6296  0.0166
 5928SOL     OW29245   2.036   1.113  15.349 -0.3334  0.9469  0.2511
 5928SOL    HW129246   2.109   1.164  15.312 -0.6983  1.2349 -0.0649
 5928SOL    HW229247   2.075   1.028  15.327  1.7436  1.1180  3.3479
 5929SOL     OW29248   2.185   0.703   8.406  0.0279 -0.2271  0.4500
 5929SOL    HW129249   2.159   0.621   8.364 -0.4376  1.2442 -2.1397
 5929SOL    HW229250   2.253   0.735   8.346  0.8910 -0.8957  1.0705
 5930SOL     OW29251   4.662   3.086   3.834 -0.9991 -0.6363 -0.3717
 5930SOL    HW129252   4.594   3.020   3.821  0.3934 -1.4775 -3.4296
 5930SOL    HW229253   4.634   3.160   3.781 -0.7741 -1.0516 -1.0612
 5931SOL     OW29254   2.732   1.492  13.078  0.6321 -0.1141 -0.4041
 5931SOL    HW129255   2.786   1.514  13.002 -0.1913  0.6385 -0.7674
 5931SOL    HW229256   2.721   1.402  13.048 -2.1309  1.1432 -3.1513
 5932SOL     OW29257   2.570   1.917   3.395 -0.2419  0.3422  0.0049
 5932SOL    HW129258   2.586   1.950   3.483 -0.0814 -1.2109  0.5482
 5932SOL    HW229259   2.515   1.842   3.416  0.1696 -0.5264 -2.0100
 5933SOL     OW29260   0.570   0.302  10.767 -0.2629  0.4778 -0.3580
 5933SOL    HW129261   0.526   0.387  10.758 -1.9907 -0.0952  2.4529
 5933SOL    HW229262   0.577   0.304  10.863 -0.9274  0.5340 -0.3118
 5934SOL     OW29263   4.016   4.144  16.184  0.7148  0.3230 -0.2648
 5934SOL    HW129264   4.017   4.176  16.094 -0.3894 -2.8165 -1.3623
 5934SOL    HW229265   4.070   4.203  16.238  0.7889  0.7266 -0.7787
 5935SOL     OW29266   4.045   4.020   0.329  0.0012 -0.4302  0.0712
 5935SOL    HW129267   4.069   4.001   0.238  0.9342 -0.9636  0.4316
 5935SOL    HW229268   4.125   3.984   0.367  0.4519  1.2105  0.6881
 5936SOL     OW29269   0.923   1.902   6.222 -0.6312 -0.1435 -0.4283
 5936SOL    HW129270   0.891   1.875   6.136  0.0897  0.8511 -1.0089
 5936SOL    HW229271   0.856   1.860   6.275 -1.2727 -0.2275 -1.3028
 5937SOL     OW29272   3.108   4.223   0.066 -0.2653 -0.4522 -0.2068
 5937SOL    HW129273   3.151   4.144   0.034 -0.3855  0.9015 -3.6689
 5937SOL    HW229274   3.172   4.265   0.124 -1.3625  0.3167  0.4270
 5938SOL     OW29275   1.605   2.933   2.630  0.2945 -0.0564  0.5276
 5938SOL    HW129276   1.603   2.884   2.712 -0.5884 -1.1156 -0.1253
 5938SOL    HW229277   1.700   2.945   2.618  0.4482  0.2837  2.1328
 5939SOL     OW29278   3.455   1.312   7.690  0.2074 -0.2559  0.1409
 5939SOL    HW129279   3.413   1.339   7.771 -2.0145  1.3524 -1.5324
 5939SOL    HW229280   3.406   1.232   7.669  2.7784 -1.0582 -2.7872
 5940SOL     OW29281   0.060   3.582  16.278 -0.0169 -0.3365  0.3613
 5940SOL    HW129282   4.691   3.545  16.266 -0.6852  1.5517 -0.7133
 5940SOL    HW229283   0.085   3.524  16.350  0.5805 -0.3417  0.1478
 5941SOL     OW29284   3.394   1.110   2.808 -0.4992  0.0967  0.0246
 5941SOL    HW129285   3.448   1.039   2.843  0.4093  0.3660 -0.8661
 5941SOL    HW229286   3.317   1.065   2.773 -1.6855  1.2042  1.1974
 5942SOL     OW29287   4.670   2.693   9.698 -0.0483 -1.0202 -0.1245
 5942SOL    HW129288   0.033   2.661   9.658  0.5250 -1.1844  1.1985
 5942SOL    HW229289   4.604   2.687   9.628 -2.3743  0.1270  1.9825
 5943SOL     OW29290   1.710   1.165   7.010 -0.0113  0.2518  0.0588
 5943SOL    HW129291   1.735   1.158   6.918  0.5172 -1.1183  0.3029
 5943SOL    HW229292   1.616   1.148   7.012  0.0461 -0.1322 -1.0889
 5944SOL     OW29293   1.841   2.775   0.682  0.7866 -0.4714 -0.3157
 5944SOL    HW129294   1.771   2.798   0.621  0.4982 -0.0685  0.1710
 5944SOL    HW229295   1.822   2.823   0.762 -0.4833  0.1052 -0.9564
 5945SOL     OW29296   2.293   1.000   8.749 -0.6232 -0.4753  0.4057
 5945SOL    HW129297   2.311   1.039   8.835  0.7846  2.2074 -1.0989
 5945SOL    HW229298   2.377   0.989   8.705 -0.3891 -0.0953  0.7539
 5946SOL     OW29299   3.087   0.468  10.288 -0.2026  0.4409  0.0612
 5946SOL    HW129300   3.105   0.523  10.211 -0.8746  1.7026  0.8129
 5946SOL    HW229301   3.074   0.385  10.241  2.2259 -1.3870  2.5877
 5947SOL     OW29302   2.828   2.578  12.901  0.9183  0.0467 -0.4022
 5947SOL    HW129303   2.840   2.517  12.829 -2.5114  0.1095 -1.0494
 5947SOL    HW229304   2.911   2.556  12.943  1.0184  0.9541 -0.1250
 5948SOL     OW29305   3.327   1.738   3.857 -0.3873  0.1892 -0.5281
 5948SOL    HW129306   3.378   1.725   3.777  0.0916  2.0450 -0.5357
 5948SOL    HW229307   3.331   1.663   3.916 -0.3817 -0.5093 -1.4143
 5949SOL     OW29308   0.685   4.389   9.327 -0.3252 -0.5075  0.1491
 5949SOL    HW129309   0.745   4.315   9.323 -0.6691 -0.8487  1.2764
 5949SOL    HW229310   0.749   4.460   9.335 -0.3524 -0.4942  0.2501
 5950SOL     OW29311   0.528   3.547   5.379 -0.3561 -0.1340 -0.2068
 5950SOL    HW129312   0.521   3.643   5.387 -3.1123 -0.2104 -1.5545
 5950SOL    HW229313   0.577   3.547   5.297  0.0734  1.4254  0.0378
 5951SOL     OW29314   4.309   1.146   3.440 -0.1440 -0.3024  0.8911
 5951SOL    HW129315   4.276   1.174   3.355  0.1515  0.2337  0.9540
 5951SOL    HW229316   4.397   1.181   3.430  0.0585 -0.7659  1.0362
 5952SOL     OW29317   3.809   2.271   5.021  0.3276 -0.3155 -0.0094
 5952SOL    HW129318   3.874   2.210   5.055  1.2886 -0.4022 -2.0337
 5952SOL    HW229319   3.825   2.339   5.087  0.4267 -0.7490  0.4126
 5953SOL     OW29320   1.632   1.578   7.714 -0.6586  0.4683  0.3186
 5953SOL    HW129321   1.643   1.555   7.622 -1.2315 -1.0681  0.6315
 5953SOL    HW229322   1.539   1.574   7.738 -0.3221  1.7305  1.8510
 5954SOL     OW29323   0.147   0.460   8.394  0.3941 -0.1200  0.1217
 5954SOL    HW129324   0.166   0.366   8.395  0.0841 -0.1943 -0.6259
 5954SOL    HW229325   0.096   0.490   8.319  0.6494  1.1124  0.4369
 5955SOL     OW29326   2.213   1.130   9.056 -0.1493 -0.3715 -0.0350
 5955SOL    HW129327   2.270   1.161   8.986 -1.5034  2.4398  0.0761
 5955SOL    HW229328   2.262   1.055   9.089 -2.3046 -1.7106  0.1217
 5956SOL     OW29329   0.844   2.488   9.832 -0.4052  0.4301  0.2595
 5956SOL    HW129330   0.874   2.565   9.785  1.3764  0.6277  1.7075
 5956SOL    HW229331   0.905   2.416   9.813 -1.2006  0.0340 -0.7973
 5957SOL     OW29332   3.664   2.688  13.039 -0.1125 -0.1320  0.0813
 5957SOL    HW129333   3.625   2.630  12.973  0.8473  0.9223 -1.4295
 5957SOL    HW229334   3.659   2.774  12.997  3.8455 -0.4140 -0.9618
 5958SOL     OW29335   3.437   2.331   5.614  0.0887  0.2823  0.3482
 5958SOL    HW129336   3.394   2.246   5.606  0.8373 -0.0794  0.1413
 5958SOL    HW229337   3.508   2.319   5.550 -1.3950 -0.5423 -1.1292
 5959SOL     OW29338   3.431   0.638   6.942  0.3704  0.3533  0.5206
 5959SOL    HW129339   3.345   0.599   6.957  0.6048 -0.8612 -1.3235
 5959SOL    HW229340   3.417   0.732   6.948  2.7809  0.7545  0.1954
 5960SOL     OW29341   2.201   0.965  10.701  0.0784  0.7020 -0.5013
 5960SOL    HW129342   2.109   0.990  10.706 -0.0529  0.5163 -1.8366
 5960SOL    HW229343   2.205   0.926  10.614 -1.2495 -2.3113  0.7787
 5961SOL     OW29344   3.059   4.300   5.067  0.7476 -0.2611 -0.3272
 5961SOL    HW129345   3.110   4.369   5.025 -1.0981  1.4904  0.3033
 5961SOL    HW229346   3.112   4.221   5.053 -1.4585 -2.0671  1.5637
 5962SOL     OW29347   0.639   2.687   2.934  0.4143  0.1106 -0.4063
 5962SOL    HW129348   0.564   2.654   2.885 -1.1970  0.3174  1.9328
 5962SOL    HW229349   0.605   2.672   3.022  0.8233  0.1567 -0.2385
 5963SOL     OW29350   3.005   0.271  10.098  0.3994  0.2322 -0.2127
 5963SOL    HW129351   2.927   0.222  10.126  0.8166  0.1170  0.7353
 5963SOL    HW229352   3.076   0.208  10.092  0.7710  0.5633  0.7745
 5964SOL     OW29353   0.156   0.722   8.451  0.0226  0.4235  0.0922
 5964SOL    HW129354   0.220   0.754   8.387  0.0463 -0.9746 -0.5766
 5964SOL    HW229355   0.169   0.628   8.442 -1.3561  0.3665 -1.2280
 5965SOL     OW29356   4.473   0.318  11.749 -0.3011  0.0353 -0.3673
 5965SOL    HW129357   4.437   0.402  11.719 -1.8668 -0.3656  0.4128
 5965SOL    HW229358   4.466   0.268  11.668 -0.6039 -0.2983 -0.1322
 5966SOL     OW29359   2.992   2.722  13.994  0.4388  0.2291 -0.2090
 5966SOL    HW129360   3.074   2.758  13.960  0.7537 -1.2814 -1.0319
 5966SOL    HW229361   2.988   2.770  14.077  0.4632  0.1188 -0.1451
 5967SOL     OW29362   2.710   4.479   6.497  0.7091 -0.0516  0.3859
 5967SOL    HW129363   2.735   4.480   6.405 -1.0770 -1.1334 -0.1127
 5967SOL    HW229364   2.629   4.428   6.500  0.4543  0.3203 -0.4125
 5968SOL     OW29365   2.630   2.572   3.754  0.8686 -0.0188  0.2229
 5968SOL    HW129366   2.699   2.579   3.820  1.5129 -0.1683 -0.4475
 5968SOL    HW229367   2.638   2.653   3.705  0.8523 -0.3864 -0.3805
 5969SOL     OW29368   1.228   3.397   9.766 -0.3941 -0.3557  0.5572
 5969SOL    HW129369   1.199   3.308   9.746 -0.1877 -0.1968 -0.4735
 5969SOL    HW229370   1.163   3.427   9.829  0.5980 -1.1680  1.9653
 5970SOL     OW29371   0.111   2.051   5.003 -0.5604 -0.1655  0.5051
 5970SOL    HW129372   0.135   1.958   5.010 -3.7947 -0.8712  2.5788
 5970SOL    HW229373   0.126   2.071   4.911 -1.1218  1.2928  0.7301
 5971SOL     OW29374   2.184   3.808  13.382 -0.2055  1.1105  0.2135
 5971SOL    HW129375   2.191   3.825  13.476  0.4636  2.7530 -0.1236
 5971SOL    HW229376   2.265   3.761  13.362 -0.2877  0.4689  1.3868
 5972SOL     OW29377   2.706   2.303   7.792 -0.2890 -0.6650 -0.2891
 5972SOL    HW129378   2.655   2.322   7.871 -0.7325 -0.9097 -0.5133
 5972SOL    HW229379   2.784   2.256   7.822  0.4375 -0.0043 -1.1508
 5973SOL     OW29380   3.764   2.522   6.669  0.2129 -0.2206 -0.0329
 5973SOL    HW129381   3.703   2.562   6.731 -0.3617  0.6707 -1.1669
 5973SOL    HW229382   3.830   2.484   6.727  1.2739 -0.3038 -1.3035
 5974SOL     OW29383   2.384   0.425   6.696  0.0787 -0.1440  0.0165
 5974SOL    HW129384   2.352   0.389   6.779 -1.0740  0.8638  0.0147
 5974SOL    HW229385   2.394   0.352   6.635 -0.8084 -0.1641 -0.1077
 5975SOL     OW29386   0.961   1.068   7.064  0.1267 -0.1399 -0.5951
 5975SOL    HW129387   1.056   1.084   7.064  0.0103  0.5815  0.0581
 5975SOL    HW229388   0.955   0.983   7.021 -1.0106 -0.4885  0.2612
 5976SOL     OW29389   1.081   1.578   6.916 -0.2857  0.0374  0.1962
 5976SOL    HW129390   1.152   1.613   6.970  1.9143 -1.3739 -1.7820
 5976SOL    HW229391   1.123   1.513   6.859  1.8152  0.6082  1.0939
 5977SOL     OW29392   2.368   0.506   2.956  0.1370  0.0549  0.3379
 5977SOL    HW129393   2.285   0.517   2.909 -0.5291 -1.2481  1.2330
 5977SOL    HW229394   2.353   0.439   3.021  1.9904 -0.5647  0.1346
 5978SOL     OW29395   2.424   3.154  15.266  0.2164  0.3004 -0.5159
 5978SOL    HW129396   2.457   3.150  15.176  0.7994  0.4707 -0.3084
 5978SOL    HW229397   2.483   3.220  15.303  0.7213 -1.3033  1.5557
 5979SOL     OW29398   0.175   0.506  11.665 -0.5505  0.1426 -0.0680
 5979SOL    HW129399   0.226   0.546  11.735 -0.2379  0.4643 -0.4874
 5979SOL    HW229400   0.125   0.433  11.703 -0.8703 -0.4609 -1.6264
 5980SOL     OW29401   0.423   4.123  16.746 -0.3679  0.0007  0.3598
 5980SOL    HW129402   0.339   4.102  16.789  0.9882 -4.1067  0.9753
 5980SOL    HW229403   0.491   4.068  16.786  1.2210  0.3785 -1.8853
 5981SOL     OW29404   4.393   2.488   8.312  0.2055 -0.5514 -0.2753
 5981SOL    HW129405   4.444   2.407   8.304  1.1984  0.0222  0.2937
 5981SOL    HW229406   4.450   2.540   8.368  0.0277 -1.1608  0.4783
 5982SOL     OW29407   0.293   4.055   6.636 -0.0836 -0.7186  0.5238
 5982SOL    HW129408   0.210   4.053   6.682  0.4739  0.1642  1.5687
 5982SOL    HW229409   0.352   4.008   6.695 -0.1354 -1.9738 -0.4034
 5983SOL     OW29410   3.089   1.010   7.188  0.5509 -0.2084  0.2392
 5983SOL    HW129411   3.072   1.074   7.256  0.9799 -1.1572  1.2341
 5983SOL    HW229412   3.082   0.922   7.226  0.1633  0.1179  0.9058
 5984SOL     OW29413   3.588   1.093   4.495 -0.0814 -0.5201 -0.0915
 5984SOL    HW129414   3.557   1.165   4.440 -0.4296 -0.1369  0.6042
 5984SOL    HW229415   3.575   1.139   4.578  1.5216 -1.1516  0.5100
 5985SOL     OW29416   0.777   1.006   7.871 -0.1035  0.5192  0.5063
 5985SOL    HW129417   0.732   0.943   7.926 -0.4669  1.3959  1.2036
 5985SOL    HW229418   0.865   0.971   7.890 -0.1688  0.1051  0.0394
 5986SOL     OW29419   4.337   3.573   8.667  0.5353  0.5307 -0.3255
 5986SOL    HW129420   4.380   3.645   8.713  0.0240 -0.3320  1.4940
 5986SOL    HW229421   4.251   3.581   8.708  0.9904 -0.7133  0.8522
 5987SOL     OW29422   2.399   1.891   2.916  0.0650 -0.0747  0.4458
 5987SOL    HW129423   2.382   1.866   3.006 -1.3121 -0.4076  0.0828
 5987SOL    HW229424   2.487   1.857   2.900 -0.2155 -0.0392 -1.1806
 5988SOL     OW29425   1.401   3.750   2.298 -0.2440 -0.1931  0.0113
 5988SOL    HW129426   1.458   3.674   2.307 -0.2347 -0.0749  0.8865
 5988SOL    HW229427   1.388   3.751   2.203 -1.5563 -1.2889  0.1760
 5989SOL     OW29428   1.417   0.369   2.379  0.0348  0.2253  0.3289
 5989SOL    HW129429   1.502   0.325   2.372  1.2569  2.2179  2.6331
 5989SOL    HW229430   1.379   0.341   2.296  0.8068  0.9363 -0.2677
 5990SOL     OW29431   3.138   3.309   7.716 -0.0211 -0.3810  0.7537
 5990SOL    HW129432   3.126   3.296   7.622 -1.1374 -2.7351  1.2430
 5990SOL    HW229433   3.183   3.230   7.744  1.4319  0.0316 -0.3586
 5991SOL     OW29434   2.966   0.145   0.365 -0.2435  0.3758  0.0873
 5991SOL    HW129435   2.923   0.168   0.282  1.3433  1.2262 -0.4925
 5991SOL    HW229436   2.939   0.213   0.427 -0.6054  1.6838 -1.4916
 5992SOL     OW29437   2.820   2.507  16.893 -0.2751 -0.1986  0.2515
 5992SOL    HW129438   2.884   2.439  16.915 -0.9935 -0.5951  1.0944
 5992SOL    HW229439   2.801   2.495  16.801  1.8375  1.5367 -0.4207
 5993SOL     OW29440   0.254   2.870   9.062  0.7521 -0.0521  0.0331
 5993SOL    HW129441   0.261   2.806   8.991 -0.2027  0.0405 -0.1398
 5993SOL    HW229442   0.320   2.835   9.123 -0.5327 -0.1002  1.3957
 5994SOL     OW29443   1.096   3.208   0.845  0.2555 -0.2291 -0.4202
 5994SOL    HW129444   1.120   3.204   0.753  2.0738  1.1110 -0.0147
 5994SOL    HW229445   1.113   3.299   0.870 -1.3869  0.5929 -2.2844
 5995SOL     OW29446   1.861   3.623   1.476 -0.4165  0.2968  0.6734
 5995SOL    HW129447   1.851   3.714   1.447  2.9175  0.7222  0.8423
 5995SOL    HW229448   1.768   3.602   1.485 -0.0368 -1.7578 -0.2286
 5996SOL     OW29449   2.789   4.491   8.178 -0.0617 -0.7528  0.3785
 5996SOL    HW129450   2.755   4.406   8.206 -0.1539 -1.0467 -0.6253
 5996SOL    HW229451   2.857   4.458   8.119 -0.0659 -0.0366 -0.0321
 5997SOL     OW29452   2.707   1.555   6.728 -1.0140 -0.2781  0.0463
 5997SOL    HW129453   2.761   1.534   6.804  0.2981 -2.3233 -1.4409
 5997SOL    HW229454   2.687   1.647   6.741  1.3265  0.1214  0.7594
 5998SOL     OW29455   0.494   1.434   2.498 -0.4209 -0.3818 -0.3029
 5998SOL    HW129456   0.504   1.347   2.460 -1.0260  0.8085 -3.1480
 5998SOL    HW229457   0.583   1.466   2.510 -1.0225  0.7854  1.0932
 5999SOL     OW29458   1.531   1.356   5.242 -0.9473  0.0150 -0.2368
 5999SOL    HW129459   1.550   1.264   5.226 -1.6282 -0.1889  0.1263
 5999SOL    HW229460   1.513   1.363   5.336 -0.4893  2.3758 -0.3331
 6000SOL     OW29461   2.150   0.014   6.740  0.6052  0.0884  0.4414
 6000SOL    HW129462   2.183   0.026   6.830  1.6447  1.2341 -0.0886
 6000SOL    HW229463   2.136   4.638   6.736 -1.6946  0.4038  1.4545
 6001SOL     OW29464   0.737   3.298   2.616 -0.1900 -0.1794 -0.3807
 6001SOL    HW129465   0.648   3.266   2.602  0.1980 -1.5283  0.2290
 6001SOL    HW229466   0.785   3.219   2.590 -0.7441  0.7715 -4.2032
 6002SOL     OW29467   2.354   2.520  15.897 -0.2071  0.1148 -0.9859
 6002SOL    HW129468   2.384   2.434  15.924 -2.0845  0.3004  1.6368
 6002SOL    HW229469   2.420   2.579  15.932  0.3229 -0.7912 -0.4807
 6003SOL     OW29470   2.209   1.811   9.650  0.4528  0.1885  0.5099
 6003SOL    HW129471   2.161   1.891   9.668 -0.7222 -0.3933 -0.0397
 6003SOL    HW229472   2.140   1.745   9.642  0.3077  0.6297 -1.7644
 6004SOL     OW29473   1.822   4.556  11.022  0.0509 -0.2449 -0.3431
 6004SOL    HW129474   1.781   4.510  10.950 -0.7300  2.8473 -1.8818
 6004SOL    HW229475   1.916   4.565  11.003  0.0378 -1.6912 -1.0596
 6005SOL     OW29476   2.772   1.014   5.815 -0.7175  0.3391  0.4647
 6005SOL    HW129477   2.680   0.997   5.797 -0.6131  0.6467 -0.3358
 6005SOL    HW229478   2.780   1.037   5.908 -2.9525  1.5717  0.3557
 6006SOL     OW29479   3.842   3.968   8.845 -0.9430  0.3359  0.5115
 6006SOL    HW129480   3.909   4.000   8.784 -0.8261  0.0884  0.5075
 6006SOL    HW229481   3.791   3.916   8.783  0.5597  0.4054 -0.7806
 6007SOL     OW29482   2.791   1.344  13.355 -0.3044 -0.0664 -0.4722
 6007SOL    HW129483   2.827   1.265  13.315  0.6938  0.8961 -1.4974
 6007SOL    HW229484   2.820   1.342  13.446 -1.2759 -1.6374 -0.2095
 6008SOL     OW29485   1.144   1.691   9.334 -0.5652 -0.3813 -0.5197
 6008SOL    HW129486   1.111   1.780   9.319 -1.2039 -0.9667 -2.5255
 6008SOL    HW229487   1.149   1.692   9.430 -1.2717  2.2114 -0.4855
 6009SOL     OW29488   1.546   2.201  16.892  0.3880  0.0163 -0.0381
 6009SOL    HW129489   1.583   2.266  16.952  2.7482 -0.9374 -0.4381
 6009SOL    HW229490   1.621   2.175  16.838  0.0279 -0.1936 -0.4382
 6010SOL     OW29491   0.190   0.543   3.535 -0.6007  0.3056 -0.5221
 6010SOL    HW129492   0.236   0.459   3.531  0.0523  0.6602 -0.5710
 6010SOL    HW229493   0.250   0.608   3.497 -0.3784  0.4337  0.0415
 6011SOL     OW29494   1.552   0.168   4.162  0.1977 -0.2794  0.1622
 6011SOL    HW129495   1.501   0.173   4.081  1.0914  0.0076 -0.3711
 6011SOL    HW229496   1.486   0.138   4.225 -1.2800 -1.0026 -1.7122
 6012SOL     OW29497   4.506   0.330   0.620  0.5871  0.4051  0.1231
 6012SOL    HW129498   4.427   0.276   0.629  0.8584  0.3454  2.1523
 6012SOL    HW229499   4.522   0.362   0.708 -0.4633  0.1834  0.3895
 6013SOL     OW29500   2.680   2.495  11.422  0.0423 -0.0662  0.2561
 6013SOL    HW129501   2.691   2.487  11.327  0.6033 -2.7303  0.5416
 6013SOL    HW229502   2.647   2.585  11.416  0.6261  0.0320 -1.7940
 6014SOL     OW29503   2.067   0.637  12.022 -0.1906 -0.3124  0.3334
 6014SOL    HW129504   2.024   0.624  11.937 -0.3653  1.6684  0.1114
 6014SOL    HW229505   2.147   0.590  11.999  0.4665  1.1127 -0.3047
 6015SOL     OW29506   2.628   2.048   4.595 -0.1281  0.2009  0.5938
 6015SOL    HW129507   2.582   1.972   4.629 -0.5037  0.0151 -0.3226
 6015SOL    HW229508   2.612   2.117   4.659 -0.2427  0.7113  0.0136
 6016SOL     OW29509   4.364   4.688   9.166  1.1526 -0.3097 -0.2863
 6016SOL    HW129510   4.285   0.022   9.177  1.3828  0.4358 -2.0431
 6016SOL    HW229511   4.394   0.014   9.086 -2.3816  2.7652  0.0908
 6017SOL     OW29512   1.559   0.925  15.780 -0.8780 -0.1312  0.4248
 6017SOL    HW129513   1.631   0.951  15.837 -0.2311 -0.5634 -0.1918
 6017SOL    HW229514   1.506   0.875  15.842 -0.5212  0.3105  1.0813
 6018SOL     OW29515   3.988   3.817   3.773 -0.1542 -0.2467 -0.5429
 6018SOL    HW129516   4.055   3.875   3.736 -1.6800  1.2136 -0.9725
 6018SOL    HW229517   3.912   3.874   3.774 -0.3177 -0.4676 -0.3708
 6019SOL     OW29518   4.397   1.670   1.784 -0.4350 -0.3355 -0.0131
 6019SOL    HW129519   4.363   1.727   1.714 -0.0366  1.0223  0.8849
 6019SOL    HW229520   4.316   1.661   1.834  1.4438  0.1373  3.0823
 6020SOL     OW29521   0.159   4.302   3.073  0.3331  0.4667  0.0704
 6020SOL    HW129522   0.080   4.348   3.043 -0.0772  1.3359  2.4809
 6020SOL    HW229523   0.216   4.378   3.082  0.1661  0.7401 -1.1246
 6021SOL     OW29524   0.795   3.416   0.316 -0.6057  0.4812  0.3774
 6021SOL    HW129525   0.848   3.484   0.274  2.2752 -1.3901  1.0041
 6021SOL    HW229526   0.745   3.375   0.245  1.1813  0.8183 -1.0551
 6022SOL     OW29527   2.814   4.044   2.265 -0.1942 -0.0777 -0.6536
 6022SOL    HW129528   2.816   4.002   2.179  1.4059 -0.7553 -0.2788
 6022SOL    HW229529   2.743   3.993   2.305  1.0806 -0.9561  0.4611
 6023SOL     OW29530   3.466   0.224  13.692 -0.0169 -0.1340 -0.6068
 6023SOL    HW129531   3.399   0.291  13.675  1.5561  1.4894 -0.4360
 6023SOL    HW229532   3.417   0.142  13.687  1.0503 -0.7852 -0.5450
 6024SOL     OW29533   3.541   2.328   7.412 -0.0569 -0.0435 -0.2537
 6024SOL    HW129534   3.461   2.369   7.444 -0.2733  0.6994 -1.7374
 6024SOL    HW229535   3.554   2.284   7.496 -1.0442 -1.0341 -0.6391
 6025SOL     OW29536   2.898   0.797  15.321 -0.2520  0.1827  0.3936
 6025SOL    HW129537   2.867   0.864  15.382 -0.1525 -0.1782  0.8481
 6025SOL    HW229538   2.956   0.847  15.265 -1.3137 -0.6966 -1.4947
 6026SOL     OW29539   3.013   0.691   0.855  0.1230 -0.5370 -0.3407
 6026SOL    HW129540   2.987   0.777   0.887 -1.0481 -0.2071 -2.1674
 6026SOL    HW229541   2.930   0.642   0.859 -0.8201  1.0362 -0.4934
 6027SOL     OW29542   4.715   2.972   0.915 -0.3040 -0.4949  0.3932
 6027SOL    HW129543   0.087   2.954   0.889 -0.3084  0.4284 -0.2616
 6027SOL    HW229544   4.716   3.031   0.991 -2.5187 -1.8831  1.5062
 6028SOL     OW29545   3.629   1.573   4.380  0.4089 -0.3639  0.0625
 6028SOL    HW129546   3.718   1.599   4.405  0.2924  0.2673 -0.2051
 6028SOL    HW229547   3.586   1.595   4.463 -1.7177  0.6280 -1.3019
 6029SOL     OW29548   1.050   2.406   8.156 -0.1840  0.0719  0.4259
 6029SOL    HW129549   1.093   2.429   8.074  0.3911 -2.2732  0.0917
 6029SOL    HW229550   0.970   2.363   8.126 -0.8861  0.7654  1.2872
 6030SOL     OW29551   3.592   2.517   5.068 -0.1485  0.8133 -0.4808
 6030SOL    HW129552   3.596   2.561   5.153 -2.8811  3.1429 -1.5541
 6030SOL    HW229553   3.612   2.592   5.011  0.0417  0.9006 -0.2976
 6031SOL     OW29554   1.082   4.564  13.962  0.1731 -0.1813 -1.0176
 6031SOL    HW129555   0.992   4.532  13.957  0.3006 -1.1381  3.1274
 6031SOL    HW229556   1.133   4.499  13.914  3.0933  3.1355 -2.3744
 6032SOL     OW29557   2.698   4.684  13.673  0.5513  0.1269  0.3825
 6032SOL    HW129558   2.771   0.027  13.679 -0.5065  1.3490  0.6410
 6032SOL    HW229559   2.744   4.609  13.634 -1.5306 -0.6376 -0.6416
 6033SOL     OW29560   1.425   1.689   5.422  0.3409 -0.7065  0.1092
 6033SOL    HW129561   1.427   1.596   5.444 -1.8998 -0.8000 -0.1240
 6033SOL    HW229562   1.489   1.687   5.351 -0.3974  0.2438 -0.5887
 6034SOL     OW29563   0.688   3.921  11.325  0.0282  0.6197 -0.0715
 6034SOL    HW129564   0.612   3.974  11.303 -0.5693  0.0510  0.5978
 6034SOL    HW229565   0.742   3.987  11.369  1.8379 -1.3664  0.6972
 6035SOL     OW29566   2.102   1.179   2.708  0.3443 -0.3292  0.1340
 6035SOL    HW129567   2.155   1.249   2.670 -0.4871 -0.2967 -0.9639
 6035SOL    HW229568   2.165   1.146   2.772  0.1826 -1.2665 -0.1911
 6036SOL     OW29569   0.881   4.037   8.755  0.2548 -0.0013 -0.7402
 6036SOL    HW129570   0.877   4.043   8.660 -1.0356 -0.2873 -0.7002
 6036SOL    HW229571   0.883   3.943   8.770  2.3540  0.1370 -0.1730
 6037SOL     OW29572   0.422   1.392   5.129  0.0179 -0.0403 -0.4716
 6037SOL    HW129573   0.389   1.302   5.138  1.1762 -0.6382 -2.1933
 6037SOL    HW229574   0.339   1.440   5.122 -0.7264 -1.3494 -0.7824
 6038SOL     OW29575   3.676   0.325   3.971 -0.1283  0.0901  0.0307
 6038SOL    HW129576   3.608   0.277   4.019  0.3163 -0.7239 -0.1444
 6038SOL    HW229577   3.672   0.286   3.884 -0.0161  3.0346 -1.2720
 6039SOL     OW29578   2.933   3.581   7.381  0.1812  0.0326 -0.0351
 6039SOL    HW129579   2.898   3.670   7.377  0.0177 -0.1175 -1.7958
 6039SOL    HW229580   2.868   3.543   7.440 -1.4825 -0.0417 -1.9356
 6040SOL     OW29581   2.944   1.933   3.725 -0.9968  0.5489 -0.8738
 6040SOL    HW129582   3.029   1.950   3.767  0.1140  2.6516 -3.8983
 6040SOL    HW229583   2.902   1.999   3.780 -0.1695  0.0995  0.2839
 6041SOL     OW29584   4.464   0.525   4.141 -0.0584  0.3289 -0.0923
 6041SOL    HW129585   4.504   0.577   4.071 -2.7924  0.0111 -1.8824
 6041SOL    HW229586   4.395   0.485   4.088 -1.3790  2.4654  0.0224
 6042SOL     OW29587   3.552   0.682   4.946 -0.0001  0.1789  0.2425
 6042SOL    HW129588   3.520   0.671   5.035 -3.3667 -2.0533 -1.2175
 6042SOL    HW229589   3.493   0.619   4.903  0.5663 -0.5403  0.5142
 6043SOL     OW29590   2.609   4.695   1.233 -0.3796  0.1719  0.0577
 6043SOL    HW129591   2.518   0.006   1.238 -0.8753 -1.4580  0.5492
 6043SOL    HW229592   2.640   4.716   1.321  2.0553  1.1985 -1.0573
 6044SOL     OW29593   1.446   3.862  11.793  0.3346  0.5394  0.3416
 6044SOL    HW129594   1.455   3.780  11.745 -1.1356  0.2380  0.5554
 6044SOL    HW229595   1.419   3.819  11.875 -0.0282 -1.9115 -1.0736
 6045SOL     OW29596   4.131   3.548  14.489 -0.1537  0.2018 -0.5902
 6045SOL    HW129597   4.210   3.591  14.457  0.3603 -0.5911 -0.3798
 6045SOL    HW229598   4.145   3.553  14.583  1.9064 -1.5423 -0.8051
 6046SOL     OW29599   2.289   1.551  16.275 -0.5679 -0.0828 -0.2207
 6046SOL    HW129600   2.364   1.495  16.297 -0.4018  0.9151  1.6971
 6046SOL    HW229601   2.229   1.537  16.348 -1.9328  0.3029 -1.2623
 6047SOL     OW29602   3.942   0.774   8.208 -0.3916  0.3325  0.2161
 6047SOL    HW129603   3.848   0.785   8.217 -0.7202 -0.1240 -2.6172
 6047SOL    HW229604   3.972   0.849   8.260  1.2418 -0.1596  0.0087
 6048SOL     OW29605   2.334   4.476  10.201  0.1470 -0.6836  0.3565
 6048SOL    HW129606   2.375   4.389  10.206  1.2971 -0.2138 -0.7836
 6048SOL    HW229607   2.253   4.451  10.157 -0.9351  1.1611  1.3346
 6049SOL     OW29608   2.973   3.694  10.854 -0.1412 -1.0857 -0.1928
 6049SOL    HW129609   3.015   3.720  10.936  0.4122 -2.0001 -0.1869
 6049SOL    HW229610   2.889   3.666  10.889  0.8175 -1.0643  2.1693
 6050SOL     OW29611   2.049   4.611  16.557  0.6686  0.2937 -0.0429
 6050SOL    HW129612   2.101   4.558  16.497  0.4013 -1.4348  1.2534
 6050SOL    HW229613   2.087   4.573  16.637  1.2992 -0.8729 -0.8975
 6051SOL     OW29614   0.644   3.027  13.180 -0.3945  0.0616 -0.2444
 6051SOL    HW129615   0.609   3.041  13.268 -1.3960  0.0251 -0.6421
 6051SOL    HW229616   0.638   2.932  13.167 -1.3462  0.1233 -0.2231
 6052SOL     OW29617   4.092   4.162   3.417 -0.5540 -0.3558  0.0044
 6052SOL    HW129618   4.019   4.178   3.358 -0.6914 -0.0026  0.2744
 6052SOL    HW229619   4.121   4.253   3.422  1.5928 -0.9587 -1.3546
 6053SOL     OW29620   4.037   2.677   0.649  0.0130  0.7553  0.0696
 6053SOL    HW129621   4.029   2.726   0.567  0.7278 -3.1325 -2.3007
 6053SOL    HW229622   3.949   2.693   0.684 -0.7629 -0.7401 -1.1758
 6054SOL     OW29623   0.685   2.048   5.789  0.5702  0.2450  0.3226
 6054SOL    HW129624   0.742   1.975   5.767 -1.6849 -1.4962  0.2643
 6054SOL    HW229625   0.754   2.105   5.824  1.1058  0.6756 -1.4554
 6055SOL     OW29626   0.996   0.568   0.103  0.2494  0.3525  0.5649
 6055SOL    HW129627   0.949   0.631   0.048 -1.6980 -0.7655  0.9360
 6055SOL    HW229628   1.089   0.589   0.091  0.5254 -0.9871  0.3809
 6056SOL     OW29629   1.812   3.008   3.902  0.2408  0.0742 -0.5659
 6056SOL    HW129630   1.887   3.053   3.941  1.4183 -0.6935 -1.9651
 6056SOL    HW229631   1.764   3.087   3.878  0.4382  0.3563 -0.0367
 6057SOL     OW29632   2.544   2.837  12.602 -0.4798 -0.5082  0.2270
 6057SOL    HW129633   2.500   2.775  12.544  0.3576 -2.4900  1.6971
 6057SOL    HW229634   2.538   2.787  12.684 -1.4235  0.6544  0.8630
 6058SOL     OW29635   3.006   0.725   4.423  0.2685  0.1520 -0.2291
 6058SOL    HW129636   3.050   0.805   4.451  2.5132 -0.5070 -1.9022
 6058SOL    HW229637   2.915   0.739   4.449  1.0066  0.2406  2.2691
 6059SOL     OW29638   4.064   2.921   9.750 -0.3914  0.5821 -0.1304
 6059SOL    HW129639   4.119   2.970   9.689 -1.3555  0.5993 -0.9965
 6059SOL    HW229640   4.008   2.862   9.699  3.7678 -3.0234 -0.4896
 6060SOL     OW29641   4.073   1.867  12.874 -0.2288  0.1814  0.3918
 6060SOL    HW129642   4.072   1.961  12.892  0.4776 -0.2112  2.4848
 6060SOL    HW229643   4.129   1.833  12.943 -0.9227 -0.1568  0.7835
 6061SOL     OW29644   1.421   2.765  15.730  0.2010  0.3285 -0.3181
 6061SOL    HW129645   1.428   2.859  15.714  0.3796 -0.1902 -3.2821
 6061SOL    HW229646   1.378   2.733  15.651 -0.0907  2.5374 -1.0708
 6062SOL     OW29647   0.512   4.450   9.985  0.1596  0.1103 -0.1851
 6062SOL    HW129648   0.455   4.519   9.953 -2.3948 -2.1014 -0.4075
 6062SOL    HW229649   0.451   4.379  10.005  1.3342 -0.5131  1.2005
 6063SOL     OW29650   3.097   3.741   7.650 -0.5356 -0.5511 -0.3060
 6063SOL    HW129651   3.156   3.667   7.666  2.0936  1.6038  0.1432
 6063SOL    HW229652   3.143   3.774   7.572 -0.2225  0.2466  0.2106
 6064SOL     OW29653   2.284   3.175   3.504 -0.2658  0.0025  0.1883
 6064SOL    HW129654   2.223   3.186   3.577 -1.0713  1.8269 -0.7511
 6064SOL    HW229655   2.365   3.162   3.554  0.5006  1.5291 -0.6613
 6065SOL     OW29656   1.282   0.762   9.436  0.1377 -0.3451 -0.3910
 6065SOL    HW129657   1.196   0.733   9.406 -0.0096 -1.6502  1.2925
 6065SOL    HW229658   1.265   0.824   9.507  2.4640  2.4996 -2.3296
 6066SOL     OW29659   0.430   0.990   1.873  0.2757  0.2983  0.3209
 6066SOL    HW129660   0.336   0.998   1.894  1.1074  0.3618  4.0196
 6066SOL    HW229661   0.456   1.081   1.860  1.5520  0.0202  0.9311
 6067SOL     OW29662   0.393   2.654   8.062  0.6322 -0.0253 -0.2106
 6067SOL    HW129663   0.416   2.571   8.105  1.3709  0.7532  0.9017
 6067SOL    HW229664   0.301   2.646   8.037  0.9218 -0.0025 -1.3159
 6068SOL     OW29665   2.691   3.000   6.483 -0.3099 -0.3806 -0.0408
 6068SOL    HW129666   2.634   3.064   6.524 -0.0915 -0.6640  0.7123
 6068SOL    HW229667   2.642   2.999   6.401  0.1905  0.3457 -0.3492
 6069SOL     OW29668   4.115   0.161   8.142 -0.8512 -0.1193 -0.1401
 6069SOL    HW129669   4.116   0.194   8.232 -1.3365 -0.7714  0.1020
 6069SOL    HW229670   4.075   0.233   8.093 -0.1007  0.5252  0.1885
 6070SOL     OW29671   1.982   3.853   3.455 -0.1204  0.4587 -0.3159
 6070SOL    HW129672   1.922   3.807   3.513  2.0106 -2.9822 -0.8588
 6070SOL    HW229673   1.960   3.824   3.367  2.0648  1.3225 -1.1582
 6071SOL     OW29674   2.055   4.340   0.533  0.0704  0.2939 -0.2016
 6071SOL    HW129675   2.066   4.369   0.624 -0.3494  0.7929 -0.3085
 6071SOL    HW229676   2.011   4.256   0.540  0.5816 -0.1500 -2.4721
 6072SOL     OW29677   4.024   2.401   9.188  0.3498  0.5639 -0.2119
 6072SOL    HW129678   4.016   2.434   9.277  1.7209 -2.1157  0.9066
 6072SOL    HW229679   3.994   2.312   9.207  0.4485  0.3757 -0.9212
 6073SOL     OW29680   0.284   2.223   9.765  0.1002 -0.1902  0.0256
 6073SOL    HW129681   0.374   2.191   9.755  0.0080 -0.4906  0.1483
 6073SOL    HW229682   0.256   2.220   9.674  1.4915  3.3163 -0.5084
 6074SOL     OW29683   1.431   0.686   7.735  0.8736 -0.7554  0.0887
 6074SOL    HW129684   1.461   0.603   7.698  1.1287 -1.4739  1.9034
 6074SOL    HW229685   1.447   0.674   7.828 -0.9790 -0.4252  0.4393
 6075SOL     OW29686   0.530   3.784  11.091 -0.3373 -0.2707  0.0815
 6075SOL    HW129687   0.548   3.828  11.174 -0.9314 -0.3285  0.2448
 6075SOL    HW229688   0.591   3.711  11.087 -1.2188 -1.0517  0.9006
 6076SOL     OW29689   3.135   0.299   2.077  0.0678 -0.5945  0.1992
 6076SOL    HW129690   3.041   0.314   2.082  0.0980 -1.0678  2.5510
 6076SOL    HW229691   3.140   0.225   2.138  1.3397  0.3937  1.3086
 6077SOL     OW29692   4.349   1.146   8.974 -0.3060  0.0540 -0.2746
 6077SOL    HW129693   4.336   1.240   8.984  0.2561  0.1510 -0.4778
 6077SOL    HW229694   4.287   1.116   9.042 -0.5941  0.8015 -0.2082
 6078SOL     OW29695   1.860   4.536   5.867 -0.2012 -0.2283  0.2868
 6078SOL    HW129696   1.825   4.574   5.948  0.6589 -0.6896  0.8646
 6078SOL    HW229697   1.795   4.471   5.841  1.1191 -1.0616 -0.9280
 6079SOL     OW29698   2.986   3.620   8.344  0.1295 -0.0128  0.4157
 6079SOL    HW129699   3.007   3.640   8.253  1.9380 -0.2964  0.7701
 6079SOL    HW229700   3.018   3.705   8.372 -0.4628  0.8767 -1.6285
 6080SOL     OW29701   1.636   0.030  11.041  0.1914  0.0158 -0.5524
 6080SOL    HW129702   1.710   0.079  11.076 -1.4783  1.4565  0.9623
 6080SOL    HW229703   1.659   4.655  11.046  0.6529  0.1073 -1.0075
 6081SOL     OW29704   4.276   0.699   7.361  0.4274 -0.2005 -0.3259
 6081SOL    HW129705   4.305   0.624   7.413  0.1933 -1.0416 -1.4121
 6081SOL    HW229706   4.321   0.680   7.279  0.1414  1.2792 -0.8269
 6082SOL     OW29707   4.703   1.304   9.259  0.7654 -0.4020 -0.2895
 6082SOL    HW129708   4.610   1.327   9.263  0.6265 -1.0271  0.1246
 6082SOL    HW229709   0.041   1.378   9.236  0.6449 -0.3497 -0.4189
 6083SOL     OW29710   4.389   1.702  11.120  0.2933  0.0105 -0.1043
 6083SOL    HW129711   4.404   1.763  11.048  2.2017 -0.4225 -0.0797
 6083SOL    HW229712   4.375   1.617  11.078  2.8574 -0.9918  1.0891
 6084SOL     OW29713   3.510   0.279   0.062  0.4012  0.3225 -0.0243
 6084SOL    HW129714   3.447   0.246   0.127 -0.3537  0.1008 -0.8787
 6084SOL    HW229715   3.494   0.372   0.079  2.2453  0.8970 -1.5002
 6085SOL     OW29716   0.478   4.175   6.363  0.5617 -0.1354  0.0773
 6085SOL    HW129717   0.537   4.171   6.438 -1.1260  2.1657  1.4957
 6085SOL    HW229718   0.537   4.142   6.295 -1.0944 -1.4324 -0.7313
 6086SOL     OW29719   4.708   1.319   3.026 -0.0938  0.2554  0.0266
 6086SOL    HW129720   4.691   1.330   2.933 -1.9875  0.3728  0.3807
 6086SOL    HW229721   4.705   1.408   3.061  1.6664 -0.0857  1.0676
 6087SOL     OW29722   2.791   2.461  10.101 -0.1787  0.3264 -0.1618
 6087SOL    HW129723   2.796   2.556  10.111  1.5678  0.1366  0.6700
 6087SOL    HW229724   2.718   2.433  10.155  1.9653 -0.3961  2.3442
 6088SOL     OW29725   4.408   1.796   7.431 -0.3083 -0.2643  0.1636
 6088SOL    HW129726   4.364   1.737   7.370 -1.5623  0.3388  0.4859
 6088SOL    HW229727   4.328   1.839   7.462  0.4535  2.4724 -1.7164
 6089SOL     OW29728   4.207   2.430   5.140  0.1228  0.1711 -0.5694
 6089SOL    HW129729   4.219   2.518   5.103 -0.2565  0.7655  0.7306
 6089SOL    HW229730   4.288   2.420   5.190 -1.5788 -0.4756  2.0427
 6090SOL     OW29731   1.817   3.010   0.081  0.6792 -0.1294 -0.0021
 6090SOL    HW129732   1.846   2.936   0.134  4.0135 -0.3193 -2.0882
 6090SOL    HW229733   1.896   3.065   0.080  0.3312  0.3854  0.5933
 6091SOL     OW29734   0.604   0.525  10.288  0.3109  0.0964  0.6906
 6091SOL    HW129735   0.664   0.507  10.360 -0.2148  0.6579  1.2609
 6091SOL    HW229736   0.532   0.483  10.335  0.4636  0.3130  1.1079
 6092SOL     OW29737   0.297   1.693   7.658  0.1370  0.0187 -0.2549
 6092SOL    HW129738   0.258   1.662   7.577 -0.9531  0.3558  0.1446
 6092SOL    HW229739   0.225   1.693   7.721 -1.1574 -0.0004 -1.7573
 6093SOL     OW29740   2.041   4.429  10.466 -0.5568  0.3931  0.4093
 6093SOL    HW129741   2.101   4.504  10.465 -1.3115  0.9784 -1.8463
 6093SOL    HW229742   2.092   4.349  10.482 -0.5454  0.4886  0.8670
 6094SOL     OW29743   4.640   4.697   8.939 -0.4054 -0.4331 -0.1797
 6094SOL    HW129744   4.657   0.017   9.025 -1.1175  0.5929 -0.4920
 6094SOL    HW229745   4.557   0.024   8.924 -0.4104  0.1000  1.4702
 6095SOL     OW29746   2.248   4.571   1.972  0.3629 -0.7057  0.1385
 6095SOL    HW129747   2.265   4.648   2.025  1.2794 -1.3573  0.7957
 6095SOL    HW229748   2.188   4.609   1.908 -0.4462  0.3753  1.5346
 6096SOL     OW29749   4.228   2.450   7.743  0.1177  0.0454 -0.2991
 6096SOL    HW129750   4.164   2.504   7.789 -1.2020  0.1483 -2.2467
 6096SOL    HW229751   4.201   2.473   7.655 -0.1477 -0.7976 -0.4370
 6097SOL     OW29752   3.339   0.218  16.733 -0.1397  0.6214  0.1029
 6097SOL    HW129753   3.417   0.230  16.678 -0.0335  3.3012  0.8326
 6097SOL    HW229754   3.380   0.246  16.816  0.8320  0.7191 -0.4051
 6098SOL     OW29755   0.611   2.192   4.407 -0.1364  0.0061 -0.6901
 6098SOL    HW129756   0.591   2.123   4.344  0.6422 -0.7228 -0.1431
 6098SOL    HW229757   0.624   2.268   4.350  0.0111  0.9334  0.5670
 6099SOL     OW29758   3.276   2.151   9.542 -0.2104  0.3061 -0.2197
 6099SOL    HW129759   3.198   2.099   9.524 -0.4452  0.0192  1.5907
 6099SOL    HW229760   3.321   2.081   9.590 -2.5052 -1.8677 -1.2573
 6100SOL     OW29761   2.860   3.206  10.292 -0.4323 -0.1232  0.1065
 6100SOL    HW129762   2.870   3.238  10.382  1.0115  0.3744 -0.2381
 6100SOL    HW229763   2.946   3.234  10.262 -0.1832 -1.7500 -0.6353
 6101SOL     OW29764   1.349   2.803   2.235  0.3940  0.0214 -0.0658
 6101SOL    HW129765   1.282   2.852   2.186  1.2262 -0.0322 -1.2753
 6101SOL    HW229766   1.350   2.842   2.322  2.9638  1.4380 -0.7327
 6102SOL     OW29767   0.329   1.247   9.138 -0.3684  0.2242  0.3893
 6102SOL    HW129768   0.377   1.284   9.063 -0.6412  0.7780  0.4925
 6102SOL    HW229769   0.270   1.190   9.090  0.3004  0.0128 -0.1921
 6103SOL     OW29770   2.105   1.944  17.655 -0.6329 -0.2888  0.2249
 6103SOL    HW129771   2.102   1.950   0.075 -0.6794 -0.0150  0.2066
 6103SOL    HW229772   2.129   1.853  17.641 -0.9683 -0.2928 -0.3593
 6104SOL     OW29773   3.281   2.565   2.840  0.4522 -0.0205 -0.5646
 6104SOL    HW129774   3.204   2.509   2.829  0.5765  0.0143 -1.5910
 6104SOL    HW229775   3.248   2.653   2.823 -1.3487 -0.3575  1.2486
 6105SOL     OW29776   0.224   3.575   6.365  0.1462 -0.4327 -0.2682
 6105SOL    HW129777   0.205   3.583   6.458 -2.3732  0.0251 -0.8268
 6105SOL    HW229778   0.179   3.494   6.343 -0.0155 -1.2180  3.0467
 6106SOL     OW29779   3.378   4.700   1.733 -0.3188  0.2413 -0.7159
 6106SOL    HW129780   3.355   0.047   1.799  1.1545 -0.9051  0.9008
 6106SOL    HW229781   3.339   4.629   1.784 -0.5904  0.4822 -0.5869
 6107SOL     OW29782   0.863   1.651  17.584  0.2847  0.2996  0.5482
 6107SOL    HW129783   0.915   1.699  17.520 -0.1799  0.1913  0.0991
 6107SOL    HW229784   0.777   1.676  17.551  0.0489  1.4960  2.0764
 6108SOL     OW29785   4.437   4.417  12.628  0.1069  0.0123 -0.4644
 6108SOL    HW129786   4.524   4.442  12.660  0.0281  2.4649 -2.2357
 6108SOL    HW229787   4.405   4.494  12.583 -1.3056 -0.2425  0.1174
 6109SOL     OW29788   3.882   0.010   7.528 -0.3221 -0.0852  0.8477
 6109SOL    HW129789   3.852   0.065   7.600 -2.1291 -0.6632  0.5385
 6109SOL    HW229790   3.876   0.061   7.447 -2.4054 -1.3550  0.1817
 6110SOL     OW29791   3.276   2.601   3.207 -0.3607 -0.2391 -0.0816
 6110SOL    HW129792   3.292   2.650   3.288  2.8124 -1.0613 -0.1978
 6110SOL    HW229793   3.316   2.661   3.144 -0.0468  0.7391  1.0410
 6111SOL     OW29794   3.066   2.929  13.148  0.2790 -0.1572 -0.2425
 6111SOL    HW129795   3.120   2.850  13.148 -0.8491 -0.9325 -0.4203
 6111SOL    HW229796   3.028   2.933  13.236  1.3657  0.3127  0.2060
 6112SOL     OW29797   2.070   3.801   4.342  0.4310 -0.1108 -0.0137
 6112SOL    HW129798   2.078   3.803   4.246 -0.8509 -1.6162 -0.1558
 6112SOL    HW229799   2.081   3.895   4.357  2.1053 -0.3145  0.0707
 6113SOL     OW29800   4.345   1.460   3.355 -0.1346  0.6404 -0.1326
 6113SOL    HW129801   4.295   1.437   3.434  1.3742  0.3166  0.7167
 6113SOL    HW229802   4.275   1.485   3.295  0.1296  3.3387  0.6640
 6114SOL     OW29803   2.851   0.638   5.534  0.0698 -0.5699 -0.0332
 6114SOL    HW129804   2.764   0.603   5.554 -1.0614  2.3956  0.1866
 6114SOL    HW229805   2.876   0.684   5.614 -1.0907  1.0416 -0.5810
 6115SOL     OW29806   3.812   0.515   1.656  0.1629  0.4564 -0.4703
 6115SOL    HW129807   3.739   0.453   1.667  1.7011 -1.7034 -2.5705
 6115SOL    HW229808   3.861   0.504   1.737  0.5592 -1.7425 -1.0172
 6116SOL     OW29809   2.716   3.763   7.891  0.3045 -0.6932 -0.1445
 6116SOL    HW129810   2.702   3.710   7.969 -1.9363 -0.4965 -0.4153
 6116SOL    HW229811   2.770   3.831   7.933  1.5690 -0.9917 -1.2847
 6117SOL     OW29812   1.539   0.129   3.442 -0.1404 -0.1090 -0.2760
 6117SOL    HW129813   1.586   0.184   3.504 -0.1679 -0.3145 -0.0748
 6117SOL    HW229814   1.473   0.083   3.494  0.7911 -0.6526  0.4079
 6118SOL     OW29815   3.782   0.701   2.733 -0.2201  0.1568  0.2635
 6118SOL    HW129816   3.868   0.715   2.773  0.0839  0.4362 -0.4879
 6118SOL    HW229817   3.725   0.701   2.810 -0.6595  1.1821 -0.0651
 6119SOL     OW29818   2.686   1.535  12.228  0.2478  0.0540  0.4039
 6119SOL    HW129819   2.644   1.618  12.207 -0.9468 -1.3474 -2.7531
 6119SOL    HW229820   2.614   1.473  12.216  0.7148  0.2080 -3.2668
 6120SOL     OW29821   0.025   2.049   6.509  0.5907  0.0194  0.7230
 6120SOL    HW129822   4.658   2.038   6.468  0.9158  1.7201 -0.4085
 6120SOL    HW229823   0.022   1.964   6.552  1.1920 -1.6784 -2.5468
 6121SOL     OW29824   3.922   0.858  10.934  0.1380 -0.4194  0.5627
 6121SOL    HW129825   3.899   0.895  11.019 -0.5606  0.3273  0.0473
 6121SOL    HW229826   4.003   0.818  10.965  0.5421 -1.0706 -1.3379
 6122SOL     OW29827   0.881   0.825  15.433  0.3313 -0.0473  0.2519
 6122SOL    HW129828   0.941   0.764  15.390 -1.4447 -1.2105 -0.6063
 6122SOL    HW229829   0.820   0.762  15.473  0.3387 -1.0102 -1.2672
 6123SOL     OW29830   0.897   0.985   2.435  0.2485  0.6368 -0.1666
 6123SOL    HW129831   0.846   0.971   2.515 -1.8048  1.4067 -1.3454
 6123SOL    HW229832   0.831   0.949   2.376  0.3141 -0.8218  0.6540
 6124SOL     OW29833   0.266   2.906   0.935 -0.5763 -0.2694  0.1837
 6124SOL    HW129834   0.344   2.921   0.882 -1.5597 -1.5357 -1.5995
 6124SOL    HW229835   0.303   2.923   1.022  0.5357 -0.3472 -0.2858
 6125SOL     OW29836   4.373   3.360  17.128  0.2906  0.0494 -0.0203
 6125SOL    HW129837   4.451   3.394  17.085  1.3223 -2.1991  0.0988
 6125SOL    HW229838   4.335   3.433  17.177 -0.4195  0.6626 -1.4611
 6126SOL     OW29839   2.260   2.559  16.178  0.0916 -0.1874 -0.0017
 6126SOL    HW129840   2.332   2.568  16.116  0.5793  1.4564  0.8087
 6126SOL    HW229841   2.208   2.632  16.145  0.6813  0.8211  1.3106
 6127SOL     OW29842   4.238   2.433  14.332  0.2215 -0.1929 -0.2155
 6127SOL    HW129843   4.203   2.432  14.422 -0.3971 -0.3344 -0.4594
 6127SOL    HW229844   4.156   2.396  14.298 -1.5690  1.7347  1.9184
 6128SOL     OW29845   2.530   2.775   5.276 -0.6338  0.2798 -0.3625
 6128SOL    HW129846   2.565   2.785   5.365  1.4937  2.5101 -1.4425
 6128SOL    HW229847   2.445   2.746   5.307 -1.1676  0.4828 -1.6542
 6129SOL     OW29848   2.369   1.227   1.397 -0.1196  0.0556 -0.4063
 6129SOL    HW129849   2.363   1.146   1.346  0.0595 -1.1033  1.3859
 6129SOL    HW229850   2.462   1.231   1.421  0.2595 -2.7220 -1.3923
 6130SOL     OW29851   3.467   3.911   3.746  0.3037  0.0143 -0.2463
 6130SOL    HW129852   3.392   3.852   3.749 -1.0685  1.8416  2.4498
 6130SOL    HW229853   3.476   3.911   3.651 -3.4269 -1.2552 -0.6087
 6131SOL     OW29854   1.751   1.318   0.657 -0.4692 -0.4072  0.2315
 6131SOL    HW129855   1.675   1.262   0.669 -0.5796 -0.4158 -0.5267
 6131SOL    HW229856   1.757   1.326   0.562  2.5761 -0.9903  0.3705
 6132SOL     OW29857   1.124   3.027   5.942 -0.4230 -0.2921  0.1609
 6132SOL    HW129858   1.185   2.994   5.876  0.5590  0.4815  0.6844
 6132SOL    HW229859   1.097   2.947   5.987 -0.0032 -0.9402 -0.7438
 6133SOL     OW29860   4.592   0.127   7.386 -0.3721  0.3609  0.1161
 6133SOL    HW129861   4.535   0.052   7.370 -2.5146  2.1548 -0.7941
 6133SOL    HW229862   4.581   0.165   7.299 -2.5100 -1.7426 -0.5309
 6134SOL     OW29863   3.246   4.025   6.023 -0.0954 -0.2596 -0.8223
 6134SOL    HW129864   3.252   4.054   5.932  0.2786 -2.1379 -1.3858
 6134SOL    HW229865   3.334   3.991   6.038  0.5540  1.4836 -0.6331
 6135SOL     OW29866   4.008   3.506   4.798  0.4469 -0.1051  0.2717
 6135SOL    HW129867   4.040   3.452   4.870  1.8611 -1.1884 -1.1818
 6135SOL    HW229868   3.923   3.463   4.795  0.6535 -0.4817 -0.0731
 6136SOL     OW29869   2.967   3.818   4.479 -0.8452  0.4930  0.3224
 6136SOL    HW129870   3.034   3.751   4.460 -0.7786  0.2611  1.3730
 6136SOL    HW229871   2.917   3.780   4.551 -0.2956 -2.7282 -0.9875
 6137SOL     OW29872   3.674   0.902  17.200 -0.1804 -0.0701 -0.2712
 6137SOL    HW129873   3.605   0.883  17.136 -1.5963  1.6286  0.7686
 6137SOL    HW229874   3.711   0.981  17.159  0.5991  0.1490  0.8540
 6138SOL     OW29875   3.312   1.914   8.266 -0.1296 -0.6246  0.4426
 6138SOL    HW129876   3.375   1.849   8.236  1.8532  1.1449  0.7266
 6138SOL    HW229877   3.363   1.971   8.324 -0.8853  1.4216 -0.8743
 6139SOL     OW29878   1.831   0.690   0.826  0.2309  0.3581  0.0162
 6139SOL    HW129879   1.785   0.664   0.906 -3.0058  0.6991 -1.7622
 6139SOL    HW229880   1.920   0.721   0.840  0.7391 -1.6846  1.3681
 6140SOL     OW29881   3.116   2.220   6.431  0.6557 -0.0191 -0.2893
 6140SOL    HW129882   3.164   2.290   6.387  1.3562 -2.3179 -3.1620
 6140SOL    HW229883   3.176   2.178   6.493  1.1408 -3.4873 -3.0734
 6141SOL     OW29884   3.151   0.714   2.075 -0.1053 -0.0063 -0.3891
 6141SOL    HW129885   3.091   0.787   2.090 -0.3688 -0.4919  0.8623
 6141SOL    HW229886   3.108   0.677   1.997 -0.3388  0.8433 -0.6634
 6142SOL     OW29887   3.657   2.764   2.846  0.2713  0.7123 -0.0837
 6142SOL    HW129888   3.645   2.840   2.789  1.6952  0.4976 -0.6705
 6142SOL    HW229889   3.742   2.784   2.885  0.1774  0.9233  0.0080
 6143SOL     OW29890   2.816   2.656  10.355  0.0922  0.0355 -0.4544
 6143SOL    HW129891   2.894   2.647  10.301  1.1666 -0.1389  1.1370
 6143SOL    HW229892   2.837   2.722  10.420  1.0075 -0.1310 -0.5840
 6144SOL     OW29893   1.761   3.819  10.078  0.1367 -0.7730 -0.5984
 6144SOL    HW129894   1.721   3.776  10.154  2.1483  0.4688  1.1458
 6144SOL    HW229895   1.756   3.912  10.099 -0.3243 -0.6531 -1.2406
 6145SOL     OW29896   1.167   0.322  11.589 -0.2326 -0.0687  0.6127
 6145SOL    HW129897   1.198   0.396  11.537  0.7563 -2.0337 -1.6000
 6145SOL    HW229898   1.245   0.297  11.639  0.2457  0.2292  0.0147
 6146SOL     OW29899   2.047   0.946   2.069 -0.1074  0.1060 -0.0392
 6146SOL    HW129900   2.128   0.992   2.047 -0.7315 -0.0127 -2.5526
 6146SOL    HW229901   2.031   0.901   1.986  0.2920 -0.5072  0.2113
 6147SOL     OW29902   3.833   3.711   5.786  0.2343 -0.3985  0.4325
 6147SOL    HW129903   3.872   3.700   5.873  0.6206 -2.2391  0.0202
 6147SOL    HW229904   3.833   3.617   5.766 -1.9720 -0.0485 -1.1654
 6148SOL     OW29905   4.319   1.071   5.317  0.5100  0.0572  0.0491
 6148SOL    HW129906   4.286   1.143   5.262  1.2638 -0.5196 -1.1663
 6148SOL    HW229907   4.309   0.995   5.261  2.5105 -0.6625  0.6635
 6149SOL     OW29908   2.858   3.552   0.334  1.1631 -0.1514 -0.2256
 6149SOL    HW129909   2.947   3.570   0.361  1.1942  0.9509 -1.0661
 6149SOL    HW229910   2.838   3.475   0.388  0.1787 -0.5388 -1.1248
 6150SOL     OW29911   4.461   4.628   4.020 -0.2022 -0.2362  0.4251
 6150SOL    HW129912   4.424   4.557   3.967  0.8883  0.9956 -1.9882
 6150SOL    HW229913   4.503   4.584   4.094 -0.2357 -0.5683  0.2498
 6151SOL     OW29914   0.613   2.837  11.632 -0.3725  0.4448  0.4367
 6151SOL    HW129915   0.675   2.867  11.565 -0.1117 -0.6662  0.1889
 6151SOL    HW229916   0.581   2.922  11.662  0.5126  1.1834 -0.7176
 6152SOL     OW29917   3.559   2.955  10.657  0.5361 -0.2346 -0.4196
 6152SOL    HW129918   3.492   2.990  10.717  0.8080 -0.2503 -0.1062
 6152SOL    HW229919   3.623   2.918  10.718 -0.9964 -1.9524  0.1331
 6153SOL     OW29920   1.709   4.254   9.419 -0.5357  0.3154 -0.1022
 6153SOL    HW129921   1.717   4.199   9.498  0.9565  1.4087  0.5030
 6153SOL    HW229922   1.722   4.344   9.450 -1.5945  0.1027  0.9792
 6154SOL     OW29923   2.903   1.538  13.690  0.1082 -0.0997 -0.3341
 6154SOL    HW129924   2.955   1.604  13.646 -0.0804 -0.5858 -1.2920
 6154SOL    HW229925   2.900   1.580  13.775 -3.6544 -0.1424 -0.4431
 6155SOL     OW29926   1.523   4.280  11.871  0.4637  0.3593 -0.5951
 6155SOL    HW129927   1.438   4.239  11.888  0.3109  0.1891 -1.7877
 6155SOL    HW229928   1.586   4.212  11.848  0.2181 -0.2961  0.6402
 6156SOL     OW29929   0.476   3.483   1.516  0.3293  0.1751  0.4055
 6156SOL    HW129930   0.554   3.488   1.460 -1.1486 -1.3759 -1.8004
 6156SOL    HW229931   0.438   3.571   1.521 -0.7842 -0.3144  0.5431
 6157SOL     OW29932   0.721   1.637   3.572  0.5161  0.5107  0.6505
 6157SOL    HW129933   0.763   1.572   3.627  0.8137 -0.2318 -0.4610
 6157SOL    HW229934   0.701   1.705   3.636 -1.8695 -2.4272  3.0313
 6158SOL     OW29935   3.446   2.356   6.670 -1.0671 -0.0609 -0.4815
 6158SOL    HW129936   3.509   2.392   6.732 -1.9063  0.2522  0.1820
 6158SOL    HW229937   3.476   2.397   6.589  2.5264  2.3642  2.1280
 6159SOL     OW29938   4.099   3.546   7.437  0.6062  0.1187  0.0878
 6159SOL    HW129939   4.061   3.471   7.482  2.0456 -1.6680 -1.6765
 6159SOL    HW229940   4.180   3.546   7.487 -0.4439 -2.1762  1.7961
 6160SOL     OW29941   0.125   1.744   4.992  0.1514 -0.0110 -0.2986
 6160SOL    HW129942   0.102   1.745   5.085  1.6459 -2.2725  0.0869
 6160SOL    HW229943   0.040   1.712   4.963 -0.8711  0.9670  1.5646
 6161SOL     OW29944   4.235   2.669   5.741 -0.2105  0.0400  0.5594
 6161SOL    HW129945   4.246   2.727   5.666 -0.2535 -0.8848 -0.1520
 6161SOL    HW229946   4.291   2.709   5.808  0.4040 -0.1424  0.1464
 6162SOL     OW29947   4.450   4.548   6.185  0.2757 -0.3147 -0.4967
 6162SOL    HW129948   4.380   4.528   6.122 -0.5546  1.4923 -0.1649
 6162SOL    HW229949   4.444   4.475   6.247 -2.2677  1.3363  1.1894
 6163SOL     OW29950   2.696   1.202  14.394 -0.5223  0.3326  0.2342
 6163SOL    HW129951   2.725   1.292  14.406  1.1033  0.3326 -3.7277
 6163SOL    HW229952   2.609   1.218  14.358  0.2412 -1.3370 -2.3380
 6164SOL     OW29953   0.500   0.393   8.250 -1.0360 -0.0398 -0.1248
 6164SOL    HW129954   0.551   0.335   8.193 -0.7585  0.9413 -0.8641
 6164SOL    HW229955   0.562   0.457   8.284  0.3929 -0.3540 -2.1268
 6165SOL     OW29956   3.017   1.361  10.984  0.5630  0.3838 -0.4025
 6165SOL    HW129957   3.017   1.456  10.996  1.1528  0.0698  2.0781
 6165SOL    HW229958   2.929   1.343  10.952 -0.5975  0.9540  2.5171
 6166SOL     OW29959   0.191   4.095  15.916 -0.4436  0.3566  0.0274
 6166SOL    HW129960   0.098   4.097  15.893 -0.1925  0.9224 -0.9714
 6166SOL    HW229961   0.217   4.171  15.863  0.6844 -1.7836 -2.4909
 6167SOL     OW29962   1.647   3.797   0.663 -0.6897 -0.3537 -0.1053
 6167SOL    HW129963   1.618   3.820   0.575 -2.2615  0.8214  0.7152
 6167SOL    HW229964   1.742   3.797   0.653 -0.4173 -0.7123  2.3297
 6168SOL     OW29965   2.452   0.889   2.157  0.0981 -0.0742 -0.4683
 6168SOL    HW129966   2.363   0.873   2.125  0.2555  0.8816 -1.3744
 6168SOL    HW229967   2.437   0.874   2.251  1.0229  0.6020 -0.2167
 6169SOL     OW29968   1.090   3.792  11.926 -0.2499 -0.1115  0.1256
 6169SOL    HW129969   1.127   3.855  11.864 -0.8828  0.4654  0.3428
 6169SOL    HW229970   1.166   3.771  11.980 -1.6405 -1.8851  1.3820
 6170SOL     OW29971   0.263   0.727   6.956  0.0730  0.0640 -0.2696
 6170SOL    HW129972   0.235   0.818   6.956 -0.6111 -0.1393  1.6460
 6170SOL    HW229973   0.207   0.692   7.025 -0.4007  1.6475  0.1351
 6171SOL     OW29974   4.710   4.501   7.232 -0.5468 -0.2748  0.0721
 6171SOL    HW129975   4.703   4.542   7.146 -1.2947 -0.3816  0.0860
 6171SOL    HW229976   0.054   4.555   7.281 -1.1429 -0.5073  1.0788
 6172SOL     OW29977   2.094   3.872   6.821 -0.1473 -0.1230  0.5127
 6172SOL    HW129978   2.082   3.820   6.901 -4.2445 -0.9922 -0.6983
 6172SOL    HW229979   2.110   3.800   6.760  0.8137  0.0371  0.5671
 6173SOL     OW29980   3.820   3.974   7.834 -0.1246  0.1348 -0.0997
 6173SOL    HW129981   3.808   4.063   7.801  2.5053  0.6504  0.3467
 6173SOL    HW229982   3.903   3.975   7.882  0.1881 -1.4047 -0.6001
 6174SOL     OW29983   2.043   0.703   9.321 -0.0794  0.1893 -0.3621
 6174SOL    HW129984   2.080   0.697   9.409 -0.7840 -0.2088 -0.0873
 6174SOL    HW229985   2.012   0.794   9.323 -1.6666 -0.3622  0.1340
 6175SOL     OW29986   1.742   0.135   0.871  0.4505  0.1905  0.1130
 6175SOL    HW129987   1.781   0.220   0.853 -2.5778  1.6646  0.5355
 6175SOL    HW229988   1.648   0.153   0.865  0.7161  0.9854 -1.6800
 6176SOL     OW29989   1.088   0.498   6.865 -0.5210  0.3784 -0.2148
 6176SOL    HW129990   1.037   0.575   6.839 -2.4080 -0.6503  0.4480
 6176SOL    HW229991   1.040   0.468   6.942  1.5590 -0.1073  0.8949
 6177SOL     OW29992   0.735   2.826   7.292  0.2638  0.4621  0.1318
 6177SOL    HW129993   0.678   2.795   7.223 -0.0849  1.1660  0.0982
 6177SOL    HW229994   0.700   2.914   7.309 -0.7928 -0.3189  1.9608
 6178SOL     OW29995   2.259   1.425   4.285  0.2557  0.4325 -0.1051
 6178SOL    HW129996   2.318   1.475   4.228  1.6817  1.5026  2.2935
 6178SOL    HW229997   2.278   1.336   4.257 -0.5299  0.1873  0.1654
 6179SOL     OW29998   1.909   3.873  11.232  0.0834 -0.8458  0.0506
 6179SOL    HW129999   1.975   3.853  11.299  0.0453 -0.4257  0.2165
 6179SOL    HW230000   1.965   3.906  11.162 -0.3399 -1.8991 -0.7758
 6180SOL     OW30001   4.672   2.012   2.233  0.6659 -0.0703  0.1186
 6180SOL    HW130002   4.673   2.095   2.281  1.6727  0.1442 -0.2749
 6180SOL    HW230003   4.645   1.949   2.300  1.2179  2.1533  2.4536
 6181SOL     OW30004   4.682   2.047  16.951 -0.6131 -0.2511 -0.0163
 6181SOL    HW130005   4.667   1.988  17.025 -0.6627  0.7872  0.8149
 6181SOL    HW230006   0.048   2.013  16.923 -0.4237  0.7037 -0.6132
 6182SOL     OW30007   4.357   3.624   0.925  0.3361 -0.1431  0.1695
 6182SOL    HW130008   4.410   3.623   1.005  0.8712  1.3878 -0.1511
 6182SOL    HW230009   4.426   3.598   0.865 -0.1432 -0.8878 -0.0577
 6183SOL     OW30010   3.464   4.058   9.265  0.6148  0.5657  0.2387
 6183SOL    HW130011   3.464   4.084   9.173 -0.0359 -2.1693 -0.5357
 6183SOL    HW230012   3.390   3.997   9.261  1.6312 -0.7685  1.5774
 6184SOL     OW30013   2.856   3.213  11.317  0.2643 -0.5685 -0.0866
 6184SOL    HW130014   2.789   3.155  11.353 -1.3925  1.6029  0.3019
 6184SOL    HW230015   2.877   3.154  11.244  0.5815 -0.2571 -0.2482
 6185SOL     OW30016   3.250   1.629  17.155 -0.0180 -0.7236  0.5846
 6185SOL    HW130017   3.247   1.586  17.070 -2.5442 -1.6767  1.1490
 6185SOL    HW230018   3.342   1.617  17.178  0.2107  0.4790  0.2946
 6186SOL     OW30019   1.201   1.334  14.815 -0.2070 -0.0133 -0.4776
 6186SOL    HW130020   1.169   1.263  14.871  0.8809  1.4331  1.9860
 6186SOL    HW230021   1.274   1.292  14.770  2.1623  1.6258  1.8015
 6187SOL     OW30022   0.884   1.110   6.525  0.2585 -0.0565  0.4123
 6187SOL    HW130023   0.930   1.054   6.587  0.0690 -1.4311 -0.6991
 6187SOL    HW230024   0.796   1.075   6.530 -0.1559  1.2254  1.8534
 6188SOL     OW30025   4.576   1.610   3.380 -0.5296 -0.1402  0.2318
 6188SOL    HW130026   4.645   1.583   3.319  0.2123  2.3234 -0.0426
 6188SOL    HW230027   4.497   1.568   3.348  0.9014 -3.0967  0.6092
 6189SOL     OW30028   0.481   2.745  12.361 -0.3517  0.3891  0.0505
 6189SOL    HW130029   0.569   2.777  12.339 -0.2032 -0.7940 -1.0803
 6189SOL    HW230030   0.424   2.822  12.361 -1.0115 -0.0865 -2.4147
 6190SOL     OW30031   2.283   4.546   9.245 -0.9096  0.2285  0.7108
 6190SOL    HW130032   2.202   4.541   9.296 -1.0466 -2.3912  0.2571
 6190SOL    HW230033   2.282   4.634   9.208 -2.4050 -0.6794 -1.4296
 6191SOL     OW30034   2.221   1.993   8.389 -0.4735  0.5342 -0.2834
 6191SOL    HW130035   2.196   2.040   8.309 -2.4671  1.7875  1.0855
 6191SOL    HW230036   2.199   1.905   8.358  0.2889  0.5400 -0.8694
 6192SOL     OW30037   1.744   2.701  15.793  0.1077 -0.1735  0.5261
 6192SOL    HW130038   1.706   2.745  15.870 -0.5040 -1.0250  0.7120
 6192SOL    HW230039   1.826   2.665  15.826 -0.1026 -0.2743  0.9473
 6193SOL     OW30040   2.082   2.306  10.448  0.2710 -0.0650 -0.4137
 6193SOL    HW130041   2.150   2.260  10.398  0.9393  2.2630 -1.6465
 6193SOL    HW230042   2.109   2.292  10.539  0.2230  1.3272 -0.1816
 6194SOL     OW30043   4.329   4.129   6.890 -0.1331  0.3308  0.1322
 6194SOL    HW130044   4.394   4.062   6.869  1.7959  1.3832  2.6928
 6194SOL    HW230045   4.265   4.085   6.946  0.1932  0.8350  0.9105
 6195SOL     OW30046   3.409   0.819  14.765 -0.3956 -0.1412 -0.1677
 6195SOL    HW130047   3.347   0.886  14.736  0.2720 -0.1034 -1.5301
 6195SOL    HW230048   3.369   0.739  14.732 -2.3877  1.2681 -1.1435
 6196SOL     OW30049   2.349   0.755  10.831 -0.2831  0.4217 -0.3808
 6196SOL    HW130050   2.270   0.800  10.801 -0.4847 -0.4481 -1.1418
 6196SOL    HW230051   2.315   0.764  10.920 -1.8771 -0.0284 -0.9481
 6197SOL     OW30052   3.871   0.449  10.751  0.1806  1.0918 -0.0457
 6197SOL    HW130053   3.837   0.381  10.809 -0.8480 -0.4669 -2.4643
 6197SOL    HW230054   3.799   0.511  10.764 -1.4810 -0.8652  0.0255
 6198SOL     OW30055   4.109   0.551   2.575 -0.0392 -0.0637  0.3929
 6198SOL    HW130056   4.087   0.611   2.646  0.1330 -2.8645  2.8070
 6198SOL    HW230057   4.148   0.603   2.505  0.2009 -1.7293 -0.7049
 6199SOL     OW30058   2.105   0.083   8.184 -0.0398  0.5776  0.2707
 6199SOL    HW130059   2.184   0.102   8.234  0.8641  1.7924 -1.6525
 6199SOL    HW230060   2.044   0.141   8.229  0.9725  0.3225  1.9840
 6200SOL     OW30061   0.748   1.524   3.060  0.3513 -0.7795  0.6676
 6200SOL    HW130062   0.736   1.517   2.965 -1.8240 -0.8872  0.9329
 6200SOL    HW230063   0.662   1.490   3.083  0.2879 -0.3006  1.1253
 6201SOL     OW30064   4.378   0.182   2.519 -0.5827  0.0145 -0.2334
 6201SOL    HW130065   4.456   0.170   2.465  0.0295  0.0316  0.6449
 6201SOL    HW230066   4.394   0.265   2.564  2.6807 -0.8000  0.1040
 6202SOL     OW30067   3.850   0.937   6.349  0.4329 -0.6072  0.8245
 6202SOL    HW130068   3.915   0.961   6.283 -1.3679 -0.6650 -0.9778
 6202SOL    HW230069   3.796   0.879   6.294 -0.1217 -0.2750  1.0156
 6203SOL     OW30070   1.565   3.557  10.577 -0.5744  0.0968  0.6376
 6203SOL    HW130071   1.629   3.620  10.545 -0.6454  1.6489  3.6150
 6203SOL    HW230072   1.540   3.508  10.498 -1.0128  0.9731  0.2319
 6204SOL     OW30073   0.478   1.670   4.782  0.1773  0.3540  0.0081
 6204SOL    HW130074   0.552   1.725   4.808  0.4529 -1.0349  2.1468
 6204SOL    HW230075   0.502   1.609   4.713  0.9026  0.8513 -0.1745
 6205SOL     OW30076   2.002   2.178   8.522  0.1410 -0.5852  0.3881
 6205SOL    HW130077   1.978   2.093   8.559 -1.8779 -0.6836 -1.1164
 6205SOL    HW230078   1.988   2.170   8.427 -1.2102  3.0245  0.2534
 6206SOL     OW30079   0.798   3.155   0.843 -0.2575 -0.1906 -0.3366
 6206SOL    HW130080   0.745   3.142   0.764 -1.9170  2.5014  0.3083
 6206SOL    HW230081   0.871   3.094   0.834  0.1382  0.4090 -1.1625
 6207SOL     OW30082   2.523   1.233   3.583 -0.6419 -0.0893 -0.0125
 6207SOL    HW130083   2.438   1.251   3.624 -0.6221 -0.9557  0.4136
 6207SOL    HW230084   2.578   1.267   3.654  0.9947  1.0464 -1.8347
 6208SOL     OW30085   1.676   1.469   9.135 -0.2332  0.1035 -0.3285
 6208SOL    HW130086   1.684   1.376   9.115 -0.6389  0.3211 -1.4949
 6208SOL    HW230087   1.718   1.473   9.221  0.1370 -1.7418 -0.4158
 6209SOL     OW30088   0.423   3.103   4.860 -0.3226 -0.3027 -0.0354
 6209SOL    HW130089   0.461   3.125   4.944 -2.1333 -1.3342  1.0568
 6209SOL    HW230090   0.397   3.189   4.826  2.8867  0.3057 -0.9396
 6210SOL     OW30091   3.391   4.509   0.112 -0.0827  0.2582 -0.0338
 6210SOL    HW130092   3.326   4.572   0.081  0.3535  0.2547 -0.9468
 6210SOL    HW230093   3.428   4.473   0.031  0.5005  0.2476  0.2382
 6211SOL     OW30094   3.893   0.606   6.828 -0.3375  0.8669 -0.0184
 6211SOL    HW130095   3.804   0.573   6.842  0.8664 -2.9167 -1.5948
 6211SOL    HW230096   3.940   0.524   6.814  0.2611  1.2730 -0.3656
 6212SOL     OW30097   1.138   2.975   2.172 -0.0088 -0.2152 -0.1390
 6212SOL    HW130098   1.062   2.992   2.117  0.0128 -0.3605 -0.2163
 6212SOL    HW230099   1.105   2.995   2.259 -0.4058 -2.5777  0.2589
 6213SOL     OW30100   1.760   1.715   6.844 -0.3573  0.4312 -0.0700
 6213SOL    HW130101   1.826   1.765   6.797 -0.8023  0.4126 -0.7139
 6213SOL    HW230102   1.795   1.626   6.854  0.3624  0.8906  1.6183
 6214SOL     OW30103   0.279   4.169  14.172 -0.1723  0.2427  0.1400
 6214SOL    HW130104   0.223   4.194  14.098 -1.5785 -3.2937  0.0489
 6214SOL    HW230105   0.215   4.136  14.236  0.8302 -0.2548  0.8839
 6215SOL     OW30106   4.658   2.108  10.094  0.3973  0.6520 -0.8916
 6215SOL    HW130107   4.563   2.114  10.087  0.1789 -1.5975  0.2958
 6215SOL    HW230108   4.666   2.048  10.168 -1.6716  2.2620  0.6359
 6216SOL     OW30109   3.660   2.013   3.790 -0.2721  0.0520  0.5306
 6216SOL    HW130110   3.745   2.049   3.817 -0.2932 -0.9796  1.9653
 6216SOL    HW230111   3.629   2.062   3.714  3.4118 -0.2264 -1.1562
 6217SOL     OW30112   0.660   4.309   8.596  0.0723 -0.0864 -0.0606
 6217SOL    HW130113   0.741   4.321   8.547 -0.5641 -0.9965 -1.3457
 6217SOL    HW230114   0.678   4.351   8.680 -5.6536 -1.5070  1.8877
 6218SOL     OW30115   4.475   3.948   3.199  0.2319 -0.3938  0.0554
 6218SOL    HW130116   4.381   3.937   3.188 -0.2468  2.4365  1.3753
 6218SOL    HW230117   4.492   3.984   3.112 -0.0709  1.2258  0.6703
 6219SOL     OW30118   3.095   2.973  12.312  0.2093  0.3926 -0.3106
 6219SOL    HW130119   3.010   2.931  12.324  0.0357  0.4932 -1.2179
 6219SOL    HW230120   3.091   3.047  12.372 -1.3376  0.0516 -0.0138
 6220SOL     OW30121   2.117   3.922   9.977 -0.5424  0.6429 -0.2839
 6220SOL    HW130122   2.065   3.842   9.967  0.9926 -0.2344 -1.2848
 6220SOL    HW230123   2.147   3.923   9.886  0.7693  1.2983  0.1713
 6221SOL     OW30124   3.994   2.908   8.924  0.0828  0.4048 -0.0844
 6221SOL    HW130125   4.063   2.931   8.863 -0.1680  1.7201  0.1383
 6221SOL    HW230126   4.052   2.846   8.969  0.1507 -0.0416 -0.7891
 6222SOL     OW30127   1.931   0.737   7.081  0.3302 -0.3771 -0.1398
 6222SOL    HW130128   1.896   0.663   7.032  1.0039 -1.7257  1.4344
 6222SOL    HW230129   2.022   0.734   7.052  1.2824  0.3674  2.7405
 6223SOL     OW30130   2.658   4.400   1.624  0.3661 -0.0092  0.0081
 6223SOL    HW130131   2.636   4.407   1.531 -1.5567 -0.6831  0.4227
 6223SOL    HW230132   2.577   4.426   1.668  0.4393 -1.4719  1.0061
 6224SOL     OW30133   2.889   1.132   2.583 -0.2723  0.2433  0.2898
 6224SOL    HW130134   2.948   1.171   2.647 -3.4734 -0.1410  3.5004
 6224SOL    HW230135   2.874   1.209   2.530  4.5903 -0.2243 -1.7615
 6225SOL     OW30136   4.354   1.937  12.774 -0.5035 -0.3168 -0.0389
 6225SOL    HW130137   4.366   1.844  12.758  0.8457 -0.3454  1.1765
 6225SOL    HW230138   4.344   1.948  12.868  3.5711  0.2678  0.3242
 6226SOL     OW30139   2.894   2.940   4.092  0.8166 -0.1295  0.1940
 6226SOL    HW130140   2.861   2.868   4.039 -0.2640 -0.4385  1.2966
 6226SOL    HW230141   2.839   3.007   4.052 -1.1612 -1.6362  0.3736
 6227SOL     OW30142   3.173   4.126  16.308  0.0170  0.0816  0.7058
 6227SOL    HW130143   3.210   4.064  16.246  0.5027 -0.2923  1.3708
 6227SOL    HW230144   3.224   4.096  16.383 -1.7229  0.2894  1.9642
 6228SOL     OW30145   0.250   1.602   6.211  0.0868  0.1982  0.0610
 6228SOL    HW130146   0.323   1.554   6.250 -0.7214  1.1448  2.7531
 6228SOL    HW230147   0.280   1.689   6.185  1.1268 -0.7922 -2.0528
 6229SOL     OW30148   3.214   2.791   4.576 -0.3658 -0.2088  0.0331
 6229SOL    HW130149   3.173   2.706   4.561  0.8298 -0.4920 -1.6028
 6229SOL    HW230150   3.146   2.845   4.535 -0.4489 -0.8436 -0.6677
 6230SOL     OW30151   2.972   3.228   5.751 -0.5603  0.8933  0.0614
 6230SOL    HW130152   2.961   3.311   5.705 -1.0236  1.4803  1.2294
 6230SOL    HW230153   3.015   3.270   5.826  3.9714 -2.8433 -0.4723
 6231SOL     OW30154   0.195   3.962   2.639 -0.2810 -0.2122  0.1731
 6231SOL    HW130155   0.224   3.946   2.729  1.7432  2.4346 -0.0122
 6231SOL    HW230156   0.279   3.975   2.595  0.0456 -2.0505  0.2453
 6232SOL     OW30157   1.156   2.143   3.762 -0.2849  0.3328 -0.0335
 6232SOL    HW130158   1.147   2.193   3.844 -1.7079  0.4712 -0.2692
 6232SOL    HW230159   1.249   2.121   3.758 -0.1786  0.6017  0.7880
 6233SOL     OW30160   3.589   3.263  15.235  0.2261  0.3963  0.0332
 6233SOL    HW130161   3.530   3.226  15.170  0.4912 -3.0112  1.7323
 6233SOL    HW230162   3.606   3.193  15.299  1.4863  1.7873  1.2187
 6234SOL     OW30163   2.577   4.038   4.551 -0.3475 -0.0113  0.2043
 6234SOL    HW130164   2.644   4.105   4.554 -0.4274 -0.0235  1.9357
 6234SOL    HW230165   2.500   4.071   4.505  0.8253 -0.9548 -2.4492
 6235SOL     OW30166   2.675   2.781   0.216  0.1865  0.0544 -0.0402
 6235SOL    HW130167   2.696   2.793   0.123  2.0052  0.8783  0.4740
 6235SOL    HW230168   2.749   2.827   0.257 -0.6154 -0.0332  1.4732
 6236SOL     OW30169   4.124   3.432   3.899 -0.7791 -0.3663  0.1068
 6236SOL    HW130170   4.190   3.465   3.838  0.3432 -0.4568  1.2684
 6236SOL    HW230171   4.043   3.482   3.892 -1.6283 -1.6623  0.6350
 6237SOL     OW30172   2.387   1.529   0.278  0.2655  0.0932 -0.2460
 6237SOL    HW130173   2.350   1.592   0.217 -2.1677 -1.3793 -0.3113
 6237SOL    HW230174   2.311   1.497   0.326  0.1189  1.3653  0.3647
 6238SOL     OW30175   3.793   1.111   6.004  0.3124 -0.0650 -0.2954
 6238SOL    HW130176   3.880   1.113   6.046  0.6838 -2.3092 -0.9726
 6238SOL    HW230177   3.807   1.102   5.910  0.6109 -0.3757 -0.2214
 6239SOL     OW30178   4.151   1.520   2.824 -0.1705  0.1727  0.3524
 6239SOL    HW130179   4.187   1.597   2.779  0.9707  0.3837  1.6573
 6239SOL    HW230180   4.058   1.538   2.807  0.2225  2.0660  0.1472
 6240SOL     OW30181   1.178   0.265   3.660  0.3493 -0.2101 -0.1762
 6240SOL    HW130182   1.138   0.253   3.574 -0.0234 -1.9338  0.2465
 6240SOL    HW230183   1.105   0.239   3.717  0.7605  1.4353  1.1108
 6241SOL     OW30184   0.412   2.730  17.086 -0.0508 -0.4959 -0.4050
 6241SOL    HW130185   0.393   2.801  17.147  0.2661 -0.0151 -0.8644
 6241SOL    HW230186   0.399   2.649  17.137 -1.7604  0.4787  0.7081
 6242SOL     OW30187   3.479   4.514   2.763 -0.9564  0.0219 -0.2067
 6242SOL    HW130188   3.465   4.435   2.815 -2.2244  0.4224  0.0588
 6242SOL    HW230189   3.479   4.575   2.837  2.9859 -0.1908 -0.0609
 6243SOL     OW30190   0.867   1.414   4.758 -0.8298  0.2707 -0.2500
 6243SOL    HW130191   0.879   1.487   4.697 -1.8977  0.5480 -0.1240
 6243SOL    HW230192   0.853   1.451   4.845  0.6293 -0.1625  0.1798
 6244SOL     OW30193   0.787   0.598   6.384  0.3931  0.2590 -0.6312
 6244SOL    HW130194   0.775   0.548   6.465 -0.0622  0.1321 -0.7763
 6244SOL    HW230195   0.833   0.530   6.335  0.6414  0.4327 -0.6373
 6245SOL     OW30196   2.146   4.528  14.312 -0.4504  0.0561  0.3113
 6245SOL    HW130197   2.064   4.498  14.274 -1.3386  1.2159  1.3125
 6245SOL    HW230198   2.203   4.453  14.294  1.5689  1.3374  1.3481
 6246SOL     OW30199   3.092   1.727  10.710  0.3629  0.2184 -0.3141
 6246SOL    HW130200   3.106   1.642  10.668  0.6300  0.1879 -0.1667
 6246SOL    HW230201   3.180   1.764  10.702 -0.2053  1.8749  1.2656
 6247SOL     OW30202   2.695   4.421  16.316 -0.4062 -0.1384 -0.0716
 6247SOL    HW130203   2.782   4.462  16.319  0.2110 -1.6354  2.1626
 6247SOL    HW230204   2.710   4.342  16.265  2.5544 -0.5253  1.3687
 6248SOL     OW30205   4.608   1.030   6.009  0.5531  0.0808  0.3251
 6248SOL    HW130206   4.592   1.033   5.915  1.4231  0.2536  0.1827
 6248SOL    HW230207   4.589   1.118   6.041 -4.0110  0.4737 -3.3857
 6249SOL     OW30208   4.632   4.504  11.986 -0.2164  0.4000  0.5292
 6249SOL    HW130209   4.546   4.484  12.024  0.3339 -1.6458  0.7150
 6249SOL    HW230210   4.677   4.473  12.064 -1.3549 -2.4373  0.0847
 6250SOL     OW30211   0.476   0.357  15.402  0.5084  0.0252  0.3011
 6250SOL    HW130212   0.473   0.282  15.343  3.1185 -2.4635  3.2983
 6250SOL    HW230213   0.572   0.358  15.406  0.4458 -1.8261  2.3234
 6251SOL     OW30214   2.560   4.024   1.144 -0.4466 -0.2011 -0.6162
 6251SOL    HW130215   2.624   4.048   1.077 -2.3204  1.0970 -1.9352
 6251SOL    HW230216   2.594   3.952   1.198 -1.9097 -0.2301  0.2510
 6252SOL     OW30217   1.477   3.801   0.406  0.0935  0.3082  0.1799
 6252SOL    HW130218   1.454   3.709   0.392 -1.0919  0.7534 -0.7185
 6252SOL    HW230219   1.401   3.826   0.459 -1.2694  2.5057 -2.8540
 6253SOL     OW30220   3.277   0.024   9.506 -0.4267  0.4334 -0.1180
 6253SOL    HW130221   3.313   4.706   9.587  0.3158  0.9200 -0.2323
 6253SOL    HW230222   3.244   4.661   9.468 -0.5708 -0.2482  1.4721
 6254SOL     OW30223   4.135   4.501   7.103 -0.4491 -0.4733  0.6826
 6254SOL    HW130224   4.072   4.429   7.110 -0.1559 -0.7870  0.0889
 6254SOL    HW230225   4.217   4.468   7.140 -0.1477 -0.7395 -0.2214
 6255SOL     OW30226   2.530   3.956   2.003  0.2419  0.7175 -0.5135
 6255SOL    HW130227   2.480   3.940   1.923 -0.2749  0.8523 -0.2102
 6255SOL    HW230228   2.521   4.050   2.013  0.7473  0.7574 -0.3999
 6256SOL     OW30229   1.998   4.577   4.790  0.2590  0.1518 -0.2034
 6256SOL    HW130230   2.037   4.585   4.877 -2.1040 -0.5723  0.9430
 6256SOL    HW230231   1.910   4.610   4.810 -1.5066 -3.0077 -2.6925
 6257SOL     OW30232   4.019   2.133   4.167  0.4289  0.4148 -0.1966
 6257SOL    HW130233   3.985   2.044   4.161  0.5547  0.5222 -2.4961
 6257SOL    HW230234   3.968   2.187   4.106  1.2452 -0.9102 -2.0754
 6258SOL     OW30235   0.273   3.202  16.491 -0.2517 -0.4133 -0.6167
 6258SOL    HW130236   0.195   3.182  16.439 -0.1605  1.2257 -1.3699
 6258SOL    HW230237   0.261   3.295  16.510 -0.9425 -0.5092 -0.5849
 6259SOL     OW30238   3.652   2.210   9.020  0.3239  0.0485 -0.5786
 6259SOL    HW130239   3.634   2.197   9.113  1.7598 -1.0424 -0.4498
 6259SOL    HW230240   3.691   2.297   9.023 -0.8463  0.4215  3.4368
 6260SOL     OW30241   2.881   1.042   7.023 -0.3109 -0.2537 -0.1473
 6260SOL    HW130242   2.908   1.022   6.933 -0.4479 -1.2636  0.0399
 6260SOL    HW230243   2.958   1.023   7.077 -0.7742  0.3469  0.7156
 6261SOL     OW30244   4.321   4.341  10.145 -0.1532  0.0979 -0.2521
 6261SOL    HW130245   4.358   4.291  10.072  1.2199  1.4515 -0.4850
 6261SOL    HW230246   4.255   4.277  10.174 -0.1686 -0.5454 -1.6901
 6262SOL     OW30247   1.941   1.430   2.930 -0.9006  0.0305 -0.0733
 6262SOL    HW130248   2.017   1.407   2.982  0.6143  1.0089 -1.8556
 6262SOL    HW230249   1.941   1.359   2.865 -1.4917 -0.2751  0.2537
 6263SOL     OW30250   1.111   1.372   9.603 -0.1951 -0.2542 -0.6163
 6263SOL    HW130251   1.189   1.326   9.634 -1.1031 -1.3409  0.0520
 6263SOL    HW230252   1.149   1.368   9.515  0.7727  0.2436 -0.2241
 6264SOL     OW30253   0.789   1.668   9.749  0.3061 -0.2341  0.1782
 6264SOL    HW130254   0.765   1.583   9.712 -0.9314 -0.3022  1.1247
 6264SOL    HW230255   0.884   1.669   9.751  0.2535  3.2523  0.2146
 6265SOL     OW30256   1.356   4.537   3.164  0.5645  0.0956 -0.2667
 6265SOL    HW130257   1.392   4.515   3.250  0.0418  1.4466  0.3147
 6265SOL    HW230258   1.266   4.529   3.197 -0.5889  0.7683 -3.3138
 6266SOL     OW30259   0.468   2.486  10.706 -0.2235 -0.1208  0.9857
 6266SOL    HW130260   0.562   2.468  10.700  0.1671  2.3587 -0.5763
 6266SOL    HW230261   0.449   2.528  10.622  1.1488 -2.3288 -0.4359
 6267SOL     OW30262   0.375   3.610   8.016 -0.0384 -0.0302 -0.0834
 6267SOL    HW130263   0.328   3.553   8.076 -0.5470 -0.0468 -0.4971
 6267SOL    HW230264   0.360   3.556   7.938  2.0511 -1.0033  0.1653
 6268SOL     OW30265   1.775   3.329   0.253  0.0636 -0.0734  0.5782
 6268SOL    HW130266   1.856   3.292   0.218  0.5230  0.1233  1.4318
 6268SOL    HW230267   1.812   3.365   0.334  2.9846 -0.4653 -0.5813
 6269SOL     OW30268   2.054   3.707   5.519 -0.2983 -0.1630 -0.1304
 6269SOL    HW130269   1.994   3.758   5.464  1.1625 -0.2330 -1.7982
 6269SOL    HW230270   2.121   3.772   5.539  0.8246 -1.0899 -0.9078
 6270SOL     OW30271   1.264   2.980   5.451  0.2970 -0.1127 -0.1223
 6270SOL    HW130272   1.324   3.053   5.441  0.3397 -0.1878 -0.4196
 6270SOL    HW230273   1.274   2.941   5.364 -0.3282  2.3679 -1.2986
 6271SOL     OW30274   3.388   2.401   2.575  0.4440 -0.4672 -0.3148
 6271SOL    HW130275   3.403   2.437   2.662 -0.7936 -0.6010 -0.0471
 6271SOL    HW230276   3.387   2.481   2.521 -1.5435 -0.1396  0.2037
 6272SOL     OW30277   0.462   1.324   2.775 -0.5988 -0.4431 -0.2001
 6272SOL    HW130278   0.447   1.363   2.688 -1.1907 -1.2340 -0.4485
 6272SOL    HW230279   0.503   1.241   2.750 -3.0446 -1.1049 -2.0187
 6273SOL     OW30280   2.645   0.099   7.815 -0.3717 -0.4512 -0.2839
 6273SOL    HW130281   2.554   0.070   7.814  0.0677 -1.8220 -0.9110
 6273SOL    HW230282   2.683   0.037   7.753 -0.8801 -1.2215  0.1652
 6274SOL     OW30283   4.271   0.124   4.121 -0.1769  0.0289 -0.6966
 6274SOL    HW130284   4.327   0.184   4.170 -0.4926 -0.0298 -0.2659
 6274SOL    HW230285   4.325   0.046   4.125 -2.8700 -1.7074  1.7049
 6275SOL     OW30286   3.178   2.493   7.723 -0.2342  0.1652  0.2536
 6275SOL    HW130287   3.217   2.566   7.675 -2.0279  0.0321 -1.4280
 6275SOL    HW230288   3.154   2.437   7.648 -1.2009 -0.5348  1.0890
 6276SOL     OW30289   0.461   0.529   6.492 -0.4781  0.2239 -0.6462
 6276SOL    HW130290   0.399   0.561   6.558 -0.4252 -0.2768 -0.3563
 6276SOL    HW230291   0.493   0.616   6.467  1.7664 -0.8592 -1.5002
 6277SOL     OW30292   2.116   2.876   1.602 -0.4977  0.8830 -0.1392
 6277SOL    HW130293   2.167   2.811   1.552  1.3815  0.5781  2.1902
 6277SOL    HW230294   2.026   2.847   1.585 -0.6369  1.5684 -0.5648
 6278SOL     OW30295   3.777   3.418   4.680  0.0681 -0.2397 -0.2026
 6278SOL    HW130296   3.734   3.472   4.614  0.2013 -3.2324 -2.7414
 6278SOL    HW230297   3.837   3.380   4.616 -1.7453  0.6181 -2.4117
 6279SOL     OW30298   0.775   4.100   7.409  0.0524  1.1334  0.6144
 6279SOL    HW130299   0.693   4.052   7.418  0.7840 -0.0556  0.9046
 6279SOL    HW230300   0.825   4.075   7.487 -1.2296 -1.9078  0.4417
 6280SOL     OW30301   0.552   2.327   2.927  1.0571  0.2446 -0.2463
 6280SOL    HW130302   0.602   2.297   3.002  0.5541  0.1050  0.0361
 6280SOL    HW230303   0.499   2.402   2.955 -1.2953 -1.5012 -0.0573
 6281SOL     OW30304   2.267   1.230   5.771 -0.1581  0.1976  0.0081
 6281SOL    HW130305   2.290   1.293   5.703 -0.1560 -0.0723 -0.2420
 6281SOL    HW230306   2.296   1.150   5.727  3.7401  1.0620  1.0319
 6282SOL     OW30307   3.234   4.360   7.701  0.1337  0.1797  0.2666
 6282SOL    HW130308   3.268   4.346   7.613  0.3709  2.1510  0.0267
 6282SOL    HW230309   3.312   4.395   7.745  0.6672 -0.8135  0.1128
 6283SOL     OW30310   4.652   2.281   8.447 -0.0861 -0.7802  0.5718
 6283SOL    HW130311   4.615   2.345   8.508 -0.5591  0.4855 -1.0318
 6283SOL    HW230312   0.021   2.313   8.422  0.4564 -1.4498  1.6289
 6284SOL     OW30313   3.342   2.823   7.932  0.6442 -0.7406  0.4277
 6284SOL    HW130314   3.387   2.907   7.933 -1.4559  0.3769 -1.1131
 6284SOL    HW230315   3.383   2.780   8.007 -0.3380 -1.0808  0.7704
 6285SOL     OW30316   1.864   2.981   0.417  0.0666  0.2554 -0.5871
 6285SOL    HW130317   1.885   3.009   0.506 -3.1799  0.4010  0.1136
 6285SOL    HW230318   1.777   3.013   0.393 -1.7989 -4.5940 -0.1816
 6286SOL     OW30319   1.895   0.123   3.691  0.3544 -0.3139  1.1237
 6286SOL    HW130320   1.954   0.145   3.762  1.1776 -3.5077  1.4212
 6286SOL    HW230321   1.955   0.064   3.646  0.2397  2.4311 -2.6797
 6287SOL     OW30322   2.249   0.238  10.291 -0.0084 -0.1340 -0.2124
 6287SOL    HW130323   2.207   0.249  10.206 -2.8241  1.0073  1.3534
 6287SOL    HW230324   2.330   0.288  10.279  0.7334 -1.1703  0.4924
 6288SOL     OW30325   3.201   0.484  17.562  0.9330  0.3909  0.3581
 6288SOL    HW130326   3.250   0.495  17.643  1.8730 -1.5408  0.0406
 6288SOL    HW230327   3.132   0.549  17.573  1.8483  1.4243 -0.0052
 6289SOL     OW30328   3.340   1.032   1.561  0.0804 -0.2891 -0.6242
 6289SOL    HW130329   3.425   1.041   1.518  0.4999 -1.1155  0.0251
 6289SOL    HW230330   3.306   0.955   1.515 -0.4840 -0.3494 -0.1115
 6290SOL     OW30331   2.436   3.980   3.834  0.6503  0.0039 -0.3770
 6290SOL    HW130332   2.387   3.942   3.907 -0.6688 -3.2553 -2.9345
 6290SOL    HW230333   2.501   3.914   3.811  0.1480 -1.2178  1.7037
 6291SOL     OW30334   1.486   0.822   6.208  0.7360  0.1610  0.2441
 6291SOL    HW130335   1.416   0.813   6.143  0.4589 -3.2470  1.0103
 6291SOL    HW230336   1.509   0.911   6.180  2.7199 -0.6434 -0.6513
 6292SOL     OW30337   3.144   0.640   8.267 -0.3470  0.0940  0.0248
 6292SOL    HW130338   3.195   0.569   8.306  0.7286  1.4940  1.1752
 6292SOL    HW230339   3.062   0.595   8.246 -0.0064  0.9873 -3.1437
 6293SOL     OW30340   1.806   3.793   8.327  0.0938  0.0575  0.0291
 6293SOL    HW130341   1.750   3.743   8.387 -0.8030  2.1417  0.9429
 6293SOL    HW230342   1.781   3.755   8.243 -0.3310  2.1280 -0.7720
 6294SOL     OW30343   0.307   4.268   3.725  0.1073  0.2027  0.0168
 6294SOL    HW130344   0.326   4.174   3.732 -0.8572  0.1627  2.2130
 6294SOL    HW230345   0.389   4.299   3.688 -0.6938  0.9430 -1.0979
 6295SOL     OW30346   2.598   0.164   2.205  0.3106  0.1026 -0.4094
 6295SOL    HW130347   2.636   0.078   2.189  4.0126  1.0969  2.7585
 6295SOL    HW230348   2.534   0.159   2.135  0.1702 -2.5597 -0.0564
 6296SOL     OW30349   4.395   3.125   9.150  0.3521 -0.0437  0.0297
 6296SOL    HW130350   4.384   3.035   9.179  0.0557  0.3091  1.0125
 6296SOL    HW230351   4.441   3.159   9.226  2.3180 -1.1267 -0.6877
 6297SOL     OW30352   0.462   1.902  11.789 -0.5047  0.2726  0.2528
 6297SOL    HW130353   0.386   1.881  11.843 -0.4199 -0.3635  0.1262
 6297SOL    HW230354   0.462   1.994  11.816 -1.4072  0.2558  0.3169
 6298SOL     OW30355   1.877   2.145  10.964 -0.6584  0.9172  0.7392
 6298SOL    HW130356   1.811   2.075  10.960  1.5625 -1.1797  0.6412
 6298SOL    HW230357   1.911   2.151  10.875  0.0565  0.2587  0.9691
 6299SOL     OW30358   1.851   1.002  11.189  0.1857  0.3936 -0.3206
 6299SOL    HW130359   1.882   1.013  11.099  0.6269  3.6148  0.2247
 6299SOL    HW230360   1.821   0.911  11.191 -0.0987  0.5014  0.3529
 6300SOL     OW30361   1.141   1.992   9.152  0.9440  0.1382 -0.0189
 6300SOL    HW130362   1.125   2.075   9.105  1.1360 -0.6914 -1.5476
 6300SOL    HW230363   1.049   1.964   9.149  1.6383 -2.0498 -0.5159
 6301SOL     OW30364   3.121   3.505  10.043 -0.1102 -0.2148  0.0972
 6301SOL    HW130365   3.033   3.520  10.010 -0.4796 -2.8512 -0.0921
 6301SOL    HW230366   3.149   3.586  10.085  0.8741 -1.1570  1.2899
 6302SOL     OW30367   1.298   0.563  11.875  0.4521 -0.0209 -0.7477
 6302SOL    HW130368   1.271   0.472  11.876  0.5033 -0.0342 -0.5481
 6302SOL    HW230369   1.242   0.601  11.807 -2.1854  0.6224  1.7660
 6303SOL     OW30370   4.522   0.527   5.429 -0.3998 -0.3052 -0.4217
 6303SOL    HW130371   4.526   0.439   5.467  0.1454 -0.5059 -0.9369
 6303SOL    HW230372   4.579   0.519   5.353  1.4720  1.0037  0.8501
 6304SOL     OW30373   0.470   2.015   3.112  0.1263  0.0483 -0.0968
 6304SOL    HW130374   0.463   2.037   3.019 -1.1427  2.2148  0.5097
 6304SOL    HW230375   0.555   1.973   3.122 -0.2339 -1.2578 -2.3346
 6305SOL     OW30376   4.205   0.059   7.586  0.1804  0.4607 -0.2626
 6305SOL    HW130377   4.131   0.006   7.615 -0.2602  0.9351 -0.5217
 6305SOL    HW230378   4.226   0.016   7.503  0.4920 -0.5944  0.3626
 6306SOL     OW30379   3.459   2.274  17.653  0.2344  0.3959  0.0151
 6306SOL    HW130380   3.523   2.276   0.049 -2.4696 -0.6637  2.4970
 6306SOL    HW230381   3.454   2.179  17.662 -0.1813  0.1971 -2.5493
 6307SOL     OW30382   3.057   1.289  17.261  0.2227 -0.4238 -0.3699
 6307SOL    HW130383   3.045   1.282  17.166 -1.5356 -0.3293 -0.1590
 6307SOL    HW230384   2.969   1.268  17.291 -0.0075  0.3700 -0.5043
 6308SOL     OW30385   1.736   3.805  15.399  0.1078  0.3499  0.5294
 6308SOL    HW130386   1.822   3.846  15.392  0.7854 -0.6409  3.2522
 6308SOL    HW230387   1.681   3.881  15.379  0.8857  0.4189 -1.3225
 6309SOL     OW30388   0.219   1.058   6.971  0.3587 -0.1447  0.5373
 6309SOL    HW130389   0.131   1.068   7.006 -0.1946 -1.7598 -0.3556
 6309SOL    HW230390   0.212   1.074   6.877 -0.1721 -0.0304  0.6000
 6310SOL     OW30391   2.253   0.339   9.545 -0.3069  0.1197 -0.3835
 6310SOL    HW130392   2.292   0.375   9.624 -1.5087  1.4952 -0.4267
 6310SOL    HW230393   2.192   0.409   9.524  1.4928  1.5672 -0.7845
 6311SOL     OW30394   1.860   0.792   4.533 -0.3993  0.1238 -0.0170
 6311SOL    HW130395   1.855   0.697   4.527  0.1645  0.1585 -1.0102
 6311SOL    HW230396   1.929   0.808   4.598  0.5476  0.3242 -1.0804
 6312SOL     OW30397   3.092   4.002   9.306  0.5882  0.3897 -0.0604
 6312SOL    HW130398   3.022   3.962   9.254  0.2930 -1.7316  1.9803
 6312SOL    HW230399   3.104   3.923   9.358  0.3800  0.8850  0.7403
 6313SOL     OW30400   1.521   2.558   7.051 -0.4182 -0.0499 -0.3913
 6313SOL    HW130401   1.440   2.585   7.095  1.5887 -0.0698  3.2971
 6313SOL    HW230402   1.552   2.508   7.127  0.6368 -0.3729 -1.0435
 6314SOL     OW30403   1.758   0.302  14.921  0.1695 -0.1225 -0.1984
 6314SOL    HW130404   1.691   0.262  14.865 -2.4578  1.1034  2.0916
 6314SOL    HW230405   1.816   0.229  14.943  0.1380 -0.2964 -0.6785
 6315SOL     OW30406   3.198   2.502   5.014 -0.2780 -0.2676  0.9589
 6315SOL    HW130407   3.122   2.549   5.049  0.8513  2.2778  0.0406
 6315SOL    HW230408   3.156   2.442   4.952 -0.6211  1.9893 -0.9931
 6316SOL     OW30409   3.094   4.156   4.680  0.0500  0.3602  0.7333
 6316SOL    HW130410   3.025   4.129   4.619  1.3273 -1.9321  0.2691
 6316SOL    HW230411   3.127   4.070   4.707 -0.1452  0.3082  0.8029
 6317SOL     OW30412   1.423   2.012   8.851  0.2477  0.1742  0.8651
 6317SOL    HW130413   1.396   1.922   8.830  1.3842  0.1003 -0.2910
 6317SOL    HW230414   1.491   1.999   8.918  0.7304  1.3786  0.6039
 6318SOL     OW30415   3.852   3.745   2.502  0.0727 -0.7277  0.2307
 6318SOL    HW130416   3.929   3.688   2.502 -0.6182 -1.6583 -1.5476
 6318SOL    HW230417   3.788   3.674   2.504 -2.1794  1.2889  0.3335
 6319SOL     OW30418   4.006   3.109   5.481 -0.1406  0.4970 -0.5088
 6319SOL    HW130419   4.072   3.158   5.433  0.0659  0.1302 -0.6011
 6319SOL    HW230420   4.025   3.019   5.454  1.4817  0.3811  1.0394
 6320SOL     OW30421   1.757   0.414  10.078 -0.1324  0.3974  0.2333
 6320SOL    HW130422   1.787   0.485  10.135 -1.8217  0.2654  1.2906
 6320SOL    HW230423   1.725   0.347  10.138  0.3840  0.0753  0.1526
 6321SOL     OW30424   4.635   1.044  13.718  0.3828 -0.7527 -0.6983
 6321SOL    HW130425   4.665   1.133  13.699  1.0804 -0.9244 -0.3889
 6321SOL    HW230426   4.716   1.008  13.753 -0.7796 -0.2359  2.4943
 6322SOL     OW30427   2.100   2.398   7.913  0.5103 -0.5518 -0.1320
 6322SOL    HW130428   2.100   2.326   7.976 -0.7990  0.0433  0.5467
 6322SOL    HW230429   2.069   2.351   7.836  0.8418  0.4404 -0.8751
 6323SOL     OW30430   2.212   2.810  16.088  0.5834 -0.0468  0.3994
 6323SOL    HW130431   2.291   2.858  16.114  0.0819  0.0631  1.7362
 6323SOL    HW230432   2.193   2.834  15.998 -0.2807  2.1058  1.1568
 6324SOL     OW30433   2.593   1.016   0.739 -0.0093  0.0096 -0.4415
 6324SOL    HW130434   2.527   0.951   0.712  2.4724 -3.6829  2.5086
 6324SOL    HW230435   2.530   1.089   0.740  0.5007  0.3997  1.8572
 6325SOL     OW30436   4.281   3.371   0.981  0.4505  0.3585 -0.3018
 6325SOL    HW130437   4.299   3.453   0.935 -1.5636  0.4960 -0.8127
 6325SOL    HW230438   4.278   3.395   1.074 -1.3303 -1.8378  0.1975
 6326SOL     OW30439   2.022   0.296   4.426 -0.1271  0.0613 -0.5678
 6326SOL    HW130440   1.994   0.204   4.429 -0.0392  0.0184 -1.1884
 6326SOL    HW230441   2.081   0.291   4.351  1.0197  2.8329  0.1902
 6327SOL     OW30442   3.049   3.294  13.976 -0.3334 -0.0502  0.0904
 6327SOL    HW130443   3.038   3.344  13.895  0.6577 -1.1258 -0.7106
 6327SOL    HW230444   3.069   3.210  13.934 -0.1509  1.5701 -3.0809
 6328SOL     OW30445   2.950   2.145   8.511  0.0686 -0.3282  0.0701
 6328SOL    HW130446   2.949   2.240   8.497  2.4429  0.0420  2.5246
 6328SOL    HW230447   3.028   2.138   8.565 -0.3151 -1.6016  0.4571
 6329SOL     OW30448   3.464   2.115   8.054 -0.1851  0.3495 -0.0590
 6329SOL    HW130449   3.479   2.088   8.145 -0.7602  0.1828 -0.0129
 6329SOL    HW230450   3.458   2.031   8.009 -2.7401  0.0235  0.8945
 6330SOL     OW30451   2.058   0.138   4.932 -0.4270  0.0658  0.3916
 6330SOL    HW130452   2.079   0.173   4.845  0.7477 -1.3323  0.1028
 6330SOL    HW230453   1.966   0.112   4.935  0.6228 -3.3934  2.0512
 6331SOL     OW30454   2.489   3.847   7.456 -0.0632  0.0012  0.1017
 6331SOL    HW130455   2.492   3.775   7.519 -0.4927  0.3387  0.5124
 6331SOL    HW230456   2.529   3.916   7.510 -0.6975  0.7594 -0.4036
 6332SOL     OW30457   2.397   3.768  11.368 -0.1156 -0.7476  0.6453
 6332SOL    HW130458   2.403   3.828  11.443 -0.9055 -1.4363  1.2619
 6332SOL    HW230459   2.373   3.684  11.407 -2.8457  1.1085  2.9870
 6333SOL     OW30460   3.227   1.880   1.338 -0.1364 -0.2865  0.2351
 6333SOL    HW130461   3.137   1.855   1.317 -0.0811 -1.0023  0.8577
 6333SOL    HW230462   3.278   1.806   1.305  0.2815 -0.1657  0.6161
 6334SOL     OW30463   1.500   4.110   4.967  0.5211 -0.8339 -0.4800
 6334SOL    HW130464   1.591   4.111   4.997  0.7094 -0.7535 -1.0617
 6334SOL    HW230465   1.466   4.162   5.041 -1.6668 -0.7353 -1.5572
 6335SOL     OW30466   1.683   1.748   5.482  0.5112  0.0736 -0.2858
 6335SOL    HW130467   1.635   1.719   5.560 -1.4199 -2.2960 -2.3677
 6335SOL    HW230468   1.672   1.672   5.425  0.2862  0.2617 -0.4895
 6336SOL     OW30469   3.305   0.503   4.962 -0.1333 -0.2976  0.0383
 6336SOL    HW130470   3.235   0.511   5.027  0.3636  3.2748  0.1509
 6336SOL    HW230471   3.273   0.553   4.887  0.2539  0.5299  0.4213
 6337SOL     OW30472   0.561   0.320   8.776  0.4651  0.0573  0.2440
 6337SOL    HW130473   0.588   0.400   8.821 -2.5674  1.3078 -0.0988
 6337SOL    HW230474   0.528   0.365   8.698  2.3700  0.1022 -0.5243
 6338SOL     OW30475   1.349   4.263   5.773 -0.0567  0.1775 -0.3562
 6338SOL    HW130476   1.263   4.267   5.816 -1.0434 -0.4278 -2.2660
 6338SOL    HW230477   1.371   4.170   5.778 -0.2362  0.0452 -1.8919
 6339SOL     OW30478   3.737   3.245   0.188  0.3353 -0.1679  0.8333
 6339SOL    HW130479   3.649   3.264   0.218 -0.1315 -0.3531 -0.3960
 6339SOL    HW230480   3.741   3.150   0.195 -2.0178 -0.4108 -1.3120
 6340SOL     OW30481   4.334   4.032   4.068  0.5417 -0.1398  0.0144
 6340SOL    HW130482   4.251   4.065   4.036  0.5777 -0.9428 -0.9066
 6340SOL    HW230483   4.298   3.961   4.121 -0.5590  0.5701  0.1982
 6341SOL     OW30484   3.579   4.294   5.800  0.9253  0.6106 -0.4130
 6341SOL    HW130485   3.554   4.263   5.712  0.0750  1.1309 -0.3606
 6341SOL    HW230486   3.629   4.371   5.774  2.0373  0.1918  0.5041
 6342SOL     OW30487   3.846   2.021  11.196  0.0136  0.0830  0.0883
 6342SOL    HW130488   3.898   2.087  11.150  2.7974 -1.3768  1.0986
 6342SOL    HW230489   3.834   2.065  11.280 -1.0200 -2.5885  1.3207
 6343SOL     OW30490   0.062   4.581  10.215  0.0782 -0.5386 -0.7815
 6343SOL    HW130491   0.117   4.628  10.278 -1.2019  0.6136 -0.5140
 6343SOL    HW230492   0.022   4.519  10.276  2.7000 -0.7836  0.6708
 6344SOL     OW30493   4.159   3.006  11.405 -0.5331 -0.5109 -0.2151
 6344SOL    HW130494   4.226   2.949  11.442 -0.4740  0.9420  1.9661
 6344SOL    HW230495   4.172   3.084  11.460  1.8053 -1.0265 -0.0362
 6345SOL     OW30496   4.350   0.142  16.918 -0.0616  0.5595 -0.4516
 6345SOL    HW130497   4.431   0.096  16.941  0.0943  0.1529 -1.7943
 6345SOL    HW230498   4.281   0.109  16.975 -0.0547 -0.1158 -0.8368
 6346SOL     OW30499   4.555   1.985   0.419  0.3827 -0.0555  0.4897
 6346SOL    HW130500   4.576   1.931   0.496 -0.8917 -2.1227 -0.6190
 6346SOL    HW230501   4.466   2.014   0.439 -0.0857 -0.4358 -1.0840
 6347SOL     OW30502   3.711   4.143  15.733 -0.1879  0.2123  0.2529
 6347SOL    HW130503   3.688   4.152  15.825  1.1622 -0.6383  0.6758
 6347SOL    HW230504   3.774   4.213  15.721  1.3074 -1.6650 -2.7818
 6348SOL     OW30505   3.720   2.643   7.728  0.0229 -0.1166  0.0412
 6348SOL    HW130506   3.769   2.565   7.700  0.7503 -0.3628  1.9750
 6348SOL    HW230507   3.638   2.597   7.741  0.7517 -1.7821 -1.1272
 6349SOL     OW30508   2.726   2.739   4.498 -0.0530 -0.4936  0.0059
 6349SOL    HW130509   2.642   2.708   4.532  0.6254  0.5875  2.6857
 6349SOL    HW230510   2.697   2.818   4.453  2.3527  0.0009 -0.6581
 6350SOL     OW30511   2.503   4.178  12.709 -0.0086 -0.1363 -0.2499
 6350SOL    HW130512   2.510   4.154  12.617  0.3682  1.6319 -0.6766
 6350SOL    HW230513   2.493   4.271  12.693 -1.1434 -0.1403  0.4445
 6351SOL     OW30514   2.513   3.234   0.619  0.1444 -0.4976  0.1727
 6351SOL    HW130515   2.528   3.281   0.537 -0.2428 -0.5754  0.0576
 6351SOL    HW230516   2.599   3.244   0.660  0.6047  0.7328 -1.0921
 6352SOL     OW30517   0.075   0.030   2.033 -0.2389 -0.5899 -0.0192
 6352SOL    HW130518   0.059   0.117   2.068  1.2226 -0.9743  1.5888
 6352SOL    HW230519   4.716   4.699   2.061 -1.5625  1.7387  0.3815
 6353SOL     OW30520   2.976   3.669   3.145  0.5317 -0.1070  0.0156
 6353SOL    HW130521   2.938   3.616   3.215  2.8950 -0.0785  1.3340
 6353SOL    HW230522   2.942   3.616   3.073  1.2362  1.5447 -1.5277
 6354SOL     OW30523   0.038   2.183   4.125  0.3727  0.4536 -0.0294
 6354SOL    HW130524   0.095   2.197   4.049  1.7045 -3.0655  0.3468
 6354SOL    HW230525   4.700   2.110   4.098  0.8005 -0.0391  0.4319
 6355SOL     OW30526   3.392   0.520   3.927  0.1832  0.4127  0.1403
 6355SOL    HW130527   3.320   0.579   3.906 -0.8355 -0.9260 -0.1262
 6355SOL    HW230528   3.348   0.435   3.920 -0.0386  0.4155  1.6010
 6356SOL     OW30529   4.580   2.757   0.726 -0.5051 -0.5365  0.0896
 6356SOL    HW130530   4.507   2.754   0.665  0.1682 -1.6948 -0.6713
 6356SOL    HW230531   4.566   2.841   0.768 -2.7726 -1.7784  1.8056
 6357SOL     OW30532   4.398   1.139   7.150  0.2563 -0.2017  0.2968
 6357SOL    HW130533   4.312   1.180   7.161 -0.0780 -0.5299 -1.1544
 6357SOL    HW230534   4.465   1.202   7.176 -1.0080  1.4344 -0.4432
 6358SOL     OW30535   3.387   3.588   6.324 -0.3623 -0.4191  0.2762
 6358SOL    HW130536   3.480   3.566   6.316  0.1811  2.2900 -0.9705
 6358SOL    HW230537   3.342   3.507   6.301 -2.5869  0.6498  0.8608
 6359SOL     OW30538   4.004   4.186   1.620 -0.0511 -0.3445  0.2873
 6359SOL    HW130539   4.069   4.238   1.667 -0.6508 -0.2697  1.0345
 6359SOL    HW230540   4.008   4.220   1.531 -1.2641  1.9141  1.0847
 6360SOL     OW30541   3.451   1.055  13.892  0.1241  0.7749  0.3924
 6360SOL    HW130542   3.499   1.137  13.901  0.3334  0.7437 -0.3873
 6360SOL    HW230543   3.397   1.042  13.970  1.1634 -1.4686  0.7543
 6361SOL     OW30544   4.561   0.725   5.745 -0.1966 -0.0533  0.2138
 6361SOL    HW130545   4.505   0.764   5.677 -0.2945  0.9786  0.8877
 6361SOL    HW230546   4.595   0.650   5.696  0.1673 -0.1708  0.6497
 6362SOL     OW30547   1.965   1.093   4.074  0.1657 -0.5587 -0.0266
 6362SOL    HW130548   2.019   1.169   4.056 -0.6658 -0.1207 -0.6408
 6362SOL    HW230549   2.018   1.022   4.037  1.5925 -0.4383  1.7662
 6363SOL     OW30550   4.655   2.952   9.623 -0.2687 -0.6918 -0.0644
 6363SOL    HW130551   4.576   2.960   9.677 -1.1892 -1.3754 -1.3053
 6363SOL    HW230552   4.683   2.865   9.651 -1.5394 -2.3725 -4.0440
 6364SOL     OW30553   4.506   3.597   1.137 -0.1413  0.3481  0.2113
 6364SOL    HW130554   4.475   3.573   1.225 -0.3405 -1.1762 -0.2798
 6364SOL    HW230555   4.579   3.538   1.122 -0.6873 -0.0243 -0.9855
 6365SOL     OW30556   1.499   0.053   3.158  0.8590 -0.0747  0.3177
 6365SOL    HW130557   1.465   4.682   3.147  2.2872 -0.6278  0.4501
 6365SOL    HW230558   1.420   0.105   3.174  1.0121  0.1200  0.4348
 6366SOL     OW30559   2.351   2.360   7.517 -0.7117 -0.1846  0.2993
 6366SOL    HW130560   2.291   2.285   7.515  0.6571 -1.2938  0.1935
 6366SOL    HW230561   2.408   2.310   7.577  0.3454  0.7897  0.1063
 6367SOL     OW30562   1.567   1.625   5.805 -0.6770 -0.0389 -0.6895
 6367SOL    HW130563   1.642   1.584   5.762 -0.4797  0.8903 -1.2143
 6367SOL    HW230564   1.596   1.714   5.820 -0.2956 -0.1025 -1.0571
 6368SOL     OW30565   2.751   4.580   0.344  0.1982  0.2365 -0.0873
 6368SOL    HW130566   2.839   4.612   0.365  0.2212  0.2729 -0.2444
 6368SOL    HW230567   2.763   4.489   0.318  0.8955  0.2181  0.2951
 6369SOL     OW30568   2.846   3.310   0.448  0.2864  0.1981 -0.1770
 6369SOL    HW130569   2.910   3.239   0.454 -1.7355 -1.7844 -1.9141
 6369SOL    HW230570   2.820   3.329   0.538 -0.2277 -2.1387  0.1525
 6370SOL     OW30571   1.729   1.966   2.503 -0.3496 -0.3036 -0.3149
 6370SOL    HW130572   1.753   2.037   2.443  0.2449  0.2687  0.6121
 6370SOL    HW230573   1.760   1.890   2.455  0.5955 -0.7391  0.9965
 6371SOL     OW30574   3.311   0.961   3.258  0.0510 -0.8192  0.2270
 6371SOL    HW130575   3.332   0.888   3.199 -0.7645 -2.3279  1.7771
 6371SOL    HW230576   3.219   0.944   3.277 -0.3546  0.4087 -0.6674
 6372SOL     OW30577   4.222   2.493  12.447 -0.0955 -0.6505 -0.3533
 6372SOL    HW130578   4.183   2.562  12.500 -1.1276  0.0061 -1.9675
 6372SOL    HW230579   4.306   2.530  12.422  0.1321 -0.8378  0.1299
 6373SOL     OW30580   4.204   4.419   3.432  0.0698  0.0231  0.1370
 6373SOL    HW130581   4.205   4.514   3.443 -1.7193 -0.1517  1.6743
 6373SOL    HW230582   4.221   4.395   3.341 -2.4211 -0.2525 -0.2532
 6374SOL     OW30583   4.119   4.659   0.374  0.1024 -0.0523 -0.3617
 6374SOL    HW130584   4.043   4.601   0.372 -1.8202  2.4815 -0.2988
 6374SOL    HW230585   4.081   0.019   0.335 -0.8649  0.3011  1.3272
 6375SOL     OW30586   1.960   1.033   8.964 -0.4428  0.1820  0.0189
 6375SOL    HW130587   1.995   1.079   8.888 -2.9768 -0.1800 -1.3753
 6375SOL    HW230588   2.034   1.053   9.021 -1.9076 -1.6233  2.6134
 6376SOL     OW30589   0.142   0.943   6.037  0.5767  0.1436 -0.4665
 6376SOL    HW130590   0.109   0.853   6.039 -0.9673  0.6666 -2.7983
 6376SOL    HW230591   0.067   0.980   5.990 -0.2612  0.9655  1.4660
 6377SOL     OW30592   3.110   1.588   8.554 -0.1718 -0.5298 -0.4191
 6377SOL    HW130593   3.117   1.510   8.609 -2.4292 -0.7778 -0.4603
 6377SOL    HW230594   3.144   1.662   8.604 -0.2200 -0.1295 -0.9794
 6378SOL     OW30595   3.544   2.888   0.385  0.1019  0.1572 -0.2104
 6378SOL    HW130596   3.623   2.842   0.413 -0.8028  0.7755  3.3214
 6378SOL    HW230597   3.542   2.969   0.435  3.0756  1.3327 -1.9920
 6379SOL     OW30598   2.617   2.974   7.670 -0.2903 -0.3731 -0.8633
 6379SOL    HW130599   2.561   2.922   7.727  0.3488  2.0574  1.9502
 6379SOL    HW230600   2.556   2.998   7.600  0.4602  0.4435 -1.2356
 6380SOL     OW30601   1.004   0.018   7.209  0.7011  0.0499 -0.2347
 6380SOL    HW130602   1.024   4.651   7.171  0.7250  0.1151 -0.3683
 6380SOL    HW230603   0.919   0.038   7.169  0.9028  1.6645  0.1107
 6381SOL     OW30604   2.624   4.658   5.078 -0.2156 -0.0162 -0.7521
 6381SOL    HW130605   2.633   0.012   5.141  2.1137 -0.0535 -1.0304
 6381SOL    HW230606   2.681   4.684   5.006  1.8926  0.9247  1.2597
 6382SOL     OW30607   3.087   3.799   6.015 -0.1911  0.4892 -0.1035
 6382SOL    HW130608   3.100   3.757   6.100  1.4618 -1.2962 -1.2506
 6382SOL    HW230609   3.137   3.878   6.037 -0.3205  0.3570  0.6573
 6383SOL     OW30610   3.352   1.908   5.204  0.1984 -0.6060  0.1526
 6383SOL    HW130611   3.371   1.961   5.281  1.9705  0.2783 -0.8922
 6383SOL    HW230612   3.257   1.896   5.211  0.6746 -2.5894  3.3638
 6384SOL     OW30613   2.392   0.231   0.566 -0.3974  0.8038 -0.4809
 6384SOL    HW130614   2.447   0.219   0.489  1.5490 -0.2453  1.0816
 6384SOL    HW230615   2.307   0.212   0.528 -1.3167  1.1614  1.3895
 6385SOL     OW30616   3.730   4.589   7.725 -0.0862  0.0056 -0.1745
 6385SOL    HW130617   3.732   4.681   7.699 -2.4835  0.8785  2.7567
 6385SOL    HW230618   3.769   4.542   7.651  0.5782 -0.7992  0.6872
 6386SOL     OW30619   4.546   2.840  15.849  0.5215  0.1486  0.1908
 6386SOL    HW130620   4.510   2.769  15.796 -0.3665  0.6420  0.1326
 6386SOL    HW230621   4.466   2.885  15.876  1.0441 -0.1965  2.3771
 6387SOL     OW30622   1.321   2.573   7.527  0.0190  0.1646  0.4484
 6387SOL    HW130623   1.312   2.607   7.616  1.3159 -0.6688  0.8916
 6387SOL    HW230624   1.260   2.500   7.524 -0.8928  0.9353 -0.1397
 6388SOL     OW30625   1.843   4.160   6.160 -0.1303 -0.4507  0.0349
 6388SOL    HW130626   1.806   4.097   6.222 -0.9511 -0.8631 -0.8829
 6388SOL    HW230627   1.846   4.238   6.215  2.1735 -0.1775 -0.4806
 6389SOL     OW30628   0.624   1.376  15.445 -0.8252 -0.1748  0.0824
 6389SOL    HW130629   0.661   1.293  15.416  1.0975  0.9469 -0.7040
 6389SOL    HW230630   0.552   1.395  15.385 -0.4494 -1.4378 -0.7512
 6390SOL     OW30631   4.671   3.516   2.546 -0.8488 -0.0152 -0.1923
 6390SOL    HW130632   4.705   3.605   2.553  0.6964 -0.4138 -2.9496
 6390SOL    HW230633   4.575   3.520   2.541 -0.8345  0.9544  0.1478
 6391SOL     OW30634   0.874   0.179   0.541  0.0160  0.1449 -0.5438
 6391SOL    HW130635   0.949   0.121   0.540  0.0274  0.1781 -2.1292
 6391SOL    HW230636   0.914   0.228   0.613 -3.0710  0.8390  0.7403
 6392SOL     OW30637   0.810   1.088   1.378 -0.4064  0.1065 -0.8476
 6392SOL    HW130638   0.741   1.101   1.313 -1.6390  2.5222  0.9349
 6392SOL    HW230639   0.842   1.004   1.345 -2.8280  0.0417 -3.0602
 6393SOL     OW30640   2.330   4.457   3.990  0.4819 -0.3238  0.1877
 6393SOL    HW130641   2.382   4.378   3.972  2.2399  0.8571  0.0863
 6393SOL    HW230642   2.399   4.521   4.010  2.0420 -2.3653  1.3483
 6394SOL     OW30643   0.457   1.095   4.751  0.2615 -0.0035 -0.1065
 6394SOL    HW130644   0.490   1.173   4.795 -1.5787 -0.0953  1.4585
 6394SOL    HW230645   0.407   1.129   4.677 -1.9381  0.7965  1.7220
 6395SOL     OW30646   2.746   2.781   8.439 -0.3167  0.2091 -0.2842
 6395SOL    HW130647   2.662   2.742   8.417  0.7867 -3.4045  1.9565
 6395SOL    HW230648   2.783   2.815   8.357 -4.0700  1.5837 -1.3752
 6396SOL     OW30649   1.573   3.853   8.848 -0.2197 -0.2836 -0.5023
 6396SOL    HW130650   1.664   3.842   8.819  0.4704  1.7859  0.8644
 6396SOL    HW230651   1.531   3.789   8.792 -0.9350  1.8096 -2.3498
 6397SOL     OW30652   4.265   3.802   0.185  0.3459  0.2625 -0.2062
 6397SOL    HW130653   4.352   3.777   0.155  0.7962  0.0268  1.2734
 6397SOL    HW230654   4.227   3.718   0.161  1.4270  0.4553 -2.5382
 6398SOL     OW30655   3.517   0.132   2.022  0.2067  0.5703  0.2750
 6398SOL    HW130656   3.458   0.145   2.096  1.7252  1.4213  1.3322
 6398SOL    HW230657   3.507   0.214   1.974 -0.2735  1.0639  1.2123
 6399SOL     OW30658   2.904   3.948   5.642  0.0958 -0.5766 -0.6825
 6399SOL    HW130659   2.895   3.912   5.731 -0.2708 -0.0951 -0.5282
 6399SOL    HW230660   2.816   3.929   5.611 -0.6868  0.6700  0.7759
 6400SOL     OW30661   2.264   0.363   5.023  0.4429  0.0577 -0.3254
 6400SOL    HW130662   2.219   0.422   4.963 -0.3504 -0.4208 -0.2038
 6400SOL    HW230663   2.216   0.281   5.009  0.7967 -0.5711  2.1145
 6401SOL     OW30664   3.243   3.432  15.589 -0.6267 -0.0119  0.1654
 6401SOL    HW130665   3.186   3.363  15.623 -0.6899  0.1284  0.3450
 6401SOL    HW230666   3.247   3.418  15.495 -2.3686 -0.3394  0.1386
 6402SOL     OW30667   0.879   2.831  13.812 -0.0267  0.1970  0.1850
 6402SOL    HW130668   0.963   2.855  13.773  0.5954  0.3784  1.6377
 6402SOL    HW230669   0.901   2.834  13.905  0.5420  3.0978 -0.0637
 6403SOL     OW30670   0.225   0.851   2.850  0.3161  0.3639  0.3109
 6403SOL    HW130671   0.185   0.931   2.884 -0.7892  0.1225 -0.4185
 6403SOL    HW230672   0.170   0.787   2.894  1.5725 -0.3426  0.8559
 6404SOL     OW30673   2.654   2.097   1.422  0.5599  0.8432  0.0038
 6404SOL    HW130674   2.598   2.173   1.405  1.1592  1.1772 -0.4657
 6404SOL    HW230675   2.587   2.029   1.419  0.7812  0.5313  2.0691
 6405SOL     OW30676   2.073   1.259   5.187 -0.0461  0.4896 -0.3430
 6405SOL    HW130677   2.005   1.251   5.119 -3.5988 -0.2673  3.2814
 6405SOL    HW230678   2.044   1.344   5.220 -1.5438  1.1561 -3.3100
 6406SOL     OW30679   2.031   3.449   1.641 -0.4856 -0.6875  0.5917
 6406SOL    HW130680   1.979   3.483   1.714 -0.7007  0.0899  0.0805
 6406SOL    HW230681   2.001   3.513   1.576  0.7729  0.3458  1.0175
 6407SOL     OW30682   0.566   2.486   2.236 -0.1488  0.5609  0.4183
 6407SOL    HW130683   0.662   2.488   2.237 -0.1251 -0.0129 -0.6600
 6407SOL    HW230684   0.553   2.562   2.179 -1.4023  0.3993  0.4826
 6408SOL     OW30685   4.545   3.417   7.037  0.6446 -0.1286  0.6202
 6408SOL    HW130686   4.537   3.340   6.981 -0.7633  0.7646 -0.4010
 6408SOL    HW230687   4.540   3.492   6.978 -0.6162 -1.9458 -1.5635
 6409SOL     OW30688   3.450   0.607   0.591  0.4904 -0.5636 -0.1634
 6409SOL    HW130689   3.514   0.654   0.644 -0.0026 -1.5570  1.3226
 6409SOL    HW230690   3.399   0.571   0.664 -0.7388 -0.1407 -0.8040
 6410SOL     OW30691   1.817   1.782   7.631 -0.0859  0.3889  0.4715
 6410SOL    HW130692   1.818   1.772   7.536  0.2129 -1.1403  0.6300
 6410SOL    HW230693   1.763   1.708   7.658  0.2611 -0.8692 -2.3504
 6411SOL     OW30694   0.559   3.426   6.031  0.0373 -0.1311 -0.4333
 6411SOL    HW130695   0.634   3.465   6.077 -1.1833  0.6173  0.9373
 6411SOL    HW230696   0.554   3.337   6.065 -0.1401 -1.1965 -3.2404
 6412SOL     OW30697   2.828   0.607  16.331  0.7104 -0.2268  0.1983
 6412SOL    HW130698   2.908   0.643  16.370  0.5276  0.8026 -0.3940
 6412SOL    HW230699   2.765   0.675  16.353  1.3602  0.4547 -0.0711
 6413SOL     OW30700   4.415   4.410  16.966 -0.5707  0.3186 -0.1431
 6413SOL    HW130701   4.442   4.496  17.000  1.1564 -0.7760  1.2438
 6413SOL    HW230702   4.464   4.353  17.025 -1.2837  0.3260  0.4457
 6414SOL     OW30703   2.264   3.950   7.779  0.0386 -0.2007  0.1679
 6414SOL    HW130704   2.254   4.045   7.768 -1.5678 -0.5460 -1.3642
 6414SOL    HW230705   2.306   3.950   7.865  0.6079  2.0919 -0.0836
 6415SOL     OW30706   4.580   0.666   3.935  0.0267  0.0659 -0.3771
 6415SOL    HW130707   4.550   0.664   3.844  1.9683 -0.6866 -0.9924
 6415SOL    HW230708   4.674   0.677   3.923 -0.1107  0.9161 -0.6807
 6416SOL     OW30709   3.828   0.988  10.692 -0.3291  0.3309  0.0434
 6416SOL    HW130710   3.854   1.080  10.701  0.3874  0.3093 -1.8355
 6416SOL    HW230711   3.866   0.956  10.773  0.1141 -1.7201 -0.9886
 6417SOL     OW30712   4.162   4.256   8.800 -0.7506  0.1078 -0.3371
 6417SOL    HW130713   4.086   4.279   8.853  0.1680  0.5777  0.7929
 6417SOL    HW230714   4.117   4.247   8.716 -0.9059 -3.3244  0.1071
 6418SOL     OW30715   2.907   1.613   8.188 -0.1445 -0.9200  0.0120
 6418SOL    HW130716   2.972   1.666   8.233 -0.2768 -2.3152  1.8661
 6418SOL    HW230717   2.849   1.682   8.156 -0.7266 -2.0024 -1.2645
 6419SOL     OW30718   3.466   2.679   7.254  0.1616 -0.2269  0.2741
 6419SOL    HW130719   3.561   2.692   7.253 -0.0814  1.4360  0.1136
 6419SOL    HW230720   3.434   2.726   7.178  3.1395  2.5579  0.7394
 6420SOL     OW30721   3.914   2.164   9.251  0.0242  0.4233  0.0654
 6420SOL    HW130722   3.913   2.123   9.338 -0.1403 -0.5830 -0.4152
 6420SOL    HW230723   3.911   2.094   9.185 -0.5624  0.4715  0.0391
 6421SOL     OW30724   0.105   2.109  14.616  0.4608  0.0041 -0.4653
 6421SOL    HW130725   0.076   2.199  14.625 -1.3042 -0.5048 -0.9765
 6421SOL    HW230726   0.163   2.098  14.691  0.0559  0.9201 -0.0266
 6422SOL     OW30727   2.748   0.700   7.776  0.3043  0.1584  0.1145
 6422SOL    HW130728   2.678   0.719   7.714 -1.6669  1.2341  2.6748
 6422SOL    HW230729   2.812   0.650   7.724 -0.6456 -0.0117 -0.8855
 6423SOL     OW30730   0.171   2.277   3.697  0.6400  0.2446  0.0985
 6423SOL    HW130731   0.124   2.339   3.642  0.8219  0.1690 -0.1415
 6423SOL    HW230732   0.252   2.271   3.646 -0.5259 -1.4878 -1.5241
 6424SOL     OW30733   0.245   3.176   3.091 -0.4764  0.0193  0.2463
 6424SOL    HW130734   0.305   3.168   3.016  0.0104 -0.9800  0.7358
 6424SOL    HW230735   0.301   3.135   3.157 -0.1021  0.7084  0.3543
 6425SOL     OW30736   0.605   0.133  10.213 -0.0367  0.4325 -0.1408
 6425SOL    HW130737   0.577   0.046  10.241  0.5859 -0.1924 -1.4707
 6425SOL    HW230738   0.699   0.126  10.229 -0.0057 -1.9870 -1.3144
 6426SOL     OW30739   2.909   0.167   4.688 -0.3330  0.2034 -0.0054
 6426SOL    HW130740   2.953   0.143   4.607  0.4588 -0.5207  0.6458
 6426SOL    HW230741   2.932   0.260   4.690  0.8909 -0.0994 -0.0259
 6427SOL     OW30742   0.512   1.418   7.235  0.2702  0.0360  0.8518
 6427SOL    HW130743   0.458   1.343   7.259 -0.6412  0.5556  0.4227
 6427SOL    HW230744   0.585   1.399   7.294 -0.1619 -2.8200  0.4814
 6428SOL     OW30745   4.547   3.309   3.327  0.3903  0.4874  0.6569
 6428SOL    HW130746   4.453   3.305   3.348  0.3170  0.5262  0.3287
 6428SOL    HW230747   4.578   3.364   3.400 -0.6965  3.0790 -0.8372
 6429SOL     OW30748   4.473   3.856   9.083  0.2564 -0.8050  0.2458
 6429SOL    HW130749   4.548   3.885   9.032 -0.3978 -0.5313 -0.5609
 6429SOL    HW230750   4.408   3.890   9.021  1.8848  2.7375  0.4939
 6430SOL     OW30751   0.233   4.644  10.998  0.8235  0.5971  0.1549
 6430SOL    HW130752   0.193   4.641  10.911 -0.1503  1.5791  0.5700
 6430SOL    HW230753   0.238   4.551  11.018 -2.3922  0.1294 -1.1726
 6431SOL     OW30754   2.496   2.710   2.662 -0.2135  0.7305  1.0331
 6431SOL    HW130755   2.511   2.622   2.627 -1.3980  1.0811 -0.3586
 6431SOL    HW230756   2.404   2.725   2.644 -0.2608  0.6169  1.1837
 6432SOL     OW30757   2.036   4.403   0.793 -0.7060  0.1062  0.2068
 6432SOL    HW130758   1.988   4.398   0.876 -0.3648  1.9678  0.5101
 6432SOL    HW230759   2.039   4.498   0.780  1.0109 -0.1704 -1.3732
 6433SOL     OW30760   3.012   2.960   5.123 -0.0969 -0.1639 -0.4626
 6433SOL    HW130761   3.030   2.919   5.207 -0.5504 -0.0887 -0.3295
 6433SOL    HW230762   2.924   2.994   5.137  0.8986  1.7633  1.1678
 6434SOL     OW30763   0.779   2.007   4.613 -0.0225 -0.4816  0.5046
 6434SOL    HW130764   0.748   2.097   4.602 -0.7852 -0.4060  3.3963
 6434SOL    HW230765   0.806   1.980   4.525  1.3631  0.7169  0.5689
 6435SOL     OW30766   4.011   2.207  11.075 -0.2574 -0.1851 -0.5825
 6435SOL    HW130767   4.010   2.233  10.983 -1.0135  3.2960  0.4012
 6435SOL    HW230768   4.013   2.292  11.121  0.8145 -0.9277  0.7611
 6436SOL     OW30769   0.813   0.443   9.784  0.2866  0.0467 -0.2733
 6436SOL    HW130770   0.776   0.358   9.760  0.1616 -0.3053  1.1838
 6436SOL    HW230771   0.812   0.429   9.879 -0.2684 -1.6102 -0.5181
 6437SOL     OW30772   2.561   1.887   4.167 -0.0561 -0.2856 -0.0981
 6437SOL    HW130773   2.598   1.800   4.187 -0.4970 -0.9738 -2.3442
 6437SOL    HW230774   2.478   1.863   4.126 -1.2684  1.4638  1.3543
 6438SOL     OW30775   3.855   2.991   8.493  0.6627 -0.4227 -0.3806
 6438SOL    HW130776   3.792   2.919   8.481  0.4983 -0.2727 -0.4123
 6438SOL    HW230777   3.858   2.985   8.589 -2.1226  0.1292 -0.2339
 6439SOL     OW30778   3.105   1.857   3.099  0.4513 -0.2265  0.8571
 6439SOL    HW130779   3.172   1.832   3.163  0.5840 -1.6357  0.1660
 6439SOL    HW230780   3.039   1.890   3.160 -0.8114 -0.3562 -0.4384
 6440SOL     OW30781   4.656   0.836   2.189  0.3527 -0.2020 -0.0732
 6440SOL    HW130782   4.714   0.908   2.161 -1.5352  1.8128  1.2259
 6440SOL    HW230783   4.570   0.872   2.166 -0.2844 -1.8072 -0.1528
 6441SOL     OW30784   4.284   1.852   3.085 -0.5950 -0.4458 -0.1036
 6441SOL    HW130785   4.201   1.804   3.086 -1.2495  0.7880  2.9299
 6441SOL    HW230786   4.293   1.883   2.995  0.5375  1.6146  0.7118
 6442SOL     OW30787   1.243   3.055   2.993 -0.5790  0.4608 -0.6521
 6442SOL    HW130788   1.326   3.035   3.037 -0.3397  1.3215 -0.7008
 6442SOL    HW230789   1.186   3.015   3.059 -3.2459  0.2839 -3.0721
 6443SOL     OW30790   2.081   4.120   3.358  0.4344  0.4744  0.4570
 6443SOL    HW130791   2.113   4.092   3.272 -2.1789  0.8637 -0.6390
 6443SOL    HW230792   2.038   4.037   3.379  0.1837  0.2352 -0.9826
 6444SOL     OW30793   1.115   0.615   4.285  0.0668  0.1336  0.0946
 6444SOL    HW130794   1.044   0.559   4.254 -0.5355  0.0349  1.6627
 6444SOL    HW230795   1.162   0.615   4.201  0.8956 -1.7938  0.5546
 6445SOL     OW30796   1.590   4.039   5.845  0.1757 -0.7131 -0.2553
 6445SOL    HW130797   1.648   4.006   5.913 -0.4025 -0.5265  0.3371
 6445SOL    HW230798   1.511   4.048   5.898  0.5758  1.5487 -0.0582
 6446SOL     OW30799   0.857   3.601   5.011 -0.4450  0.6518 -0.0749
 6446SOL    HW130800   0.908   3.651   5.074  0.6797  0.9545 -1.2196
 6446SOL    HW230801   0.896   3.515   5.020 -3.0850 -0.6361 -0.8307
 6447SOL     OW30802   3.861   4.259   7.796 -0.1937 -0.3798 -0.5326
 6447SOL    HW130803   3.805   4.317   7.847 -0.4181  0.6181 -1.9010
 6447SOL    HW230804   3.838   4.291   7.708 -2.3907 -2.7150 -0.8128
 6448SOL     OW30805   2.404   0.147  12.214  0.0807 -0.0633 -0.3684
 6448SOL    HW130806   2.470   0.122  12.277 -1.4668 -0.7960  0.9546
 6448SOL    HW230807   2.326   0.113  12.259  0.0731 -0.6184 -0.7947
 6449SOL     OW30808   3.484   3.425   8.816 -0.5110 -0.3151 -0.2143
 6449SOL    HW130809   3.405   3.373   8.807  0.2428 -1.4029 -0.5671
 6449SOL    HW230810   3.452   3.504   8.859 -0.6132 -0.6881  0.3936
 6450SOL     OW30811   2.867   4.468   2.778  0.0179  0.2726 -0.0468
 6450SOL    HW130812   2.872   4.509   2.864 -0.2783  0.0559  0.0758
 6450SOL    HW230813   2.795   4.518   2.738 -0.7832 -0.8410 -0.0032
 6451SOL     OW30814   0.939   4.433  15.641 -0.0193 -0.4618 -0.3217
 6451SOL    HW130815   0.945   4.518  15.686  1.8331 -0.1674 -1.1352
 6451SOL    HW230816   0.925   4.387  15.724  0.4481 -0.4853 -0.2528
 6452SOL     OW30817   3.844   3.739   0.468  0.7409  0.3954 -0.3379
 6452SOL    HW130818   3.903   3.675   0.428  1.1996 -0.3481  1.5358
 6452SOL    HW230819   3.778   3.741   0.399 -1.2295  1.8978  1.5892
 6453SOL     OW30820   4.588   1.319   7.242  0.2389  0.1296  0.3359
 6453SOL    HW130821   4.583   1.404   7.199  0.3107  0.8129  1.6682
 6453SOL    HW230822   4.540   1.330   7.324  1.9643  2.2142  1.0568
 6454SOL     OW30823   1.780   3.439   7.952 -0.0660  0.4126  0.1795
 6454SOL    HW130824   1.798   3.376   8.022 -0.0613 -0.3898 -0.5465
 6454SOL    HW230825   1.871   3.467   7.940 -0.7632  2.1173 -1.1050
 6455SOL     OW30826   0.437   0.194  13.178 -0.1159  0.2471 -0.1971
 6455SOL    HW130827   0.362   0.241  13.141 -0.7790 -1.6366 -1.2946
 6455SOL    HW230828   0.399   0.107  13.194 -0.4040  0.6606  1.3459
 6456SOL     OW30829   0.348   4.304  16.408 -0.2290  0.7559 -0.0187
 6456SOL    HW130830   0.387   4.366  16.347  1.3612 -0.0067  0.2139
 6456SOL    HW230831   0.263   4.284  16.369  0.5699  0.4483 -1.6018
 6457SOL     OW30832   3.674   3.809   7.047  0.3546  0.0605 -0.4800
 6457SOL    HW130833   3.699   3.899   7.070  0.1838 -0.2787  1.0199
 6457SOL    HW230834   3.583   3.800   7.019 -0.3564  1.5726  1.3389
 6458SOL     OW30835   2.419   2.835   0.848 -0.3493 -0.7754  0.2670
 6458SOL    HW130836   2.358   2.850   0.775  2.7174  2.3496 -1.6568
 6458SOL    HW230837   2.505   2.850   0.808  1.4262  0.6466  4.6124
 6459SOL     OW30838   4.585   0.311   8.634 -0.0856 -0.7458 -0.7774
 6459SOL    HW130839   4.616   0.296   8.545 -1.1173 -2.4572 -0.8362
 6459SOL    HW230840   4.522   0.240   8.638  0.3804 -1.0948  0.4021
 6460SOL     OW30841   3.617   2.704   3.781  0.2365 -0.7487 -0.4379
 6460SOL    HW130842   3.556   2.746   3.842 -0.8066 -1.9087 -0.6990
 6460SOL    HW230843   3.647   2.778   3.727 -3.5665 -0.5253 -2.2926
 6461SOL     OW30844   0.434   2.097   5.233  0.2989  0.6710  0.0749
 6461SOL    HW130845   0.416   2.175   5.179 -0.5202  0.2379 -0.2799
 6461SOL    HW230846   0.449   2.036   5.160  2.2630  0.0035  1.0555
 6462SOL     OW30847   3.076   4.682   3.597  0.4328 -0.3967 -0.0990
 6462SOL    HW130848   3.009   4.624   3.635 -0.9949  2.6502  2.0073
 6462SOL    HW230849   3.087   0.030   3.665 -0.2204 -0.9528  0.5564
 6463SOL     OW30850   0.392   4.411   4.665 -0.1700  0.1365  0.0242
 6463SOL    HW130851   0.298   4.432   4.674 -0.4155 -0.7073 -0.6306
 6463SOL    HW230852   0.414   4.437   4.576 -0.0049 -0.3249 -0.0669
 6464SOL     OW30853   2.493   0.915   5.778  0.1230  0.9352  0.3686
 6464SOL    HW130854   2.424   0.896   5.715 -0.3982 -2.1630  1.8706
 6464SOL    HW230855   2.507   0.830   5.820  3.6893  0.9915 -0.7350
 6465SOL     OW30856   4.172   1.488   9.724 -0.2850  0.5986 -0.1183
 6465SOL    HW130857   4.193   1.503   9.632 -0.5870  0.4803 -0.2082
 6465SOL    HW230858   4.196   1.572   9.762  0.2067 -0.2297  1.4152
 6466SOL     OW30859   0.800   2.075  17.237  0.1591  0.4512 -0.3240
 6466SOL    HW130860   0.802   2.041  17.147  1.6785 -0.7022  0.1482
 6466SOL    HW230861   0.737   2.146  17.227 -1.6290 -0.8969  1.3271
 6467SOL     OW30862   4.342   3.302  13.595 -0.2478  0.5181 -0.4448
 6467SOL    HW130863   4.286   3.240  13.548  0.8415 -2.4447  2.1636
 6467SOL    HW230864   4.285   3.326  13.668  0.8169 -1.0689  0.9161
 6468SOL     OW30865   1.932   3.165   8.405 -0.1034  0.0595 -0.0522
 6468SOL    HW130866   2.001   3.214   8.450 -0.4636  0.3074  0.2337
 6468SOL    HW230867   1.971   3.079   8.392 -1.4182 -0.3608 -1.1486
 6469SOL     OW30868   0.890   0.399   6.236 -0.5212  0.1478  0.1342
 6469SOL    HW130869   0.823   0.375   6.172 -0.0357  0.1471 -0.3747
 6469SOL    HW230870   0.954   0.337   6.202 -1.5382 -1.1088  0.5014
 6470SOL     OW30871   0.190   1.689   7.086  0.1676  0.4903 -0.3741
 6470SOL    HW130872   0.262   1.646   7.039 -0.7078 -0.9690 -0.3823
 6470SOL    HW230873   0.217   1.700   7.177 -0.7497 -0.3230 -0.0075
 6471SOL     OW30874   4.604   2.668   3.551  0.3134  0.2699 -0.3154
 6471SOL    HW130875   4.593   2.710   3.466 -0.3121 -0.4106 -0.5726
 6471SOL    HW230876   4.514   2.638   3.565 -0.1263  1.5246 -0.5008
 6472SOL     OW30877   4.178   1.618   3.803  0.1506  0.2945  0.1325
 6472SOL    HW130878   4.183   1.617   3.899 -1.4136  1.3250  0.2179
 6472SOL    HW230879   4.270   1.635   3.783  0.7356  0.2360  2.7042
 6473SOL     OW30880   1.398   0.379  13.724  0.0659 -0.6976 -0.0633
 6473SOL    HW130881   1.418   0.434  13.799  1.4729 -2.7663  1.0839
 6473SOL    HW230882   1.438   0.298  13.757  2.7007  0.5459 -0.2098
 6474SOL     OW30883   4.136   3.962   2.857  0.9052 -0.1886  0.3006
 6474SOL    HW130884   4.197   3.912   2.803  2.8088  0.7994  1.5488
 6474SOL    HW230885   4.059   3.958   2.800  1.9611  0.8856 -1.1907
 6475SOL     OW30886   2.753   3.199   7.206 -0.2900 -0.8921 -0.0247
 6475SOL    HW130887   2.711   3.124   7.165  0.2977 -1.0185 -0.3866
 6475SOL    HW230888   2.697   3.217   7.282  0.6342 -0.0607  0.4671
 6476SOL     OW30889   0.266   4.251   8.538 -0.3964 -0.2219  0.0146
 6476SOL    HW130890   0.286   4.161   8.564  1.2481  0.1774  0.1373
 6476SOL    HW230891   0.172   4.259   8.555 -0.4074 -0.3675  0.0243
 6477SOL     OW30892   0.434   0.806   6.338  0.1185 -0.7122 -0.0569
 6477SOL    HW130893   0.522   0.776   6.315  1.0054  1.1259  0.9182
 6477SOL    HW230894   0.439   0.899   6.317 -1.4322 -0.3816  1.0402
 6478SOL     OW30895   2.697   0.541   6.487  0.8128 -0.2481 -0.0450
 6478SOL    HW130896   2.690   0.453   6.524  0.6832  0.6613  2.0536
 6478SOL    HW230897   2.785   0.530   6.449  1.3604  1.2165  0.8088
 6479SOL     OW30898   1.512   3.302   1.423 -0.0571  0.2580  0.3408
 6479SOL    HW130899   1.423   3.319   1.453 -0.2055 -0.8331  0.5127
 6479SOL    HW230900   1.567   3.261   1.490 -0.9287  1.1406  1.6034
 6480SOL     OW30901   0.147   3.053   2.683 -0.2440  0.3547  0.0613
 6480SOL    HW130902   0.098   3.135   2.679  0.0070  0.4571 -0.8555
 6480SOL    HW230903   0.235   3.087   2.698  0.8589 -1.5581 -1.9782
 6481SOL     OW30904   1.085   2.794  10.574  1.0508  0.1148 -0.1520
 6481SOL    HW130905   1.128   2.875  10.600  3.5523 -1.2176 -0.0466
 6481SOL    HW230906   1.060   2.815  10.484  0.4809 -0.2781 -0.0853
 6482SOL     OW30907   1.548   4.581  15.170 -0.4924  0.0276 -0.1071
 6482SOL    HW130908   1.624   4.544  15.126  2.6001  2.7426  3.0144
 6482SOL    HW230909   1.572   4.674  15.169  2.0436 -0.6353  0.9045
 6483SOL     OW30910   3.376   0.770   0.153  0.1968  0.5012  0.1999
 6483SOL    HW130911   3.320   0.809   0.085 -1.3767  0.3444  1.3986
 6483SOL    HW230912   3.366   0.831   0.226 -0.5044 -0.7788  1.1634
 6484SOL     OW30913   2.941   4.495   2.327  0.1690 -0.2873 -0.0544
 6484SOL    HW130914   2.923   4.401   2.327 -1.6857  0.0633  1.1912
 6484SOL    HW230915   2.992   4.495   2.246  0.2159  1.4983 -0.0295
 6485SOL     OW30916   3.220   3.917   6.800  0.2529 -0.2786  0.5049
 6485SOL    HW130917   3.271   3.996   6.783 -0.9163  0.0121 -1.7211
 6485SOL    HW230918   3.175   3.943   6.880 -3.4808 -1.1175 -1.3273
 6486SOL     OW30919   3.648   3.435  11.308  0.3415 -0.1514 -0.5253
 6486SOL    HW130920   3.631   3.378  11.384  0.6425 -0.3891 -0.6345
 6486SOL    HW230921   3.724   3.484  11.338 -0.4176  0.5643  0.2104
 6487SOL     OW30922   1.887   0.329   6.675  0.8683 -0.0133  0.1243
 6487SOL    HW130923   1.882   0.422   6.653  1.3699 -0.6964 -2.7646
 6487SOL    HW230924   1.883   0.330   6.771 -0.2409 -0.0186  0.0821
 6488SOL     OW30925   3.685   0.869   8.229  0.0505 -0.4832 -0.0421
 6488SOL    HW130926   3.705   0.961   8.239  3.0778 -1.0692 -0.8128
 6488SOL    HW230927   3.671   0.840   8.319 -1.4481 -0.1161 -0.1500
 6489SOL     OW30928   0.723   1.726   7.238 -0.6355 -0.3632 -0.4247
 6489SOL    HW130929   0.641   1.715   7.286 -0.1782 -0.9442  0.2264
 6489SOL    HW230930   0.712   1.668   7.163  0.8193 -2.5654  1.0396
 6490SOL     OW30931   0.583   1.277   8.431  0.4950 -0.4851 -0.0556
 6490SOL    HW130932   0.629   1.297   8.512  1.0125  0.0028 -0.4750
 6490SOL    HW230933   0.658   1.253   8.377  0.7240  1.6439 -0.6515
 6491SOL     OW30934   3.315   0.676   2.385 -0.3451 -0.1231 -0.3567
 6491SOL    HW130935   3.301   0.626   2.465  0.9257 -0.3223 -0.2613
 6491SOL    HW230936   3.301   0.617   2.311 -2.8084 -0.6354  0.5237
 6492SOL     OW30937   2.434   3.437   0.140  0.2040 -0.1142  0.6867
 6492SOL    HW130938   2.514   3.489   0.154  0.2032 -0.4441  1.9946
 6492SOL    HW230939   2.442   3.423   0.046  2.8205  1.5161  0.6412
 6493SOL     OW30940   1.597   0.574   3.737  0.2711  0.5607  0.0121
 6493SOL    HW130941   1.504   0.552   3.731  0.8213 -1.3246 -1.5774
 6493SOL    HW230942   1.619   0.595   3.645 -1.2524  0.1736 -0.4306
 6494SOL     OW30943   1.578   3.761  17.492  0.0367 -0.0900 -0.1966
 6494SOL    HW130944   1.597   3.697  17.423  1.7820  1.0536 -0.7813
 6494SOL    HW230945   1.524   3.822  17.441  2.1020  0.1317 -2.1213
 6495SOL     OW30946   3.261   0.043   4.277 -0.1114 -0.1263  0.1471
 6495SOL    HW130947   3.336   4.701   4.280 -0.3282 -0.4113 -0.0901
 6495SOL    HW230948   3.304   0.125   4.256 -1.8840  0.2656 -1.9345
 6496SOL     OW30949   2.634   2.384   3.269  0.3814  0.0819  0.1086
 6496SOL    HW130950   2.625   2.330   3.347 -2.1483 -0.2877 -0.4217
 6496SOL    HW230951   2.687   2.453   3.307  1.6139 -2.3806  2.8503
 6497SOL     OW30952   2.101   1.519   9.392 -0.3945  0.1712 -0.0363
 6497SOL    HW130953   2.126   1.611   9.380 -1.3775  0.3749 -0.5671
 6497SOL    HW230954   2.018   1.525   9.440 -0.6607 -0.4803 -0.4222
 6498SOL     OW30955   2.432   1.720   9.751  0.6472 -0.5614  0.5291
 6498SOL    HW130956   2.430   1.748   9.842 -1.7157 -2.2134  0.9797
 6498SOL    HW230957   2.346   1.753   9.725  1.7417  1.1696 -0.9253
 6499SOL     OW30958   2.949   1.532   2.217  0.5069 -0.3351  0.5593
 6499SOL    HW130959   2.933   1.606   2.276  1.2079 -1.2534  1.9059
 6499SOL    HW230960   3.037   1.540   2.181  0.5051 -2.3376  0.0984
 6500SOL     OW30961   1.682   2.215   4.381 -0.0645 -0.5603  0.0228
 6500SOL    HW130962   1.709   2.274   4.311  1.9584 -0.9267  0.5154
 6500SOL    HW230963   1.767   2.180   4.405  0.9147  1.5893 -0.3123
 6501SOL     OW30964   4.622   3.094   7.136  0.4480 -0.0730  0.5405
 6501SOL    HW130965   4.658   3.016   7.178  0.3335 -1.4938 -2.0198
 6501SOL    HW230966   4.623   3.155   7.210 -1.7244 -0.6037  1.0079
 6502SOL     OW30967   3.834   0.940   7.479  0.2710  0.1113 -0.0152
 6502SOL    HW130968   3.925   0.909   7.487 -0.4586 -2.6220 -2.5915
 6502SOL    HW230969   3.802   0.913   7.393 -2.2270 -0.9637  1.2576
 6503SOL     OW30970   3.664   1.387   5.605 -0.4646  0.2978 -0.2294
 6503SOL    HW130971   3.623   1.412   5.522  1.3950 -2.0217 -1.8475
 6503SOL    HW230972   3.737   1.327   5.591 -0.4526 -0.2079  1.9851
 6504SOL     OW30973   2.306   4.275  13.744 -0.0881 -0.0909 -0.0634
 6504SOL    HW130974   2.328   4.208  13.809 -1.2004  0.0037  0.4027
 6504SOL    HW230975   2.249   4.330  13.798 -2.0118 -1.5761 -0.5953
 6505SOL     OW30976   2.618   4.253   5.187  0.4849  0.4848  0.2320
 6505SOL    HW130977   2.693   4.285   5.238  0.6115 -3.0577  2.2500
 6505SOL    HW230978   2.620   4.310   5.110 -0.5657  0.5906  0.2821
 6506SOL     OW30979   2.794   0.505   2.936  0.1928  0.1683  0.1996
 6506SOL    HW130980   2.792   0.595   2.967  0.2517  0.1463  0.2693
 6506SOL    HW230981   2.804   0.525   2.843  4.1623  2.0431  1.0052
 6507SOL     OW30982   0.375   2.758  11.323 -0.2694 -0.1542 -0.1801
 6507SOL    HW130983   0.289   2.784  11.290 -0.8249  0.4910  1.8092
 6507SOL    HW230984   0.414   2.845  11.330 -1.2184  0.1284  1.4823
 6508SOL     OW30985   1.187   3.660   3.823  0.1278  0.0784  0.2555
 6508SOL    HW130986   1.272   3.657   3.867  0.7027  0.4419 -0.8280
 6508SOL    HW230987   1.214   3.681   3.733 -1.4938 -0.3141 -0.3244
 6509SOL     OW30988   2.965   2.600   5.131 -0.7252  0.3540 -0.3092
 6509SOL    HW130989   2.978   2.689   5.098 -1.3447 -0.0714 -1.7225
 6509SOL    HW230990   2.873   2.610   5.154 -0.1323  1.7598  1.4615
 6510SOL     OW30991   4.111   2.701  12.618 -0.1920  0.1096  0.6664
 6510SOL    HW130992   4.048   2.684  12.688  0.9370 -2.5693  1.0188
 6510SOL    HW230993   4.056   2.738  12.548 -0.6634  1.2399  1.6312
 6511SOL     OW30994   3.355   2.383   2.285 -0.0482 -0.2127  0.5290
 6511SOL    HW130995   3.315   2.326   2.218  0.4821 -0.6136  0.5567
 6511SOL    HW230996   3.334   2.467   2.244 -0.5522 -0.0486  1.1219
 6512SOL     OW30997   2.767   1.593   3.875 -0.8847  0.4440 -0.0427
 6512SOL    HW130998   2.854   1.568   3.844 -1.7269 -1.6983 -0.7075
 6512SOL    HW230999   2.773   1.575   3.969 -2.2568  0.9267  0.1391
 6513SOL     OW31000   3.682   4.212   3.753 -0.5771  0.0729  0.4298
 6513SOL    HW131001   3.712   4.253   3.834 -1.9044 -1.7072  1.8251
 6513SOL    HW231002   3.587   4.216   3.764 -0.8964 -2.2543 -1.5393
 6514SOL     OW31003   0.845   4.033   7.674 -0.0871  0.0112  0.1194
 6514SOL    HW131004   0.807   3.949   7.701 -0.6107  0.9310  2.2307
 6514SOL    HW231005   0.770   4.091   7.685  1.5902  2.0426  0.6871
 6515SOL     OW31006   4.464   1.953  10.653  0.0042 -0.2117  0.1467
 6515SOL    HW131007   4.497   1.926  10.738  0.2652  0.5441  0.2864
 6515SOL    HW231008   4.418   1.878  10.615  2.6263 -1.7269 -0.0645
 6516SOL     OW31009   0.954   2.584   1.462  0.3007  0.5524  0.3791
 6516SOL    HW131010   0.943   2.509   1.521 -0.5255 -0.2286 -0.7619
 6516SOL    HW231011   0.905   2.651   1.510  0.5496  2.5470 -2.1336
 6517SOL     OW31012   4.698   3.058  11.164 -0.7509  0.2192  0.1731
 6517SOL    HW131013   4.633   3.114  11.207  0.6473  1.0277  1.2641
 6517SOL    HW231014   0.023   3.120  11.106  0.1091 -0.4869  0.0538
 6518SOL     OW31015   3.765   2.134   3.459 -0.4069  0.3677  0.1340
 6518SOL    HW131016   3.690   2.162   3.406 -2.9530 -1.0544  3.0175
 6518SOL    HW231017   3.777   2.039   3.451  0.8477  0.6589 -1.3525
 6519SOL     OW31018   0.467   4.399   4.375  0.2193  0.1314 -0.1456
 6519SOL    HW131019   0.561   4.402   4.394 -0.0234 -0.7585  1.2398
 6519SOL    HW231020   0.452   4.305   4.385 -1.3806  0.5023  1.0379
 6520SOL     OW31021   2.918   0.159   5.127  0.0618  0.1579  0.1218
 6520SOL    HW131022   2.929   0.069   5.094  0.6159  0.6242 -0.9691
 6520SOL    HW231023   3.000   0.200   5.102  0.0202 -0.7053 -1.4765
 6521SOL     OW31024   2.171   3.519   4.321  0.7873  0.0647  0.5644
 6521SOL    HW131025   2.258   3.559   4.313  0.6469  0.1877 -0.2913
 6521SOL    HW231026   2.119   3.596   4.343  0.3857 -0.2671  0.7688
 6522SOL     OW31027   4.612   1.787   2.470  0.0207 -0.4672  0.2427
 6522SOL    HW131028   4.575   1.742   2.547  0.6224 -2.0611 -0.4002
 6522SOL    HW231029   4.688   1.834   2.506  1.0061 -0.6051 -1.6929
 6523SOL     OW31030   1.075   4.143  16.669  0.2595  0.2892  0.0822
 6523SOL    HW131031   1.111   4.133  16.758  1.4888 -0.9952 -0.5481
 6523SOL    HW231032   1.073   4.238  16.655  1.9981  0.3559  0.2872
 6524SOL     OW31033   4.437   4.628   4.646  0.1935  0.5300 -0.6662
 6524SOL    HW131034   4.499   4.557   4.630 -0.0969  0.4463 -1.4260
 6524SOL    HW231035   4.480   4.661   4.725 -1.3185 -0.4490  0.5641
 6525SOL     OW31036   1.644   1.332  17.600  0.9913 -0.0662 -0.6133
 6525SOL    HW131037   1.685   1.266  17.544 -0.1767  0.5715 -2.2309
 6525SOL    HW231038   1.569   1.355  17.544  2.5550  0.8593 -2.3287
 6526SOL     OW31039   3.119   2.823   4.912  0.3532 -0.1300 -0.9261
 6526SOL    HW131040   3.073   2.867   4.984 -1.0819 -4.0905  0.5485
 6526SOL    HW231041   3.114   2.894   4.848  3.1546 -1.7580 -2.9528
 6527SOL     OW31042   3.404   4.029   4.528 -0.2820 -0.0778 -0.1449
 6527SOL    HW131043   3.395   3.936   4.548 -0.1265 -0.1693 -0.4943
 6527SOL    HW231044   3.324   4.049   4.479 -0.0406  1.9670  0.2872
 6528SOL     OW31045   1.316   0.832   5.259  0.5999  0.2726  0.0621
 6528SOL    HW131046   1.291   0.739   5.259  2.0930 -0.1312 -1.8554
 6528SOL    HW231047   1.242   0.865   5.311  0.2473  1.4444 -1.1993
 6529SOL     OW31048   0.788   3.671   0.587 -0.2886 -0.1345 -0.5864
 6529SOL    HW131049   0.790   3.693   0.681  1.7806  1.2548 -0.9629
 6529SOL    HW231050   0.778   3.755   0.541  1.9903  0.3240 -0.2496
 6530SOL     OW31051   3.032   2.396   4.198 -0.3361 -0.0640 -0.3194
 6530SOL    HW131052   3.093   2.383   4.270 -0.4370  1.2601 -0.0087
 6530SOL    HW231053   2.961   2.441   4.243  1.0718  0.6313  1.1824
 6531SOL     OW31054   4.621   3.442  17.578 -0.4084 -0.0957 -1.0334
 6531SOL    HW131055   4.698   3.492  17.603  0.7214 -1.6388 -1.4249
 6531SOL    HW231056   4.548   3.494  17.611 -2.2093 -3.4122  0.2010
 6532SOL     OW31057   2.629   0.907  14.307  0.1369 -0.3070 -0.3571
 6532SOL    HW131058   2.690   0.967  14.350  0.1971 -0.9446  0.4461
 6532SOL    HW231059   2.552   0.910  14.364  1.3353 -1.0131  1.3050
 6533SOL     OW31060   0.533   3.693   2.907 -0.6089  0.6909 -0.2728
 6533SOL    HW131061   0.505   3.673   2.818 -1.2525 -0.0645  0.0970
 6533SOL    HW231062   0.625   3.703   2.883 -0.1421  1.0757  1.6202
 6534SOL     OW31063   1.046   0.141   9.579  0.0939 -0.1617  0.0044
 6534SOL    HW131064   1.079   0.057   9.611  1.4534  0.1580 -0.5673
 6534SOL    HW231065   1.131   0.185   9.579  0.0304 -0.0517  2.0311
 6535SOL     OW31066   4.190   0.106  12.929 -0.0804 -0.0125  0.2635
 6535SOL    HW131067   4.272   0.077  12.890  1.0622  1.2405  1.7557
 6535SOL    HW231068   4.217   0.142  13.013  2.0527  0.8250 -0.7950
 6536SOL     OW31069   0.144   0.557   3.827 -0.7095 -0.2854  0.5795
 6536SOL    HW131070   0.169   0.465   3.819 -1.7297 -0.4491 -0.5860
 6536SOL    HW231071   0.165   0.586   3.739 -3.7058 -0.5140 -0.2027
 6537SOL     OW31072   3.554   4.393   9.931  0.0816 -0.0641  0.6063
 6537SOL    HW131073   3.646   4.392   9.905 -0.5057 -0.5333 -1.5019
 6537SOL    HW231074   3.508   4.361   9.852  3.5016 -1.9772 -0.5879
 6538SOL     OW31075   1.215   3.648   0.226 -0.8982 -0.0143  0.1255
 6538SOL    HW131076   1.125   3.615   0.223 -1.5827  1.7596  0.7764
 6538SOL    HW231077   1.207   3.740   0.253  0.3955  0.0961  0.1310
 6539SOL     OW31078   3.797   0.434  13.346  0.2754  0.2936 -0.3573
 6539SOL    HW131079   3.763   0.382  13.419  1.5978 -1.7271 -1.1718
 6539SOL    HW231080   3.807   0.370  13.276  1.0809  1.1799 -1.0455
 6540SOL     OW31081   2.329   1.858  11.347  0.8486  0.1947  0.0652
 6540SOL    HW131082   2.276   1.918  11.399  0.0134 -1.3706  1.0001
 6540SOL    HW231083   2.306   1.770  11.377 -0.1612  1.1748  2.1721
 6541SOL     OW31084   1.070   1.655   2.207  0.2712 -0.2581  0.5665
 6541SOL    HW131085   1.146   1.607   2.239  0.3666  0.5866  1.5939
 6541SOL    HW231086   1.081   1.643   2.112 -2.8309 -1.2027  0.3146
 6542SOL     OW31087   2.218   2.739  10.155  0.6915  0.1454 -0.3239
 6542SOL    HW131088   2.131   2.762  10.186  0.7806  1.5507 -1.1409
 6542SOL    HW231089   2.226   2.648  10.183  0.5830 -0.1684 -1.3059
 6543SOL     OW31090   1.726   2.482   6.379  0.5513 -0.3199  0.2663
 6543SOL    HW131091   1.727   2.575   6.404  0.7913  0.8746 -4.2377
 6543SOL    HW231092   1.740   2.445   6.466 -0.8998 -1.4429  0.0396
 6544SOL     OW31093   2.825   0.648   5.209  0.4186  0.2119  0.2813
 6544SOL    HW131094   2.767   0.711   5.252 -1.9444 -2.7979  1.5011
 6544SOL    HW231095   2.815   0.574   5.269  0.1204 -1.4847 -1.8796
 6545SOL     OW31096   2.184   1.630   8.887 -0.2411 -0.3307  0.0060
 6545SOL    HW131097   2.218   1.698   8.945  1.5302 -0.8980 -0.3946
 6545SOL    HW231098   2.135   1.593   8.961  0.2601 -2.6310 -0.8328
 6546SOL     OW31099   2.478   3.802  12.786  0.0142  0.2472  0.4687
 6546SOL    HW131100   2.527   3.720  12.783  1.6824  1.2287  0.3102
 6546SOL    HW231101   2.538   3.868  12.823 -1.3329  1.2784  0.8353
 6547SOL     OW31102   0.282   4.477  12.697 -0.2524 -0.0241 -0.3424
 6547SOL    HW131103   0.243   4.389  12.695  3.4606 -1.6343 -0.3732
 6547SOL    HW231104   0.374   4.463  12.715 -0.1776  0.9661  0.0444
 6548SOL     OW31105   1.266   3.162  16.906  0.1701 -0.3796  0.9442
 6548SOL    HW131106   1.227   3.109  16.837 -1.0665  0.5447  0.9419
 6548SOL    HW231107   1.304   3.087  16.952  1.8984 -0.3504 -0.4386
 6549SOL     OW31108   1.920   0.916   6.497  0.1767  0.3028 -0.9038
 6549SOL    HW131109   1.940   1.001   6.536  0.0862  0.7423 -1.8316
 6549SOL    HW231110   1.831   0.928   6.463 -0.2272 -3.8585 -1.3360
 6550SOL     OW31111   3.226   1.394   2.345  0.4079 -0.0583  0.2465
 6550SOL    HW131112   3.204   1.316   2.294 -0.0622  0.0500  0.2776
 6550SOL    HW231113   3.253   1.470   2.292 -0.3473 -0.0257 -0.0933
 6551SOL     OW31114   0.156   3.320   6.731 -0.0178  0.1500 -0.1682
 6551SOL    HW131115   0.150   3.265   6.809  0.9606 -2.0766 -1.6633
 6551SOL    HW231116   0.096   3.275   6.671  0.2713 -1.3252  0.6565
 6552SOL     OW31117   4.253   2.900   3.528 -0.2294  0.1331 -0.7339
 6552SOL    HW131118   4.199   2.846   3.470 -0.6767 -0.4832  0.2628
 6552SOL    HW231119   4.289   2.964   3.466 -1.1952  0.8672 -0.5556
 6553SOL     OW31120   3.011   4.316  13.983 -0.4630 -0.2994 -0.4250
 6553SOL    HW131121   3.013   4.381  13.913 -2.2837  0.3668  0.1399
 6553SOL    HW231122   3.098   4.276  13.982 -0.6079 -0.6193 -0.3340
 6554SOL     OW31123   4.142   2.452   0.474  0.2679  0.1954 -0.4540
 6554SOL    HW131124   4.082   2.498   0.533  2.0893  1.6715  0.2611
 6554SOL    HW231125   4.107   2.364   0.486  3.3618 -0.9550  0.2438
 6555SOL     OW31126   4.140   1.261   7.929 -0.2002 -0.6449  0.6113
 6555SOL    HW131127   4.071   1.325   7.946 -0.8327 -1.3751  0.8271
 6555SOL    HW231128   4.095   1.176   7.937  1.5726 -1.8436 -2.1559
 6556SOL     OW31129   2.674   4.497  16.775 -0.0105  0.1935  0.1672
 6556SOL    HW131130   2.663   4.456  16.861  1.0414  0.3145  0.3650
 6556SOL    HW231131   2.721   4.429  16.728 -0.7145  0.6534 -1.1912
 6557SOL     OW31132   3.527   2.454  10.282  0.0247 -0.1399  0.3259
 6557SOL    HW131133   3.598   2.406  10.240 -0.9515 -1.1184 -0.2145
 6557SOL    HW231134   3.516   2.406  10.363 -2.1937  0.6513  0.4933
 6558SOL     OW31135   0.789   4.659   3.615  0.1028 -0.0136  0.1732
 6558SOL    HW131136   0.733   4.610   3.675 -0.0211 -0.1058 -0.0194
 6558SOL    HW231137   0.732   4.655   3.538  0.0988  3.1312  0.0321
 6559SOL     OW31138   3.578   2.924   8.104 -0.4203  0.2324 -0.0319
 6559SOL    HW131139   3.591   2.917   8.198  0.7368 -1.3775 -0.3193
 6559SOL    HW231140   3.636   2.858   8.067 -1.3674 -1.0231  0.7508
 6560SOL     OW31141   3.826   2.331   5.682 -0.0080  0.6914 -0.7134
 6560SOL    HW131142   3.906   2.369   5.647  1.3757 -3.7158 -2.1693
 6560SOL    HW231143   3.835   2.333   5.778  0.9678  2.7464 -0.8578
 6561SOL     OW31144   4.541   0.151   3.191 -0.0743 -0.4874 -0.2505
 6561SOL    HW131145   4.520   0.069   3.145 -2.9891  0.7934 -1.2137
 6561SOL    HW231146   4.587   0.200   3.122  1.2389 -0.1062  0.9020
 6562SOL     OW31147   1.139   1.778   0.805  0.6745 -0.5117 -0.0659
 6562SOL    HW131148   1.101   1.698   0.770 -0.1890 -0.0751 -0.1188
 6562SOL    HW231149   1.126   1.844   0.737  1.7417  0.0660  0.2852
 6563SOL     OW31150   0.651   0.999  12.536 -0.2511  0.0095  0.2168
 6563SOL    HW131151   0.622   0.908  12.532  0.7378 -0.2471 -1.1941
 6563SOL    HW231152   0.740   0.991  12.569  0.6192  2.5371 -1.4660
 6564SOL     OW31153   3.199   0.082   8.515 -0.0814  0.0629  0.0904
 6564SOL    HW131154   3.198   4.711   8.481  1.0363  1.0451 -2.5326
 6564SOL    HW231155   3.123   0.109   8.462 -1.0315 -0.1206  1.3438
 6565SOL     OW31156   0.384   2.673  12.847  0.4130  0.7081 -0.6535
 6565SOL    HW131157   0.336   2.697  12.768 -0.7441  1.0268  0.1504
 6565SOL    HW231158   0.309   2.668  12.906 -0.4797  3.2957 -1.6156
 6566SOL     OW31159   1.434   2.259  11.732 -0.0366 -0.0934  0.4248
 6566SOL    HW131160   1.512   2.207  11.710 -1.5926 -0.8100 -3.3105
 6566SOL    HW231161   1.391   2.269  11.647  0.1619  0.1495  0.3534
 6567SOL     OW31162   4.661   4.344   4.990 -0.2012 -0.0482  0.0882
 6567SOL    HW131163   4.646   4.322   4.898 -0.1363  1.0161 -0.1786
 6567SOL    HW231164   0.036   4.363   5.000  0.2260 -1.4018 -1.1849
 6568SOL     OW31165   4.601   0.077   6.024  0.3545  0.5143 -0.2249
 6568SOL    HW131166   4.543   0.062   6.099  0.0762 -0.4476 -0.6323
 6568SOL    HW231167   4.676   0.019   6.039  1.5837  1.0673 -4.3321
 6569SOL     OW31168   3.640   2.499   4.045 -0.0523  0.1079 -0.3705
 6569SOL    HW131169   3.566   2.491   4.106  0.1807  1.2286  0.0639
 6569SOL    HW231170   3.601   2.515   3.959  1.7237  1.5581 -0.9163
 6570SOL     OW31171   1.529   4.033   1.771 -0.4948  0.0712  0.0241
 6570SOL    HW131172   1.459   3.973   1.795 -1.2696  1.1003  0.2916
 6570SOL    HW231173   1.499   4.106   1.824  0.1201 -1.0940  1.9491
 6571SOL     OW31174   3.471   0.227   4.695 -0.6983 -0.3743 -0.4507
 6571SOL    HW131175   3.480   0.313   4.652 -0.3209  1.0640  2.4994
 6571SOL    HW231176   3.557   0.190   4.677  0.3414  1.2247  1.2582
 6572SOL     OW31177   2.487   3.017   8.289  0.1228 -0.2767  0.0444
 6572SOL    HW131178   2.563   3.058   8.331 -0.4440  2.3529 -1.4415
 6572SOL    HW231179   2.490   2.927   8.320 -0.3455 -0.2943  0.0378
 6573SOL     OW31180   3.920   4.449   8.251 -0.2508  0.3707 -0.3510
 6573SOL    HW131181   3.855   4.504   8.208  0.0191  1.1392  0.2117
 6573SOL    HW231182   3.986   4.515   8.271  2.3461 -2.8113  1.5701
 6574SOL     OW31183   2.546   4.672   8.063  0.1148 -0.1504  0.4489
 6574SOL    HW131184   2.573   0.033   8.109  0.3444  0.4079 -0.6462
 6574SOL    HW231185   2.612   4.606   8.086 -0.5197 -1.0727 -0.3794
 6575SOL     OW31186   3.788   1.626   7.546  0.2647 -0.4690  0.3830
 6575SOL    HW131187   3.736   1.654   7.471  1.1086  0.3806  0.1103
 6575SOL    HW231188   3.749   1.670   7.622  0.7948 -1.0579  0.9931
 6576SOL     OW31189   3.105   0.399   5.854  0.6515  0.3276  0.0086
 6576SOL    HW131190   3.135   0.389   5.944 -0.2719  1.3775  0.4325
 6576SOL    HW231191   3.027   0.455   5.854 -0.1051 -0.7254 -1.7934
 6577SOL     OW31192   1.779   2.965   4.486  0.0651 -0.6885  0.1125
 6577SOL    HW131193   1.864   2.926   4.463 -1.0349 -2.2546 -1.2386
 6577SOL    HW231194   1.729   2.884   4.481 -0.3827 -0.4705  1.3061
 6578SOL     OW31195   0.869   0.626   2.583 -0.1874 -0.3793 -0.0056
 6578SOL    HW131196   0.961   0.604   2.596  0.1680  1.6130  0.8175
 6578SOL    HW231197   0.844   0.550   2.530 -2.7380  0.0278  0.6395
 6579SOL     OW31198   2.753   4.257   3.087 -0.5559  0.4717  0.1903
 6579SOL    HW131199   2.715   4.342   3.109  1.7521  1.2876  1.0210
 6579SOL    HW231200   2.750   4.271   2.992 -1.0555 -1.2789 -0.0565
 6580SOL     OW31201   3.106   3.783   0.177  0.6389 -0.3517  0.3473
 6580SOL    HW131202   3.070   3.820   0.097 -0.1010  0.3629  1.0032
 6580SOL    HW231203   3.111   3.694   0.142  1.5129 -0.6264  1.1733
 6581SOL     OW31204   0.908   0.889   8.765  0.3941 -0.6764  0.3837
 6581SOL    HW131205   0.895   0.841   8.847  1.0738  0.3050  1.0582
 6581SOL    HW231206   0.820   0.924   8.748 -0.2540 -1.9776  1.0855
 6582SOL     OW31207   1.981   3.943  12.873  0.5864  0.2095 -0.4310
 6582SOL    HW131208   2.042   4.007  12.911  0.7898 -0.2274 -0.0221
 6582SOL    HW231209   1.942   3.991  12.800  0.6750 -1.9736 -1.9104
 6583SOL     OW31210   1.494   3.611  11.656 -0.4299 -0.4513  0.2605
 6583SOL    HW131211   1.410   3.593  11.613  0.4483  0.4541 -1.8565
 6583SOL    HW231212   1.548   3.573  11.587 -0.5092 -0.8837  0.4427
 6584SOL     OW31213   3.016   2.622  14.319 -0.1374  0.6358 -0.7007
 6584SOL    HW131214   3.109   2.600  14.325  0.4586  3.3921 -0.1037
 6584SOL    HW231215   3.022   2.711  14.283  0.7575  1.3799  1.3372
 6585SOL     OW31216   3.831   1.876   2.486 -0.6210 -0.1492  0.1389
 6585SOL    HW131217   3.866   1.954   2.529 -1.2530  1.1810 -1.7995
 6585SOL    HW231218   3.765   1.916   2.431  0.0092 -0.7661 -1.0663
 6586SOL     OW31219   3.020   1.374   5.211 -0.2972  0.2485 -0.0722
 6586SOL    HW131220   3.022   1.314   5.285 -1.1388  2.2877  1.6081
 6586SOL    HW231221   3.113   1.397   5.212  0.5111 -3.1648  0.7973
 6587SOL     OW31222   2.892   0.748  16.625  0.5352 -0.0385  0.0409
 6587SOL    HW131223   2.814   0.800  16.606 -0.0755 -1.0419 -0.2268
 6587SOL    HW231224   2.855   0.681  16.683 -0.1760  0.6236  0.3511
 6588SOL     OW31225   0.257   1.973   1.918  0.7927 -0.6896  0.2806
 6588SOL    HW131226   0.226   2.030   1.988 -1.0846 -0.1707 -0.9870
 6588SOL    HW231227   0.223   1.896   1.965  0.0494 -0.7910 -0.4348
 6589SOL     OW31228   1.617   3.709  10.315  0.5693  0.3419  0.0889
 6589SOL    HW131229   1.528   3.740  10.329 -0.2787 -1.3480 -1.6235
 6589SOL    HW231230   1.598   3.621  10.282 -1.4006  1.5687 -2.0152
 6590SOL     OW31231   4.455   0.014   9.485  0.0507  1.0505 -0.2570
 6590SOL    HW131232   4.463   0.068   9.406  3.1069 -0.6048 -1.0460
 6590SOL    HW231233   4.466   0.075   9.558 -0.6154  0.7269  0.1162
 6591SOL     OW31234   0.325   1.943   7.750  0.2208 -0.2274 -0.3880
 6591SOL    HW131235   0.311   1.924   7.843  0.7062 -2.3653 -0.7330
 6591SOL    HW231236   0.350   1.862   7.704 -1.4757 -1.0979  0.2353
 6592SOL     OW31237   3.281   1.758   7.319 -0.6477 -0.3792 -0.5875
 6592SOL    HW131238   3.297   1.751   7.224  0.4676 -1.3053 -0.3338
 6592SOL    HW231239   3.338   1.687   7.348 -2.8491 -1.0679  2.0547
 6593SOL     OW31240   0.053   1.873  12.095  0.0681  0.6036  0.1301
 6593SOL    HW131241   0.099   1.792  12.117 -0.9755  0.1536  0.6090
 6593SOL    HW231242   0.009   1.894  12.177 -0.3239 -1.5058  0.4454
 6594SOL     OW31243   0.762   4.133   5.594  0.0723 -0.2807 -0.6167
 6594SOL    HW131244   0.792   4.224   5.591 -1.9150  0.4281  0.7630
 6594SOL    HW231245   0.774   4.111   5.501  0.1227 -1.9712 -0.2088
 6595SOL     OW31246   3.986   1.407  11.125 -0.3716 -0.4462 -0.7945
 6595SOL    HW131247   3.907   1.461  11.127 -0.4243 -0.6566  2.5707
 6595SOL    HW231248   3.978   1.340  11.193 -0.4807 -1.1242 -1.4770
 6596SOL     OW31249   1.647   2.517   8.321  0.3135  0.2324 -0.3907
 6596SOL    HW131250   1.553   2.532   8.329  0.1684  0.1396 -1.9672
 6596SOL    HW231251   1.654   2.485   8.231 -0.8896  2.2556 -1.2022
 6597SOL     OW31252   1.782   1.079   1.817  0.6026 -0.6968 -0.5596
 6597SOL    HW131253   1.840   1.004   1.819  0.4566 -0.7456  1.5109
 6597SOL    HW231254   1.809   1.116   1.733 -0.0538  0.8409 -0.1054
 6598SOL     OW31255   4.685   0.071   9.190 -0.2436  0.2706 -0.1205
 6598SOL    HW131256   0.036   0.125   9.230  0.2617 -1.0638  0.8027
 6598SOL    HW231257   4.617   0.128   9.225 -1.7319 -0.3091 -2.0838
 6599SOL     OW31258   1.239   0.145   7.173 -0.2379  0.1146 -0.5846
 6599SOL    HW131259   1.290   0.071   7.142  0.1487  0.1092  0.0541
 6599SOL    HW231260   1.152   0.112   7.192 -0.6021  2.5071  2.0052
 6600SOL     OW31261   1.653   3.460  14.466  0.1654  0.6095  0.1324
 6600SOL    HW131262   1.572   3.442  14.515  0.0123 -1.4750 -0.8871
 6600SOL    HW231263   1.665   3.553  14.484 -2.7144  1.3042 -1.5709
 6601SOL     OW31264   4.060   2.129  12.813  0.2027 -0.4964  0.1823
 6601SOL    HW131265   4.102   2.195  12.868  1.9832 -0.3806 -1.3122
 6601SOL    HW231266   4.129   2.110  12.749  0.0038  0.6160 -0.3606
 6602SOL     OW31267   2.350   3.502   7.459  0.4982  0.7056 -0.6507
 6602SOL    HW131268   2.361   3.450   7.379 -1.7025  0.4845 -0.7904
 6602SOL    HW231269   2.436   3.527   7.493  0.5583  1.3224 -1.2579
 6603SOL     OW31270   2.651   3.529  11.984  0.4626  0.3051 -0.0374
 6603SOL    HW131271   2.686   3.566  11.903 -2.3950  1.1660 -0.8706
 6603SOL    HW231272   2.727   3.480  12.016 -1.3283 -2.3744  0.0888
 6604SOL     OW31273   0.176   3.611   4.259 -0.0135  0.1609  0.6664
 6604SOL    HW131274   0.211   3.590   4.346  1.0024  0.0965  0.2346
 6604SOL    HW231275   0.103   3.549   4.254  1.6325 -1.9657  2.7906
 6605SOL     OW31276   2.793   3.415   4.126 -0.0953 -0.5496  0.2646
 6605SOL    HW131277   2.827   3.359   4.057  2.1798  2.2990 -0.9285
 6605SOL    HW231278   2.821   3.368   4.205 -1.2819  0.9404  1.5657
 6606SOL     OW31279   3.770   2.991   0.175  0.4118  0.0093  0.3639
 6606SOL    HW131280   3.744   2.907   0.214 -0.9123 -0.7042 -2.0768
 6606SOL    HW231281   3.859   3.011   0.205  1.4821 -0.8889 -2.2644
 6607SOL     OW31282   4.483   0.290   4.805  0.3051 -0.1961  0.2370
 6607SOL    HW131283   4.482   0.259   4.714  0.0108  1.3123 -0.2780
 6607SOL    HW231284   4.524   0.376   4.796 -1.9567  0.9850  1.0828
 6608SOL     OW31285   4.068   3.070  14.278 -0.0217  0.0435 -0.2234
 6608SOL    HW131286   3.996   3.008  14.271 -1.0241  1.0292  1.5507
 6608SOL    HW231287   4.021   3.142  14.237 -1.1243 -0.9493 -0.6721
 6609SOL     OW31288   0.617   0.051   5.489  0.0038  0.4144  0.2934
 6609SOL    HW131289   0.570   0.113   5.544  0.0234  4.8672 -4.7447
 6609SOL    HW231290   0.706   0.067   5.521  0.2522  1.1095 -0.7617
 6610SOL     OW31291   0.206   4.315   3.362 -0.0143  0.1708 -0.0363
 6610SOL    HW131292   0.268   4.381   3.332 -1.9130  1.3548 -1.3483
 6610SOL    HW231293   0.156   4.292   3.284  2.0637  0.6200 -1.4834
 6611SOL     OW31294   3.277   4.031  13.730  0.6075  0.6971 -0.5624
 6611SOL    HW131295   3.265   3.967  13.801 -1.7738  2.1139  0.2972
 6611SOL    HW231296   3.214   4.000  13.666  1.5386 -1.7865 -0.2921
 6612SOL     OW31297   1.482   1.656   6.818  0.0986 -0.3140  0.6132
 6612SOL    HW131298   1.489   1.563   6.793 -3.0058 -0.8270  1.5460
 6612SOL    HW231299   1.575   1.676   6.813  0.2895 -1.5267 -0.6236
 6613SOL     OW31300   4.378   3.775  16.122 -0.6625 -0.2347 -0.1110
 6613SOL    HW131301   4.448   3.834  16.095 -0.5804  0.4817  1.6601
 6613SOL    HW231302   4.414   3.722  16.193 -1.0796  2.9106  2.4300
 6614SOL     OW31303   1.969   2.128   6.353 -0.1376 -0.0741 -0.0984
 6614SOL    HW131304   1.889   2.099   6.395  0.0617 -1.2139 -0.4906
 6614SOL    HW231305   1.966   2.223   6.343  0.1865  0.0191  0.7365
 6615SOL     OW31306   3.789   2.406   6.162 -0.3541  0.1628 -0.1275
 6615SOL    HW131307   3.820   2.350   6.091  2.0221  0.6455  0.5049
 6615SOL    HW231308   3.775   2.491   6.121 -0.7923 -0.2797 -0.8792
 6616SOL     OW31309   1.307   1.795  17.607  0.2924  0.3406  0.4039
 6616SOL    HW131310   1.288   1.797   0.025 -0.1090 -2.1373  0.3836
 6616SOL    HW231311   1.320   1.702  17.585  2.3632  0.7228 -0.0005
 6617SOL     OW31312   4.563   3.225   6.195 -0.7791 -0.3124 -0.2599
 6617SOL    HW131313   4.600   3.216   6.108 -0.3583 -0.6209 -0.0512
 6617SOL    HW231314   4.624   3.173   6.248 -0.2760  2.3618  1.8155
 6618SOL     OW31315   1.976   3.693   4.964  0.2702 -0.3261  0.3923
 6618SOL    HW131316   1.889   3.697   4.924  0.7046 -2.8134 -0.8450
 6618SOL    HW231317   1.995   3.786   4.954  0.8104 -0.0693  3.6918
 6619SOL     OW31318   2.226   0.767   1.878  0.0703  0.6698  0.0197
 6619SOL    HW131319   2.235   0.767   1.783  0.5386  2.7464  0.0709
 6619SOL    HW231320   2.314   0.775   1.916  0.4151  0.2213 -0.6797
 6620SOL     OW31321   4.656   2.107   5.203 -0.0293 -0.6549 -0.3140
 6620SOL    HW131322   4.706   2.076   5.127  1.1862 -1.7080  0.9126
 6620SOL    HW231323   4.709   2.181   5.232 -0.2962 -1.9963  3.6762
 6621SOL     OW31324   3.483   0.347  14.692 -0.0814 -0.3595  0.0509
 6621SOL    HW131325   3.433   0.283  14.642 -0.7743 -2.0381  2.9192
 6621SOL    HW231326   3.557   0.288  14.705 -0.2636 -0.8412 -1.1331
 6622SOL     OW31327   0.136   0.997   4.862 -0.0341 -0.8044  0.4449
 6622SOL    HW131328   0.157   0.981   4.770 -1.2599 -0.7875  0.1618
 6622SOL    HW231329   0.051   1.040   4.861  0.7495  0.7665  2.6964
 6623SOL     OW31330   0.477   4.126   4.932  0.1775 -0.3748  0.2903
 6623SOL    HW131331   0.558   4.151   4.888 -0.7070 -2.6857 -2.6109
 6623SOL    HW231332   0.481   4.180   5.011 -0.8450 -1.4367  1.0543
 6624SOL     OW31333   4.716   1.251   1.767  0.3689 -0.5176 -0.2497
 6624SOL    HW131334   0.076   1.286   1.724  2.5635 -0.8936  3.4720
 6624SOL    HW231335   4.655   1.321   1.741  1.8203  1.1898  0.8977
 6625SOL     OW31336   3.321   3.873   2.714  0.2092  0.3346 -0.1429
 6625SOL    HW131337   3.373   3.818   2.655 -0.3204  1.5661 -1.7710
 6625SOL    HW231338   3.310   3.811   2.785  1.2693 -0.5823 -0.7790
 6626SOL     OW31339   0.356   1.875   6.154 -0.2559 -0.2086 -0.0064
 6626SOL    HW131340   0.418   1.889   6.225 -0.7495 -2.1492  0.8250
 6626SOL    HW231341   0.351   1.965   6.123  0.3266  0.8541  3.0365
 6627SOL     OW31342   2.739   2.662   5.462  0.0733 -0.2079 -0.1201
 6627SOL    HW131343   2.812   2.602   5.451 -0.1175 -0.2086 -1.3517
 6627SOL    HW231344   2.693   2.615   5.532  1.4197 -1.2747  0.0520
 6628SOL     OW31345   2.770   0.595   0.683 -0.2944  0.0037 -0.9922
 6628SOL    HW131346   2.756   0.616   0.775 -1.3578  2.0652 -1.6138
 6628SOL    HW231347   2.810   0.675   0.648 -0.6525  0.8346  0.5021
 6629SOL     OW31348   1.580   3.315   9.806  0.3383  0.1192 -0.4546
 6629SOL    HW131349   1.620   3.233   9.778  0.5376  0.1729 -0.3247
 6629SOL    HW231350   1.490   3.286   9.820  1.1031  0.2928  4.7877
 6630SOL     OW31351   2.666   0.637   4.206  0.2876  0.5719  0.0727
 6630SOL    HW131352   2.625   0.590   4.134 -0.1655  3.2518 -1.4374
 6630SOL    HW231353   2.753   0.640   4.167 -0.4263 -0.2327 -1.5852
 6631SOL     OW31354   2.887   4.610   5.553  0.7304 -0.1750  0.1483
 6631SOL    HW131355   2.926   4.692   5.525 -1.2392  1.2982  1.7263
 6631SOL    HW231356   2.951   4.544   5.526 -0.6519 -0.5173 -2.3617
 6632SOL     OW31357   1.500   1.664   3.094  0.1811  0.1428 -0.1541
 6632SOL    HW131358   1.564   1.734   3.084  0.8696 -0.7902 -2.3568
 6632SOL    HW231359   1.495   1.646   3.000  0.2990 -1.8913  0.2460
 6633SOL     OW31360   4.576   3.898  14.350  1.1435 -1.0229 -0.1903
 6633SOL    HW131361   4.565   3.840  14.426  1.2114 -0.2949  0.3840
 6633SOL    HW231362   4.568   3.989  14.379 -1.1319 -1.5889  0.9182
 6634SOL     OW31363   1.577   2.487   2.810  0.2996 -0.5052  0.2185
 6634SOL    HW131364   1.561   2.515   2.900 -0.2106  0.0844 -0.0549
 6634SOL    HW231365   1.672   2.494   2.801  0.0617  1.8667 -0.4799
 6635SOL     OW31366   3.883   4.068  14.449 -0.5511 -0.1863  0.6432
 6635SOL    HW131367   3.808   4.115  14.488 -2.3014 -1.3068 -1.3570
 6635SOL    HW231368   3.822   4.032  14.384 -0.0074  1.3991 -0.7466
 6636SOL     OW31369   3.724   0.776   8.479 -0.0650  0.7654  0.3531
 6636SOL    HW131370   3.795   0.712   8.479 -1.3929 -0.6922  0.9474
 6636SOL    HW231371   3.767   0.842   8.534 -0.1282 -0.8064  2.3051
 6637SOL     OW31372   1.159   3.008  12.949  0.2437  0.0324 -0.2917
 6637SOL    HW131373   1.136   3.099  12.934  1.2291  0.2446 -0.5685
 6637SOL    HW231374   1.218   2.982  12.877  0.2044 -1.3549  0.1689
 6638SOL     OW31375   4.109   4.059   8.231 -0.1154  0.0988  0.1392
 6638SOL    HW131376   4.133   4.146   8.198 -0.9377  1.3729  2.8406
 6638SOL    HW231377   4.187   4.032   8.279 -0.0350  2.2894  1.2793
 6639SOL     OW31378   3.112   0.982   8.902 -0.5025 -0.0313  0.3383
 6639SOL    HW131379   3.150   0.961   8.987 -1.3396 -1.8412  0.2641
 6639SOL    HW231380   3.106   0.894   8.865 -1.3328  0.1674  0.0119
 6640SOL     OW31381   2.502   4.215   2.017 -0.7593 -0.1363 -0.3329
 6640SOL    HW131382   2.581   4.225   1.964 -1.3173 -3.5281 -1.7826
 6640SOL    HW231383   2.496   4.298   2.065  2.0865  0.6436 -1.3100
 6641SOL     OW31384   4.484   4.033   6.101 -0.2276 -0.3108  0.4473
 6641SOL    HW131385   4.553   4.035   6.034  1.9544 -1.4230  2.6480
 6641SOL    HW231386   4.507   4.108   6.155  0.5231 -0.3194  0.1434
 6642SOL     OW31387   2.288   4.536   0.645 -0.0887  0.4277  0.3715
 6642SOL    HW131388   2.378   4.556   0.619  0.1516 -0.6120  0.4020
 6642SOL    HW231389   2.283   4.441   0.632  0.1900  0.3344  0.9079
 6643SOL     OW31390   2.272   1.256   3.664  0.4457  0.3372 -1.2352
 6643SOL    HW131391   2.220   1.177   3.679  1.3240 -0.0443 -0.1950
 6643SOL    HW231392   2.220   1.293   3.593 -0.2285  0.7010 -0.5597
 6644SOL     OW31393   2.019   0.510  10.433  0.4005  0.6712  0.0780
 6644SOL    HW131394   2.105   0.542  10.461  1.2395  0.1865 -1.9862
 6644SOL    HW231395   1.959   0.584  10.443 -2.2843 -1.4784 -0.2934
 6645SOL     OW31396   2.114   1.265   1.483  0.1129  0.0179 -0.0253
 6645SOL    HW131397   2.081   1.351   1.460 -0.6987 -0.1679  0.4218
 6645SOL    HW231398   2.203   1.274   1.449  0.6373  0.9234  1.5867
 6646SOL     OW31399   3.687   3.750   5.399 -0.4284  0.1770 -0.0749
 6646SOL    HW131400   3.603   3.746   5.353 -0.1399  0.6325 -0.6415
 6646SOL    HW231401   3.742   3.723   5.325 -0.2074  0.6221 -0.0705
 6647SOL     OW31402   1.608   2.550   2.062 -0.3268 -0.1148  0.6337
 6647SOL    HW131403   1.702   2.567   2.063 -0.0339 -1.5972 -1.5427
 6647SOL    HW231404   1.588   2.575   2.153 -0.3730 -0.9419  0.8486
 6648SOL     OW31405   3.451   3.027   7.006 -0.8156 -0.0162 -0.0008
 6648SOL    HW131406   3.457   3.076   6.924  1.8934 -1.1809 -0.4951
 6648SOL    HW231407   3.436   3.106   7.059 -1.6207  0.7385 -1.3417
 6649SOL     OW31408   3.282   0.249   6.774  0.5372 -0.1723  0.0653
 6649SOL    HW131409   3.346   0.229   6.842  1.3738 -2.4568 -1.3979
 6649SOL    HW231410   3.252   0.335   6.803 -1.3192 -0.2602 -1.5596
 6650SOL     OW31411   0.995   2.192   2.498 -0.2897  0.4200 -0.0902
 6650SOL    HW131412   1.032   2.261   2.444  0.0606 -0.4831 -1.0061
 6650SOL    HW231413   0.932   2.155   2.436 -0.3742  0.4690 -0.0337
 6651SOL     OW31414   3.174   0.835   1.161 -0.5128 -0.1776 -0.5162
 6651SOL    HW131415   3.194   0.749   1.124  1.3604  0.2680 -0.5543
 6651SOL    HW231416   3.215   0.824   1.247  0.2565 -0.5757 -0.9326
 6652SOL     OW31417   2.286   1.836  11.668  0.3761 -0.1625 -0.7153
 6652SOL    HW131418   2.376   1.861  11.688 -0.7832  2.7473  0.9119
 6652SOL    HW231419   2.317   1.757  11.623 -1.4989 -1.8398  0.9379
 6653SOL     OW31420   3.299   4.310   0.254 -0.3436 -0.4228 -0.0582
 6653SOL    HW131421   3.358   4.235   0.260  0.9722  0.6473  0.3241
 6653SOL    HW231422   3.343   4.377   0.201 -3.4383  2.2326  0.7443
 6654SOL     OW31423   2.890   0.133   1.323 -0.2989  0.1485  0.4390
 6654SOL    HW131424   2.829   0.195   1.284  0.4331  0.4640 -0.2043
 6654SOL    HW231425   2.828   0.088   1.381 -2.0272  0.9132 -0.8207
 6655SOL     OW31426   1.361   2.443   5.532  0.0377  0.0982  0.5260
 6655SOL    HW131427   1.428   2.400   5.479  2.1481  0.1549  3.0866
 6655SOL    HW231428   1.277   2.421   5.494  1.2049 -3.3436 -0.0335
 6656SOL     OW31429   0.935   0.073   4.956  0.0034  0.4326 -0.3466
 6656SOL    HW131430   0.908   0.047   5.044  0.1776 -0.6536 -0.6133
 6656SOL    HW231431   0.896   0.008   4.897 -0.1101 -1.3126  1.6267
 6657SOL     OW31432   4.471   2.830   8.842 -0.6783  0.2938 -0.5142
 6657SOL    HW131433   4.492   2.775   8.918 -0.1020  1.4837  0.1785
 6657SOL    HW231434   4.538   2.807   8.778  1.4456  0.2909  1.6901
 6658SOL     OW31435   0.258   3.261  11.644  0.0923  0.0540  0.0540
 6658SOL    HW131436   0.293   3.304  11.565 -0.8782  0.3302 -0.2342
 6658SOL    HW231437   0.330   3.280  11.704 -1.4305  1.1745  1.5147
 6659SOL     OW31438   1.096   0.267   2.113  0.0796  0.0670  0.1569
 6659SOL    HW131439   1.034   0.329   2.076 -0.9522 -0.9065  0.2297
 6659SOL    HW231440   1.177   0.289   2.068 -0.5964  1.7401 -0.2065
 6660SOL     OW31441   3.293   1.981  12.851  0.5590  0.0641 -0.0876
 6660SOL    HW131442   3.226   1.995  12.918 -0.4557 -0.3213 -1.0206
 6660SOL    HW231443   3.286   1.887  12.832 -2.0547  0.6484 -2.0437
 6661SOL     OW31444   1.415   0.036   8.770 -0.7643 -0.0323 -0.8505
 6661SOL    HW131445   1.384   0.091   8.698 -0.4332  1.8961  0.4734
 6661SOL    HW231446   1.388   4.667   8.742 -1.6050 -0.5200  1.4850
 6662SOL     OW31447   1.304   0.281   9.520  0.1318  1.0649  0.3751
 6662SOL    HW131448   1.337   0.222   9.452  1.9865 -0.3580  2.5336
 6662SOL    HW231449   1.283   0.352   9.459  1.3135  0.4203 -0.7784
 6663SOL     OW31450   2.986   1.294   6.042  0.0206  0.4069  0.7375
 6663SOL    HW131451   2.967   1.207   6.077 -1.6402  1.0602  1.4720
 6663SOL    HW231452   2.946   1.351   6.108  0.9919  1.1528  0.6870
 6664SOL     OW31453   0.883   3.084   9.357  0.0281 -0.0180 -0.0359
 6664SOL    HW131454   0.962   3.051   9.400 -0.2042  0.2416  0.5955
 6664SOL    HW231455   0.924   3.107   9.273  1.2062 -1.5630  0.1022
 6665SOL     OW31456   2.059   3.342   3.429 -0.3476  0.5508 -0.0007
 6665SOL    HW131457   2.154   3.330   3.426 -0.7859 -2.6828 -0.3267
 6665SOL    HW231458   2.015   3.265   3.394  0.9166  0.4886 -1.4939
 6666SOL     OW31459   0.727   0.235   3.634 -0.8098 -0.3452  0.4919
 6666SOL    HW131460   0.779   0.259   3.711 -1.8736 -2.0070  1.7478
 6666SOL    HW231461   0.741   0.141   3.646 -0.1908  0.0233  2.7981
 6667SOL     OW31462   3.623   3.958   2.380 -0.3572 -0.2670  0.2466
 6667SOL    HW131463   3.542   3.985   2.338 -0.3616 -0.5825  0.0503
 6667SOL    HW231464   3.683   3.988   2.312  2.8654 -2.0230  2.2665
 6668SOL     OW31465   1.328   3.538  12.542 -0.3954 -0.6614 -0.1974
 6668SOL    HW131466   1.311   3.572  12.630 -0.1877 -1.3931  0.1238
 6668SOL    HW231467   1.422   3.555  12.530 -0.5304  0.7676  0.7673
 6669SOL     OW31468   4.131   0.829  14.768 -0.4221  0.0398 -0.0734
 6669SOL    HW131469   4.039   0.825  14.743 -0.2581 -2.6013 -0.2799
 6669SOL    HW231470   4.146   0.903  14.710  0.9579 -0.4631 -0.3666
 6670SOL     OW31471   0.635   0.560   0.725  0.2721 -0.6584 -0.1821
 6670SOL    HW131472   0.609   0.564   0.817  1.5960  0.3047  0.1489
 6670SOL    HW231473   0.730   0.549   0.722  0.5687  1.7734  0.7227
 6671SOL     OW31474   0.329   1.208   4.494 -0.2547 -0.4338 -0.1345
 6671SOL    HW131475   0.295   1.297   4.505  1.2876  0.0912  0.2394
 6671SOL    HW231476   0.266   1.178   4.428  1.1215 -2.5759 -0.4822
 6672SOL     OW31477   4.153   1.675   4.757  0.6005  0.0856  0.7604
 6672SOL    HW131478   4.133   1.581   4.760  0.2737  0.1041 -0.7835
 6672SOL    HW231479   4.163   1.692   4.664 -0.3500 -2.4864  0.1863
 6673SOL     OW31480   4.328   2.062   0.615  0.8208 -0.7082  0.2015
 6673SOL    HW131481   4.250   2.055   0.669 -0.0888  0.8688 -0.9188
 6673SOL    HW231482   4.360   2.148   0.641  1.0592 -0.5967 -0.4559
 6674SOL     OW31483   0.414   3.171   4.516 -0.2351  0.2237  0.1767
 6674SOL    HW131484   0.424   3.220   4.598  1.0403 -1.3826  0.9921
 6674SOL    HW231485   0.503   3.159   4.484 -0.2544  2.3223 -0.6577
 6675SOL     OW31486   0.873   1.163   6.003 -0.4023 -0.6376 -0.1809
 6675SOL    HW131487   0.830   1.131   6.083 -0.6130  0.2778  0.0694
 6675SOL    HW231488   0.875   1.085   5.947 -1.0728 -0.3118 -0.6578
 6676SOL     OW31489   0.718   2.121   9.204 -0.2650 -0.2902  0.0933
 6676SOL    HW131490   0.726   2.201   9.255 -0.7974  0.3969 -0.9053
 6676SOL    HW231491   0.692   2.158   9.120 -3.0914 -2.0551  0.1493
 6677SOL     OW31492   2.647   1.780   2.819  0.3062  0.2328  0.1912
 6677SOL    HW131493   2.655   1.687   2.842  2.9483  0.2780 -0.5806
 6677SOL    HW231494   2.735   1.805   2.792 -0.4648  0.4324 -2.1597
 6678SOL     OW31495   1.114   2.427   1.298  0.1247 -0.2847  0.0273
 6678SOL    HW131496   1.059   2.478   1.358 -0.4531 -0.0237 -0.7266
 6678SOL    HW231497   1.083   2.339   1.319  0.1776 -0.3914 -0.3332
 6679SOL     OW31498   0.486   1.039   9.306  0.0681  0.4814  0.1589
 6679SOL    HW131499   0.402   0.998   9.322  0.1805 -0.4423 -1.6650
 6679SOL    HW231500   0.461   1.083   9.225 -1.3208 -0.3569  0.1325
 6680SOL     OW31501   3.694   3.850   0.940 -0.2767  0.3128 -0.1738
 6680SOL    HW131502   3.658   3.822   1.025  0.2830  1.2261  0.3696
 6680SOL    HW231503   3.614   3.881   0.897  1.3571  1.3616 -2.4096
 6681SOL     OW31504   2.711   0.309   1.244  0.2021 -0.1523 -0.0439
 6681SOL    HW131505   2.730   0.383   1.186 -1.2711 -0.0379 -0.3816
 6681SOL    HW231506   2.617   0.293   1.237  0.3780 -0.9202 -0.6942
 6682SOL     OW31507   1.767   0.772  12.815  0.0632 -0.0359  0.0280
 6682SOL    HW131508   1.703   0.816  12.758  1.3456  0.4095 -1.0825
 6682SOL    HW231509   1.708   0.715  12.863  2.7477 -2.9525 -0.1486
 6683SOL     OW31510   3.668   1.575  13.119  0.0981  0.3625 -0.2214
 6683SOL    HW131511   3.746   1.629  13.105  0.8436 -1.0056 -1.3367
 6683SOL    HW231512   3.713   1.510  13.174 -0.1712  1.6177  1.4849
 6684SOL     OW31513   3.454   3.936  13.132 -0.7044 -0.1219 -0.1277
 6684SOL    HW131514   3.431   3.963  13.221 -0.8762 -0.7260  0.0060
 6684SOL    HW231515   3.537   3.984  13.121 -2.1411  2.3927  0.1512
 6685SOL     OW31516   0.335   1.441   5.573 -0.2533  0.6717 -0.9456
 6685SOL    HW131517   0.372   1.354   5.583 -0.5265  0.6918  0.3147
 6685SOL    HW231518   0.249   1.436   5.615  0.2612 -0.1956  0.0114
 6686SOL     OW31519   1.066   2.457   1.879  0.4222  0.1283  0.6012
 6686SOL    HW131520   1.085   2.404   1.802  0.6374 -0.5627  1.1335
 6686SOL    HW231521   1.158   2.474   1.902  1.2281  0.6704 -3.0401
 6687SOL     OW31522   4.386   0.422   5.078  0.4181  0.5579  0.0299
 6687SOL    HW131523   4.301   0.460   5.057 -0.7923 -0.9211  2.2936
 6687SOL    HW231524   4.409   0.379   4.995  0.4333 -1.8799  1.2986
 6688SOL     OW31525   2.136   4.560   1.593 -0.1856  0.1994 -0.0655
 6688SOL    HW131526   2.193   4.483   1.600  1.4029  1.5286  1.8048
 6688SOL    HW231527   2.107   4.569   1.684 -0.4647 -0.0324 -0.1336
 6689SOL     OW31528   2.578   3.337   2.531 -0.0177  0.2098  0.0777
 6689SOL    HW131529   2.515   3.324   2.459 -0.6166 -3.3273  1.2499
 6689SOL    HW231530   2.530   3.393   2.593 -0.1866 -1.2288  1.2419
 6690SOL     OW31531   2.149   3.805  15.467 -0.1626 -0.2685  0.0043
 6690SOL    HW131532   2.197   3.886  15.448 -0.9256  0.9768  3.4871
 6690SOL    HW231533   2.102   3.829  15.546 -0.2778 -0.7297  0.0769
 6691SOL     OW31534   0.367   0.689  16.185  0.4997  0.5536 -0.1788
 6691SOL    HW131535   0.456   0.722  16.193  1.7509 -2.5508 -1.5505
 6691SOL    HW231536   0.382   0.595  16.192  3.0076  1.0094  0.2913
 6692SOL     OW31537   2.318   1.738   4.990  0.2963  0.3981 -0.1024
 6692SOL    HW131538   2.346   1.647   4.998  1.9423  0.6804 -2.5889
 6692SOL    HW231539   2.244   1.737   4.929  1.9044 -1.6252 -2.0560
 6693SOL     OW31540   0.229   0.786   7.813  0.2945 -0.3445  0.3157
 6693SOL    HW131541   0.264   0.714   7.761  0.0242  1.1984 -2.0223
 6693SOL    HW231542   0.139   0.781   7.781 -0.0345  0.4398  1.1194
 6694SOL     OW31543   1.466   3.873  14.120  0.0871 -0.2295  0.1153
 6694SOL    HW131544   1.511   3.922  14.051  2.6308 -1.7828  0.6994
 6694SOL    HW231545   1.535   3.817  14.154  0.5961 -0.2947 -1.0283
 6695SOL     OW31546   4.037   1.779   3.042 -0.1154  0.2187 -0.1823
 6695SOL    HW131547   3.973   1.834   3.086 -0.5934  0.1293 -0.7772
 6695SOL    HW231548   4.035   1.811   2.952  1.0353 -2.5702 -1.2128
 6696SOL     OW31549   1.967   1.787  14.059  0.9101 -0.2617  0.5028
 6696SOL    HW131550   1.956   1.694  14.075 -3.3524  0.3729  1.1308
 6696SOL    HW231551   1.936   1.822  14.143 -1.0828 -0.7702 -0.0195
 6697SOL     OW31552   3.067   1.256   5.462 -0.0148 -0.0780 -0.2445
 6697SOL    HW131553   3.005   1.209   5.518 -0.2190 -0.4917 -0.8140
 6697SOL    HW231554   3.151   1.217   5.487 -0.1626 -0.6038 -0.5460
 6698SOL     OW31555   4.045   0.131   2.661  0.4431  0.2429 -0.5783
 6698SOL    HW131556   4.065   0.145   2.753 -0.6312 -3.3329  0.2200
 6698SOL    HW231557   4.068   0.211   2.614 -1.7579  1.4388  0.3867
 6699SOL     OW31558   1.521   2.926   7.197 -0.1728 -0.2855  0.6470
 6699SOL    HW131559   1.433   2.900   7.227 -0.3756 -1.4690 -0.9865
 6699SOL    HW231560   1.562   2.917   7.283 -0.0794 -0.7480  0.5527
 6700SOL     OW31561   2.319   0.723   4.666 -0.0221  0.2415  0.0701
 6700SOL    HW131562   2.365   0.769   4.596 -0.1907  2.1325  1.1873
 6700SOL    HW231563   2.279   0.654   4.613 -0.8477  1.1103 -0.4237
 6701SOL     OW31564   0.884   0.990  12.670  0.7554  0.5806  0.1340
 6701SOL    HW131565   0.835   1.042  12.734 -2.1689 -1.7479 -0.2004
 6701SOL    HW231566   0.971   1.009  12.704  0.1737  0.7086  1.5283
 6702SOL     OW31567   4.697   2.406   1.507 -0.2721 -0.4910  0.3139
 6702SOL    HW131568   0.023   2.489   1.492  2.6028 -2.2294 -0.9575
 6702SOL    HW231569   0.050   2.357   1.549  0.5307 -0.3315 -0.8833
 6703SOL     OW31570   1.134   1.413   4.460  0.1517 -0.6140 -0.3444
 6703SOL    HW131571   1.224   1.403   4.492 -0.2223 -0.7581  0.6561
 6703SOL    HW231572   1.088   1.345   4.509  2.0936  0.0166  2.3776
 6704SOL     OW31573   2.272   0.124  12.968  0.2576 -0.0499 -0.5739
 6704SOL    HW131574   2.329   0.048  12.981 -1.1235 -0.8094  1.1311
 6704SOL    HW231575   2.213   0.134  13.043  1.9208 -0.9104  0.8305
 6705SOL     OW31576   2.191   1.570   7.381  0.0750 -0.4247  0.1359
 6705SOL    HW131577   2.273   1.559   7.429 -0.3130 -0.2757  0.8201
 6705SOL    HW231578   2.147   1.487   7.399  0.4210  0.1949  3.6673
 6706SOL     OW31579   0.330   4.140  16.146  0.0453  0.3038  0.3160
 6706SOL    HW131580   0.252   4.188  16.175  0.6362  1.0779  0.6483
 6706SOL    HW231581   0.288   4.097  16.072 -0.0025  0.6036  0.1664
 6707SOL     OW31582   0.491   2.813  16.667  0.0677  0.3909 -0.0110
 6707SOL    HW131583   0.424   2.797  16.601 -1.1617 -0.4992  1.4348
 6707SOL    HW231584   0.452   2.890  16.709  1.3124  0.3538  1.2433
 6708SOL     OW31585   2.557   0.261   2.459  0.6333 -0.1172  0.5113
 6708SOL    HW131586   2.584   0.217   2.379 -0.3682 -1.4224  0.8819
 6708SOL    HW231587   2.471   0.220   2.470  1.2533 -1.2792  1.0473
 6709SOL     OW31588   3.346   3.587  17.560  0.6505 -0.0652  0.1115
 6709SOL    HW131589   3.267   3.533  17.558 -0.5818  1.6918  1.2051
 6709SOL    HW231590   3.384   3.576  17.473 -0.2632  1.4636 -0.4878
 6710SOL     OW31591   1.994   2.192   5.293 -0.1954  0.4657 -0.5674
 6710SOL    HW131592   1.962   2.244   5.219 -0.3239  0.0862 -0.7805
 6710SOL    HW231593   1.918   2.202   5.350  0.2897 -1.5195  0.4338
 6711SOL     OW31594   1.221   1.681  11.632  0.4919 -0.1526  0.3521
 6711SOL    HW131595   1.223   1.711  11.541 -2.0501  0.8765  0.6517
 6711SOL    HW231596   1.135   1.640  11.638  1.0886 -1.0896  2.4026
 6712SOL     OW31597   1.584   1.617   3.351 -0.0334  0.2427 -0.3625
 6712SOL    HW131598   1.653   1.684   3.356  0.1439 -0.1915  2.7447
 6712SOL    HW231599   1.556   1.631   3.260 -0.7463 -0.1352 -0.1966
 6713SOL     OW31600   4.613   0.790   8.287  0.6485 -0.3670 -0.0115
 6713SOL    HW131601   4.700   0.766   8.318  0.6428  0.6440  0.7802
 6713SOL    HW231602   4.632   0.842   8.209  0.5667 -1.7666 -0.9689
 6714SOL     OW31603   4.164   1.884   8.952  0.2589 -0.7685 -0.7787
 6714SOL    HW131604   4.196   1.798   8.927  1.0248  0.1302 -2.9154
 6714SOL    HW231605   4.093   1.866   9.014 -0.8456  0.5581 -1.6355
 6715SOL     OW31606   0.949   0.678   2.874 -0.3657 -0.3007 -0.0518
 6715SOL    HW131607   0.892   0.722   2.937  0.6109 -0.2406  0.7801
 6715SOL    HW231608   0.886   0.645   2.810  1.7453 -1.2936 -1.6139
 6716SOL     OW31609   3.118   1.495   7.462  0.2884 -0.2141  0.1323
 6716SOL    HW131610   3.069   1.562   7.510  3.4595  1.0967  1.4964
 6716SOL    HW231611   3.101   1.419   7.519  0.6400  0.9330  1.7665
 6717SOL     OW31612   0.465   3.325  15.606 -0.4737 -0.3046 -0.2454
 6717SOL    HW131613   0.505   3.395  15.556 -0.9329 -0.2681 -0.5617
 6717SOL    HW231614   0.387   3.363  15.648  0.4368  2.3608 -0.9834
 6718SOL     OW31615   4.065   4.550   2.917  0.5342 -0.2326  1.0819
 6718SOL    HW131616   3.977   4.545   2.878  1.1936  1.0899 -0.5744
 6718SOL    HW231617   4.058   4.532   3.011 -1.8744 -1.6501  0.6460
 6719SOL     OW31618   1.454   3.499   3.777  0.1406 -0.5783  0.3512
 6719SOL    HW131619   1.479   3.564   3.842  1.0926 -0.7064  0.1253
 6719SOL    HW231620   1.486   3.544   3.699  0.6659 -1.6050 -0.0347
 6720SOL     OW31621   1.084   3.280   3.173 -0.6712 -0.3351 -0.0431
 6720SOL    HW131622   0.993   3.308   3.158 -0.6178  0.0983  0.4211
 6720SOL    HW231623   1.072   3.186   3.186  1.9996 -0.6778 -0.0693
 6721SOL     OW31624   0.588   4.141   6.915 -0.8505  0.3343 -0.3523
 6721SOL    HW131625   0.505   4.154   6.959  0.3331 -0.3933  2.1163
 6721SOL    HW231626   0.637   4.208   6.962  1.1766  0.0339 -1.9947
 6722SOL     OW31627   0.130   2.681   0.997  0.1996 -0.2895 -0.0426
 6722SOL    HW131628   0.038   2.700   1.014  0.1972  0.4043 -0.8528
 6722SOL    HW231629   0.165   2.766   0.970 -0.0518  0.3331  1.6264
 6723SOL     OW31630   2.487   0.301   5.681  0.1200  0.1893 -0.6953
 6723SOL    HW131631   2.533   0.272   5.759 -0.5415 -0.0311 -0.3882
 6723SOL    HW231632   2.402   0.259   5.693  0.4112 -0.8613 -2.2657
 6724SOL     OW31633   3.242   3.782   4.227 -0.3133  0.0367  0.0679
 6724SOL    HW131634   3.258   3.871   4.260  1.6533 -0.9253  1.7070
 6724SOL    HW231635   3.164   3.759   4.279  1.1192 -1.7664  1.4231
 6725SOL     OW31636   1.609   1.218   9.031 -0.2314  0.0213 -0.1722
 6725SOL    HW131637   1.638   1.168   8.956  0.6681 -1.2806  1.0570
 6725SOL    HW231638   1.654   1.173   9.103  0.2732  1.5140  0.4543
 6726SOL     OW31639   3.597   3.047  10.387  0.5349  0.1957 -0.1882
 6726SOL    HW131640   3.681   3.093  10.380 -0.2488  1.1245 -3.6674
 6726SOL    HW231641   3.569   3.067  10.477 -0.2016  0.2288 -0.4263
 6727SOL     OW31642   0.328   3.998   3.808  0.5284  0.1779 -0.3713
 6727SOL    HW131643   0.370   3.918   3.840  0.5505 -0.3430 -1.7200
 6727SOL    HW231644   0.239   3.962   3.805  0.2611  0.4790  3.0677
 6728SOL     OW31645   0.845   3.773   6.322 -0.4070 -0.2736  0.1664
 6728SOL    HW131646   0.878   3.691   6.358  2.1632  1.1497  1.1176
 6728SOL    HW231647   0.781   3.735   6.263 -1.2956 -0.8964  1.5313
 6729SOL     OW31648   0.367   2.693   1.857  0.1184  0.0319 -0.8604
 6729SOL    HW131649   0.330   2.614   1.817  3.2070 -0.4786 -2.7192
 6729SOL    HW231650   0.384   2.745   1.778  1.1234  3.3086  1.5534
 6730SOL     OW31651   1.756   4.219   9.843 -0.0029 -0.4993  0.2820
 6730SOL    HW131652   1.774   4.158   9.771  1.4591 -0.6760  0.7731
 6730SOL    HW231653   1.838   4.268   9.849 -0.0670 -0.5009  1.2491
 6731SOL     OW31654   2.969   1.552  17.217 -0.4579  0.4050  0.4440
 6731SOL    HW131655   3.049   1.594  17.186 -1.6755 -0.6402 -4.0905
 6731SOL    HW231656   3.008   1.485  17.273 -1.6597  0.4641  1.3574
 6732SOL     OW31657   2.489   1.923   6.625  0.5858 -0.2468  0.3455
 6732SOL    HW131658   2.541   1.979   6.684  1.8047  0.6332 -1.5707
 6732SOL    HW231659   2.450   1.989   6.568  2.5204 -0.6950 -1.5094
 6733SOL     OW31660   2.249   3.471   6.990 -0.4555 -0.1881  0.4041
 6733SOL    HW131661   2.180   3.536   6.981  0.5955  0.7550 -0.7352
 6733SOL    HW231662   2.268   3.458   6.897  0.4447  0.5297  0.4910
 6734SOL     OW31663   4.440   1.445   5.199 -0.0634 -0.1083 -0.6816
 6734SOL    HW131664   4.450   1.517   5.136  0.0747  1.7910  1.5171
 6734SOL    HW231665   4.365   1.476   5.249  0.4198  0.0229 -0.0459
 6735SOL     OW31666   0.847   0.351   4.960 -0.2249  0.2501  0.1604
 6735SOL    HW131667   0.814   0.377   4.874  0.3169  0.4469  0.0117
 6735SOL    HW231668   0.859   0.257   4.946  0.1342 -0.0018  2.2121
 6736SOL     OW31669   0.385   3.293   5.346 -0.1419  0.3406  0.0052
 6736SOL    HW131670   0.298   3.283   5.382  0.2759 -1.1904  0.5715
 6736SOL    HW231671   0.405   3.375   5.392 -2.7278  1.0761 -0.2068
 6737SOL     OW31672   2.686   0.662   9.448  0.5135 -0.2565  0.2164
 6737SOL    HW131673   2.718   0.579   9.481 -2.1277 -1.0014  0.8779
 6737SOL    HW231674   2.754   0.681   9.382  1.2838 -0.4838  0.9457
 6738SOL     OW31675   3.055   2.778   4.262  0.1060  0.5832  0.4711
 6738SOL    HW131676   3.019   2.831   4.190 -0.3886  1.8770  1.6780
 6738SOL    HW231677   3.047   2.849   4.326 -2.6260  1.2881 -0.6521
 6739SOL     OW31678   0.967   2.302   5.058  0.3893  0.1273 -0.4247
 6739SOL    HW131679   0.880   2.277   5.027 -0.1558  0.0455  1.1753
 6739SOL    HW231680   1.021   2.243   5.007 -0.1966  0.0012 -0.9014
 6740SOL     OW31681   3.753   2.584   0.176 -0.0376  0.5081  0.3543
 6740SOL    HW131682   3.816   2.557   0.242  1.1588  0.1140 -0.9600
 6740SOL    HW231683   3.811   2.604   0.102  0.6833 -1.2300  0.4546
 6741SOL     OW31684   0.682   2.875   0.497 -0.3647 -0.0486  0.0284
 6741SOL    HW131685   0.746   2.804   0.494 -1.1143 -0.6939 -0.8801
 6741SOL    HW231686   0.725   2.939   0.553  0.4755 -1.2411  0.7566
 6742SOL     OW31687   1.830   2.313   3.573 -0.2305  0.2771 -0.6414
 6742SOL    HW131688   1.811   2.220   3.583  1.7315  0.1876  2.4527
 6742SOL    HW231689   1.925   2.318   3.588 -0.1996 -0.7208 -0.5177
 6743SOL     OW31690   3.480   2.550   3.404  0.1161 -0.6751 -0.1144
 6743SOL    HW131691   3.548   2.523   3.466  0.2254  1.1842  0.5948
 6743SOL    HW231692   3.404   2.503   3.438 -1.4852  0.8199 -1.5943
 6744SOL     OW31693   2.662   0.131   9.830 -0.3659  0.3658 -0.2768
 6744SOL    HW131694   2.730   0.119   9.764  0.7038  1.6729  0.5569
 6744SOL    HW231695   2.706   0.105   9.912 -1.8519 -0.1321  0.3547
 6745SOL     OW31696   0.552   3.466  17.323 -0.2847  0.7056  0.7861
 6745SOL    HW131697   0.579   3.487  17.412 -0.0375 -0.5868  1.0046
 6745SOL    HW231698   0.636   3.478  17.279 -0.2554 -0.2732  0.5777
 6746SOL     OW31699   2.927   3.213   2.733  0.1728 -0.1636 -0.1930
 6746SOL    HW131700   2.963   3.264   2.661  1.3986 -0.1877  0.3873
 6746SOL    HW231701   3.012   3.188   2.770  0.9915  2.3396 -0.3867
 6747SOL     OW31702   1.405   0.681  12.516 -0.1000 -0.1221 -0.1164
 6747SOL    HW131703   1.372   0.717  12.434 -2.2339 -1.1938  0.2857
 6747SOL    HW231704   1.321   0.649  12.548  0.0471 -0.6682 -0.2604
 6748SOL     OW31705   0.273   3.045   3.614  0.2365  0.0178 -0.2424
 6748SOL    HW131706   0.310   3.134   3.620  0.8680 -0.1378 -1.7727
 6748SOL    HW231707   0.178   3.055   3.611  0.2731  0.4244 -0.0650
 6749SOL     OW31708   0.949   0.021   3.354 -0.0893 -0.1579 -0.5258
 6749SOL    HW131709   1.015   4.708   3.416  1.2709  1.2784 -1.2844
 6749SOL    HW231710   0.940   0.111   3.384  3.2199 -0.8261  2.5043
 6750SOL     OW31711   2.967   2.855   3.336 -0.5923 -0.2228 -0.1690
 6750SOL    HW131712   3.060   2.874   3.330 -0.5911  0.4813  2.0308
 6750SOL    HW231713   2.944   2.919   3.404  1.0014 -1.4765  1.5167
 6751SOL     OW31714   1.310   4.539   2.870  0.2699  0.2941 -0.2012
 6751SOL    HW131715   1.322   4.531   2.965 -1.4528  2.8498  0.2101
 6751SOL    HW231716   1.396   4.505   2.844  1.5737  2.5995  1.0448
 6752SOL     OW31717   1.848   4.620   2.122 -0.1977  0.0062 -0.9562
 6752SOL    HW131718   1.884   4.532   2.111 -1.3942 -0.7200  0.8940
 6752SOL    HW231719   1.757   4.595   2.137 -0.5459  0.3038 -2.6119
 6753SOL     OW31720   2.201   0.186  12.401  0.0470  0.2379 -0.1818
 6753SOL    HW131721   2.146   0.111  12.379  1.0770 -0.2613 -1.1130
 6753SOL    HW231722   2.180   0.186  12.494 -1.1986 -0.6695 -0.4729
 6754SOL     OW31723   3.501   1.137   2.198 -0.5295  0.3418 -0.6843
 6754SOL    HW131724   3.408   1.156   2.191 -0.7797 -1.5117 -2.3085
 6754SOL    HW231725   3.498   1.090   2.281  0.0926  2.2384  0.4200
 6755SOL     OW31726   3.837   3.908   6.353  0.4888  0.6021 -0.0458
 6755SOL    HW131727   3.794   3.826   6.331  0.5548  0.2739  1.1039
 6755SOL    HW231728   3.922   3.864   6.355 -0.1874 -0.7824 -1.4146
 6756SOL     OW31729   0.248   2.873   4.297  0.4963  0.2238 -0.3904
 6756SOL    HW131730   0.248   2.968   4.287 -1.1009  0.2773  0.1465
 6756SOL    HW231731   0.252   2.853   4.203 -1.7357 -0.0803 -0.4098
 6757SOL     OW31732   1.310   3.382   8.369 -0.0031 -0.0195 -0.5515
 6757SOL    HW131733   1.321   3.439   8.445  0.0856  0.2307 -0.7519
 6757SOL    HW231734   1.278   3.303   8.412 -1.1773  1.5084  1.3455
 6758SOL     OW31735   1.982   0.576   1.779  0.2466  0.3268 -0.1236
 6758SOL    HW131736   2.071   0.579   1.743 -0.8882  1.6019 -2.8578
 6758SOL    HW231737   1.942   0.617   1.702  3.1607  1.0308 -1.2719
 6759SOL     OW31738   3.288   4.404  11.891  0.3481 -0.1148  0.1952
 6759SOL    HW131739   3.342   4.371  11.819  2.1847  0.6128  1.2354
 6759SOL    HW231740   3.278   4.335  11.955  3.6827 -1.8603 -1.1450
 6760SOL     OW31741   3.005   3.246   7.294 -0.4707 -0.0006  0.7501
 6760SOL    HW131742   3.037   3.232   7.205 -1.5174  0.3630  0.3230
 6760SOL    HW231743   2.912   3.234   7.277 -0.2631  0.5462 -0.7458
 6761SOL     OW31744   0.450   1.188   8.726  0.8434 -0.3786  0.3620
 6761SOL    HW131745   0.410   1.245   8.792  2.8216 -0.0108  1.2389
 6761SOL    HW231746   0.377   1.160   8.671 -0.3460 -0.9504  2.2358
 6762SOL     OW31747   1.205   1.873  16.927  0.1315 -0.3682 -0.2305
 6762SOL    HW131748   1.153   1.799  16.958  1.5223 -0.4613  1.9507
 6762SOL    HW231749   1.231   1.908  17.013 -1.3264  1.5235 -0.5510
 6763SOL     OW31750   4.106   4.254   8.480 -0.0964 -0.1352 -0.1491
 6763SOL    HW131751   4.201   4.245   8.476 -0.2471 -2.2504  0.8317
 6763SOL    HW231752   4.092   4.303   8.399 -0.6384 -0.5046 -0.2797
 6764SOL     OW31753   2.784   1.572   2.026  0.2202 -0.1054 -0.8982
 6764SOL    HW131754   2.735   1.639   2.073 -1.0067 -0.7458 -1.2658
 6764SOL    HW231755   2.854   1.549   2.086 -1.5385 -0.9557  0.8343
 6765SOL     OW31756   1.738   3.766   9.362  0.1101  0.4507  0.0209
 6765SOL    HW131757   1.692   3.847   9.383 -0.1644  0.6947 -1.4846
 6765SOL    HW231758   1.819   3.807   9.330  0.7783 -1.2155 -0.4549
 6766SOL     OW31759   2.277   1.865  11.084 -0.7292 -0.1087 -0.0114
 6766SOL    HW131760   2.263   1.957  11.060  1.3336  1.0774  3.3399
 6766SOL    HW231761   2.281   1.864  11.180 -3.9041  0.3878  0.1141
 6767SOL     OW31762   0.365   3.824  16.326  0.1772 -0.5645 -0.3398
 6767SOL    HW131763   0.400   3.851  16.241 -0.7790  4.1790  0.7666
 6767SOL    HW231764   0.373   3.908  16.372  0.3329 -0.7987  0.0586
 6768SOL     OW31765   4.160   4.039   1.385 -0.1803 -0.4460  0.7247
 6768SOL    HW131766   4.088   4.101   1.396 -0.3943 -0.4472 -0.7051
 6768SOL    HW231767   4.145   4.013   1.294 -1.8351 -0.0056  0.8803
 6769SOL     OW31768   3.679   2.796   8.494  0.2442 -0.3090  0.2762
 6769SOL    HW131769   3.677   2.750   8.578 -0.5330 -0.4022  0.2106
 6769SOL    HW231770   3.648   2.734   8.427 -2.1085  2.5778 -1.3045
 6770SOL     OW31771   2.073   3.442  12.813 -0.4347 -0.7199 -0.1792
 6770SOL    HW131772   1.993   3.450  12.762 -0.0764  1.1440 -0.4580
 6770SOL    HW231773   2.134   3.401  12.752 -0.7349 -1.7769  0.2280
 6771SOL     OW31774   2.278   0.793   2.363  0.8081  0.0330  0.4555
 6771SOL    HW131775   2.184   0.805   2.349  0.7619 -0.4385  0.3633
 6771SOL    HW231776   2.289   0.739   2.441  0.0519 -2.5615 -1.2435
 6772SOL     OW31777   0.948   3.405   3.694  0.1365 -0.1722 -0.3694
 6772SOL    HW131778   1.015   3.368   3.751 -0.1282  2.9923  1.9639
 6772SOL    HW231779   0.992   3.443   3.618 -0.6766  1.1763 -0.1573
 6773SOL     OW31780   2.871   4.175   5.979  0.5182 -0.6258 -0.2074
 6773SOL    HW131781   2.959   4.212   5.984  0.6570 -1.1110  1.0982
 6773SOL    HW231782   2.872   4.146   6.071  0.0357  0.9278  0.2882
 6774SOL     OW31783   1.874   0.164   3.069  0.4188 -0.6901 -0.1332
 6774SOL    HW131784   1.806   0.208   3.018 -1.1321 -0.7898  1.8163
 6774SOL    HW231785   1.839   0.149   3.157  0.5544  1.8603  0.3623
 6775SOL     OW31786   0.805   0.243   9.533  0.2531  0.1338 -0.0404
 6775SOL    HW131787   0.783   0.150   9.529 -0.6675  0.3550 -0.0596
 6775SOL    HW231788   0.896   0.233   9.562  0.6632  2.8992 -0.3651
 6776SOL     OW31789   0.484   1.950   9.086  0.0829  0.6757  0.2267
 6776SOL    HW131790   0.448   2.005   9.156  0.4345  0.9018  0.2304
 6776SOL    HW231791   0.428   1.983   9.016 -0.6181 -0.5766  0.1912
 6777SOL     OW31792   4.301   1.162   6.773  0.1173  0.1004 -0.5298
 6777SOL    HW131793   4.304   1.068   6.754 -0.8102  0.2591 -1.4861
 6777SOL    HW231794   4.217   1.162   6.819 -0.8503 -1.3937 -2.2834
 6778SOL     OW31795   0.072   4.265   9.788 -0.6427 -0.3554 -0.4144
 6778SOL    HW131796   0.166   4.250   9.786 -1.2933 -4.5072  0.1636
 6778SOL    HW231797   0.044   4.226   9.705 -1.7630 -0.7690  0.1509
 6779SOL     OW31798   1.754   3.638   3.693 -0.0611 -0.2194 -0.6203
 6779SOL    HW131799   1.764   3.720   3.742  1.5563 -1.6727  1.4857
 6779SOL    HW231800   1.677   3.655   3.638  0.5925  1.6743 -0.9680
 6780SOL     OW31801   0.650   1.129   3.639 -0.3687  0.4955 -0.4297
 6780SOL    HW131802   0.607   1.045   3.655 -1.2438  1.5343  2.7124
 6780SOL    HW231803   0.732   1.127   3.689 -0.6237 -1.2598 -0.0956
 6781SOL     OW31804   2.749   3.213   7.612  0.3662  0.3031  0.2137
 6781SOL    HW131805   2.694   3.145   7.649  0.8519  0.5229  1.3384
 6781SOL    HW231806   2.830   3.205   7.662 -0.4179  0.5259  1.5147
 6782SOL     OW31807   2.977   1.540   6.582 -0.2429  0.3548 -0.3254
 6782SOL    HW131808   2.894   1.588   6.581 -0.5666 -0.2268 -1.2716
 6782SOL    HW231809   2.986   1.501   6.670 -2.7424  0.8267  0.1461
 6783SOL     OW31810   0.803   0.869   4.968 -0.0375 -0.0622  0.0103
 6783SOL    HW131811   0.822   0.954   5.006 -0.8620 -0.1963  0.7345
 6783SOL    HW231812   0.812   0.811   5.044  0.2001  0.2130  0.1923
 6784SOL     OW31813   3.073   0.576   7.655  0.0742 -0.7266  0.1414
 6784SOL    HW131814   3.124   0.535   7.586  0.0495 -0.6434  0.0740
 6784SOL    HW231815   2.988   0.531   7.652  0.0416 -0.6847  0.3795
 6785SOL     OW31816   0.980   2.845  14.943 -0.3236  0.3420 -0.0101
 6785SOL    HW131817   0.924   2.843  14.865  0.7125 -1.5406 -0.7059
 6785SOL    HW231818   1.040   2.914  14.915  1.4275 -1.3877 -0.4936
 6786SOL     OW31819   1.051   4.182   6.445 -0.0487 -1.0297  0.0144
 6786SOL    HW131820   1.058   4.277   6.433  4.1236 -1.1336  1.3196
 6786SOL    HW231821   1.126   4.162   6.502 -0.8594 -0.6474  1.2087
 6787SOL     OW31822   2.337   1.817  13.834  0.0383 -0.4778 -0.7194
 6787SOL    HW131823   2.430   1.817  13.815  0.4978  1.7936  1.5922
 6787SOL    HW231824   2.352   1.757  13.907 -0.2372  1.1178  0.6565
 6788SOL     OW31825   0.274   2.752   5.819  0.1030 -0.1882 -0.2740
 6788SOL    HW131826   0.243   2.815   5.884  0.5898 -0.3345  0.1070
 6788SOL    HW231827   0.198   2.759   5.762 -0.7459 -0.4737  0.8179
 6789SOL     OW31828   2.369   4.540   5.072  0.2063  0.1216  0.7362
 6789SOL    HW131829   2.385   4.549   5.167 -1.8469  2.8935  0.8054
 6789SOL    HW231830   2.455   4.572   5.044  0.5484 -0.0977  1.5008
 6790SOL     OW31831   1.471   0.117   6.528 -0.2967 -0.1247 -0.2193
 6790SOL    HW131832   1.558   0.139   6.495 -0.2605 -2.7572 -1.8545
 6790SOL    HW231833   1.446   0.041   6.476 -1.3591  0.1915 -0.1735
 6791SOL     OW31834   4.006   2.114   8.915 -0.5876 -0.5873  0.3411
 6791SOL    HW131835   4.068   2.050   8.948  0.5597 -0.9256 -2.3961
 6791SOL    HW231836   3.936   2.051   8.895  0.4574 -1.2301 -1.3032
 6792SOL     OW31837   2.120   0.637   6.293 -0.3506  0.4602  0.4300
 6792SOL    HW131838   2.055   0.587   6.343  0.5464  0.6107  1.7697
 6792SOL    HW231839   2.184   0.647   6.364 -0.6011 -1.0715  0.8779
 6793SOL     OW31840   1.499   2.671   8.036 -0.0360  0.4192  0.4300
 6793SOL    HW131841   1.572   2.732   8.023  0.0230  0.6487  1.9042
 6793SOL    HW231842   1.479   2.678   8.129 -1.9746 -2.1255  0.1964
 6794SOL     OW31843   1.471   3.109   6.013 -0.7524 -0.0321  0.0710
 6794SOL    HW131844   1.467   3.198   5.979 -0.1021 -0.0765 -0.1066
 6794SOL    HW231845   1.406   3.059   5.963 -0.3995 -0.7205  0.2898
 6795SOL     OW31846   2.502   2.819   4.188 -0.8199  0.1089 -0.5676
 6795SOL    HW131847   2.497   2.914   4.202  0.0548 -0.2587  2.2206
 6795SOL    HW231848   2.465   2.783   4.269 -1.5025 -0.7438 -1.2543
 6796SOL     OW31849   3.045   0.939   2.882 -0.7190  0.1598  0.0050
 6796SOL    HW131850   3.027   0.879   2.955  0.5330  0.9664  0.9708
 6796SOL    HW231851   2.961   0.982   2.865 -0.9774 -0.1730  0.4323
 6797SOL     OW31852   3.769   0.251   4.274 -0.2778  0.0383 -0.0850
 6797SOL    HW131853   3.768   0.346   4.281  3.5048  0.1736 -1.0524
 6797SOL    HW231854   3.840   0.239   4.211 -1.2201 -1.5820 -0.8563
 6798SOL     OW31855   1.516   4.277   9.058  0.6960  0.2818  0.4337
 6798SOL    HW131856   1.470   4.221   8.995  0.6026 -0.7865  1.4511
 6798SOL    HW231857   1.514   4.219   9.134 -0.3178  0.2595  0.3885
 6799SOL     OW31858   0.253   3.047  15.093 -0.2643 -0.4584  0.5802
 6799SOL    HW131859   0.298   3.066  15.175  0.0424  1.7642 -0.0957
 6799SOL    HW231860   0.216   2.960  15.107 -1.7236  0.2012  0.7555
 6800SOL     OW31861   2.293   4.345  12.485  0.5124  0.5840  0.1386
 6800SOL    HW131862   2.365   4.380  12.537 -0.7465  1.8816  0.9932
 6800SOL    HW231863   2.229   4.324  12.552  1.1104 -1.9241 -0.0620
 6801SOL     OW31864   3.652   2.926  12.916  0.3274 -0.6526 -0.3809
 6801SOL    HW131865   3.671   2.938  12.823  1.1987  0.5404 -0.0556
 6801SOL    HW231866   3.738   2.959  12.945  0.1269  0.8531 -1.4890
 6802SOL     OW31867   1.925   0.967   7.587  0.2227  0.5166  0.1959
 6802SOL    HW131868   1.940   1.031   7.656  0.6752  0.4797  0.1330
 6802SOL    HW231869   1.931   1.020   7.508 -1.1119 -1.0653 -0.9733
 6803SOL     OW31870   1.298   0.367   1.949  0.1851 -0.1627  0.1357
 6803SOL    HW131871   1.383   0.403   1.924 -0.0821 -0.6563 -1.4865
 6803SOL    HW231872   1.246   0.447   1.936 -2.2519 -1.7196  0.3549
 6804SOL     OW31873   4.413   0.412   0.878  0.0933  0.1759 -0.6081
 6804SOL    HW131874   4.455   0.465   0.946 -1.5091  0.1503  0.4189
 6804SOL    HW231875   4.427   0.324   0.914 -2.6381 -0.7880 -1.8563
 6805SOL     OW31876   1.890   1.965   8.620 -0.2620  0.6268  0.0533
 6805SOL    HW131877   1.914   1.878   8.652 -0.6983 -0.2468 -2.0095
 6805SOL    HW231878   1.898   2.011   8.703  1.6120 -0.7508  0.6321
 6806SOL     OW31879   0.379   0.868   2.196  0.0954  0.1037 -0.2058
 6806SOL    HW131880   0.318   0.821   2.253 -1.5366  1.1211 -1.0969
 6806SOL    HW231881   0.347   0.872   2.106 -0.6108 -0.5945  0.0152
 6807SOL     OW31882   4.043   0.080   9.066 -0.5453  0.2842 -0.6628
 6807SOL    HW131883   3.993   0.011   9.109 -1.0882  0.6246 -0.7445
 6807SOL    HW231884   3.989   0.089   8.988  1.0729 -2.3262 -2.0700
 6808SOL     OW31885   4.308   2.484   0.922  0.1849 -0.1489  0.3518
 6808SOL    HW131886   4.216   2.502   0.944 -0.4719 -0.0308 -2.3760
 6808SOL    HW231887   4.347   2.570   0.936 -0.1950  0.4563 -2.3419
 6809SOL     OW31888   2.398   0.046   9.799 -0.1738  0.0678  0.1225
 6809SOL    HW131889   2.397   4.711   9.719  1.0394  0.9806 -0.5044
 6809SOL    HW231890   2.489   0.065   9.822  0.1133 -0.2445 -0.7525
 6810SOL     OW31891   3.719   3.767   4.246  0.0938  0.0225  0.2503
 6810SOL    HW131892   3.640   3.721   4.275  0.2513  0.4740  1.3936
 6810SOL    HW231893   3.719   3.831   4.317  0.9478  0.2912 -0.0031
 6811SOL     OW31894   1.277   1.885   2.676 -0.4265 -0.1748  0.4527
 6811SOL    HW131895   1.318   1.951   2.621 -0.8910 -0.8558 -0.7163
 6811SOL    HW231896   1.245   1.953   2.735 -0.9436  1.3103 -1.5678
 6812SOL     OW31897   2.825   3.474   4.528 -0.0507  0.5837 -0.1911
 6812SOL    HW131898   2.738   3.434   4.523  0.5681 -0.6217 -1.5205
 6812SOL    HW231899   2.825   3.492   4.622  0.9623 -0.0151 -0.0765
 6813SOL     OW31900   1.243   0.917   5.648  0.0287  0.1923 -0.0988
 6813SOL    HW131901   1.176   0.875   5.702 -2.0851 -0.0290 -2.8826
 6813SOL    HW231902   1.242   0.841   5.590 -1.1466  0.0154  0.1603
 6814SOL     OW31903   0.303   3.165   2.348  0.0248  0.1369  0.1670
 6814SOL    HW131904   0.377   3.113   2.381  0.6573  0.9020 -0.0372
 6814SOL    HW231905   0.282   3.121   2.266 -0.4012  1.2463 -0.3080
 6815SOL     OW31906   1.427   4.092   8.863  0.1606 -0.0563 -0.6317
 6815SOL    HW131907   1.489   4.018   8.863  0.0273 -0.1686  0.8979
 6815SOL    HW231908   1.347   4.044   8.840  0.8303 -1.8806  0.8642
 6816SOL     OW31909   4.346   0.916  16.620 -0.0199  0.3328 -0.2053
 6816SOL    HW131910   4.418   0.922  16.683 -0.5203  0.0456  0.4020
 6816SOL    HW231911   4.369   0.978  16.551 -0.9011  2.1054  1.0768
 6817SOL     OW31912   2.216   0.516   4.549 -0.2287  0.1583 -0.0089
 6817SOL    HW131913   2.288   0.455   4.561 -0.8847 -0.8980 -1.4998
 6817SOL    HW231914   2.162   0.476   4.481 -1.9860  0.5843  1.1195
 6818SOL     OW31915   2.771   4.004  12.596  0.0379  0.2120 -0.2999
 6818SOL    HW131916   2.785   4.072  12.530  0.7294  0.2422 -0.1289
 6818SOL    HW231917   2.714   3.945  12.547  0.6890  0.2888 -1.1569
 6819SOL     OW31918   1.153   3.762   7.994 -0.8784  0.1672  0.1980
 6819SOL    HW131919   1.086   3.823   8.024 -2.0643 -1.0144 -0.0487
 6819SOL    HW231920   1.143   3.683   8.047  0.0120  1.6392  2.5728
 6820SOL     OW31921   2.812   4.043  15.295 -0.2425  0.2211  0.1492
 6820SOL    HW131922   2.779   3.973  15.351  0.0414  0.2891  0.4007
 6820SOL    HW231923   2.881   4.080  15.350 -0.4998 -2.6199  2.3752
 6821SOL     OW31924   3.939   1.881   0.635  0.2545  0.6059 -0.3238
 6821SOL    HW131925   3.961   1.861   0.544 -0.1441  1.0462 -0.5203
 6821SOL    HW231926   3.998   1.952   0.659 -0.2200  1.6496 -2.2486
 6822SOL     OW31927   3.132   0.251   1.380 -0.1426 -0.0749  0.2834
 6822SOL    HW131928   3.202   0.189   1.357  0.4037  0.8696 -0.5658
 6822SOL    HW231929   3.054   0.200   1.358  0.1053 -0.9509  1.4100
 6823SOL     OW31930   1.606   3.406   8.555 -0.2594  0.2760 -0.2349
 6823SOL    HW131931   1.634   3.338   8.493 -2.0143 -0.1054 -0.6049
 6823SOL    HW231932   1.565   3.348   8.620 -1.1581 -0.2966 -1.3283
 6824SOL     OW31933   1.368   0.965   2.368 -0.0969  0.1864 -0.2116
 6824SOL    HW131934   1.425   0.888   2.364 -0.3527 -0.0209  0.0906
 6824SOL    HW231935   1.282   0.927   2.352  0.4857 -0.2977 -2.1171
 6825SOL     OW31936   0.970   2.521   5.661  0.3218  0.6845 -0.8171
 6825SOL    HW131937   0.984   2.551   5.571  1.7346  2.5887  0.0246
 6825SOL    HW231938   0.959   2.427   5.649  0.1334  0.7749 -1.3713
 6826SOL     OW31939   1.229   4.381  13.809 -0.3182 -0.2664 -0.3810
 6826SOL    HW131940   1.183   4.323  13.748 -0.3665 -2.1446  1.4445
 6826SOL    HW231941   1.304   4.326  13.832 -2.0150 -1.8203  1.4415
 6827SOL     OW31942   2.539   3.545   9.962  0.1053  0.0687  0.0697
 6827SOL    HW131943   2.459   3.555  10.014 -0.7595  0.8100 -1.4023
 6827SOL    HW231944   2.598   3.494  10.018 -2.9437 -0.5479  2.7412
 6828SOL     OW31945   2.469   1.439   5.313 -0.5585  1.1909  0.1005
 6828SOL    HW131946   2.441   1.417   5.224  1.6915 -1.6225  0.0750
 6828SOL    HW231947   2.463   1.533   5.297 -3.6143  1.1972  1.2460
 6829SOL     OW31948   4.154   2.083  16.935  0.0027  0.7603  0.1363
 6829SOL    HW131949   4.101   2.115  17.008 -0.5320  1.7689 -0.6866
 6829SOL    HW231950   4.168   1.995  16.969  0.3969  0.8774  0.2705
 6830SOL     OW31951   2.012   4.587   9.316  0.6409  0.4798 -0.1731
 6830SOL    HW131952   1.970   4.570   9.232  1.6429  0.7600 -0.7311
 6830SOL    HW231953   1.968   4.663   9.355  3.2135  1.3100  1.1067
 6831SOL     OW31954   3.997   3.883   7.253 -0.4218  0.7401 -0.2027
 6831SOL    HW131955   3.922   3.824   7.260  0.5196 -0.2646  1.1624
 6831SOL    HW231956   3.950   3.967   7.253  0.0770  1.0218 -1.9907
 6832SOL     OW31957   3.813   4.045  16.874 -0.2687 -0.1794  0.3250
 6832SOL    HW131958   3.783   4.050  16.783 -0.5599 -1.6085  0.3487
 6832SOL    HW231959   3.860   4.128  16.865  2.0051 -1.7784 -2.5334
 6833SOL     OW31960   2.564   1.363   9.046 -0.5006 -0.3502  0.0601
 6833SOL    HW131961   2.489   1.351   8.987 -0.2499  1.1819 -0.5681
 6833SOL    HW231962   2.560   1.458   9.058 -1.0518 -0.3017 -0.5039
 6834SOL     OW31963   3.371   4.556   3.672  0.0308  0.7034  0.5099
 6834SOL    HW131964   3.400   4.636   3.715 -0.4626  1.5999 -0.8079
 6834SOL    HW231965   3.276   4.567   3.669 -0.0397 -0.0365  0.0546
 6835SOL     OW31966   4.521   1.061   1.022 -0.2738  0.0764  0.4167
 6835SOL    HW131967   4.467   1.106   0.957  2.8419  1.2869 -1.3651
 6835SOL    HW231968   4.530   0.974   0.984 -0.3637  0.1716  0.1803
 6836SOL     OW31969   4.564   1.650  17.187 -0.0733  0.0286  0.1386
 6836SOL    HW131970   4.475   1.677  17.211 -0.2178 -0.2676 -0.0608
 6836SOL    HW231971   4.620   1.717  17.226  0.3390 -0.4925  0.4544
 6837SOL     OW31972   0.382   1.011  11.523 -0.6625 -0.1483  0.0633
 6837SOL    HW131973   0.441   1.071  11.478 -0.0953  1.0593  2.3852
 6837SOL    HW231974   0.394   0.932  11.470 -1.1180 -0.1097 -0.1016
 6838SOL     OW31975   2.243   3.141  17.616  0.1530  0.6118 -0.1693
 6838SOL    HW131976   2.219   3.086   0.015 -0.2492  1.7471  0.5292
 6838SOL    HW231977   2.155   3.135  17.577  0.2061 -1.6100  0.0504
 6839SOL     OW31978   1.412   1.508   9.334 -0.2012  0.4003 -0.5581
 6839SOL    HW131979   1.324   1.510   9.372  0.8357 -1.0174  1.9137
 6839SOL    HW231980   1.460   1.447   9.390 -0.6132  0.7305  0.1483
 6840SOL     OW31981   1.802   4.087   3.994 -0.0226  0.1182  0.0090
 6840SOL    HW131982   1.828   4.102   4.085  0.2392 -0.7467  0.0739
 6840SOL    HW231983   1.883   4.102   3.946  1.2194 -2.5311  1.2685
 6841SOL     OW31984   0.777   0.226  13.639 -0.1995 -0.0104  0.2344
 6841SOL    HW131985   0.850   0.180  13.680 -0.6503 -0.4962  0.5014
 6841SOL    HW231986   0.752   0.281  13.713 -2.9517  0.2124 -0.8672
 6842SOL     OW31987   3.356   1.247   3.283 -0.1813  0.2314 -0.4526
 6842SOL    HW131988   3.316   1.166   3.251 -3.1101  1.5457 -0.1205
 6842SOL    HW231989   3.437   1.243   3.232 -1.2646 -0.3851 -2.1384
 6843SOL     OW31990   4.206   4.650   6.862 -0.0160  0.4159  0.7073
 6843SOL    HW131991   4.181   4.570   6.909  2.2320 -0.8070 -0.1805
 6843SOL    HW231992   4.150   4.640   6.785  0.3162  1.0741  0.3849
 6844SOL     OW31993   0.590   0.182   5.250 -0.5016 -0.0547 -0.0389
 6844SOL    HW131994   0.594   0.144   5.338  0.6974  0.5819  0.1742
 6844SOL    HW231995   0.599   0.107   5.191  1.1696 -0.3529  0.6093
 6845SOL     OW31996   0.012   0.872   8.703 -0.3904 -0.2008 -0.1671
 6845SOL    HW131997   0.037   0.829   8.621  1.5946  0.3951  0.1249
 6845SOL    HW231998   0.076   0.826   8.758  0.5960 -0.0206 -1.1511
 6846SOL     OW31999   1.360   2.986  14.503  0.0867  0.2416  0.2171
 6846SOL    HW132000   1.308   2.912  14.536  0.6481  0.1622  0.9250
 6846SOL    HW232001   1.411   2.955  14.429  0.0613 -0.1591  0.3651
 6847SOL     OW32002   0.696   4.044  16.509  0.6437 -0.2910 -0.2224
 6847SOL    HW132003   0.601   4.048  16.510  0.6808  0.0959  1.3744
 6847SOL    HW232004   0.718   4.020  16.419  1.9901  2.0122 -0.5105
 6848SOL     OW32005   2.061   3.263   8.056  0.0853  0.3539 -0.5421
 6848SOL    HW132006   2.149   3.227   8.042 -0.1977  0.0190 -1.4348
 6848SOL    HW232007   2.076   3.351   8.091 -1.7768  1.3767 -2.3383
 6849SOL     OW32008   2.453   0.695   4.911  0.5876 -0.9283  0.5697
 6849SOL    HW132009   2.379   0.707   4.971  0.1841  0.1402 -0.1390
 6849SOL    HW232010   2.401   0.675   4.832 -0.9074  0.8173  1.1031
 6850SOL     OW32011   1.698   1.309  11.978 -0.3807  0.4766  0.1423
 6850SOL    HW132012   1.639   1.239  12.005 -0.7210  0.2974 -1.0865
 6850SOL    HW232013   1.660   1.389  12.015  0.9886  1.5072 -0.6732
 6851SOL     OW32014   2.901   0.427   1.747 -0.8472 -0.3038 -0.0421
 6851SOL    HW132015   2.896   0.423   1.651  2.5264 -0.9706 -0.1747
 6851SOL    HW232016   2.916   0.335   1.769 -0.6138 -0.4729 -0.9038
 6852SOL     OW32017   2.500   2.609   4.981 -0.3494 -0.3497 -0.0043
 6852SOL    HW132018   2.453   2.670   5.038  2.0904  0.8871  0.6961
 6852SOL    HW232019   2.447   2.578   4.907 -0.3171  0.2210 -0.2708
 6853SOL     OW32020   2.045   2.553  12.957 -0.5491 -0.1466  0.0735
 6853SOL    HW132021   2.052   2.602  13.039 -0.4414  0.9756 -0.6059
 6853SOL    HW232022   2.133   2.570  12.922  0.5644 -1.6201  2.1507
 6854SOL     OW32023   1.540   1.377   1.816 -0.3620  0.4646  0.1415
 6854SOL    HW132024   1.483   1.348   1.744  1.4160  0.3281 -1.2143
 6854SOL    HW232025   1.622   1.367   1.768 -1.1184 -0.7940 -0.9017
 6855SOL     OW32026   1.627   4.587   9.679  0.1005  0.5094  0.0425
 6855SOL    HW132027   1.561   4.521   9.699 -0.4427  0.6612 -1.2581
 6855SOL    HW232028   1.631   4.568   9.585  1.9796  0.3870  0.1633
 6856SOL     OW32029   1.270   0.512  11.392 -0.1482  0.2325  0.1620
 6856SOL    HW132030   1.342   0.468  11.345  0.4570 -1.7229  2.9058
 6856SOL    HW232031   1.311   0.596  11.410  0.1178  0.1845 -0.2062
 6857SOL     OW32032   4.462   2.255  12.491 -0.7903 -0.2998  0.2469
 6857SOL    HW132033   4.443   2.287  12.403  0.0382 -0.0801  0.1536
 6857SOL    HW232034   4.549   2.293  12.499  0.0124 -2.5018  1.9550
 6858SOL     OW32035   2.848   3.969   6.225 -0.2565 -0.4196  0.4112
 6858SOL    HW132036   2.926   3.917   6.244  0.4723 -0.2138 -2.0500
 6858SOL    HW232037   2.777   3.915   6.258 -1.4491  0.1325 -1.2447
 6859SOL     OW32038   0.706   0.845   4.214 -0.5950  0.4978  0.2588
 6859SOL    HW132039   0.635   0.801   4.260 -0.5452 -0.0233 -0.1628
 6859SOL    HW232040   0.675   0.936   4.217  2.0211  1.3713  0.7508
 6860SOL     OW32041   4.265   2.697  16.529 -0.2057  0.2201  0.2470
 6860SOL    HW132042   4.215   2.756  16.586  0.1369  1.2695 -0.5298
 6860SOL    HW232043   4.314   2.760  16.476  1.7778 -2.4224 -1.0420
 6861SOL     OW32044   3.534   2.228   3.653 -0.3263  0.4801 -0.8056
 6861SOL    HW132045   3.496   2.286   3.719 -2.0814  0.0485 -1.4247
 6861SOL    HW232046   3.588   2.295   3.611  1.9564 -1.5143 -1.0719
 6862SOL     OW32047   2.303   4.511   5.718 -0.9004 -0.4610  0.2525
 6862SOL    HW132048   2.383   4.535   5.766 -1.6312 -0.3073  1.3915
 6862SOL    HW232049   2.243   4.560   5.773  2.1514  0.1361  3.0292
 6863SOL     OW32050   4.067   4.421   4.189  0.2550  0.2724 -0.1437
 6863SOL    HW132051   3.999   4.460   4.244 -2.2873 -2.4417 -1.3739
 6863SOL    HW232052   4.140   4.455   4.241  2.3618 -4.2691 -0.1727
 6864SOL     OW32053   1.271   1.999   8.587 -0.2211  0.3448  0.2810
 6864SOL    HW132054   1.324   1.919   8.596  1.3750  1.3885  0.0283
 6864SOL    HW232055   1.279   2.024   8.495 -0.2971 -2.2920 -0.4713
 6865SOL     OW32056   2.689   2.636   6.873  0.6317 -0.3812  0.2841
 6865SOL    HW132057   2.636   2.563   6.906 -0.5331  1.2073  1.9149
 6865SOL    HW232058   2.717   2.601   6.788 -3.3241 -0.1630 -1.0860
 6866SOL     OW32059   0.599   1.030   6.558  0.8178  0.5848 -0.4737
 6866SOL    HW132060   0.589   0.972   6.483 -1.2994 -0.6456  0.7729
 6866SOL    HW232061   0.558   0.974   6.623  1.4754 -0.1437 -0.6762
 6867SOL     OW32062   1.548   2.837  15.954  0.0016 -0.4289  0.5156
 6867SOL    HW132063   1.549   2.928  15.922 -2.7461 -0.7075 -0.3889
 6867SOL    HW232064   1.495   2.802  15.882 -0.5241 -2.0648  1.7068
 6868SOL     OW32065   2.680   2.456  10.482  0.2812  0.5178 -0.4686
 6868SOL    HW132066   2.630   2.436  10.403 -0.4577  1.2190 -0.1774
 6868SOL    HW232067   2.734   2.530  10.452  0.7467 -0.5064 -2.1514
 6869SOL     OW32068   1.234   4.022  11.780  0.2607  0.0261 -0.6114
 6869SOL    HW132069   1.280   4.085  11.835 -2.3691  0.9325  0.5997
 6869SOL    HW232070   1.306   3.963  11.760 -1.4583 -2.1211 -0.4800
 6870SOL     OW32071   2.458   2.733   6.701 -0.2454  0.1924 -0.1344
 6870SOL    HW132072   2.539   2.696   6.736 -1.3885 -0.9032  1.3686
 6870SOL    HW232073   2.426   2.661   6.647 -0.3753  2.2103 -2.7002
 6871SOL     OW32074   2.170   2.609   5.980  0.2720 -0.1729 -0.1772
 6871SOL    HW132075   2.175   2.662   6.059  0.1127  1.4016 -1.2298
 6871SOL    HW232076   2.082   2.572   5.979  0.4740 -0.6811  1.8881
 6872SOL     OW32077   4.257   3.588   3.133  0.3768 -0.6120 -0.3147
 6872SOL    HW132078   4.307   3.566   3.055 -0.7346 -1.0147 -0.9139
 6872SOL    HW232079   4.212   3.666   3.103 -0.9203 -1.2494 -0.0255
 6873SOL     OW32080   4.189   2.003   5.681 -0.1375 -0.1854 -0.1458
 6873SOL    HW132081   4.269   2.021   5.632  0.6744  0.9138  1.5711
 6873SOL    HW232082   4.129   1.987   5.609  1.5062 -2.5268 -0.9896
 6874SOL     OW32083   0.193   3.356   7.996  0.4934 -0.4282 -0.3227
 6874SOL    HW132084   0.189   3.358   7.900 -1.3892 -1.6439 -0.2823
 6874SOL    HW232085   0.247   3.279   8.016  2.5542  1.4355  1.2386
 6875SOL     OW32086   2.737   1.026  11.018 -0.0770 -0.3795 -0.6179
 6875SOL    HW132087   2.778   1.090  11.075 -4.6254 -0.0646  2.2486
 6875SOL    HW232088   2.774   1.067  10.939 -0.2070  0.5945 -0.1677
 6876SOL     OW32089   4.142   0.171  12.158 -0.0431 -0.4078 -0.3220
 6876SOL    HW132090   4.185   0.219  12.087  0.6158 -1.0294 -0.3394
 6876SOL    HW232091   4.052   0.187  12.131 -0.8023  0.1097  2.4795
 6877SOL     OW32092   3.737   0.960  14.506 -0.6430 -0.5059 -0.0287
 6877SOL    HW132093   3.663   1.010  14.472 -0.9823 -0.1200  1.2669
 6877SOL    HW232094   3.707   0.872  14.485 -0.4620 -0.7575  0.7850
 6878SOL     OW32095   4.448   3.661   0.638  0.5777  0.3917  0.0481
 6878SOL    HW132096   4.528   3.667   0.690  0.9819 -0.2962 -0.4894
 6878SOL    HW232097   4.480   3.690   0.552  0.5416 -1.2945 -0.5382
 6879SOL     OW32098   1.057   3.773   4.319  0.4375  0.1646 -0.2928
 6879SOL    HW132099   1.043   3.742   4.408  0.2621  0.4774 -0.2115
 6879SOL    HW232100   1.137   3.823   4.333  0.3594  0.0140  0.6773
 6880SOL     OW32101   4.509   4.629   1.594  0.1509 -0.2098 -0.0423
 6880SOL    HW132102   4.574   4.638   1.664 -0.1450  0.5547  0.1387
 6880SOL    HW232103   4.532   4.710   1.547 -0.8310 -0.0069 -0.1631
 6881SOL     OW32104   3.415   2.739   8.545 -0.4567 -0.6286 -0.3460
 6881SOL    HW132105   3.423   2.828   8.580 -0.3382 -0.9817  0.5327
 6881SOL    HW232106   3.438   2.751   8.453  2.0747  2.5012  0.7023
 6882SOL     OW32107   0.874   4.104   9.595 -0.2230 -0.2631 -0.3753
 6882SOL    HW132108   0.947   4.044   9.578 -0.2419  0.1601 -1.9861
 6882SOL    HW232109   0.888   4.158   9.517  0.7504  0.1599  0.0961
 6883SOL     OW32110   4.372   3.757   9.573 -0.0978 -0.2618  0.1924
 6883SOL    HW132111   4.400   3.818   9.506  0.3327 -1.0183 -0.3128
 6883SOL    HW232112   4.283   3.729   9.549  0.0305 -1.4189  1.0684
 6884SOL     OW32113   2.510   2.305  13.335 -0.1200  0.1039  0.1223
 6884SOL    HW132114   2.417   2.329  13.332 -0.5539 -1.4636  1.9706
 6884SOL    HW232115   2.535   2.385  13.381  2.4653 -0.4775 -0.3036
 6885SOL     OW32116   3.145   3.053  17.521  0.5386 -0.0482 -0.1723
 6885SOL    HW132117   3.094   3.068  17.441  0.5859 -0.4487 -0.2770
 6885SOL    HW232118   3.203   3.127  17.540 -0.8497  1.0360 -0.1649
 6886SOL     OW32119   2.740   1.767   8.658 -0.0835  0.2105  0.1288
 6886SOL    HW132120   2.762   1.828   8.729 -2.3911  1.2698 -0.0762
 6886SOL    HW232121   2.661   1.731   8.699 -0.3563 -1.4524 -1.8603
 6887SOL     OW32122   4.322   3.512   9.659  0.3728  0.2528  0.1994
 6887SOL    HW132123   4.330   3.442   9.595  0.5788  0.9994 -0.6020
 6887SOL    HW232124   4.359   3.586   9.611  1.7197 -0.6891 -0.2172
 6888SOL     OW32125   0.002   0.490   6.699  0.7096  0.0226 -0.2010
 6888SOL    HW132126   0.023   0.460   6.610  0.6580  2.0632 -0.8908
 6888SOL    HW232127   4.650   0.553   6.688  0.0362 -0.9248 -1.3790
 6889SOL     OW32128   2.481   1.414   6.789  0.1586  0.2712 -0.4659
 6889SOL    HW132129   2.563   1.465   6.790  0.5083 -0.3286  2.8175
 6889SOL    HW232130   2.432   1.473   6.847  1.2263  3.7741 -3.1101
 6890SOL     OW32131   0.128   1.482  16.298 -0.6397  0.3088 -0.4429
 6890SOL    HW132132   0.145   1.463  16.206  1.1253 -1.0516  0.1678
 6890SOL    HW232133   0.143   1.576  16.309 -3.2024  0.6476  0.0067
 6891SOL     OW32134   1.354   2.208   9.015  0.5567  0.3694  0.6142
 6891SOL    HW132135   1.383   2.141   9.077  0.0792 -0.1706  0.2504
 6891SOL    HW232136   1.343   2.146   8.943 -3.6009  0.8396  0.8332
 6892SOL     OW32137   2.287   2.743   5.410  0.0148  0.3097  0.8305
 6892SOL    HW132138   2.315   2.832   5.430 -0.2119  0.2341  1.4758
 6892SOL    HW232139   2.191   2.752   5.407 -0.3304 -3.9008 -1.2409
 6893SOL     OW32140   3.037   0.489  11.454  0.1103 -0.3012  0.4958
 6893SOL    HW132141   3.101   0.550  11.490 -1.0866 -0.6425  3.2363
 6893SOL    HW232142   3.094   0.428  11.408 -0.1926  0.4775 -0.9001
 6894SOL     OW32143   0.601   4.282   2.487 -0.0824  0.1432  0.3430
 6894SOL    HW132144   0.568   4.285   2.398 -0.1803  2.5258  0.4401
 6894SOL    HW232145   0.694   4.263   2.475  0.1490  0.4520  1.5632
 6895SOL     OW32146   1.809   2.116   9.626 -0.3797 -0.0459 -0.0444
 6895SOL    HW132147   1.762   2.189   9.585  2.9195  1.8618 -0.4372
 6895SOL    HW232148   1.897   2.115   9.586 -0.7074 -0.8052 -0.7391
 6896SOL     OW32149   1.663   0.353   8.756  0.2525 -0.0005 -0.0687
 6896SOL    HW132150   1.578   0.398   8.757  1.2402  1.8890 -0.7555
 6896SOL    HW232151   1.714   0.430   8.780  0.8214  0.0994 -1.6016
 6897SOL     OW32152   2.981   3.838   4.942 -0.0127  0.4249  0.3352
 6897SOL    HW132153   2.984   3.742   4.935  0.0328  0.5007 -0.6682
 6897SOL    HW232154   2.890   3.858   4.919 -0.5170 -0.8071  1.2461
 6898SOL     OW32155   0.812   1.936   9.745 -0.1769 -0.0585  0.3016
 6898SOL    HW132156   0.812   1.840   9.749 -3.5094 -0.1002 -0.5131
 6898SOL    HW232157   0.903   1.952   9.721  0.0704  1.8346  2.5084
 6899SOL     OW32158   3.719   0.445   3.367 -0.3792 -0.6608  0.4915
 6899SOL    HW132159   3.806   0.411   3.344  0.1078  0.9969 -0.0933
 6899SOL    HW232160   3.750   0.508   3.432 -1.0862 -1.6032  1.7447
 6900SOL     OW32161   1.346   0.082   2.796  0.2492  0.3446  0.1327
 6900SOL    HW132162   1.313   0.117   2.879  0.7442  0.6738  0.1912
 6900SOL    HW232163   1.337   4.707   2.812  2.1237  0.0029 -0.8434
 6901SOL     OW32164   1.409   4.577   6.712 -0.4266 -0.5367 -0.2492
 6901SOL    HW132165   1.462   4.501   6.735  0.6876  0.8857  1.9525
 6901SOL    HW232166   1.457   4.620   6.641  0.9923  1.6081  1.9988
 6902SOL     OW32167   2.337   2.165   3.199  0.7468 -0.0473 -0.3079
 6902SOL    HW132168   2.400   2.188   3.130  0.7211 -1.3836 -0.7741
 6902SOL    HW232169   2.342   2.070   3.209 -0.4914  0.1113  1.7838
 6903SOL     OW32170   4.362   2.483  16.803 -0.0382  0.2041  0.3077
 6903SOL    HW132171   4.353   2.398  16.848  3.0415  0.4508  1.3700
 6903SOL    HW232172   4.286   2.531  16.834  0.3487  0.3073  1.0978
 6904SOL     OW32173   3.834   0.991   5.035 -0.4831  0.5872 -0.3660
 6904SOL    HW132174   3.906   0.944   5.076 -0.7526 -1.1078 -1.8378
 6904SOL    HW232175   3.764   0.962   5.093  2.0217  2.2014  3.4214
 6905SOL     OW32176   2.733   4.031   4.833 -0.5004 -0.0206  0.1996
 6905SOL    HW132177   2.761   3.965   4.770  1.6882  0.6770  0.4244
 6905SOL    HW232178   2.708   4.101   4.773 -1.5097  1.3146  2.1665
 6906SOL     OW32179   2.174   0.704   9.577 -0.2046 -0.0466 -0.3907
 6906SOL    HW132180   2.232   0.734   9.507 -0.2251  1.5037  0.2569
 6906SOL    HW232181   2.194   0.768   9.646  0.2778  0.6791 -1.2098
 6907SOL     OW32182   2.455   3.068  11.018 -0.1379 -0.0338  0.2793
 6907SOL    HW132183   2.509   3.020  10.955  0.4064 -0.1291  0.8126
 6907SOL    HW232184   2.389   2.999  11.021  0.7232 -0.8250  1.1498
 6908SOL     OW32185   1.277   0.017  13.804  0.5894 -0.2545  0.2106
 6908SOL    HW132186   1.310   4.645  13.799  0.0453 -0.4776  0.6872
 6908SOL    HW232187   1.323   0.047  13.882  2.6280  0.7607 -1.3651
 6909SOL     OW32188   2.001   1.561   2.683 -0.2643  0.3472 -0.4793
 6909SOL    HW132189   2.077   1.504   2.690 -0.0737  0.8268  1.2021
 6909SOL    HW232190   1.959   1.533   2.764 -0.7594  1.0700 -0.4871
 6910SOL     OW32191   1.366   2.527   7.823 -0.1174  0.6473 -0.8192
 6910SOL    HW132192   1.416   2.555   7.899  0.8500 -1.5572 -0.6419
 6910SOL    HW232193   1.340   2.440   7.854 -1.2613  1.0664 -0.5812
 6911SOL     OW32194   3.929   2.517   2.546 -0.0504  0.5110 -0.5370
 6911SOL    HW132195   3.841   2.554   2.543 -0.0539  0.5845  0.4130
 6911SOL    HW232196   3.974   2.554   2.470  0.9249  0.5206  0.0428
 6912SOL     OW32197   0.584   4.336  13.974 -0.3386  0.1235  0.1511
 6912SOL    HW132198   0.503   4.351  13.925  0.4013  1.5775 -0.6339
 6912SOL    HW232199   0.558   4.325  14.065  1.1426 -0.1472  0.5330
 6913SOL     OW32200   4.081   0.481   4.596 -0.2805  0.3650 -0.5108
 6913SOL    HW132201   4.061   0.417   4.664  2.1849  1.2488  1.0525
 6913SOL    HW232202   3.998   0.529   4.594  0.0402  1.1227  4.1041
 6914SOL     OW32203   1.597   3.710  14.882 -0.5151  0.6308 -0.3610
 6914SOL    HW132204   1.508   3.728  14.913 -0.7204 -0.3314 -0.4110
 6914SOL    HW232205   1.607   3.617  14.902  1.1817  0.8562 -0.1584
 6915SOL     OW32206   3.992   2.914   6.160  0.1723  0.0174 -0.0111
 6915SOL    HW132207   4.026   2.857   6.229 -0.3720 -0.2143  0.0631
 6915SOL    HW232208   3.987   2.859   6.081  0.2131 -0.5575  0.3893
 6916SOL     OW32209   0.445   2.802   2.363  0.2883 -0.0272  0.1959
 6916SOL    HW132210   0.452   2.798   2.268 -1.8415  0.5902  0.0152
 6916SOL    HW232211   0.465   2.713   2.390  1.4251 -0.2331 -1.3725
 6917SOL     OW32212   3.097   1.593   4.017  0.4415 -0.1921 -0.2607
 6917SOL    HW132213   3.090   1.649   3.940 -2.6628 -2.6968 -1.7689
 6917SOL    HW232214   3.056   1.653   4.079 -1.9229 -2.0184 -0.0713
 6918SOL     OW32215   3.448   1.792  14.488  0.4789 -0.1767 -0.0895
 6918SOL    HW132216   3.452   1.709  14.441 -0.1259 -0.3801  0.2260
 6918SOL    HW232217   3.425   1.755  14.573  0.3871  0.6395  0.2416
 6919SOL     OW32218   2.395   0.750   9.423 -0.0179 -0.1357  0.1891
 6919SOL    HW132219   2.400   0.837   9.463  3.1797  0.1162 -0.7719
 6919SOL    HW232220   2.486   0.720   9.429 -0.2679 -1.0428 -0.5247
 6920SOL     OW32221   0.987   2.206   3.567 -0.8385  0.5320  0.3528
 6920SOL    HW132222   1.027   2.265   3.630 -1.8172  0.7490  0.7644
 6920SOL    HW232223   0.973   2.125   3.616  3.2560 -0.0856  0.4552
 6921SOL     OW32224   2.926   0.855   2.113 -0.2251  0.7052 -0.3049
 6921SOL    HW132225   2.850   0.881   2.061 -2.0557 -2.0979  0.9014
 6921SOL    HW232226   2.927   0.913   2.189 -1.4529  0.3606 -0.0244
 6922SOL     OW32227   3.868   1.219   2.144  0.2406  0.5448  0.1358
 6922SOL    HW132228   3.811   1.172   2.083  0.6658  0.5568 -0.2686
 6922SOL    HW232229   3.850   1.307   2.111 -1.3011 -0.2329 -1.1508
 6923SOL     OW32230   1.271   1.247   4.153 -0.5023  0.7757 -0.4206
 6923SOL    HW132231   1.212   1.201   4.213 -0.3751  0.1433 -0.7849
 6923SOL    HW232232   1.229   1.333   4.152 -0.7462  0.6050 -3.2539
 6924SOL     OW32233   1.357   4.058   1.080  0.3951 -0.6963  0.1271
 6924SOL    HW132234   1.438   4.108   1.088 -0.0622  0.0345  0.1700
 6924SOL    HW232235   1.321   4.071   1.167 -1.2736  2.2007 -1.0059
 6925SOL     OW32236   1.474   0.199  16.985 -0.2575 -0.3173  0.7818
 6925SOL    HW132237   1.452   0.164  17.071 -0.4703  1.0324  1.2855
 6925SOL    HW232238   1.462   0.122  16.930 -1.8992  1.1816 -0.9304
 6926SOL     OW32239   2.538   3.783   5.327  0.1623 -0.4645  0.6231
 6926SOL    HW132240   2.559   3.713   5.266  0.1905  0.3489 -0.2896
 6926SOL    HW232241   2.543   3.857   5.267 -1.4409 -1.8522 -1.2173
 6927SOL     OW32242   0.869   4.553   5.968  0.2164 -0.6255  0.3306
 6927SOL    HW132243   0.902   4.516   6.051 -0.9447  0.6076  1.3394
 6927SOL    HW232244   0.799   4.491   5.946 -0.6257 -0.7806  3.3640
 6928SOL     OW32245   0.929   0.327   1.824 -0.5441  0.0100  0.4134
 6928SOL    HW132246   0.861   0.353   1.761  0.5818 -3.7945 -2.3606
 6928SOL    HW232247   0.906   0.237   1.843 -1.9994  0.2125 -0.3403
 6929SOL     OW32248   4.469   4.071   2.127 -0.2287 -0.0352  0.1947
 6929SOL    HW132249   4.466   4.014   2.050  2.8208 -1.2859  1.0206
 6929SOL    HW232250   4.483   4.157   2.087 -2.0818 -0.4989 -1.5072
 6930SOL     OW32251   4.508   0.795   0.973 -0.1833 -0.0627  0.2450
 6930SOL    HW132252   4.564   0.719   0.988  0.1872  0.2205  0.2945
 6930SOL    HW232253   4.434   0.773   1.029  0.0055 -0.3050  0.3973
 6931SOL     OW32254   2.084   2.720   1.858 -0.3625  0.4372 -0.2406
 6931SOL    HW132255   2.050   2.637   1.827 -1.8461  0.7106  0.6538
 6931SOL    HW232256   2.096   2.763   1.774  0.9630  1.2949  0.3787
 6932SOL     OW32257   3.776   4.653  17.358 -0.5387 -0.1866 -0.3616
 6932SOL    HW132258   3.731   4.713  17.417  0.7835 -0.6384  1.0988
 6932SOL    HW232259   3.726   4.652  17.276 -1.1024  0.7662 -0.0292
 6933SOL     OW32260   0.132   4.139   4.556  0.0253  0.4617  0.1047
 6933SOL    HW132261   0.149   4.105   4.644  4.0866  0.6950 -0.5893
 6933SOL    HW232262   0.058   4.084   4.529 -0.5299 -0.9576  4.4286
 6934SOL     OW32263   1.592   2.928   5.814 -0.0440 -0.2271  0.3023
 6934SOL    HW132264   1.572   3.011   5.858  1.2068 -0.5340  1.4606
 6934SOL    HW232265   1.537   2.866   5.861  0.2746 -1.3246 -0.7557
 6935SOL     OW32266   3.675   3.485   5.184 -0.2383  0.1683  0.4282
 6935SOL    HW132267   3.748   3.539   5.212 -1.7790  1.5082  1.8916
 6935SOL    HW232268   3.720   3.444   5.111 -0.8380  1.0498 -0.4271
 6936SOL     OW32269   4.678   1.056   0.729 -0.0881  0.2556 -0.0240
 6936SOL    HW132270   0.026   1.051   0.797  0.7440  0.6130 -0.8035
 6936SOL    HW232271   4.671   0.969   0.689  0.7888  1.3525 -2.5550
 6937SOL     OW32272   0.719   3.492   6.268 -0.1540  0.0278  0.0327
 6937SOL    HW132273   0.785   3.510   6.336  0.9602 -2.0259 -0.5272
 6937SOL    HW232274   0.654   3.444   6.319 -0.4196  0.1496 -0.1946
 6938SOL     OW32275   1.077   1.740   4.186  0.0869  0.5689  0.3844
 6938SOL    HW132276   1.152   1.797   4.173  2.0583 -1.9815  0.4758
 6938SOL    HW232277   1.019   1.768   4.116 -1.6170 -0.9039  1.1837
 6939SOL     OW32278   0.772   1.340   7.344 -0.1394  0.3729  0.6210
 6939SOL    HW132279   0.819   1.341   7.260  0.6865 -1.4288  1.0406
 6939SOL    HW232280   0.833   1.379   7.407 -1.1046  0.2976  1.5849
 6940SOL     OW32281   1.797   2.056   3.594 -0.1484  0.5370 -0.2004
 6940SOL    HW132282   1.709   2.020   3.580 -1.2938  1.9806  3.2356
 6940SOL    HW232283   1.837   1.988   3.648  0.3538  0.3095 -0.8718
 6941SOL     OW32284   0.408   2.642   8.587 -0.5662 -0.5779 -0.2568
 6941SOL    HW132285   0.421   2.642   8.682 -2.1841 -0.0016 -0.0332
 6941SOL    HW232286   0.370   2.729   8.581  0.7722 -0.1041 -1.6397
 6942SOL     OW32287   4.074   0.059  14.844 -0.4762 -0.1795 -0.1868
 6942SOL    HW132288   4.100   0.142  14.804  0.1029  0.2128  1.0205
 6942SOL    HW232289   4.106   4.714  14.778 -2.0542  1.0381 -2.1091
 6943SOL     OW32290   2.988   2.194  10.530 -0.2279 -0.1125 -0.5656
 6943SOL    HW132291   2.987   2.243  10.447  0.0252 -1.5952 -1.4378
 6943SOL    HW232292   3.059   2.240  10.576 -0.5862  0.3866 -0.5047
 6944SOL     OW32293   2.960   0.536   6.408  0.6328 -0.4129  0.6791
 6944SOL    HW132294   2.998   0.495   6.330 -0.0654 -0.5723  0.4198
 6944SOL    HW232295   2.999   0.489   6.482 -1.1495 -0.8217  1.3451
 6945SOL     OW32296   4.309   2.440   2.171  0.4107 -0.5510 -0.0340
 6945SOL    HW132297   4.297   2.535   2.160 -2.1796 -0.9773 -0.8218
 6945SOL    HW232298   4.228   2.404   2.135 -1.5172  2.5481  1.1407
 6946SOL     OW32299   1.683   0.282   2.306 -0.1158 -0.0548  0.1279
 6946SOL    HW132300   1.687   0.201   2.356  0.4850  1.7607  3.0170
 6946SOL    HW232301   1.707   0.253   2.217 -1.4978 -1.8266  0.3263
 6947SOL     OW32302   0.765   4.448   5.524 -0.4156 -0.3461 -0.4602
 6947SOL    HW132303   0.673   4.429   5.503 -0.2517 -0.8342 -0.7550
 6947SOL    HW232304   0.797   4.478   5.439 -0.1345 -0.7262 -0.4900
 6948SOL     OW32305   1.041   3.220   2.347  0.0004  0.6563  0.2502
 6948SOL    HW132306   0.981   3.154   2.380  1.2303 -0.2914  0.6099
 6948SOL    HW232307   1.023   3.303   2.390  2.0704  1.5734 -0.6475
 6949SOL     OW32308   4.613   1.565   3.931  0.3710  0.0686  0.0084
 6949SOL    HW132309   4.686   1.622   3.906  1.1983 -1.4647 -1.0189
 6949SOL    HW232310   4.655   1.483   3.957 -1.3217 -0.6996  0.3486
 6950SOL     OW32311   0.315   0.930  11.155 -0.0929  0.1181  0.1184
 6950SOL    HW132312   0.327   1.017  11.192  0.7460  0.8764 -1.9374
 6950SOL    HW232313   0.335   0.870  11.227 -0.1129 -0.5069 -0.3940
 6951SOL     OW32314   4.448   1.029   3.867 -0.3648  0.2268 -0.0159
 6951SOL    HW132315   4.403   1.001   3.787 -0.9877 -0.6354  0.6304
 6951SOL    HW232316   4.495   1.101   3.825  0.5736  0.6144  1.7005
 6952SOL     OW32317   2.443   0.560  14.882 -0.3668 -0.1021  0.1727
 6952SOL    HW132318   2.535   0.539  14.894 -0.9438 -2.8389 -0.2064
 6952SOL    HW232319   2.399   0.483  14.919 -0.2278  0.9805  2.5722
 6953SOL     OW32320   3.246   3.305   0.266  0.1566 -0.0494  0.2782
 6953SOL    HW132321   3.265   3.373   0.202 -0.8332 -0.9500 -0.9714
 6953SOL    HW232322   3.337   3.305   0.296  0.5936 -0.7558 -1.0563
 6954SOL     OW32323   0.575   2.772  13.097 -0.7415  0.0061  0.0880
 6954SOL    HW132324   0.489   2.779  13.055 -1.4779  0.3237  1.6289
 6954SOL    HW232325   0.554   2.736  13.184 -2.0885  1.8585  0.5270
 6955SOL     OW32326   2.014   0.849   2.321  0.7431  0.5455 -0.1176
 6955SOL    HW132327   2.020   0.856   2.226 -2.0861  0.8035 -0.2738
 6955SOL    HW232328   2.023   0.938   2.357  0.2624 -0.0465  1.4833
 6956SOL     OW32329   2.941   4.675  10.256  0.1055  0.0334 -0.0244
 6956SOL    HW132330   2.980   0.024  10.312  3.5030 -0.8336 -1.3272
 6956SOL    HW232331   3.011   4.609  10.248  1.4204  1.4023  0.2624
 6957SOL     OW32332   3.304   3.192   3.165 -0.2149 -0.0794 -0.0032
 6957SOL    HW132333   3.392   3.156   3.173 -0.8546 -2.1722 -2.4029
 6957SOL    HW232334   3.326   3.285   3.162  1.8942 -0.5496  0.9286
 6958SOL     OW32335   1.275   3.891   6.428 -0.0262 -0.4029 -0.2622
 6958SOL    HW132336   1.234   3.826   6.372 -2.5660  0.3766  0.6995
 6958SOL    HW232337   1.220   3.890   6.507  0.9334  3.2488  0.4889
 6959SOL     OW32338   0.119   3.185   6.962 -0.0047  0.7844 -0.2817
 6959SOL    HW132339   0.162   3.100   6.968 -3.7454 -1.2426 -2.2053
 6959SOL    HW232340   0.045   3.168   7.020 -1.4139  2.5181 -1.5912
 6960SOL     OW32341   4.016   3.060   2.764  0.2882  0.1294 -0.7761
 6960SOL    HW132342   4.008   3.060   2.860 -1.0840  0.3684 -0.8799
 6960SOL    HW232343   4.051   2.973   2.746  2.4244  1.0814 -1.1831
 6961SOL     OW32344   1.912   3.708  12.682 -0.3347 -0.3360 -0.3241
 6961SOL    HW132345   1.903   3.758  12.601 -0.2081 -0.6842 -0.5531
 6961SOL    HW232346   2.002   3.723  12.709  0.6656 -0.0968 -3.7528
 6962SOL     OW32347   3.749   2.151   6.922  0.2387 -0.2262 -0.1539
 6962SOL    HW132348   3.663   2.116   6.945 -0.7184  1.4799 -1.1764
 6962SOL    HW232349   3.725   2.179   6.833  0.8323  2.8368  0.6791
 6963SOL     OW32350   1.469   2.706   8.537  0.0057 -0.2277 -0.5890
 6963SOL    HW132351   1.511   2.745   8.614 -0.7787 -1.8550  0.6757
 6963SOL    HW232352   1.452   2.613   8.554  0.5446 -0.4994 -1.5429
 6964SOL     OW32353   1.934   3.280  14.007 -0.6182  0.1003  0.6543
 6964SOL    HW132354   1.859   3.261  13.952 -0.8838  0.8222  0.7779
 6964SOL    HW232355   1.905   3.361  14.048 -2.2139 -0.4598  0.6076
 6965SOL     OW32356   2.123   4.369   6.122  0.0442  0.0057 -0.2308
 6965SOL    HW132357   2.130   4.351   6.028  1.3440 -0.9001  0.0484
 6965SOL    HW232358   2.199   4.427   6.129  1.0795 -1.1574 -1.9824
 6966SOL     OW32359   0.165   0.927  16.308  0.1172  0.2640 -0.1544
 6966SOL    HW132360   0.077   0.938  16.343  0.7321  0.4113  1.3332
 6966SOL    HW232361   0.185   1.014  16.275  0.7674  0.0768 -0.2638
 6967SOL     OW32362   4.304   2.270   4.725  0.5929  0.4252  0.5127
 6967SOL    HW132363   4.391   2.261   4.765  0.3049 -3.2774  0.3560
 6967SOL    HW232364   4.297   2.181   4.689 -0.6328  0.9890 -0.6615
 6968SOL     OW32365   4.021   0.168  11.670  0.0571 -0.0872 -0.2164
 6968SOL    HW132366   4.089   0.232  11.690  2.4768 -3.3267  1.7770
 6968SOL    HW232367   4.082   0.094  11.662 -0.1572 -0.5578  2.6447
 6969SOL     OW32368   1.421   3.946   3.812  0.5730 -0.0444  0.0102
 6969SOL    HW132369   1.346   4.005   3.823  2.4739  1.9722  2.0560
 6969SOL    HW232370   1.489   4.007   3.786 -0.1975  0.7550 -0.1472
 6970SOL     OW32371   1.194   3.528   4.387 -0.3811 -0.0114  0.1584
 6970SOL    HW132372   1.121   3.540   4.326 -0.8311 -2.1368  0.2728
 6970SOL    HW232373   1.272   3.542   4.334 -0.5127 -0.5256 -0.1687
 6971SOL     OW32374   0.887   0.778  17.617  0.2751 -1.0347  0.0677
 6971SOL    HW132375   0.801   0.758  17.655 -1.0778  2.5763 -1.1062
 6971SOL    HW232376   0.872   0.745  17.528  2.8490 -0.5656 -0.5404
 6972SOL     OW32377   2.886   1.729   3.538  0.2771  0.2122 -0.0381
 6972SOL    HW132378   2.895   1.659   3.603 -1.9806  0.1635  0.2487
 6972SOL    HW232379   2.930   1.801   3.582 -0.5466  1.2689 -0.9179
 6973SOL     OW32380   0.522   0.246   2.215  0.3900  0.4780 -0.0097
 6973SOL    HW132381   0.604   0.276   2.176 -0.2993  1.5762 -0.6230
 6973SOL    HW232382   0.528   0.151   2.205 -1.8107  0.3781 -0.3386
 6974SOL     OW32383   1.021   4.705   7.881  0.0530 -0.6975 -1.0584
 6974SOL    HW132384   1.046   4.613   7.891 -1.2927 -0.8741  0.5678
 6974SOL    HW232385   0.958   4.712   7.953 -0.2599 -0.6514 -1.3415
 6975SOL     OW32386   3.415   0.771   2.680  0.7147  0.6707 -0.3722
 6975SOL    HW132387   3.351   0.842   2.680  1.1239  1.0367 -0.1071
 6975SOL    HW232388   3.482   0.816   2.731  0.6539 -2.8140  2.7245
 6976SOL     OW32389   2.630   2.865  10.293 -0.9424  0.0419  0.6025
 6976SOL    HW132390   2.674   2.780  10.292 -1.9411 -0.4750  1.1818
 6976SOL    HW232391   2.550   2.846  10.342  0.1004  0.6746  2.5636
 6977SOL     OW32392   2.104   4.693   0.509 -0.0148 -0.4742  0.2552
 6977SOL    HW132393   2.043   4.682   0.581 -1.0690 -0.5561 -0.6547
 6977SOL    HW232394   2.187   4.657   0.541  0.9244  0.3884 -1.1861
 6978SOL     OW32395   3.518   1.858  17.210 -0.6051 -0.0160 -0.1418
 6978SOL    HW132396   3.510   1.856  17.115 -1.9978 -0.8691 -0.0000
 6978SOL    HW232397   3.593   1.799  17.220 -0.2978  0.1409 -1.6206
 6979SOL     OW32398   0.755   3.643   4.699  0.1534 -0.2136  0.0937
 6979SOL    HW132399   0.792   3.640   4.787  0.5353 -0.0252 -0.0612
 6979SOL    HW232400   0.691   3.710   4.723 -1.8530 -1.7938 -0.8338
 6980SOL     OW32401   2.406   2.286  10.427 -0.0781  0.1695 -0.1482
 6980SOL    HW132402   2.418   2.194  10.453  1.4149  0.6496  0.8759
 6980SOL    HW232403   2.377   2.309  10.515  0.9852  1.0247 -0.0161
 6981SOL     OW32404   1.954   1.222   0.836  0.6850 -0.8633 -0.1170
 6981SOL    HW132405   1.893   1.224   0.762 -0.5696  0.3074  0.9434
 6981SOL    HW232406   1.936   1.312   0.864  1.5440 -1.2259  1.5531
 6982SOL     OW32407   1.046   2.767  13.073  0.0100 -0.1197  0.6858
 6982SOL    HW132408   1.073   2.857  13.053 -0.3948  0.4748  2.7082
 6982SOL    HW232409   1.106   2.750  13.147  0.3952 -0.4147  0.3051
 6983SOL     OW32410   1.133   1.417   8.875  0.0454 -0.3657 -0.0184
 6983SOL    HW132411   1.168   1.336   8.912  1.2752  0.8236  1.4455
 6983SOL    HW232412   1.043   1.391   8.857 -0.3890 -0.1072  1.7680
 6984SOL     OW32413   4.102   4.681   2.183 -0.5145 -0.3100 -0.0407
 6984SOL    HW132414   4.137   4.691   2.271 -0.5686  0.6604 -0.1300
 6984SOL    HW232415   4.063   0.048   2.165  0.6169  0.8916  3.2692
 6985SOL     OW32416   1.970   1.873   6.729  0.7118 -0.5171  0.0688
 6985SOL    HW132417   2.042   1.915   6.682 -0.0995  1.0584  0.2670
 6985SOL    HW232418   1.897   1.931   6.711  1.4356  0.5596  0.6153
 6986SOL     OW32419   3.751   0.175   3.222 -0.1248  0.1108 -0.5953
 6986SOL    HW132420   3.783   0.185   3.312 -1.7513 -2.2683  0.2427
 6986SOL    HW232421   3.661   0.144   3.235  0.0973 -0.0784  0.5022
 6987SOL     OW32422   1.408   1.497   4.314  0.2630 -0.1394 -0.1227
 6987SOL    HW132423   1.433   1.579   4.357  0.4235 -0.1559 -0.1849
 6987SOL    HW232424   1.338   1.523   4.254  2.4434 -0.3317 -2.7009
 6988SOL     OW32425   0.071   0.911   3.596 -0.3193 -0.5553 -0.4411
 6988SOL    HW132426   0.123   0.903   3.516  0.2933  0.2643 -0.1273
 6988SOL    HW232427   4.707   0.867   3.574 -1.2092  0.2068  1.3438
 6989SOL     OW32428   0.674   3.425   3.421 -0.0859  0.0384  0.0200
 6989SOL    HW132429   0.689   3.510   3.379 -1.4682  0.2098 -0.1427
 6989SOL    HW232430   0.694   3.368   3.347 -1.0945  0.7402 -0.7887
 6990SOL     OW32431   2.930   0.748  12.572  0.4704 -0.7324 -0.1170
 6990SOL    HW132432   2.953   0.656  12.582 -1.6534 -1.2081  0.4192
 6990SOL    HW232433   2.857   0.745  12.510  0.1238 -1.0571  0.3025
 6991SOL     OW32434   1.390   0.955   2.070  0.5146  0.3303 -0.1396
 6991SOL    HW132435   1.438   0.964   2.152 -1.9743  2.1260  1.1501
 6991SOL    HW232436   1.440   1.009   2.008  0.9174  1.4258  1.1628
 6992SOL     OW32437   2.103   4.666  17.482 -0.2808  0.8282 -0.1749
 6992SOL    HW132438   2.013   4.652  17.510 -0.1598  1.3460  0.4857
 6992SOL    HW232439   2.098   4.640  17.390  0.7005 -0.1266  0.0460
 6993SOL     OW32440   1.967   2.742   3.843 -0.0084 -0.3408  0.8250
 6993SOL    HW132441   1.881   2.721   3.805  1.1047  2.0273 -2.9084
 6993SOL    HW232442   1.951   2.808   3.911 -0.2955  1.2954 -0.8344
 6994SOL     OW32443   2.027   2.943   7.837 -0.1166  0.0547  0.3242
 6994SOL    HW132444   2.027   2.922   7.930  2.0996  3.1372  1.0342
 6994SOL    HW232445   1.982   3.027   7.848 -0.3210  0.2880 -2.3367
 6995SOL     OW32446   0.761   3.551  16.065  0.8494  0.6514  0.4695
 6995SOL    HW132447   0.802   3.601  15.995  0.3621 -1.0507 -1.0121
 6995SOL    HW232448   0.813   3.470  16.064  0.0068  0.1159  0.4085
 6996SOL     OW32449   4.374   1.790   5.197 -0.0555 -0.1796  0.1259
 6996SOL    HW132450   4.464   1.760   5.210  1.3968  2.7195 -3.2337
 6996SOL    HW232451   4.382   1.860   5.132 -0.1202  0.1710  0.4985
 6997SOL     OW32452   2.501   3.250   5.463 -0.7569 -0.0701  0.6144
 6997SOL    HW132453   2.492   3.344   5.449  1.2646  0.3336  2.0375
 6997SOL    HW232454   2.580   3.229   5.413 -0.8665  1.0540 -0.0462
 6998SOL     OW32455   1.890   2.996   1.371  0.2895 -0.0424 -0.2537
 6998SOL    HW132456   1.884   3.083   1.411  1.1374 -0.2769  0.3861
 6998SOL    HW232457   1.898   2.932   1.441 -2.2564 -0.1224 -0.0466
 6999SOL     OW32458   4.432   1.536   2.192 -0.0708  0.0141  0.9121
 6999SOL    HW132459   4.352   1.589   2.196 -0.4058 -0.5241  1.4529
 6999SOL    HW232460   4.417   1.449   2.229 -1.8485  0.7422  1.8939
 7000SOL     OW32461   3.413   2.041   4.988  0.6978 -0.1492  1.1399
 7000SOL    HW132462   3.381   1.985   5.060 -2.2119  1.1988  0.9181
 7000SOL    HW232463   3.444   2.120   5.031  0.2650  1.9799 -2.5189
 7001SOL     OW32464   2.035   3.822  15.175 -0.3359 -0.1450 -0.0499
 7001SOL    HW132465   2.048   3.792  15.265  0.1118  1.7343  0.5124
 7001SOL    HW232466   1.942   3.805  15.157 -0.7881  0.5205  1.5769
 7002SOL     OW32467   0.329   0.310   3.447  0.0457  0.2274  0.1282
 7002SOL    HW132468   0.274   0.306   3.368 -1.0772 -0.2260  0.9327
 7002SOL    HW232469   0.327   0.218   3.472 -3.0898  0.1399 -0.4018
 7003SOL     OW32470   1.929   3.900   5.359  0.0300 -0.3238  0.5440
 7003SOL    HW132471   1.972   3.951   5.290 -0.2190  0.5900  1.0502
 7003SOL    HW232472   1.851   3.953   5.377 -0.4625 -0.8440 -0.1047
 7004SOL     OW32473   3.652   0.400   8.343 -0.8931  0.5959 -0.0501
 7004SOL    HW132474   3.656   0.311   8.379  0.3495  0.0621 -1.5075
 7004SOL    HW232475   3.594   0.440   8.408 -1.1473 -2.2807  1.5273
 7005SOL     OW32476   1.089   1.795  13.083 -0.1999 -0.0630  0.4492
 7005SOL    HW132477   1.071   1.875  13.034  1.9727  0.7836  1.0538
 7005SOL    HW232478   1.153   1.752  13.026  0.4987 -0.9992  1.9233
 7006SOL     OW32479   0.904   1.960  16.999 -0.1583  0.3876 -0.1631
 7006SOL    HW132480   0.886   1.957  16.905 -2.1192  0.3460  0.2296
 7006SOL    HW232481   0.985   2.010  17.011 -0.5298  1.2967 -1.4464
 7007SOL     OW32482   4.094   3.767   1.761 -0.0733  0.1419  0.0892
 7007SOL    HW132483   4.124   3.698   1.821  0.8859  0.9026  0.4761
 7007SOL    HW232484   4.001   3.747   1.754  0.2481 -0.7896 -1.5406
 7008SOL     OW32485   4.697   4.697   1.776 -0.0562  0.8449 -0.2868
 7008SOL    HW132486   0.033   0.019   1.844 -0.5468  1.6942 -0.3961
 7008SOL    HW232487   4.656   0.061   1.750  0.0977  0.3156 -2.1859
 7009SOL     OW32488   0.751   1.236   2.175 -0.3380 -0.0359 -0.2157
 7009SOL    HW132489   0.844   1.254   2.182 -0.9581  3.3837 -0.8770
 7009SOL    HW232490   0.733   1.245   2.081  2.2420  0.5414 -0.6532
 7010SOL     OW32491   0.265   0.616   6.661 -0.1695  0.7700 -0.6068
 7010SOL    HW132492   0.206   0.627   6.736  2.3540 -1.6661  1.7691
 7010SOL    HW232493   0.203   0.588   6.594 -1.6807  1.4083  0.5119
 7011SOL     OW32494   4.230   2.870  14.294 -0.0983 -0.7237 -0.0037
 7011SOL    HW132495   4.194   2.796  14.245 -0.9808  0.0988 -0.6033
 7011SOL    HW232496   4.193   2.949  14.254  1.2695  0.7594  1.6779
 7012SOL     OW32497   3.887   4.250   5.245 -0.0852  0.4732 -0.3228
 7012SOL    HW132498   3.909   4.332   5.200  1.0912  0.6282  0.5430
 7012SOL    HW232499   3.821   4.276   5.310  1.2236 -0.7873  1.4996
 7013SOL     OW32500   0.960   4.244   4.693 -0.4207 -0.5221  0.3069
 7013SOL    HW132501   1.050   4.277   4.692 -0.4240 -0.7377 -5.6616
 7013SOL    HW232502   0.949   4.243   4.598 -2.7395 -0.8096  0.6005
 7014SOL     OW32503   1.620   3.372  11.173 -0.5028  0.0249  0.4310
 7014SOL    HW132504   1.654   3.296  11.219 -2.2342 -1.2727 -0.4616
 7014SOL    HW232505   1.591   3.344  11.086 -0.4638 -0.1146  0.4635
 7015SOL     OW32506   0.357   3.380   9.003  0.1116  0.2565  0.0743
 7015SOL    HW132507   0.353   3.438   8.927 -1.4729 -0.3764 -0.3247
 7015SOL    HW232508   0.350   3.294   8.962  1.2307 -1.2040  2.9451
 7016SOL     OW32509   1.455   2.048   8.031 -0.1536 -0.5583 -0.1853
 7016SOL    HW132510   1.545   2.048   7.999 -0.1817  2.0893 -0.2520
 7016SOL    HW232511   1.424   1.958   8.020 -0.2516 -0.2382 -2.3856
 7017SOL     OW32512   1.354   1.499   8.610 -0.4625  0.2069  0.1334
 7017SOL    HW132513   1.286   1.528   8.550  0.0844  0.3372 -0.4264
 7017SOL    HW232514   1.403   1.444   8.548 -0.8532  0.4075 -0.3514
 7018SOL     OW32515   1.175   4.460   8.298  0.1295  0.1797 -0.7149
 7018SOL    HW132516   1.228   4.403   8.353 -0.9106 -0.6607 -0.5744
 7018SOL    HW232517   1.166   4.527   8.366  0.9329 -0.5208  0.0729
 7019SOL     OW32518   2.655   4.602   3.679  0.2110 -0.3856  0.2735
 7019SOL    HW132519   2.631   4.630   3.591 -3.7458  0.9909  1.8055
 7019SOL    HW232520   2.680   4.684   3.720 -1.9882 -1.1661  3.1720
 7020SOL     OW32521   3.010   0.735   3.093 -0.1519  0.3295 -0.2437
 7020SOL    HW132522   3.054   0.751   3.176  0.3069  0.9613 -0.6119
 7020SOL    HW232523   2.919   0.765   3.100 -0.1765 -0.0204  0.9819
 7021SOL     OW32524   0.316   2.631  11.559 -0.1494 -0.3035 -0.3923
 7021SOL    HW132525   0.340   2.667  11.474 -1.0909 -2.6917 -1.6867
 7021SOL    HW232526   0.222   2.649  11.548  0.2582  2.0924 -0.0250
 7022SOL     OW32527   3.906   1.996   2.142  0.0044 -0.7985 -0.1908
 7022SOL    HW132528   3.878   2.083   2.169  1.8819 -0.3273  0.2485
 7022SOL    HW232529   3.959   2.013   2.064  4.2545 -1.7837  2.4719
 7023SOL     OW32530   2.415   2.642  14.163 -0.0245 -0.4599  0.2137
 7023SOL    HW132531   2.508   2.663  14.166  0.1517 -1.0106 -1.8265
 7023SOL    HW232532   2.410   2.618  14.071  1.0748  1.9874 -0.4801
 7024SOL     OW32533   0.760   0.756   8.408  0.2997 -0.1648 -0.1487
 7024SOL    HW132534   0.712   0.673   8.411 -1.2432  0.6386 -2.0178
 7024SOL    HW232535   0.836   0.742   8.352  1.6428 -2.7323  2.3430
 7025SOL     OW32536   0.813   2.148   6.220  0.0504  0.3327 -0.4029
 7025SOL    HW132537   0.860   2.066   6.231 -0.6571 -0.3786 -2.6003
 7025SOL    HW232538   0.873   2.221   6.235  1.6363 -1.2903  1.0322
 7026SOL     OW32539   3.540   0.834   7.249 -0.2309 -0.4855 -0.0846
 7026SOL    HW132540   3.501   0.770   7.310  0.5901 -2.6524 -1.8281
 7026SOL    HW232541   3.470   0.848   7.185 -0.9549 -1.4923  0.4730
 7027SOL     OW32542   3.451   2.811   5.731 -0.5710 -0.4018 -0.2804
 7027SOL    HW132543   3.461   2.766   5.647 -0.6090 -1.9683  0.5709
 7027SOL    HW232544   3.541   2.821   5.760 -0.1900  1.9539 -2.2771
 7028SOL     OW32545   3.925   2.805   2.977  0.2204 -0.4630  0.1004
 7028SOL    HW132546   4.010   2.805   3.021  1.3474  0.6104 -2.0444
 7028SOL    HW232547   3.931   2.728   2.922 -2.0406 -0.8758  0.4441
 7029SOL     OW32548   0.797   3.771   8.728  0.6061  0.4374 -0.0838
 7029SOL    HW132549   0.851   3.710   8.778 -0.1817  0.1866  0.4612
 7029SOL    HW232550   0.817   3.753   8.636 -3.4200 -2.8514 -0.2654
 7030SOL     OW32551   2.447   1.957   4.828 -0.0673  0.1983  0.1647
 7030SOL    HW132552   2.522   1.962   4.886  1.7299  0.7751 -2.2194
 7030SOL    HW232553   2.390   1.910   4.889  0.4123  0.3800  0.7452
 7031SOL     OW32554   3.790   4.103   4.740 -0.7094  0.6223  0.3654
 7031SOL    HW132555   3.822   4.192   4.753  1.3519 -0.4411  2.7435
 7031SOL    HW232556   3.696   4.110   4.729 -0.6910 -1.1931 -1.0994
 7032SOL     OW32557   0.338   3.487  17.582  0.0484  0.8509 -0.3277
 7032SOL    HW132558   0.430   3.511  17.568  0.4070  0.3552  1.2262
 7032SOL    HW232559   0.363   3.416  17.641 -2.0400  1.3784  1.1650
 7033SOL     OW32560   0.561   4.228   7.604 -0.1862  0.1495 -0.0797
 7033SOL    HW132561   0.539   4.146   7.559  2.9097  0.3165 -1.9146
 7033SOL    HW232562   0.475   4.270   7.612 -0.3777 -0.6434  1.9093
 7034SOL     OW32563   0.253   3.580   4.554  0.0235  0.2819 -0.1112
 7034SOL    HW132564   0.271   3.657   4.607  1.0862 -0.8598  1.2097
 7034SOL    HW232565   0.340   3.554   4.523  0.7680  0.5048  1.8074
 7035SOL     OW32566   0.422   1.525  14.490  0.1679  0.9502 -0.0550
 7035SOL    HW132567   0.449   1.441  14.527 -1.9556 -1.1744 -3.3465
 7035SOL    HW232568   0.449   1.529  14.399 -1.4505  0.3219 -0.5676
 7036SOL     OW32569   1.883   2.308   8.248  0.1197 -0.3783  0.4388
 7036SOL    HW132570   1.972   2.335   8.269  1.3916 -4.0862 -0.0399
 7036SOL    HW232571   1.847   2.359   8.176  0.9181 -0.4534 -0.0232
 7037SOL     OW32572   2.238   0.838  10.485  0.4554  0.2101  0.5696
 7037SOL    HW132573   2.255   0.744  10.479 -0.9029 -0.2199  3.9695
 7037SOL    HW232574   2.317   0.861  10.435  0.2132 -0.0908  0.0414
 7038SOL     OW32575   4.462   1.962  15.909  0.8135  0.0660 -0.1906
 7038SOL    HW132576   4.401   2.026  15.946 -0.5343 -0.8553 -0.8182
 7038SOL    HW232577   4.405   1.922  15.844 -0.1859  1.3057 -0.0802
 7039SOL     OW32578   1.244   1.039   7.117  0.4365 -0.1524  0.6348
 7039SOL    HW132579   1.234   0.956   7.070  3.0107  0.1425 -0.4679
 7039SOL    HW232580   1.225   1.001   7.203  0.8851 -1.9892 -0.0704
 7040SOL     OW32581   4.063   2.334   4.326 -0.2673 -0.2476  0.2873
 7040SOL    HW132582   4.152   2.315   4.356  0.1206  0.9220 -0.1218
 7040SOL    HW232583   4.061   2.271   4.254  1.1138 -1.9660  1.7613
 7041SOL     OW32584   0.546   4.459  16.227 -0.2645 -0.4302  0.8676
 7041SOL    HW132585   0.573   4.368  16.244  0.0441 -0.4441  0.3254
 7041SOL    HW232586   0.506   4.455  16.140 -0.8661  2.3061  1.0279
 7042SOL     OW32587   1.463   0.085   3.749 -0.3743 -0.1337  0.5134
 7042SOL    HW132588   1.426   0.020   3.689 -0.5541  1.0179 -0.6303
 7042SOL    HW232589   1.478   0.161   3.692 -1.2989  0.9618  1.7473
 7043SOL     OW32590   4.265   1.008   8.757  0.0833  0.2431 -0.0902
 7043SOL    HW132591   4.322   1.048   8.823  2.3428  0.5855 -2.2352
 7043SOL    HW232592   4.333   0.961   8.709 -0.2703 -0.7090  0.3335
 7044SOL     OW32593   0.571   3.309   8.191  0.1063 -0.4587 -1.0009
 7044SOL    HW132594   0.519   3.244   8.143 -1.7999 -0.9199  1.6939
 7044SOL    HW232595   0.507   3.318   8.261  0.8183  1.8305 -0.6321
 7045SOL     OW32596   0.306   3.349   4.766  0.3905 -0.0078  0.7494
 7045SOL    HW132597   0.229   3.344   4.710  0.8907  2.0142 -0.0870
 7045SOL    HW232598   0.289   3.423   4.824 -1.3504  0.7185 -0.7059
 7046SOL     OW32599   3.070   0.540   7.096 -0.1728  0.2302 -0.0837
 7046SOL    HW132600   2.978   0.567   7.102 -0.2937 -0.2287  0.2122
 7046SOL    HW232601   3.113   0.609   7.146 -1.5491 -0.3653  1.9482
 7047SOL     OW32602   3.551   1.286  17.234  0.4582 -0.8783 -0.2400
 7047SOL    HW132603   3.597   1.270  17.152 -0.8837 -4.4946 -0.2481
 7047SOL    HW232604   3.471   1.235  17.223 -0.1856 -0.5359  2.9042
 7048SOL     OW32605   3.379   4.350   8.877 -0.7641 -0.0615 -0.3302
 7048SOL    HW132606   3.321   4.374   8.949 -2.0569 -2.9070 -0.4420
 7048SOL    HW232607   3.463   4.369   8.920 -0.5136 -0.9474 -0.4433
 7049SOL     OW32608   0.809   3.670   5.306  0.4484 -0.4628  0.1641
 7049SOL    HW132609   0.752   3.693   5.379  0.0034 -0.3102 -0.2353
 7049SOL    HW232610   0.813   3.574   5.313 -1.2731 -0.5519 -0.1785
 7050SOL     OW32611   1.444   1.197  14.924 -0.1371  0.1622 -0.6741
 7050SOL    HW132612   1.536   1.173  14.929  0.5073  2.4253 -1.6144
 7050SOL    HW232613   1.432   1.181  14.830 -0.9028  0.2868 -0.5960
 7051SOL     OW32614   0.211   1.328   2.402 -0.0272 -0.1932  0.8504
 7051SOL    HW132615   0.157   1.405   2.387  1.1928  0.4013 -0.4808
 7051SOL    HW232616   0.295   1.364   2.432  1.1096 -1.0428 -1.3264
 7052SOL     OW32617   2.276   1.784   4.115 -0.1310 -0.3668  0.4186
 7052SOL    HW132618   2.294   1.795   4.208 -1.4229  0.2701  0.5970
 7052SOL    HW232619   2.309   1.695   4.104 -0.0548 -0.2616 -0.2357
 7053SOL     OW32620   1.946   0.172   5.337  0.2583 -0.2872 -0.2747
 7053SOL    HW132621   1.987   0.251   5.301  2.0883 -0.9170  0.4454
 7053SOL    HW232622   1.973   0.174   5.429 -4.1224  0.9820  1.0142
 7054SOL     OW32623   0.642   3.820  15.820  0.1253 -0.0385 -0.2832
 7054SOL    HW132624   0.605   3.873  15.891 -1.8012  0.3656 -1.6088
 7054SOL    HW232625   0.564   3.766  15.810 -1.2827  1.7121  1.3099
 7055SOL     OW32626   2.008   0.961   3.373  0.3469  0.0967 -0.0025
 7055SOL    HW132627   1.916   0.955   3.400 -0.2308  2.0453 -1.4996
 7055SOL    HW232628   2.001   0.942   3.279 -0.0752 -2.2653  0.5237
 7056SOL     OW32629   1.279   0.397   9.279  0.4066 -0.0860  0.1412
 7056SOL    HW132630   1.259   0.491   9.276  1.5187  0.1740  0.9790
 7056SOL    HW232631   1.329   0.385   9.198 -2.1627 -3.5268 -0.9550
 7057SOL     OW32632   0.838   0.846  14.699 -0.0242 -0.3425 -0.3006
 7057SOL    HW132633   0.926   0.884  14.701  0.4971 -1.4528 -1.6360
 7057SOL    HW232634   0.809   0.865  14.609  1.4335  0.1698 -0.6643
 7058SOL     OW32635   1.471   2.006   5.473  0.2271  0.3752 -0.1151
 7058SOL    HW132636   1.463   2.021   5.379  2.7055 -0.5884 -0.4998
 7058SOL    HW232637   1.486   1.911   5.475 -0.4128  0.2912  0.8566
 7059SOL     OW32638   1.536   3.311   4.280  0.0090  0.0242  0.2947
 7059SOL    HW132639   1.544   3.221   4.250  1.3244  0.5526 -0.9862
 7059SOL    HW232640   1.554   3.302   4.373 -0.2537 -0.0237  0.3415
 7060SOL     OW32641   2.071   1.335   5.958 -0.1431 -0.3384  0.2519
 7060SOL    HW132642   2.098   1.252   5.997  1.5548  0.3688  0.5922
 7060SOL    HW232643   2.128   1.330   5.882  0.9727 -0.5130  1.1021
 7061SOL     OW32644   0.473   0.976  14.084 -0.2037  0.2414  0.4257
 7061SOL    HW132645   0.551   0.969  14.030  0.2808  0.3851  1.1079
 7061SOL    HW232646   0.451   1.068  14.068 -1.0298 -0.0180  0.0420
 7062SOL     OW32647   0.510   0.270   6.191  0.2692 -0.2739 -0.4791
 7062SOL    HW132648   0.518   0.347   6.134  1.5151  1.1055  1.5873
 7062SOL    HW232649   0.492   0.196   6.133  0.6983 -0.8842  0.1704
 7063SOL     OW32650   1.460   0.475   3.139  0.0075  0.3203 -0.4613
 7063SOL    HW132651   1.376   0.517   3.116  0.6391  1.1233 -1.3082
 7063SOL    HW232652   1.505   0.553   3.172  1.3638  0.6499 -3.1029
 7064SOL     OW32653   3.934   1.048   3.549  0.4398 -0.4726 -0.0513
 7064SOL    HW132654   3.943   0.988   3.624 -1.0283  0.1718  0.6312
 7064SOL    HW232655   3.857   1.094   3.580  1.3425 -0.9479  2.9923
 7065SOL     OW32656   0.325   4.317   9.679  0.1259 -0.2952 -0.2117
 7065SOL    HW132657   0.287   4.276   9.602  1.4635 -0.4821 -0.7797
 7065SOL    HW232658   0.411   4.321   9.636  1.5455  0.1561  2.6197
 7066SOL     OW32659   3.326   0.842   1.915  0.1578  0.0763 -0.6123
 7066SOL    HW132660   3.269   0.795   1.976  1.4090  0.1501  0.6019
 7066SOL    HW232661   3.332   0.775   1.847 -0.1395  0.0710 -0.6338
 7067SOL     OW32662   0.885   4.308  10.121  0.1857 -0.5977 -0.5742
 7067SOL    HW132663   0.821   4.373  10.092  1.1904  0.3900 -0.5683
 7067SOL    HW232664   0.956   4.335  10.063  0.9454 -0.7681  0.2798
 7068SOL     OW32665   3.030   0.210   3.759  0.0173 -0.0259  0.1095
 7068SOL    HW132666   2.948   0.244   3.722  0.2864  0.4887 -0.0137
 7068SOL    HW232667   3.004   0.153   3.831  1.3794 -1.5524 -0.6039
 7069SOL     OW32668   0.696   3.813   7.832  0.0952  0.2552 -0.1564
 7069SOL    HW132669   0.683   3.720   7.810 -0.6783  0.2093  0.5088
 7069SOL    HW232670   0.611   3.857   7.833 -0.2129 -0.1754 -4.8588
 7070SOL     OW32671   2.187   2.517   2.749 -0.2136 -0.2612  0.5048
 7070SOL    HW132672   2.140   2.484   2.825 -1.6271  0.9070  0.1264
 7070SOL    HW232673   2.273   2.493   2.785  0.6037 -0.6058 -1.7131
 7071SOL     OW32674   0.167   1.150   3.476  0.1975 -0.0684  0.3325
 7071SOL    HW132675   0.134   1.111   3.557 -1.3344  2.2116  0.7989
 7071SOL    HW232676   0.174   1.076   3.416  2.7042 -0.2107  0.8140
 7072SOL     OW32677   3.833   2.716   5.106  0.6489  0.0613 -0.4471
 7072SOL    HW132678   3.746   2.750   5.085  0.2418  0.5692  2.0580
 7072SOL    HW232679   3.871   2.694   5.021  0.6324  0.3638 -0.5346
 7073SOL     OW32680   3.006   4.209   3.250  0.2047 -0.4607 -0.3970
 7073SOL    HW132681   3.007   4.299   3.217 -1.7935 -0.4138 -0.2847
 7073SOL    HW232682   2.912   4.195   3.260  0.2920 -1.6522 -1.2115
 7074SOL     OW32683   3.818   0.081   6.553 -0.1086  0.0854  0.0119
 7074SOL    HW132684   3.849   0.039   6.473  1.2965  3.4361 -1.1767
 7074SOL    HW232685   3.725   0.084   6.531 -0.4379  1.6453  1.6022
 7075SOL     OW32686   3.727   4.050   5.529 -0.4051 -0.2365 -0.2205
 7075SOL    HW132687   3.698   4.028   5.440 -1.5002 -1.7287  0.5015
 7075SOL    HW232688   3.719   3.967   5.576  1.8523  1.0528  2.4350
 7076SOL     OW32689   3.375   1.375   3.532 -0.1085 -0.6624 -0.7255
 7076SOL    HW132690   3.402   1.321   3.458 -1.2849  0.5474 -2.0521
 7076SOL    HW232691   3.298   1.411   3.488  0.7636  0.3642 -1.4302
 7077SOL     OW32692   0.934   3.433   6.966 -0.0477 -0.0034  0.5522
 7077SOL    HW132693   0.932   3.442   7.061  1.5998  2.3903  0.3516
 7077SOL    HW232694   0.847   3.395   6.950 -0.6236  1.3420  0.4927
 7078SOL     OW32695   0.555   4.345   3.546 -0.1865 -0.1895  0.4815
 7078SOL    HW132696   0.646   4.320   3.562 -0.5203 -0.9568  1.1897
 7078SOL    HW232697   0.573   4.439   3.544  1.7099 -0.5380  1.4490
 7079SOL     OW32698   2.046   1.260   8.132  0.3496 -0.0751  0.1279
 7079SOL    HW132699   1.978   1.319   8.165  0.3243  1.0459 -1.9507
 7079SOL    HW232700   2.106   1.329   8.105 -0.8960  1.0647  0.2250
 7080SOL     OW32701   3.599   3.618   8.419 -0.5322 -0.0970 -0.5822
 7080SOL    HW132702   3.640   3.559   8.482  0.3890  1.5263  0.3335
 7080SOL    HW232703   3.511   3.637   8.452 -0.5350 -0.6084 -0.2979
 7081SOL     OW32704   1.220   3.936   8.291 -1.1410 -0.5090  0.1818
 7081SOL    HW132705   1.168   4.003   8.246 -1.2911  1.1712  2.8174
 7081SOL    HW232706   1.154   3.884   8.336  0.2729 -0.1146  2.7284
 7082SOL     OW32707   1.623   3.993   5.341  0.1878 -0.2021 -0.4070
 7082SOL    HW132708   1.636   3.986   5.435  1.0621  0.9184 -0.4433
 7082SOL    HW232709   1.558   3.927   5.318  1.3519 -0.9530 -1.6003
 7083SOL     OW32710   2.767   2.194   3.933  0.1428  0.2662 -0.4165
 7083SOL    HW132711   2.761   2.234   3.846 -0.9198 -1.0912 -0.9647
 7083SOL    HW232712   2.762   2.269   3.993  0.7559  1.7514 -2.1978
 7084SOL     OW32713   1.900   1.626   6.297  0.0804 -0.0485 -0.1031
 7084SOL    HW132714   1.857   1.680   6.363  0.8794 -1.0925  1.2803
 7084SOL    HW232715   1.841   1.626   6.222  0.7453  1.2482 -0.6097
 7085SOL     OW32716   1.429   0.988  13.621 -0.4614  0.1797  0.1258
 7085SOL    HW132717   1.524   0.977  13.618 -0.6574 -1.4898 -0.0891
 7085SOL    HW232718   1.407   1.001  13.529 -0.6501  2.1869  0.4654
 7086SOL     OW32719   1.100   2.646   2.312 -0.0223  0.0948 -0.0461
 7086SOL    HW132720   1.169   2.669   2.250  1.9497 -1.1226  1.7189
 7086SOL    HW232721   1.150   2.628   2.391 -1.2131  0.8051  0.8756
 7087SOL     OW32722   1.663   2.814   3.798  0.1845 -0.3506  0.2317
 7087SOL    HW132723   1.711   2.885   3.839 -0.3156 -1.5533  2.9332
 7087SOL    HW232724   1.604   2.795   3.871  0.9313 -2.3192  0.3314
 7088SOL     OW32725   2.919   0.603   2.451 -0.1796 -0.6839  0.2329
 7088SOL    HW132726   2.867   0.618   2.372 -1.3084 -1.8401  0.7481
 7088SOL    HW232727   2.913   0.508   2.448 -1.1334 -0.6620  1.5594
 7089SOL     OW32728   0.109   4.344  16.897 -0.2202 -0.2035 -0.1916
 7089SOL    HW132729   0.148   4.258  16.884  0.7573  0.2161  0.0165
 7089SOL    HW232730   0.117   4.380  16.808 -2.6305 -0.6780 -0.6072
 7090SOL     OW32731   1.988   3.181   4.084 -0.0074  0.0909  0.6761
 7090SOL    HW132732   1.950   3.260   4.124  1.1751  0.8877  0.2391
 7090SOL    HW232733   2.029   3.217   4.005 -1.0686 -3.0137 -1.2495
 7091SOL     OW32734   0.073   3.616   6.933  0.2000 -0.0218 -0.1177
 7091SOL    HW132735   0.092   3.526   6.962  1.2722  0.4809  0.7536
 7091SOL    HW232736   0.014   3.647   7.001  1.2405  1.1164  0.2478
 7092SOL     OW32737   2.549   4.598   5.827 -0.6569 -0.2921  0.4968
 7092SOL    HW132738   2.577   4.674   5.877  0.6346 -0.4973  0.0915
 7092SOL    HW232739   2.625   4.540   5.838 -1.1632 -0.3062  3.9189
 7093SOL     OW32740   2.851   3.686   4.082  0.0551 -0.0196  0.3092
 7093SOL    HW132741   2.938   3.675   4.044 -0.0467 -1.4752  0.4945
 7093SOL    HW232742   2.835   3.592   4.095  0.7040  0.0001  1.2432
 7094SOL     OW32743   1.827   1.979   4.674  0.3336 -0.2857  0.6154
 7094SOL    HW132744   1.742   1.939   4.692 -0.2562  0.0130 -1.4543
 7094SOL    HW232745   1.870   1.895   4.661  1.3621  0.3052  0.2282
 7095SOL     OW32746   4.622   1.746  11.305 -0.3925  0.0121  0.0854
 7095SOL    HW132747   4.552   1.717  11.246  0.5282  0.7691 -1.3721
 7095SOL    HW232748   4.574   1.797  11.371 -0.1770  0.2916  0.0223
 7096SOL     OW32749   4.638   1.346  11.930  0.3328 -0.5904 -0.3675
 7096SOL    HW132750   4.685   1.331  12.011 -0.1633 -2.2805 -0.3887
 7096SOL    HW232751   4.593   1.261  11.922  0.3857 -0.6594  0.0924
 7097SOL     OW32752   3.367   3.981   5.529  0.5039  0.0359 -0.1963
 7097SOL    HW132753   3.285   4.004   5.486  0.6073  3.1230  1.2673
 7097SOL    HW232754   3.339   3.891   5.545 -1.7297  0.9729  1.2363
 7098SOL     OW32755   2.169   1.234   0.665 -0.6336  0.4865 -0.0467
 7098SOL    HW132756   2.141   1.168   0.602 -0.5520 -0.5798  1.0262
 7098SOL    HW232757   2.104   1.226   0.735 -0.9390 -3.0383 -0.7327
 7099SOL     OW32758   0.839   2.586   1.205 -0.7875 -0.3258  0.4397
 7099SOL    HW132759   0.747   2.559   1.215 -0.0118 -3.0511  0.1744
 7099SOL    HW232760   0.865   2.611   1.294 -0.3293  2.3969 -0.4615
 7100SOL     OW32761   3.426   0.200   6.999  0.1321  0.0121 -0.4666
 7100SOL    HW132762   3.346   0.227   7.044  0.2554 -0.4929  0.0625
 7100SOL    HW232763   3.463   0.143   7.067 -2.8486 -1.9190 -0.4823
 7101SOL     OW32764   0.199   0.080  13.255  0.4441  0.1721  0.8862
 7101SOL    HW132765   0.218   0.140  13.327 -0.1592 -1.5327  2.4818
 7101SOL    HW232766   0.106   0.065  13.273 -0.1175 -0.2081 -2.2866
 7102SOL     OW32767   3.306   1.366   0.319 -0.3738 -0.5632  0.1855
 7102SOL    HW132768   3.287   1.417   0.398  0.3174  1.5671 -1.0279
 7102SOL    HW232769   3.220   1.330   0.297 -1.8921  2.3135  1.4724
 7103SOL     OW32770   3.033   2.804   5.806 -0.2015 -0.0551  0.0587
 7103SOL    HW132771   3.079   2.774   5.885  1.3004  0.3408 -0.6672
 7103SOL    HW232772   2.943   2.796   5.836 -0.7298  1.2518 -1.2056
 7104SOL     OW32773   3.758   1.825   3.595 -0.4220  0.2481  0.0557
 7104SOL    HW132774   3.824   1.770   3.636  1.8959  1.2161 -2.3727
 7104SOL    HW232775   3.722   1.873   3.669 -1.0160  0.5408 -0.4168
 7105SOL     OW32776   4.050   0.382   0.897  0.4913  0.1858 -0.1915
 7105SOL    HW132777   4.098   0.308   0.859 -1.7161 -0.1399 -2.3601
 7105SOL    HW232778   3.962   0.364   0.864  0.4241  0.7391 -0.3151
 7106SOL     OW32779   0.294   3.277   2.822  0.7310 -0.1635  0.3664
 7106SOL    HW132780   0.285   3.328   2.902  1.1263 -0.0553  0.3427
 7106SOL    HW232781   0.209   3.302   2.784  0.3605  1.6961  2.4390
 7107SOL     OW32782   3.616   1.992   2.365 -0.3683 -0.0529  0.1047
 7107SOL    HW132783   3.604   2.072   2.414  2.3437 -0.6235  1.7165
 7107SOL    HW232784   3.526   1.970   2.341 -0.7911  1.9705 -0.1134
 7108SOL     OW32785   0.203   4.532  13.357 -0.2025  0.4338  0.4604
 7108SOL    HW132786   0.121   4.559  13.397 -0.6523  0.9363 -0.8117
 7108SOL    HW232787   0.220   4.600  13.291 -0.5987  2.1786  2.1569
 7109SOL     OW32788   0.758   4.054   7.139  0.2616 -0.0580  0.1711
 7109SOL    HW132789   0.776   4.068   7.233 -2.6061 -0.4927  0.7836
 7109SOL    HW232790   0.664   4.038   7.143  0.3910 -0.5070  1.6840
 7110SOL     OW32791   0.226   1.423  16.053  0.1966  0.3536  0.3551
 7110SOL    HW132792   0.295   1.404  15.989  1.6974  1.1530  1.7234
 7110SOL    HW232793   0.187   1.504  16.020 -0.0004  0.7841  1.6450
 7111SOL     OW32794   3.430   3.151   4.504 -0.1568  0.0740 -0.3033
 7111SOL    HW132795   3.336   3.158   4.524 -0.3390 -1.4258 -0.6551
 7111SOL    HW232796   3.468   3.196   4.579 -0.9218  2.3588 -1.2650
 7112SOL     OW32797   2.118   2.991   7.590  0.8807  0.2778  0.3440
 7112SOL    HW132798   2.094   2.979   7.682  0.3011  0.1356  0.1744
 7112SOL    HW232799   2.114   2.898   7.565  1.1436 -0.8513  4.4673
 7113SOL     OW32800   2.946   1.232   3.896  0.6319  0.1147  0.6350
 7113SOL    HW132801   2.960   1.139   3.878  2.9178  0.5611  0.2344
 7113SOL    HW232802   3.008   1.252   3.966  1.0465 -0.5165  0.4461
 7114SOL     OW32803   4.287   2.748  12.867 -0.4716  0.5853 -0.6980
 7114SOL    HW132804   4.243   2.680  12.917  0.4279  0.6008  0.1171
 7114SOL    HW232805   4.248   2.761  12.780 -0.5931  2.5253 -0.3490
 7115SOL     OW32806   3.273   0.251   3.932  1.0752  0.2557 -0.3078
 7115SOL    HW132807   3.228   0.263   4.016  0.6133  0.8581 -0.6413
 7115SOL    HW232808   3.196   0.253   3.875 -0.6200  0.1153  1.9987
 7116SOL     OW32809   1.932   3.463   6.744  0.0065  0.0946 -0.5414
 7116SOL    HW132810   1.889   3.462   6.658 -3.1532  1.0420  1.0632
 7116SOL    HW232811   1.890   3.388   6.786 -2.1605  0.6323 -1.7691
 7117SOL     OW32812   4.219   1.458  12.951  0.3469  0.1484 -0.3066
 7117SOL    HW132813   4.127   1.468  12.978  1.0605 -2.9962  3.3557
 7117SOL    HW232814   4.262   1.541  12.967 -1.1122  0.7596  0.4265
 7118SOL     OW32815   2.049   3.206   3.737 -0.5366  0.4251 -0.2396
 7118SOL    HW132816   2.002   3.144   3.681 -0.5707 -0.9224  1.2633
 7118SOL    HW232817   1.974   3.246   3.782 -2.5511 -2.8266 -0.6970
 7119SOL     OW32818   1.818   4.552  17.348  1.3272  0.0210  0.0239
 7119SOL    HW132819   1.819   4.576  17.441 -0.5477  0.3575 -0.0551
 7119SOL    HW232820   1.874   4.475  17.338  0.6913 -0.2977 -1.0413
 7120SOL     OW32821   1.170   3.123   7.690 -0.2004 -0.4162  0.4049
 7120SOL    HW132822   1.261   3.153   7.690  0.6140 -2.8897  1.7456
 7120SOL    HW232823   1.134   3.170   7.615 -0.3563 -1.6436 -0.2747
 7121SOL     OW32824   1.166   2.509   5.070 -0.1245 -0.3494 -0.4094
 7121SOL    HW132825   1.127   2.586   5.029 -0.2066  0.1874  0.6741
 7121SOL    HW232826   1.093   2.447   5.071  0.3214 -0.8663  1.4731
 7122SOL     OW32827   3.178   1.568   8.090 -0.3664  0.1789  0.9436
 7122SOL    HW132828   3.084   1.561   8.104 -1.3794  2.4211 -4.8213
 7122SOL    HW232829   3.213   1.577   8.179 -0.6155  0.1052  1.0506
 7123SOL     OW32830   3.979   2.244   3.578  0.3258 -0.5221 -0.1682
 7123SOL    HW132831   3.914   2.200   3.523 -0.2678 -1.1339  1.0129
 7123SOL    HW232832   3.962   2.208   3.665  2.4269  2.0782  1.3103
 7124SOL     OW32833   1.127   1.274  10.643  0.1596 -0.9077  0.8720
 7124SOL    HW132834   1.042   1.261  10.685 -0.5730  1.7580  0.1881
 7124SOL    HW232835   1.107   1.298  10.552  1.2149 -2.4701  0.2124
 7125SOL     OW32836   1.603   1.677   8.530  1.0432  0.3919  0.0366
 7125SOL    HW132837   1.639   1.611   8.470 -0.7777 -1.6534  1.1948
 7125SOL    HW232838   1.651   1.672   8.612 -0.3157 -1.0134  0.7416
 7126SOL     OW32839   0.946   0.091   6.299 -0.6016 -0.6238 -0.5638
 7126SOL    HW132840   0.918   0.002   6.319 -1.0015 -0.4077 -0.1743
 7126SOL    HW232841   0.954   0.128   6.387 -1.0809  0.7252 -1.0822
 7127SOL     OW32842   4.034   3.232  16.535 -0.6137  0.3992 -0.2796
 7127SOL    HW132843   3.971   3.177  16.583 -1.5381  2.8537  1.3167
 7127SOL    HW232844   4.042   3.305  16.596 -1.8326  1.0180 -0.8686
 7128SOL     OW32845   1.862   2.780   7.123 -0.2342 -0.1707  0.3093
 7128SOL    HW132846   1.878   2.715   7.055 -1.0248 -1.7564  1.6529
 7128SOL    HW232847   1.949   2.818   7.129 -0.0977 -0.2861 -1.0461
 7129SOL     OW32848   2.593   2.073   8.239 -0.0352  0.2657  0.5741
 7129SOL    HW132849   2.688   2.089   8.238  0.0505 -0.2618 -0.2638
 7129SOL    HW232850   2.576   1.997   8.295  4.6245 -0.8119  0.5714
 7130SOL     OW32851   4.353   2.264   8.697 -0.6240  0.3999 -0.2678
 7130SOL    HW132852   4.309   2.194   8.648 -0.0880 -0.4177  0.4070
 7130SOL    HW232853   4.317   2.249   8.784  1.1832  0.3416  0.4843
 7131SOL     OW32854   0.572   2.887   3.338 -0.5575 -0.0313 -0.5155
 7131SOL    HW132855   0.636   2.911   3.404  2.0477 -1.5196 -2.5019
 7131SOL    HW232856   0.499   2.936   3.378 -1.0199  0.3481 -1.7869
 7132SOL     OW32857   0.870   4.671   9.043  0.4971  0.1493  0.4821
 7132SOL    HW132858   0.911   0.019   9.099 -0.3854  1.0848  0.0333
 7132SOL    HW232859   0.803   0.008   9.002 -0.2910 -1.6569 -0.6638
 7133SOL     OW32860   2.558   3.862   6.917  0.0965  0.3737  0.2438
 7133SOL    HW132861   2.554   3.767   6.912  0.4943  0.5330 -2.9131
 7133SOL    HW232862   2.536   3.884   7.008  0.8695  1.8020  0.0893
 7134SOL     OW32863   0.255   3.133   8.984 -0.2940  0.1937 -0.0352
 7134SOL    HW132864   0.243   3.040   9.000 -1.8885  0.5071  0.5745
 7134SOL    HW232865   0.225   3.161   9.071 -2.3030  2.8609 -1.5774
 7135SOL     OW32866   3.660   1.686   2.391 -0.0234  0.6479  0.2195
 7135SOL    HW132867   3.713   1.732   2.456  1.3683  0.0510 -0.4962
 7135SOL    HW232868   3.573   1.680   2.430  0.2618  1.3332  0.9547
 7136SOL     OW32869   4.555   4.703  14.366 -0.2420 -0.3328 -0.0487
 7136SOL    HW132870   4.621   0.021  14.425  0.3176  0.4312 -1.1332
 7136SOL    HW232871   4.480   0.017  14.415  1.0212 -0.3799  1.9171
 7137SOL     OW32872   2.213   4.237   7.721  0.3742  0.4025  0.4403
 7137SOL    HW132873   2.259   4.306   7.768 -1.2462  1.0568  1.0790
 7137SOL    HW232874   2.134   4.290   7.713  0.7684  0.9543  0.1986
 7138SOL     OW32875   0.013   2.849   7.213  0.7195  0.5837 -0.1412
 7138SOL    HW132876   0.049   2.862   7.301 -0.7730  0.1545  0.5423
 7138SOL    HW232877   0.045   2.761   7.191 -0.9193  0.3009 -1.3908
 7139SOL     OW32878   2.453   2.838   6.972 -0.3926 -0.0442  0.9783
 7139SOL    HW132879   2.448   2.831   6.876  2.7887 -1.4798  0.9268
 7139SOL    HW232880   2.486   2.751   6.994 -0.2051 -0.6688 -1.7966
 7140SOL     OW32881   1.660   0.731   4.739 -0.4963  0.8015 -0.7065
 7140SOL    HW132882   1.612   0.814   4.746 -0.6118  0.6029  0.9277
 7140SOL    HW232883   1.709   0.747   4.659 -0.9554 -0.6568 -1.2642
 7141SOL     OW32884   4.601   4.281   7.373 -0.0792  0.3165  0.4540
 7141SOL    HW132885   4.640   4.364   7.343  1.1230 -0.6661 -0.7039
 7141SOL    HW232886   4.638   4.270   7.460  1.4114 -0.5523 -0.2992
 7142SOL     OW32887   0.045   1.704   6.708 -1.2344  0.9145 -0.8024
 7142SOL    HW132888   0.004   1.623   6.739 -0.3575  0.2828 -1.2865
 7142SOL    HW232889   0.117   1.661   6.662 -0.9103  1.3099 -0.6687
 7143SOL     OW32890   0.279   0.551   2.197 -0.1733 -0.2541  0.2467
 7143SOL    HW132891   0.250   0.616   2.132 -3.3651 -0.6303  1.3218
 7143SOL    HW232892   0.371   0.546   2.171  0.2033 -0.1863  1.5676
 7144SOL     OW32893   1.858   4.359  12.490  0.3508  0.4815 -0.7592
 7144SOL    HW132894   1.815   4.409  12.421 -2.0254 -0.8862 -0.2867
 7144SOL    HW232895   1.939   4.408  12.475  0.0978  0.8850 -0.8037
 7145SOL     OW32896   1.707   3.604   4.950 -0.0885  0.0527 -0.5857
 7145SOL    HW132897   1.613   3.621   4.945 -0.2477 -0.4003  0.9940
 7145SOL    HW232898   1.705   3.525   5.005  0.5548  1.0825  0.9123
 7146SOL     OW32899   1.387   0.365   3.443  0.3360  0.0117 -0.0803
 7146SOL    HW132900   1.426   0.446   3.408  0.1606 -0.7570 -2.0515
 7146SOL    HW232901   1.456   0.299   3.448 -0.1208 -0.5912 -1.5366
 7147SOL     OW32902   1.304   3.442   5.818  0.0211  0.1124 -0.0989
 7147SOL    HW132903   1.339   3.474   5.734  0.5862 -3.0148 -1.0395
 7147SOL    HW232904   1.381   3.418   5.869 -1.0862 -0.0801  1.4837
 7148SOL     OW32905   1.908   1.819  10.163  0.3017  0.2920 -0.3622
 7148SOL    HW132906   1.937   1.817  10.071 -2.4562 -0.5731 -1.1969
 7148SOL    HW232907   1.940   1.734  10.194  1.6353  0.2974 -1.7081
 7149SOL     OW32908   1.193   3.261   7.067  0.1648 -0.0506 -0.3727
 7149SOL    HW132909   1.130   3.203   7.110 -1.1614  0.9327 -0.9767
 7149SOL    HW232910   1.211   3.319   7.141  0.1027 -0.8351  0.2475
 7150SOL     OW32911   2.066   4.135  15.203 -0.4904  0.2515 -0.4271
 7150SOL    HW132912   2.153   4.170  15.184  0.2205 -2.6283 -2.3324
 7150SOL    HW232913   2.003   4.199  15.169 -0.9506  0.0318  0.0061
 7151SOL     OW32914   0.022   3.205   1.454  0.2537 -0.1482  0.2850
 7151SOL    HW132915   0.101   3.253   1.431 -2.0821  2.7957 -1.6280
 7151SOL    HW232916   4.686   3.273   1.495  2.2198  1.2244  0.5830
 7152SOL     OW32917   1.170   4.165  13.655 -0.6270  0.2470  0.0704
 7152SOL    HW132918   1.246   4.154  13.598 -1.5495 -0.2376 -1.0671
 7152SOL    HW232919   1.136   4.076  13.663  0.2771  0.0217  1.3665
 7153SOL     OW32920   1.069   0.731   8.542  0.2812 -0.7510  0.0675
 7153SOL    HW132921   1.065   0.819   8.504 -0.8341 -0.1356  1.6192
 7153SOL    HW232922   1.003   0.741   8.611 -0.1063  0.7900 -0.5181
 7154SOL     OW32923   0.155   2.467   8.585  0.0443  0.2179 -0.1803
 7154SOL    HW132924   0.231   2.520   8.560  0.9612 -0.3879  1.3153
 7154SOL    HW232925   0.152   2.492   8.677 -1.1378 -1.2032  0.1701
 7155SOL     OW32926   2.231   3.176   6.761 -0.5285 -0.4472 -0.2787
 7155SOL    HW132927   2.281   3.205   6.837 -0.7477  0.8336 -0.6228
 7155SOL    HW232928   2.173   3.111   6.803  1.1143 -0.8271  1.3830
 7156SOL     OW32929   2.886   1.287   8.515  0.4779 -0.1619 -0.4165
 7156SOL    HW132930   2.842   1.371   8.530  0.1481 -0.2340 -0.9752
 7156SOL    HW232931   2.965   1.301   8.567  0.4163 -0.4664 -0.2394
 7157SOL     OW32932   4.637   4.358  15.666  0.1618 -0.2083  0.4498
 7157SOL    HW132933   0.005   4.317  15.660 -0.2990 -0.9712 -0.9614
 7157SOL    HW232934   4.640   4.413  15.744 -0.8176  1.1302 -0.4492
 7158SOL     OW32935   1.645   3.688  11.211 -0.0288 -0.3546  1.0290
 7158SOL    HW132936   1.738   3.675  11.230  0.0512 -0.2199  0.7284
 7158SOL    HW232937   1.645   3.659  11.120  0.6584 -1.0659  1.2498
 7159SOL     OW32938   4.210   2.611   0.264 -0.1584  0.0550 -0.0080
 7159SOL    HW132939   4.197   2.542   0.329 -2.6128  0.3739 -0.1540
 7159SOL    HW232940   4.304   2.621   0.253  0.5546 -4.3707  2.1750
 7160SOL     OW32941   3.961   0.371   7.438 -0.2190  0.2204  0.7284
 7160SOL    HW132942   3.966   0.387   7.532  0.4654  1.5733  0.4735
 7160SOL    HW232943   3.884   0.425   7.422 -0.1237 -0.4766 -2.1526
 7161SOL     OW32944   0.849   0.562   2.155 -0.0549  0.7524  0.0042
 7161SOL    HW132945   0.916   0.543   2.090 -0.8629 -0.0234 -0.6075
 7161SOL    HW232946   0.849   0.658   2.146 -0.7235  0.9607  2.1481
 7162SOL     OW32947   2.891   0.299   7.272  0.3845  0.8244  0.1633
 7162SOL    HW132948   2.853   0.380   7.237 -1.1371 -0.1543 -0.4851
 7162SOL    HW232949   2.837   0.238   7.221  0.3600 -0.1253  1.3217
 7163SOL     OW32950   1.729   0.885   7.179  0.1454 -0.0719  0.1097
 7163SOL    HW132951   1.725   0.977   7.154  0.2075 -0.4767 -1.4082
 7163SOL    HW232952   1.804   0.856   7.128  1.3911  1.1688  1.2345
 7164SOL     OW32953   2.216   3.411   3.817 -0.3999  0.2762  0.0199
 7164SOL    HW132954   2.183   3.500   3.818 -1.6657 -0.1660 -1.9662
 7164SOL    HW232955   2.136   3.359   3.817 -0.3356  0.1684 -0.5651
 7165SOL     OW32956   2.871   2.614   7.878 -0.1968 -0.0892 -0.2574
 7165SOL    HW132957   2.819   2.619   7.798  2.7130 -1.5244 -2.2323
 7165SOL    HW232958   2.811   2.672   7.925 -0.0801  1.2497 -1.7905
 7166SOL     OW32959   4.599   0.934  10.549 -0.5789  0.0416  0.3566
 7166SOL    HW132960   4.664   0.884  10.599  0.5169  0.7272 -0.3693
 7166SOL    HW232961   4.566   0.868  10.488 -0.9698  0.7403 -0.1843
 7167SOL     OW32962   1.219   0.937   7.369  0.1927  0.4882  0.0673
 7167SOL    HW132963   1.289   0.886   7.410  0.0098 -1.2235 -1.7684
 7167SOL    HW232964   1.145   0.896   7.413  1.8814 -1.3546  1.2322
 7168SOL     OW32965   0.024   4.634  11.777  0.0217 -0.3288 -0.0034
 7168SOL    HW132966   4.707   4.579  11.847  0.1931 -0.2453  0.1481
 7168SOL    HW232967   0.063   4.700  11.833 -0.1869 -0.7318  0.6207
 7169SOL     OW32968   1.840   3.257   8.714  0.6538 -0.0986  0.1726
 7169SOL    HW132969   1.885   3.342   8.710  0.6942 -0.1932 -1.7940
 7169SOL    HW232970   1.770   3.265   8.649 -0.4657 -2.0376  1.1532
 7170SOL     OW32971   2.486   0.408   0.069 -0.2782 -0.5059 -0.1197
 7170SOL    HW132972   2.439   0.448  17.671 -0.4261 -1.7831 -0.7266
 7170SOL    HW232973   2.485   0.483   0.129  0.7069 -1.1134  0.6428
 7171SOL     OW32974   3.312   1.515   8.350  0.3260 -0.2076 -0.0871
 7171SOL    HW132975   3.320   1.420   8.339  1.0128 -0.0060 -1.3209
 7171SOL    HW232976   3.248   1.521   8.420 -0.9647 -0.5024 -1.2329
 7172SOL     OW32977   0.962   4.322  10.604  0.5060 -0.1829  0.1300
 7172SOL    HW132978   1.028   4.280  10.660  1.0279  1.0275  0.4142
 7172SOL    HW232979   0.917   4.244  10.571 -1.0976  1.1687 -0.8332
 7173SOL     OW32980   4.360   3.075  16.430  0.0094 -0.0452  0.0852
 7173SOL    HW132981   4.288   3.032  16.476 -0.3542  0.2235 -0.2365
 7173SOL    HW232982   4.401   2.990  16.409  1.0430 -0.0369  2.0801
 7174SOL     OW32983   0.267   0.186   6.672 -0.8107  0.3340  0.3202
 7174SOL    HW132984   0.219   0.117   6.625 -2.3578  0.0238  2.3116
 7174SOL    HW232985   0.300   0.236   6.598  2.0980 -2.0155  0.0234
 7175SOL     OW32986   3.187   0.475  16.187  0.2360 -0.0782 -0.0880
 7175SOL    HW132987   3.098   0.444  16.199 -0.2199  0.9871 -0.6904
 7175SOL    HW232988   3.220   0.397  16.143 -1.8816 -1.5887  1.0154
 7176SOL     OW32989   4.154   2.617   8.472 -0.3853 -0.5253 -0.5531
 7176SOL    HW132990   4.178   2.589   8.560 -1.0735 -0.4682 -0.3421
 7176SOL    HW232991   4.206   2.565   8.410  0.9283 -0.0330  0.1358
 7177SOL     OW32992   4.693   1.477   6.854  0.3237 -0.0681 -0.1981
 7177SOL    HW132993   4.669   1.523   6.935 -2.0973 -2.9497  0.7333
 7177SOL    HW232994   4.659   1.395   6.890  0.9673 -0.1418  0.2335
 7178SOL     OW32995   2.725   3.871  15.454 -0.0213  0.4993  0.2679
 7178SOL    HW132996   2.739   3.815  15.531 -2.1654  0.5842  0.7160
 7178SOL    HW232997   2.641   3.841  15.419  1.3594 -0.3221 -2.2622
 7179SOL     OW32998   1.162   2.704  13.328  0.8082 -0.9048  0.1910
 7179SOL    HW132999   1.201   2.618  13.344 -0.8398 -1.9491 -1.2511
 7179SOL    HW233000   1.082   2.680  13.375  0.7795 -0.9488  0.1214
 7180SOL     OW33001   0.378   2.937   7.368  0.3329 -0.0883  0.1269
 7180SOL    HW133002   0.361   2.905   7.457 -1.3405  0.3366 -0.0290
 7180SOL    HW233003   0.379   2.855   7.318  0.6120 -0.5172  0.8306
 7181SOL     OW33004   4.311   0.531   3.644 -0.0801  0.0967  0.3368
 7181SOL    HW133005   4.325   0.606   3.702 -1.1480 -0.7074  1.6596
 7181SOL    HW233006   4.347   0.462   3.699 -1.4574 -2.1464 -1.5822
 7182SOL     OW33007   2.175   4.289   3.560  0.2448  0.0972 -0.2027
 7182SOL    HW133008   2.166   4.229   3.486  0.3926 -1.5406  1.1156
 7182SOL    HW233009   2.191   4.370   3.511 -0.0806 -0.5422 -1.3876
 7183SOL     OW33010   1.950   4.268   5.670  0.0351  0.4610 -0.7291
 7183SOL    HW133011   2.033   4.281   5.715 -0.9421  0.2174  1.1558
 7183SOL    HW233012   1.884   4.309   5.727 -0.1225  0.7193 -1.0978
 7184SOL     OW33013   3.314   2.119   6.615 -0.1245 -0.3047 -0.1271
 7184SOL    HW133014   3.374   2.190   6.637 -0.3333 -0.4351  0.8666
 7184SOL    HW233015   3.359   2.038   6.638  2.0175  1.0029  0.3535
 7185SOL     OW33016   3.614   0.298   8.935  0.4849 -0.3617 -0.4824
 7185SOL    HW133017   3.583   0.215   8.899 -1.1295 -1.1441  2.7341
 7185SOL    HW233018   3.658   0.279   9.018 -0.2705 -0.3735 -0.0821
 7186SOL     OW33019   0.040   2.059   7.156 -0.2175 -0.8905  0.2265
 7186SOL    HW133020   4.663   2.055   7.166 -0.4673  1.0232 -1.3378
 7186SOL    HW233021   0.056   1.978   7.107 -0.7426  0.6569 -2.5459
 7187SOL     OW33022   0.397   1.623   1.717  0.5021  0.7577  0.0266
 7187SOL    HW133023   0.443   1.597   1.637 -1.0129  1.5972 -1.1197
 7187SOL    HW233024   0.444   1.564   1.776 -0.6764  0.1715  0.3724
 7188SOL     OW33025   4.148   4.285   0.386  0.3837  0.0852 -0.5728
 7188SOL    HW133026   4.070   4.339   0.399 -0.1146 -0.6940 -0.3329
 7188SOL    HW233027   4.107   4.203   0.359 -1.3564  0.9778 -0.6512
 7189SOL     OW33028   3.216   0.467   8.687  0.2828 -0.0863 -0.3864
 7189SOL    HW133029   3.212   0.454   8.593 -2.3246  3.7330 -0.7767
 7189SOL    HW233030   3.131   0.435   8.717  1.2666 -0.1155  2.3955
 7190SOL     OW33031   1.001   0.095  13.753  0.9680 -0.3064 -0.6759
 7190SOL    HW133032   1.061   0.166  13.730  0.9691 -0.3668 -0.8650
 7190SOL    HW233033   1.061   0.033  13.794  0.6676  0.8904  1.5254
 7191SOL     OW33034   2.504   4.330  10.539 -0.0664  0.3746  0.4292
 7191SOL    HW133035   2.465   4.277  10.469  2.6828 -0.3656 -0.5505
 7191SOL    HW233036   2.575   4.376  10.495 -0.9285  2.0194  0.7496
 7192SOL     OW33037   4.006   2.083   7.992 -0.0985 -0.5472 -0.2485
 7192SOL    HW133038   4.089   2.069   7.947  1.2641  0.1172  2.0326
 7192SOL    HW233039   4.034   2.148   8.057 -0.2027 -2.6176  1.9031
 7193SOL     OW33040   0.144   4.332   6.801 -0.2342 -0.6702 -0.8189
 7193SOL    HW133041   0.079   4.382   6.850 -0.0938 -1.3028  0.0128
 7193SOL    HW233042   0.215   4.362   6.858 -1.1598  0.1375 -0.1018
 7194SOL     OW33043   3.564   2.440   8.105  0.0414 -0.0037  0.0029
 7194SOL    HW133044   3.490   2.380   8.106  0.1464 -0.1221  0.6235
 7194SOL    HW233045   3.634   2.387   8.066  2.1710  1.6236  1.5598
 7195SOL     OW33046   3.689   2.323   2.767 -0.0180 -0.3367  0.1228
 7195SOL    HW133047   3.617   2.376   2.800  0.2685  0.3419 -0.3342
 7195SOL    HW233048   3.745   2.307   2.844  1.1616  3.1821  0.0035
 7196SOL     OW33049   3.015   1.796   4.172 -0.4306  0.6085  0.0821
 7196SOL    HW133050   3.089   1.852   4.198  0.2603 -0.1589 -0.2376
 7196SOL    HW233051   2.939   1.855   4.164 -0.4467  0.6606  0.6250
 7197SOL     OW33052   3.169   2.737  16.463 -0.1963 -0.0235 -0.0327
 7197SOL    HW133053   3.252   2.689  16.455  0.5143  1.0101  1.1767
 7197SOL    HW233054   3.147   2.706  16.550  0.8838  0.8983  0.5707
 7198SOL     OW33055   2.813   3.219   1.850 -0.2453 -0.2670 -0.1418
 7198SOL    HW133056   2.798   3.280   1.778 -2.9084  0.4874  1.0469
 7198SOL    HW233057   2.723   3.191   1.867  0.2118 -2.1697 -0.8035
 7199SOL     OW33058   1.236   0.685   5.515 -0.1432  0.2614 -0.0743
 7199SOL    HW133059   1.204   0.627   5.583  1.2765 -3.6942 -2.7953
 7199SOL    HW233060   1.316   0.634   5.501  0.0776  0.8771 -1.0590
 7200SOL     OW33061   0.323   0.013   2.944  0.4615  0.6376  0.0825
 7200SOL    HW133062   0.362   0.045   2.862 -1.9034  1.0099 -0.8912
 7200SOL    HW233063   0.279   4.651   2.919 -0.2510  0.9573  0.3218
 7201SOL     OW33064   4.411   4.141   4.927  0.5309  0.9899 -1.0396
 7201SOL    HW133065   4.462   4.167   5.004 -0.6084  0.4461 -0.0990
 7201SOL    HW233066   4.382   4.052   4.948 -0.5315  1.8956  1.3119
 7202SOL     OW33067   3.285   1.094   8.686  0.0546 -0.2390 -0.2437
 7202SOL    HW133068   3.352   1.163   8.695  0.5394 -0.4746 -1.9283
 7202SOL    HW233069   3.281   1.040   8.764  1.7125 -0.1869 -0.1135
 7203SOL     OW33070   0.579   2.831   4.804  0.0940  0.0909 -0.0478
 7203SOL    HW133071   0.525   2.886   4.861  0.6507 -0.1449  0.7054
 7203SOL    HW233072   0.549   2.746   4.838  2.5409 -0.5049  0.6035
 7204SOL     OW33073   3.014   3.001  13.850  0.0981 -0.1027  0.4796
 7204SOL    HW133074   3.089   2.955  13.886  1.3894  0.7467 -1.1558
 7204SOL    HW233075   2.961   3.019  13.928 -2.7081 -3.2659 -0.6782
 7205SOL     OW33076   2.581   3.885   0.824  0.4186 -0.6419 -0.0570
 7205SOL    HW133077   2.542   3.798   0.821  1.7718 -1.1874 -1.9468
 7205SOL    HW233078   2.670   3.871   0.858  0.4851  1.1844  0.5468
 7206SOL     OW33079   2.443   3.508   0.413 -1.0219 -0.0052  0.1462
 7206SOL    HW133080   2.356   3.547   0.415  0.3799  3.2948 -2.8255
 7206SOL    HW233081   2.447   3.468   0.326 -1.1325  1.8617 -0.7145
 7207SOL     OW33082   2.535   0.558   2.750  0.2146 -0.4354 -0.3873
 7207SOL    HW133083   2.465   0.540   2.813 -1.2252  2.7472 -1.0813
 7207SOL    HW233084   2.597   0.612   2.799 -3.9268  2.3675  1.7461
 7208SOL     OW33085   0.587   1.219   7.047 -0.1992 -0.1959 -0.5469
 7208SOL    HW133086   0.606   1.252   6.959  0.3581  2.3766  0.5344
 7208SOL    HW233087   0.571   1.303   7.091 -1.9514 -0.5607 -0.4804
 7209SOL     OW33088   2.962   3.256  13.100 -0.1188  0.3776 -0.0417
 7209SOL    HW133089   2.900   3.313  13.144 -0.8087 -0.3686 -0.0343
 7209SOL    HW233090   3.036   3.278  13.156 -1.0485 -0.3219  1.4457
 7210SOL     OW33091   2.657   0.444  15.384  0.0857 -0.0325 -0.4691
 7210SOL    HW133092   2.727   0.393  15.342 -0.2243  0.5489 -1.6950
 7210SOL    HW233093   2.586   0.417  15.327 -0.6718  1.3475 -0.1603
 7211SOL     OW33094   1.073   1.299   5.595  0.5731  0.2195  0.0620
 7211SOL    HW133095   0.982   1.271   5.604  0.0463  2.0602  0.6602
 7211SOL    HW233096   1.051   1.359   5.523  2.0315  1.3970  0.5764
 7212SOL     OW33097   0.467   0.881   2.544 -0.4389 -0.4179  0.0959
 7212SOL    HW133098   0.524   0.819   2.499 -0.0050  0.5105 -0.6431
 7212SOL    HW233099   0.398   0.816   2.557 -1.0037 -0.0910 -1.2500
 7213SOL     OW33100   1.850   3.924   7.599  0.1120  0.7348  0.0267
 7213SOL    HW133101   1.776   3.955   7.651 -0.8083 -0.0883 -0.7725
 7213SOL    HW233102   1.908   3.879   7.660 -0.5719  1.0149  0.8945
 7214SOL     OW33103   1.473   0.103  11.825  0.0953 -0.1412 -0.6344
 7214SOL    HW133104   1.389   0.147  11.830  0.2709  0.4691 -3.7000
 7214SOL    HW233105   1.478   0.095  11.730 -1.1192 -0.0067 -0.7082
 7215SOL     OW33106   0.761   4.365   0.005 -0.4028  0.2339  0.2842
 7215SOL    HW133107   0.679   4.390   0.047  0.3160 -1.3740  2.6136
 7215SOL    HW233108   0.784   4.452  17.648  0.3491 -1.0623 -2.6275
 7216SOL     OW33109   2.146   2.764   4.611 -0.1641  0.2071  0.2701
 7216SOL    HW133110   2.182   2.745   4.698 -0.4277  0.5731  0.4637
 7216SOL    HW233111   2.056   2.779   4.641 -0.4151  1.9784 -1.3798
 7217SOL     OW33112   4.056   2.443   3.868  1.1314  0.1175  0.0313
 7217SOL    HW133113   4.126   2.380   3.884 -0.1001 -0.8723  1.4993
 7217SOL    HW233114   4.081   2.517   3.924 -1.0090 -1.2149  2.7378
 7218SOL     OW33115   3.873   1.202   7.451 -0.6504 -0.1947 -0.0973
 7218SOL    HW133116   3.838   1.114   7.465  0.1598 -0.5447 -0.2816
 7218SOL    HW233117   3.824   1.266   7.503  0.8936  1.4129 -0.6280
 7219SOL     OW33118   4.296   0.522   9.793 -0.0268 -0.2743  0.9044
 7219SOL    HW133119   4.332   0.607   9.817  3.0023 -1.0468 -0.9264
 7219SOL    HW233120   4.351   0.496   9.719 -1.0475  1.3451 -0.4181
 7220SOL     OW33121   4.597   1.639   7.887  0.3606 -0.1380  0.5380
 7220SOL    HW133122   4.602   1.567   7.824 -0.8486  1.4276 -1.3167
 7220SOL    HW233123   4.691   1.653   7.899  1.0100 -2.3080 -1.8951
 7221SOL     OW33124   2.984   2.454  13.528 -0.4771 -0.0971 -0.1333
 7221SOL    HW133125   2.961   2.368  13.493  0.8768 -0.4770 -0.1080
 7221SOL    HW233126   2.998   2.430  13.620  0.4792  1.3879  0.1071
 7222SOL     OW33127   2.514   3.541   5.455 -0.0851  0.6836  0.7445
 7222SOL    HW133128   2.544   3.628   5.429 -0.5101  0.4536 -0.5016
 7222SOL    HW233129   2.527   3.554   5.549 -0.7292  0.7850  0.8246
 7223SOL     OW33130   3.582   3.348   3.490 -0.1692 -0.1136 -0.4303
 7223SOL    HW133131   3.668   3.382   3.463  1.3394 -2.0420  1.9664
 7223SOL    HW233132   3.544   3.332   3.403 -0.2360 -0.0919 -0.4048
 7224SOL     OW33133   1.678   3.420   4.053 -0.1756 -0.3266  0.0349
 7224SOL    HW133134   1.659   3.397   4.144  1.4989  0.8143  0.6568
 7224SOL    HW233135   1.722   3.504   4.064 -0.0743  0.0286 -3.0408
 7225SOL     OW33136   2.307   0.840   0.621  0.5432  0.0120  0.2480
 7225SOL    HW133137   2.344   0.848   0.533 -2.2109 -2.3217 -1.0966
 7225SOL    HW233138   2.218   0.874   0.614  0.3862 -0.5111 -0.2564
 7226SOL     OW33139   0.146   1.681   7.895 -0.3044  0.1227 -0.2172
 7226SOL    HW133140   0.163   1.767   7.934 -0.9438  0.1021  0.0969
 7226SOL    HW233141   0.190   1.621   7.955  1.1297  0.6024 -0.7880
 7227SOL     OW33142   2.901   0.021   2.415 -0.4461  0.5429 -0.5401
 7227SOL    HW133143   2.903   4.653   2.372  2.4091  0.2354  0.1738
 7227SOL    HW233144   2.825   0.007   2.471 -0.0552  1.4224  0.2119
 7228SOL     OW33145   3.097   2.762   2.747  0.2752  0.0937 -0.3587
 7228SOL    HW133146   3.088   2.785   2.839 -2.3559 -2.8897  0.1368
 7228SOL    HW233147   3.009   2.731   2.726  0.0426  1.1851 -0.9939
 7229SOL     OW33148   3.531   3.121   3.846 -0.2183  0.5967 -0.2031
 7229SOL    HW133149   3.613   3.076   3.832  0.4479  2.5268 -2.6435
 7229SOL    HW233150   3.571   3.208   3.851  1.3158 -0.2320  1.7401
 7230SOL     OW33151   3.330   4.714   6.651 -0.4823 -0.2556 -0.6785
 7230SOL    HW133152   3.323   0.086   6.681  0.3837 -0.5971  0.5948
 7230SOL    HW233153   3.238   4.703   6.629 -0.8076  2.6684 -0.6796
 7231SOL     OW33154   0.939   2.659   0.961 -0.4266 -0.3069  0.1572
 7231SOL    HW133155   0.908   2.626   1.045 -1.5658 -0.3005 -0.2652
 7231SOL    HW233156   0.940   2.750   0.992  0.7931  0.4319 -2.0123
 7232SOL     OW33157   1.383   1.216  12.313 -0.1962 -0.1636 -0.2120
 7232SOL    HW133158   1.346   1.164  12.241 -0.8559  1.4582 -1.0502
 7232SOL    HW233159   1.302   1.229  12.363  0.0540 -0.2577  0.2221
 7233SOL     OW33160   2.155   1.350   3.411 -0.8969 -0.4709  0.3247
 7233SOL    HW133161   2.162   1.276   3.350  0.0919 -0.5668  0.5487
 7233SOL    HW233162   2.097   1.407   3.362  0.1756  1.5172  1.3804
 7234SOL     OW33163   0.448   1.722   8.156 -0.2895 -0.1274 -0.4367
 7234SOL    HW133164   0.498   1.669   8.218 -0.9098  0.2829  0.4100
 7234SOL    HW233165   0.394   1.758   8.227  1.7690  0.5794  0.7712
 7235SOL     OW33166   3.686   0.839  12.732  0.1233 -0.0379 -0.0741
 7235SOL    HW133167   3.630   0.893  12.788  2.2873  0.2267  1.8078
 7235SOL    HW233168   3.725   0.776  12.792  0.0953  1.2630  1.2921
 7236SOL     OW33169   0.650   1.681   8.578  0.2002  0.3733 -0.0498
 7236SOL    HW133170   0.664   1.761   8.629 -3.3181  1.9997 -1.6929
 7236SOL    HW233171   0.665   1.619   8.650 -1.1504 -2.1667 -1.9694
 7237SOL     OW33172   4.514   0.519   6.413  0.2041 -0.0727  0.2421
 7237SOL    HW133173   4.434   0.502   6.363 -0.2036  2.2010  0.1507
 7237SOL    HW233174   4.543   0.428   6.423 -0.1239 -0.3791 -1.5124
 7238SOL     OW33175   3.584   1.641   8.331  0.1490  0.9127 -0.4789
 7238SOL    HW133176   3.496   1.616   8.359  1.5076 -0.3024  2.6999
 7238SOL    HW233177   3.607   1.687   8.412  1.7207 -0.8453  0.0808
 7239SOL     OW33178   3.508   0.458   6.251 -0.0327  0.4193 -0.2405
 7239SOL    HW133179   3.447   0.501   6.311 -1.9617 -0.5738 -1.4648
 7239SOL    HW233180   3.568   0.427   6.318 -0.2962  0.3291 -0.0482
 7240SOL     OW33181   0.003   2.892   6.567 -0.4921 -0.2578 -0.6816
 7240SOL    HW133182   0.097   2.872   6.567 -0.7495 -1.4556 -1.8728
 7240SOL    HW233183   4.715   2.908   6.661 -2.1190 -3.2921 -0.2667
 7241SOL     OW33184   3.964   0.350   5.780  0.3219 -0.3403 -0.7343
 7241SOL    HW133185   3.903   0.279   5.799 -0.4729 -0.3261 -3.1830
 7241SOL    HW233186   4.021   0.346   5.857 -1.5290 -1.4001  0.5746
 7242SOL     OW33187   1.701   1.913   3.034  0.0012 -0.1890 -0.6290
 7242SOL    HW133188   1.758   1.887   2.962  0.0666 -1.8640  0.0198
 7242SOL    HW233189   1.631   1.956   2.986 -0.9614  0.5233  1.4209
 7243SOL     OW33190   3.493   1.557  14.399 -0.0764  0.2815  0.0346
 7243SOL    HW133191   3.468   1.501  14.325 -1.2993 -0.5438  1.0897
 7243SOL    HW233192   3.587   1.541  14.391 -0.5658 -1.7089 -1.6767
 7244SOL     OW33193   0.073   4.283   7.109 -0.7180  0.0766 -0.3681
 7244SOL    HW133194   0.044   4.363   7.152 -1.5394 -0.4453  0.0454
 7244SOL    HW233195   4.710   4.253   7.069 -0.7860  1.1692 -1.0467
 7245SOL     OW33196   1.594   4.020   8.166 -0.0841 -0.3361  0.9922
 7245SOL    HW133197   1.540   4.098   8.171  0.6603  0.2880 -0.9173
 7245SOL    HW233198   1.678   4.062   8.186  0.5825 -0.5255 -1.4922
 7246SOL     OW33199   3.060   3.693   3.597  0.2365  0.3379 -0.1153
 7246SOL    HW133200   3.137   3.704   3.653 -0.0713 -1.3322  0.6291
 7246SOL    HW233201   3.008   3.773   3.605 -0.1241 -0.0603  1.5429
 7247SOL     OW33202   3.802   3.988  15.107 -0.3736 -0.7365 -0.2982
 7247SOL    HW133203   3.887   3.955  15.079 -0.6450 -2.4427  0.9166
 7247SOL    HW233204   3.762   4.006  15.022  0.3408  1.3634 -0.2066
 7248SOL     OW33205   3.574   0.853   6.199 -0.1281  0.0017 -0.2368
 7248SOL    HW133206   3.494   0.857   6.146  0.1202  0.9221 -0.5431
 7248SOL    HW233207   3.606   0.943   6.198 -1.1427  0.3321 -1.8600
 7249SOL     OW33208   1.101   3.546   0.628 -0.8426  0.2544 -0.0720
 7249SOL    HW133209   1.152   3.585   0.699 -0.6014  1.9347 -1.1710
 7249SOL    HW233210   1.016   3.590   0.629  0.1970  2.2345  2.4872
 7250SOL     OW33211   1.763   0.986  14.280  0.2380  0.7890 -0.1868
 7250SOL    HW133212   1.772   1.023  14.192 -0.0584 -0.3763 -0.7209
 7250SOL    HW233213   1.785   0.898  14.247 -0.2181  1.4887 -2.3941
 7251SOL     OW33214   0.338   2.162   6.074  0.1531  0.0580 -0.0180
 7251SOL    HW133215   0.360   2.151   5.981  1.9134 -0.7214  0.4837
 7251SOL    HW233216   0.424   2.186   6.108  0.0090  1.3080 -0.5445
 7252SOL     OW33217   3.086   1.372  13.548 -0.2021 -0.1382 -0.2146
 7252SOL    HW133218   3.109   1.415  13.466 -0.7840  3.7601  1.6322
 7252SOL    HW233219   3.055   1.447  13.600  1.4037 -1.2708  2.3969
 7253SOL     OW33220   1.404   3.218   4.967 -0.2565  0.3296  0.2505
 7253SOL    HW133221   1.373   3.154   5.030  1.0290 -0.0908  0.4553
 7253SOL    HW233222   1.479   3.169   4.931 -1.1374 -1.4906  0.9143
 7254SOL     OW33223   4.581   2.799   4.837  0.1301 -0.2793 -0.3574
 7254SOL    HW133224   4.631   2.804   4.756 -0.0463 -3.5995 -0.6845
 7254SOL    HW233225   4.651   2.809   4.902  0.4986  0.3764 -0.8551
 7255SOL     OW33226   3.608   2.813   6.648  1.1233  0.4734 -0.0297
 7255SOL    HW133227   3.652   2.882   6.699  2.2569 -2.0751  2.4039
 7255SOL    HW233228   3.604   2.849   6.559 -1.0804 -1.9046 -0.8746
 7256SOL     OW33229   3.060   4.623   4.784  0.7572  0.6138  0.5108
 7256SOL    HW133230   3.093   4.561   4.720 -0.5631  1.3073 -0.8441
 7256SOL    HW233231   3.128   4.690   4.776  0.0362  1.5511  2.0709
 7257SOL     OW33232   0.653   0.344  11.311  0.1226  0.4049 -0.2062
 7257SOL    HW133233   0.745   0.336  11.286  0.0062 -0.0720 -0.4947
 7257SOL    HW233234   0.654   0.303  11.397 -1.1020  1.0349  0.0978
 7258SOL     OW33235   1.759   3.022   2.966  0.1701 -0.5300 -0.2512
 7258SOL    HW133236   1.850   2.996   2.978  0.0361 -1.3634 -1.1043
 7258SOL    HW233237   1.763   3.030   2.871 -0.7883 -4.7122 -0.6060
 7259SOL     OW33238   4.570   0.010   4.297 -0.3006 -0.0149 -0.2235
 7259SOL    HW133239   4.661   0.000   4.325 -0.4006 -1.6487 -0.4372
 7259SOL    HW233240   4.560   0.095   4.256 -0.8320 -0.3828 -0.8653
 7260SOL     OW33241   4.572   3.496   7.727  0.0038 -0.2241 -0.6287
 7260SOL    HW133242   4.624   3.537   7.658  0.5528  0.2291  0.0474
 7260SOL    HW233243   4.613   3.410   7.740  2.0159  1.2185  2.8408
 7261SOL     OW33244   2.186   0.410   6.957  0.1592 -0.1053 -0.0685
 7261SOL    HW133245   2.179   0.406   7.052 -1.2118 -0.4804 -0.1789
 7261SOL    HW233246   2.113   0.461   6.922  0.1580 -0.7796 -1.0650
 7262SOL     OW33247   1.224   2.425   3.454  0.2440 -0.2378  0.3039
 7262SOL    HW133248   1.289   2.427   3.524  0.8354  0.8493 -0.2698
 7262SOL    HW233249   1.147   2.469   3.490  0.6872 -0.8562  1.9751
 7263SOL     OW33250   3.095   3.287  16.652  0.0992 -0.1139 -0.5033
 7263SOL    HW133251   3.066   3.331  16.572  3.6012  2.6426 -0.2462
 7263SOL    HW233252   3.178   3.333  16.658  0.8015 -1.1409 -2.4806
 7264SOL     OW33253   0.380   2.458   0.231 -0.1740 -0.3113  0.2079
 7264SOL    HW133254   0.285   2.448   0.223 -0.1323 -0.5571  0.0222
 7264SOL    HW233255   0.403   2.484   0.142 -2.0252 -0.5100 -0.3336
 7265SOL     OW33256   2.791   1.968  13.479  0.3504 -0.1985 -0.0677
 7265SOL    HW133257   2.757   1.902  13.540 -0.3146 -1.9229 -2.2952
 7265SOL    HW233258   2.709   1.979  13.431  0.2674 -1.5151 -0.2240
 7266SOL     OW33259   4.188   1.593  17.513  0.4743 -0.0128  0.1205
 7266SOL    HW133260   4.102   1.556  17.533  0.8167 -0.2518  1.1189
 7266SOL    HW233261   4.196   1.652  17.587  1.6407 -1.2480  0.9652
 7267SOL     OW33262   2.727   3.562   2.463 -0.4108  0.2542 -0.2414
 7267SOL    HW133263   2.690   3.475   2.478 -0.5628  0.0419 -1.9262
 7267SOL    HW233264   2.658   3.625   2.482 -0.9185 -0.9556  1.9803
 7268SOL     OW33265   0.502   4.663   0.918  0.4313 -0.5021  0.3697
 7268SOL    HW133266   0.475   4.703   1.001  1.6403 -1.0392  1.0166
 7268SOL    HW233267   0.476   4.573   0.939  0.4190 -0.1883  1.7133
 7269SOL     OW33268   0.290   2.764   4.537 -0.1886  0.5348  0.1621
 7269SOL    HW133269   0.287   2.676   4.502  0.6594  1.2557 -1.7280
 7269SOL    HW233270   0.274   2.806   4.453 -0.1848 -0.0432 -0.1258
 7270SOL     OW33271   2.957   1.109   3.533 -0.5557  0.5814 -0.0270
 7270SOL    HW133272   2.935   1.082   3.622  0.3016 -1.0392 -0.3237
 7270SOL    HW233273   2.993   1.025   3.507  1.7154  1.1843  1.2090
 7271SOL     OW33274   3.583   2.017  17.421  0.3961  0.2494 -0.6166
 7271SOL    HW133275   3.614   1.948  17.480 -2.7033 -1.7392 -1.2845
 7271SOL    HW233276   3.539   1.966  17.353  2.0901 -2.4947  0.3907
 7272SOL     OW33277   0.191   2.214   1.610 -0.0029 -0.2770  0.3191
 7272SOL    HW133278   0.127   2.144   1.598 -1.3443  0.7062  1.6211
 7272SOL    HW233279   0.258   2.194   1.545  1.3303  0.3868  1.4916
 7273SOL     OW33280   4.166   0.877  12.709  0.1357  0.2920  0.1528
 7273SOL    HW133281   4.164   0.797  12.763  0.7084 -2.1188 -3.4149
 7273SOL    HW233282   4.083   0.866  12.662  0.1694  0.5567  0.0343
 7274SOL     OW33283   2.997   0.960  14.952  0.5134  0.2235  0.1890
 7274SOL    HW133284   3.036   0.966  15.040 -2.9691 -2.3021  1.9164
 7274SOL    HW233285   2.931   1.029  14.954  0.6562  0.3860 -0.5894
 7275SOL     OW33286   2.699   2.009   2.960  0.0103 -0.5516  0.2689
 7275SOL    HW133287   2.637   2.047   3.023  1.4188 -0.1834  1.4356
 7275SOL    HW233288   2.692   1.916   2.982 -0.7260 -0.1000  1.9528
 7276SOL     OW33289   3.125   0.785  17.456 -0.6496  0.2450  0.0638
 7276SOL    HW133290   3.053   0.847  17.456 -0.5824  0.3237 -0.0710
 7276SOL    HW233291   3.157   0.810  17.543  2.8157 -1.8851 -0.6051
 7277SOL     OW33292   0.945   2.597  13.448 -0.9924 -0.2897  0.0370
 7277SOL    HW133293   0.882   2.646  13.500  0.6360  0.9233  0.8852
 7277SOL    HW233294   0.991   2.545  13.514 -0.7478 -0.5257 -0.3192
 7278SOL     OW33295   4.160   2.797   7.050  1.0620 -0.1283  0.9343
 7278SOL    HW133296   4.187   2.742   7.123  2.5972  0.1303  0.5675
 7278SOL    HW233297   4.132   2.873   7.100  0.3175  1.2070 -1.4722
 7279SOL     OW33298   0.487   2.455   6.333  0.0880  0.2837 -0.0610
 7279SOL    HW133299   0.446   2.541   6.341  1.7173  1.1837 -1.4162
 7279SOL    HW233300   0.482   2.414   6.419 -0.5020 -0.7595 -0.5854
 7280SOL     OW33301   0.965   2.718   6.860 -0.0462 -0.6177  0.6320
 7280SOL    HW133302   0.945   2.630   6.891  0.9384 -1.6912 -1.7633
 7280SOL    HW233303   1.021   2.747   6.932  0.5150  0.8142 -0.3755
 7281SOL     OW33304   2.402   0.321   4.599  0.4989  0.4399 -0.3259
 7281SOL    HW133305   2.424   0.239   4.555  1.8919  1.2560 -1.1312
 7281SOL    HW233306   2.422   0.291   4.687  1.0150 -0.6266 -0.7999
 7282SOL     OW33307   2.109   1.599   6.152  0.1561 -0.1075  0.6926
 7282SOL    HW133308   2.045   1.626   6.218  2.2715 -0.6728  2.9713
 7282SOL    HW233309   2.059   1.524   6.121 -0.9239  0.8661  0.0791
 7283SOL     OW33310   1.573   2.988   8.771 -0.8009  0.3968 -0.3443
 7283SOL    HW133311   1.559   2.956   8.860  2.0229  0.5377  0.1662
 7283SOL    HW233312   1.627   2.916   8.739  0.3401  1.4485 -0.7939
 7284SOL     OW33313   0.093   0.652   8.116 -0.5143  0.2275 -0.0631
 7284SOL    HW133314   0.169   0.710   8.123  0.5547 -1.0432 -1.2514
 7284SOL    HW233315   0.035   0.707   8.064 -0.8853 -0.6119 -0.5374
 7285SOL     OW33316   0.129   4.427   9.038  0.2632  0.2566 -0.8088
 7285SOL    HW133317   0.074   4.430   9.116  1.3709 -0.4611  0.0155
 7285SOL    HW233318   0.058   4.440   8.976 -0.0399  0.3714 -0.4394
 7286SOL     OW33319   2.424   3.252   1.632 -0.1263 -0.4872 -0.4412
 7286SOL    HW133320   2.351   3.223   1.577 -0.1899 -1.8283  0.3274
 7286SOL    HW233321   2.486   3.189   1.594  2.1385  1.4125  0.0837
 7287SOL     OW33322   3.589   0.000  11.854  0.0215 -0.3613 -0.5055
 7287SOL    HW133323   3.650   4.669  11.798 -0.3767  0.6961 -1.8647
 7287SOL    HW233324   3.509   4.705  11.804  0.9333  0.9292 -2.3200
 7288SOL     OW33325   1.160   3.189   3.424  0.1311 -0.1154 -0.0437
 7288SOL    HW133326   1.113   3.108   3.403 -0.2455  0.2453 -0.6165
 7288SOL    HW233327   1.154   3.237   3.341 -0.6070 -0.3039 -0.1015
 7289SOL     OW33328   1.647   2.181  10.086  0.1013 -0.2697  0.1441
 7289SOL    HW133329   1.649   2.212   9.996 -0.8305  1.1372  0.6088
 7289SOL    HW233330   1.714   2.115  10.104 -0.6089 -2.1135 -4.1452
 7290SOL     OW33331   0.604   3.529  15.457 -0.2946 -0.0742 -0.0844
 7290SOL    HW133332   0.630   3.621  15.460  1.4982 -0.4722 -2.7901
 7290SOL    HW233333   0.677   3.491  15.505 -1.1672  1.3730  2.3765
 7291SOL     OW33334   0.138   4.431   0.455  0.0831 -0.8105  0.4329
 7291SOL    HW133335   0.072   4.498   0.476 -0.9591 -1.8951  0.6352
 7291SOL    HW233336   0.221   4.478   0.463 -0.2561 -0.3507  1.2766
 7292SOL     OW33337   2.078   1.590   3.819  0.8206  0.7973 -0.1019
 7292SOL    HW133338   2.132   1.651   3.768 -1.4370  1.9819 -1.0553
 7292SOL    HW233339   2.009   1.570   3.756 -0.7362 -2.0230  2.5079
 7293SOL     OW33340   0.293   1.896   6.566 -0.2850  0.2086 -0.2282
 7293SOL    HW133341   0.368   1.909   6.508 -2.1237  0.1506 -2.5959
 7293SOL    HW233342   0.327   1.890   6.656  2.1558 -0.3006 -1.1889
 7294SOL     OW33343   4.137   2.757   8.199 -0.6058 -0.1265 -0.4619
 7294SOL    HW133344   4.108   2.719   8.281 -1.6715 -0.7418 -1.1290
 7294SOL    HW233345   4.138   2.683   8.138 -1.4144 -0.3595 -0.1870
 7295SOL     OW33346   0.208   1.991  16.828  0.7048 -0.6463 -0.3956
 7295SOL    HW133347   0.256   1.916  16.794  1.7740  0.1237 -0.5897
 7295SOL    HW233348   0.276   2.035  16.879  0.8495 -0.5152 -0.6997
 7296SOL     OW33349   4.207   0.768  15.431  0.1905 -0.3815 -0.1143
 7296SOL    HW133350   4.163   0.817  15.363 -0.0291  1.5996  1.4570
 7296SOL    HW233351   4.210   0.687  15.380  0.5187 -0.0932 -0.5505
 7297SOL     OW33352   4.680   3.284   4.847 -0.3347 -0.5162 -0.0416
 7297SOL    HW133353   0.007   3.313   4.768 -2.7985 -0.0314 -1.2604
 7297SOL    HW233354   4.645   3.203   4.811 -1.4275  0.4558 -1.1496
 7298SOL     OW33355   1.911   3.755  10.920  0.1593  0.2879  0.8062
 7298SOL    HW133356   1.936   3.846  10.903  1.5917  0.0377  1.6275
 7298SOL    HW233357   1.926   3.709  10.837 -0.2279  2.2630 -0.3757
 7299SOL     OW33358   3.844   4.559   3.311 -0.9180  0.2072  0.4938
 7299SOL    HW133359   3.853   4.465   3.324  0.8865  0.2660 -0.3239
 7299SOL    HW233360   3.758   4.552   3.270 -0.2065  2.3407 -1.3877
 7300SOL     OW33361   3.419   2.491  15.978 -0.0817 -0.3452  0.2546
 7300SOL    HW133362   3.482   2.541  15.927  0.4028 -2.6608 -1.4102
 7300SOL    HW233363   3.427   2.541  16.060 -1.9700  3.4624 -1.8929
 7301SOL     OW33364   3.644   0.167   6.788  0.0502  0.4550  0.9371
 7301SOL    HW133365   3.639   0.227   6.862 -0.1089 -0.2222  1.4734
 7301SOL    HW233366   3.683   0.227   6.725  0.7682 -1.1658 -0.1748
 7302SOL     OW33367   4.445   3.549   7.956 -0.4252 -0.3394  0.1371
 7302SOL    HW133368   4.478   3.565   7.867  2.4742 -0.6046  1.1688
 7302SOL    HW233369   4.522   3.499   7.982 -0.0861  0.0350 -0.1325
 7303SOL     OW33370   2.302   1.184   2.964 -0.0073 -0.0993 -0.5462
 7303SOL    HW133371   2.279   1.275   2.984  2.4350  0.0875  1.4026
 7303SOL    HW233372   2.332   1.161   3.052 -2.3533 -1.1592 -0.0364
 7304SOL     OW33373   0.568   0.645   3.833 -0.9557 -0.6857 -0.2534
 7304SOL    HW133374   0.640   0.641   3.896 -0.2803 -4.3586 -1.2736
 7304SOL    HW233375   0.587   0.579   3.767  0.0719 -0.9040  0.2532
 7305SOL     OW33376   3.920   1.524   2.337  0.1819 -0.7844  0.1193
 7305SOL    HW133377   3.835   1.562   2.313 -0.0896 -1.0396  0.6567
 7305SOL    HW233378   3.960   1.488   2.259 -0.2571  0.9136 -0.8905
 7306SOL     OW33379   2.135   3.593   2.404 -0.5808 -0.2983 -0.0686
 7306SOL    HW133380   2.098   3.636   2.326 -0.4817 -1.4932 -0.7768
 7306SOL    HW233381   2.185   3.663   2.445  0.7899 -0.5858 -1.2668
 7307SOL     OW33382   3.947   1.223  11.317 -0.1805 -0.0185  0.5956
 7307SOL    HW133383   3.873   1.255  11.369 -1.6372  0.6120 -1.8284
 7307SOL    HW233384   3.980   1.164  11.384 -1.9341 -1.7198 -0.0200
 7308SOL     OW33385   4.619   1.926   4.049 -0.4223  0.1596 -0.0564
 7308SOL    HW133386   4.574   1.945   3.967  1.7270 -0.3880 -1.3625
 7308SOL    HW233387   4.594   1.837   4.072 -1.0332 -0.2392 -2.2664
 7309SOL     OW33388   4.550   2.955   2.770  0.9816 -0.3556  0.4247
 7309SOL    HW133389   4.611   3.005   2.824 -1.1177  2.0366  0.5702
 7309SOL    HW233390   4.478   3.016   2.752  2.2652  0.9527 -0.2723
 7310SOL     OW33391   0.495   2.021   4.758  0.4656 -0.0609  0.2118
 7310SOL    HW133392   0.404   2.011   4.732  0.5896  2.2767 -1.1041
 7310SOL    HW233393   0.527   2.068   4.681  3.2368 -2.6041 -0.2225
 7311SOL     OW33394   1.752   1.823  11.366 -0.2368 -0.0300  0.0618
 7311SOL    HW133395   1.832   1.863  11.332 -0.0130 -1.3128 -0.9206
 7311SOL    HW233396   1.790   1.743  11.403 -1.1698 -0.9004 -0.8664
 7312SOL     OW33397   3.261   3.563   5.407  0.0427 -0.0448 -0.3743
 7312SOL    HW133398   3.170   3.589   5.390 -1.1824 -2.0514  2.9037
 7312SOL    HW233399   3.259   3.470   5.430 -0.2759  0.5505  2.0267
 7313SOL     OW33400   0.796   4.155   2.293 -0.2945  0.1013 -0.3801
 7313SOL    HW133401   0.719   4.107   2.262  0.3395 -2.1603  1.5969
 7313SOL    HW233402   0.869   4.097   2.311  0.9875  1.9577  0.4287
 7314SOL     OW33403   3.201   1.617   2.090 -0.6526 -0.5352 -0.1424
 7314SOL    HW133404   3.163   1.647   2.008  1.4219  1.8211 -0.2521
 7314SOL    HW233405   3.245   1.544   2.047 -1.9732  0.1695 -2.6498
 7315SOL     OW33406   0.336   3.933   2.987 -0.1501 -0.4921 -0.3063
 7315SOL    HW133407   0.395   3.869   2.948  2.3145 -0.6502  3.7196
 7315SOL    HW233408   0.387   3.972   3.058  0.0182  0.5895 -1.0212
 7316SOL     OW33409   2.683   3.478   7.513  0.1667  0.1047 -0.2740
 7316SOL    HW133410   2.718   3.516   7.594 -1.0437 -0.5554  0.5441
 7316SOL    HW233411   2.687   3.384   7.530 -0.7441  0.0806 -0.2296
 7317SOL     OW33412   2.354   4.301   3.193 -0.3868  0.1125  0.2536
 7317SOL    HW133413   2.320   4.217   3.162 -0.4750  0.5447 -0.8328
 7317SOL    HW233414   2.394   4.327   3.110 -0.1886 -0.9000  0.0327
 7318SOL     OW33415   0.247   4.288   2.183  0.7165  0.4075 -0.0370
 7318SOL    HW133416   0.157   4.310   2.206  0.0455 -0.9578 -1.3240
 7318SOL    HW233417   0.232   4.231   2.107  0.7429  0.1378  0.1578
 7319SOL     OW33418   1.555   1.093  12.034  0.7650  0.3245 -0.4759
 7319SOL    HW133419   1.619   1.043  11.984  1.8307  3.2366 -2.0427
 7319SOL    HW233420   1.576   1.075  12.126  0.6880 -2.0470 -0.9211
 7320SOL     OW33421   2.350   0.287   5.359  0.4277  0.4948  0.0266
 7320SOL    HW133422   2.366   0.195   5.377  1.1863  0.7348  0.5707
 7320SOL    HW233423   2.358   0.295   5.264  1.9121  0.5812  0.1635
 7321SOL     OW33424   2.022   3.754   1.750  0.0110  0.2704  0.3983
 7321SOL    HW133425   1.966   3.680   1.776 -1.1573  1.5129  1.4498
 7321SOL    HW233426   2.016   3.815   1.823  1.0440  0.4659  0.3133
 7322SOL     OW33427   3.305   1.988   6.933  0.1556 -0.1278  0.0530
 7322SOL    HW133428   3.244   2.040   6.880 -2.0216 -1.2407  1.4639
 7322SOL    HW233429   3.253   1.910   6.948  1.8350 -1.5082 -1.3093
 7323SOL     OW33430   1.755   2.589   3.639 -0.0453  0.2297  0.4177
 7323SOL    HW133431   1.785   2.512   3.591 -3.3562  0.5260 -2.0996
 7323SOL    HW233432   1.716   2.631   3.563 -0.3402 -0.4068  0.2171
 7324SOL     OW33433   1.869   0.090   9.373 -0.0785 -0.3157 -0.4299
 7324SOL    HW133434   1.832   0.139   9.300  1.7945 -0.2485 -1.3351
 7324SOL    HW233435   1.834   0.146   9.443 -0.3340  0.2634 -1.0193
 7325SOL     OW33436   4.008   0.861   3.107  0.1656  0.6622 -0.0705
 7325SOL    HW133437   3.951   0.784   3.111  0.7422  0.0623 -2.9939
 7325SOL    HW233438   4.037   0.885   3.195  2.0980 -2.9490  0.2944
 7326SOL     OW33439   1.119   4.208   3.316 -0.0588  0.2246 -0.7652
 7326SOL    HW133440   1.113   4.286   3.261 -1.1851  0.5102 -0.2362
 7326SOL    HW233441   1.106   4.242   3.404 -0.9436 -1.0594 -0.3909
 7327SOL     OW33442   1.578   3.169  16.968  0.0868  0.2659 -0.1289
 7327SOL    HW133443   1.617   3.083  16.952  0.5383  0.3287  0.6217
 7327SOL    HW233444   1.558   3.197  16.879  1.0571  1.7176  0.1024
 7328SOL     OW33445   1.204   0.079   4.574 -0.0743  0.4418  0.7573
 7328SOL    HW133446   1.123   0.032   4.594  0.5976 -0.2930  1.7778
 7328SOL    HW233447   1.197   0.160   4.624 -2.1949  0.1109  0.9862
 7329SOL     OW33448   0.439   1.812   5.530 -0.0320  0.6063  0.3490
 7329SOL    HW133449   0.350   1.847   5.524  0.4124  1.7216  0.3913
 7329SOL    HW233450   0.425   1.719   5.508 -1.6505  1.0355 -0.4830
 7330SOL     OW33451   0.924   2.069   8.041 -0.0756 -0.7004 -0.6012
 7330SOL    HW133452   0.836   2.032   8.050 -0.2013 -0.0664  0.7266
 7330SOL    HW233453   0.896   2.160   8.047  1.5868 -0.2447  0.1563
 7331SOL     OW33454   4.231   3.969   3.121 -0.2744  0.9294 -0.5929
 7331SOL    HW133455   4.151   4.010   3.154 -0.8118  0.8722 -1.8158
 7331SOL    HW233456   4.198   3.959   3.032  0.5753  0.8401 -0.8965
 7332SOL     OW33457   1.364   1.074   9.226  0.3537  0.0453 -0.2002
 7332SOL    HW133458   1.368   1.015   9.150  0.9280  0.9900 -0.9094
 7332SOL    HW233459   1.410   1.021   9.290  0.3546  0.5069  0.1785
 7333SOL     OW33460   0.907   4.475   5.286  0.0137 -0.1057  0.2140
 7333SOL    HW133461   0.880   4.450   5.198 -0.9132  0.3510  0.3690
 7333SOL    HW233462   0.986   4.525   5.268  0.2954 -1.3263 -1.8211
 7334SOL     OW33463   0.506   1.753   2.431  0.1481  0.2973 -0.1529
 7334SOL    HW133464   0.582   1.806   2.457 -0.3092  0.9372 -0.1271
 7334SOL    HW233465   0.437   1.805   2.472 -0.3099  0.2341 -0.8478
 7335SOL     OW33466   3.877   3.352  15.100  0.6299 -0.5364 -0.1893
 7335SOL    HW133467   3.843   3.263  15.106  1.2905 -0.8578 -1.1724
 7335SOL    HW233468   3.877   3.351  15.004 -1.0481  0.7850 -0.2029
 7336SOL     OW33469   0.661   3.215   0.120 -0.3351  0.3039  0.2609
 7336SOL    HW133470   0.582   3.224   0.066 -0.0930  0.7693 -0.0164
 7336SOL    HW233471   0.624   3.181   0.201  1.3473 -2.3416 -0.0580
 7337SOL     OW33472   2.750   3.380   2.108  0.2016 -0.1046  0.7820
 7337SOL    HW133473   2.670   3.344   2.145 -0.0856  1.5810  1.7616
 7337SOL    HW233474   2.767   3.312   2.042 -3.4927 -0.4402  0.2132
 7338SOL     OW33475   1.492   4.059   4.216 -0.0391 -0.0349 -0.1349
 7338SOL    HW133476   1.551   4.115   4.266 -1.1846  2.6403 -1.8121
 7338SOL    HW233477   1.443   4.009   4.283 -0.5339  2.6398  1.4914
 7339SOL     OW33478   3.091   0.984   5.803 -0.3763 -0.6495  0.0759
 7339SOL    HW133479   3.107   1.057   5.863 -1.1180 -0.2265 -0.2552
 7339SOL    HW233480   2.997   0.988   5.788  0.1215  0.9375 -2.5093
 7340SOL     OW33481   1.161   2.755   6.630  0.6525 -0.5243 -0.0829
 7340SOL    HW133482   1.067   2.755   6.651  1.2974  1.1488  2.7510
 7340SOL    HW233483   1.160   2.746   6.535  1.1552 -1.1346 -0.0284
 7341SOL     OW33484   3.477   3.446   6.768 -0.0954 -0.2755 -0.4464
 7341SOL    HW133485   3.399   3.391   6.781  0.4810 -1.0821 -0.3828
 7341SOL    HW233486   3.445   3.530   6.738 -1.0888 -0.4869  0.0247
 7342SOL     OW33487   0.619   0.679   9.431 -0.1052  0.5731  0.2616
 7342SOL    HW133488   0.679   0.623   9.381 -0.1682 -0.1524  1.0079
 7342SOL    HW233489   0.655   0.694   9.518 -1.3472 -0.8967  1.0417
 7343SOL     OW33490   1.526   0.646  11.368 -0.3217  0.4572  0.3689
 7343SOL    HW133491   1.594   0.705  11.335  0.6376 -1.0520 -0.3613
 7343SOL    HW233492   1.550   0.569  11.317  0.8921 -1.2220  3.4850
 7344SOL     OW33493   1.110   4.512  17.535 -0.0254 -0.2405  0.1260
 7344SOL    HW133494   1.065   4.435  17.571 -1.9877 -0.0871 -2.0242
 7344SOL    HW233495   1.044   4.574  17.505 -1.7170 -0.7242  2.8191
 7345SOL     OW33496   2.886   2.437   0.427  0.1063 -0.8773 -0.2222
 7345SOL    HW133497   2.859   2.487   0.504  2.6379  2.2140 -1.3764
 7345SOL    HW233498   2.810   2.389   0.393  1.2093 -2.0672 -0.9853
 7346SOL     OW33499   1.276   1.681   9.098 -0.1718  0.2565 -0.3103
 7346SOL    HW133500   1.233   1.687   9.184  0.8499  0.8632  0.1561
 7346SOL    HW233501   1.214   1.725   9.040 -1.6048 -2.2174 -0.6512
 7347SOL     OW33502   2.920   3.058   2.450 -0.2622  0.0185 -0.9153
 7347SOL    HW133503   2.974   3.137   2.452 -0.4977  0.1508  0.7562
 7347SOL    HW233504   2.848   3.079   2.509 -0.9300 -2.3232 -0.9030
 7348SOL     OW33505   4.606   1.147   3.406  0.0555 -0.0985 -0.2630
 7348SOL    HW133506   4.700   1.165   3.403  0.0775 -0.3022 -0.7625
 7348SOL    HW233507   4.590   1.101   3.324 -0.1920 -2.6584  1.1863
 7349SOL     OW33508   1.447   1.377   3.935  0.0661 -0.2326  0.2835
 7349SOL    HW133509   1.382   1.433   3.977 -0.4217 -0.8528  0.3570
 7349SOL    HW233510   1.384   1.310   3.912  0.2320 -0.5584  0.7584
 7350SOL     OW33511   3.331   1.317   9.947 -0.3014  0.0528  0.7988
 7350SOL    HW133512   3.271   1.243   9.932  0.7667 -0.5894 -0.2786
 7350SOL    HW233513   3.409   1.280   9.906  0.5169  1.5617  1.0130
 7351SOL     OW33514   1.830   1.885  10.723  0.6816  0.1877 -0.5734
 7351SOL    HW133515   1.924   1.902  10.722  0.3396  2.0323 -0.8086
 7351SOL    HW233516   1.814   1.902  10.816 -1.5052  0.2266 -0.9609
 7352SOL     OW33517   3.821   0.101   2.959 -0.0605  0.0970  0.2742
 7352SOL    HW133518   3.914   0.121   2.951 -0.2435  0.0795 -2.0038
 7352SOL    HW233519   3.799   0.119   3.050  0.8222 -0.5420  0.6062
 7353SOL     OW33520   0.841   1.207  14.381  0.1384 -0.3236 -0.2315
 7353SOL    HW133521   0.827   1.302  14.373 -0.9088 -0.3122  1.5128
 7353SOL    HW233522   0.749   1.181  14.386 -0.3077  1.1962 -0.4496
 7354SOL     OW33523   0.864   2.250   1.897 -0.0920  0.1788 -0.9555
 7354SOL    HW133524   0.905   2.166   1.878 -0.0066  0.0465 -0.1763
 7354SOL    HW233525   0.940   2.307   1.898 -0.6966  0.9927 -1.3631
 7355SOL     OW33526   3.491   2.603  16.243  0.3917  0.1733 -0.6307
 7355SOL    HW133527   3.584   2.617  16.261  0.2505 -0.4050  0.5731
 7355SOL    HW233528   3.459   2.596  16.333  0.8362  0.5374 -0.4486
 7356SOL     OW33529   4.462   2.641   9.546  0.6229 -0.4165 -0.1331
 7356SOL    HW133530   4.373   2.669   9.569  1.0881  1.1315 -0.2730
 7356SOL    HW233531   4.446   2.610   9.457 -1.1729  1.6711 -0.5241
 7357SOL     OW33532   0.090   0.770  10.666 -0.5249 -0.0922 -0.1742
 7357SOL    HW133533   0.139   0.752  10.586 -0.6083 -1.2356  0.0255
 7357SOL    HW233534   0.161   0.794  10.725  0.0714 -4.1908  0.8343
 7358SOL     OW33535   0.974   3.473   2.389 -0.2013 -0.1713  0.1165
 7358SOL    HW133536   1.049   3.532   2.401  0.7996 -1.4006 -0.0644
 7358SOL    HW233537   0.965   3.484   2.294  1.6051 -2.5662 -0.3362
 7359SOL     OW33538   1.779   4.406  10.735 -0.3252 -0.0096 -0.6388
 7359SOL    HW133539   1.767   4.319  10.772  0.9529  0.8089  1.7226
 7359SOL    HW233540   1.695   4.445  10.762 -1.0147 -2.7374  1.1428
 7360SOL     OW33541   4.564   2.916  15.344  0.1976 -0.2198 -0.8919
 7360SOL    HW133542   4.574   2.846  15.407  0.9387  1.9967  1.4631
 7360SOL    HW233543   4.470   2.932  15.340  0.2546  0.0250 -1.3128
 7361SOL     OW33544   3.618   1.466   6.129  0.2586  0.1704  0.2178
 7361SOL    HW133545   3.619   1.561   6.114 -1.6308  0.3990  1.5304
 7361SOL    HW233546   3.590   1.436   6.042 -2.4068  1.0269  0.7861
 7362SOL     OW33547   3.646   1.134   7.967 -0.1115 -0.1761  0.5665
 7362SOL    HW133548   3.685   1.098   7.888 -1.4096 -1.5619  0.5662
 7362SOL    HW233549   3.722   1.145   8.024  0.7429  2.6462 -1.1031
 7363SOL     OW33550   3.157   0.176  13.771 -0.0847 -0.5282  0.1532
 7363SOL    HW133551   3.189   0.204  13.686 -0.0164 -2.8426 -0.5965
 7363SOL    HW233552   3.204   0.093  13.772  2.4625  0.9236  0.7120
 7364SOL     OW33553   4.342   2.923   7.989 -0.0747  0.1580 -0.3662
 7364SOL    HW133554   4.387   2.846   8.022 -0.8020  0.2130  0.7638
 7364SOL    HW233555   4.333   2.972   8.071 -1.1203  0.1772 -0.4904
 7365SOL     OW33556   0.873   4.679   2.077  0.1678  0.1312  0.1210
 7365SOL    HW133557   0.875   4.698   2.170  2.5850  0.7440 -0.0613
 7365SOL    HW233558   0.848   4.587   2.086  1.7621 -0.5743 -2.4704
 7366SOL     OW33559   1.352   1.254   2.421 -0.3216  0.0292  0.5163
 7366SOL    HW133560   1.371   1.163   2.398 -0.0666  0.0219  0.7558
 7366SOL    HW233561   1.260   1.237   2.442 -1.0911  1.5818 -1.6979
 7367SOL     OW33562   2.022   2.768   2.402  0.5182 -0.2857 -0.0609
 7367SOL    HW133563   2.041   2.789   2.311  2.6027  0.4007  0.5244
 7367SOL    HW233564   1.957   2.699   2.399  0.1059  0.2955 -3.6290
 7368SOL     OW33565   0.076   4.660   5.156 -0.0585 -0.2411  0.5684
 7368SOL    HW133566   0.110   4.681   5.069  0.2675  0.6426  0.9164
 7368SOL    HW233567   0.124   0.009   5.203  0.5496 -0.8560  0.8359
 7369SOL     OW33568   4.245   2.098  12.579 -0.2732 -0.3401 -0.1479
 7369SOL    HW133569   4.286   2.045  12.647  2.6539 -0.5164 -2.0490
 7369SOL    HW233570   4.317   2.156  12.555 -1.3782  0.3899 -1.7080
 7370SOL     OW33571   3.319   0.619   1.101 -0.5317 -0.3156 -0.0460
 7370SOL    HW133572   3.264   0.543   1.117 -0.8473  0.0413  0.5809
 7370SOL    HW233573   3.401   0.605   1.148  0.0672  2.8096 -0.1557
 7371SOL     OW33574   1.566   1.541   2.043  0.4447  0.7474  0.0119
 7371SOL    HW133575   1.550   1.484   1.968  1.4298 -1.8227  1.7396
 7371SOL    HW233576   1.500   1.610   2.032  0.1031  0.7031  1.8114
 7372SOL     OW33577   3.878   2.765   3.529  0.5517  0.7195  0.2483
 7372SOL    HW133578   3.943   2.795   3.593  0.5478 -0.1029  0.6403
 7372SOL    HW233579   3.886   2.670   3.532  3.0110  1.0042  2.8037
 7373SOL     OW33580   3.806   1.163   5.257 -0.5608  0.4720 -0.3753
 7373SOL    HW133581   3.747   1.122   5.320 -0.0547 -0.8193 -0.7547
 7373SOL    HW233582   3.780   1.122   5.175 -0.0205 -2.4701  0.9427
 7374SOL     OW33583   4.449   1.699   5.741 -0.3087  0.1323  0.3853
 7374SOL    HW133584   4.395   1.699   5.661 -0.4417 -2.1614  0.4907
 7374SOL    HW233585   4.460   1.792   5.762 -0.3633  0.3592 -0.5572
 7375SOL     OW33586   3.889   4.410   5.961  0.5666  0.6009 -0.1452
 7375SOL    HW133587   3.847   4.326   5.940 -0.0480  0.6306  0.9630
 7375SOL    HW233588   3.868   4.454   5.879  2.3066  2.0736  0.1896
 7376SOL     OW33589   0.334   2.243  10.746  0.4132  0.1478  0.0260
 7376SOL    HW133590   0.289   2.296  10.811 -0.4560 -1.2571  0.5808
 7376SOL    HW233591   0.390   2.306  10.702  0.9189  0.2477  0.8191
 7377SOL     OW33592   1.371   3.174   7.338  0.3121  0.1094  0.2301
 7377SOL    HW133593   1.399   3.254   7.381 -0.7716  1.3563 -1.4039
 7377SOL    HW233594   1.398   3.196   7.250 -2.7878  1.4136 -0.4096
 7378SOL     OW33595   3.876   0.785   4.668  0.0900  0.0474 -0.2199
 7378SOL    HW133596   3.865   0.870   4.625  0.6127  0.0678 -0.3117
 7378SOL    HW233597   3.959   0.793   4.713  0.2880 -0.8806 -0.4034
 7379SOL     OW33598   3.959   1.895   9.122 -0.0622 -0.1682  0.2557
 7379SOL    HW133599   3.891   1.829   9.113  0.0717 -0.4599  1.4219
 7379SOL    HW233600   4.019   1.864   9.190  0.0035  0.2161  0.3748
 7380SOL     OW33601   2.243   4.164  14.954  0.1324 -0.0365  0.3580
 7380SOL    HW133602   2.336   4.179  14.935 -0.0289 -2.6020 -2.4224
 7380SOL    HW233603   2.202   4.230  14.898 -0.6950  0.2003  1.2383
 7381SOL     OW33604   2.006   4.192  10.115 -0.0984 -0.2574  0.7195
 7381SOL    HW133605   2.093   4.156  10.098  0.4361  0.8431  1.1207
 7381SOL    HW233606   2.006   4.274  10.066 -1.1822  0.0538  1.2527
 7382SOL     OW33607   3.176   0.931   0.029 -0.1930  0.5195  0.2184
 7382SOL    HW133608   3.104   0.989   0.003  0.1014  0.1314 -1.4066
 7382SOL    HW233609   3.184   0.955   0.122 -0.9657  0.5117  0.2911
 7383SOL     OW33610   2.783   1.077  14.617 -0.0160  0.3973 -0.2762
 7383SOL    HW133611   2.863   1.050  14.571  0.7305  0.7482  0.8305
 7383SOL    HW233612   2.749   1.137  14.551  0.5583 -0.4615 -1.3659
 7384SOL     OW33613   0.003   3.786   2.548 -0.2308  0.2472  0.1943
 7384SOL    HW133614   0.060   3.858   2.575  0.7292 -1.3035  2.3621
 7384SOL    HW233615   4.642   3.835   2.523 -0.9732  0.3151  2.6377
 7385SOL     OW33616   4.029   4.546   1.392 -0.2648 -0.5190  0.0667
 7385SOL    HW133617   4.115   4.546   1.433  0.5615  1.3878 -1.6782
 7385SOL    HW233618   3.975   4.570   1.467  0.9062 -0.9627  1.0382
 7386SOL     OW33619   0.051   3.414   1.231 -0.5382  0.3030 -0.7188
 7386SOL    HW133620   0.087   3.416   1.142  0.8577  1.6712 -0.1169
 7386SOL    HW233621   0.127   3.410   1.289  0.3578  1.3412 -1.8297
 7387SOL     OW33622   2.355   4.083   0.203 -0.0866 -0.5619 -0.1595
 7387SOL    HW133623   2.288   4.102   0.269 -1.3291 -2.1293 -0.9523
 7387SOL    HW233624   2.436   4.097   0.251 -1.1064 -0.4119  1.5339
 7388SOL     OW33625   0.931   2.886  10.981  0.0191 -0.2601  0.0361
 7388SOL    HW133626   1.001   2.923  10.927 -0.7322  0.3332 -0.5376
 7388SOL    HW233627   0.936   2.792  10.963  1.4038 -0.3569  0.9205
 7389SOL     OW33628   1.264   3.374   5.303  0.3329  0.3410  0.0988
 7389SOL    HW133629   1.315   3.294   5.314 -2.3131 -1.4723 -0.7947
 7389SOL    HW233630   1.339   3.433   5.291  1.3281 -1.0498 -0.5348
 7390SOL     OW33631   2.119   3.136   0.701 -0.2671 -0.1548  0.6448
 7390SOL    HW133632   2.111   3.121   0.795 -4.1526  2.0319  0.6656
 7390SOL    HW233633   2.187   3.074   0.677 -0.0115 -0.5559  2.4164
 7391SOL     OW33634   3.677   4.303   8.793  0.3119  0.3888  0.0460
 7391SOL    HW133635   3.665   4.356   8.715 -0.8827 -1.6021 -1.1337
 7391SOL    HW233636   3.607   4.239   8.778  2.8993 -1.9620 -1.9389
 7392SOL     OW33637   0.944   3.424   5.975  0.0007  0.2590 -0.2681
 7392SOL    HW133638   0.952   3.354   5.910 -1.1750  0.4004 -0.5713
 7392SOL    HW233639   0.901   3.373   6.043 -0.7667  1.0231 -0.1773
 7393SOL     OW33640   4.544   3.663  15.682  0.2338 -0.1529 -0.2293
 7393SOL    HW133641   4.599   3.619  15.748  0.5855  1.5576  0.6137
 7393SOL    HW233642   4.491   3.724  15.733 -1.2838 -0.9096 -0.9059
 7394SOL     OW33643   1.577   3.965   9.880  0.4627  0.3591 -0.0414
 7394SOL    HW133644   1.639   3.968   9.952  1.3554  0.3460 -0.8155
 7394SOL    HW233645   1.621   3.894   9.835 -0.5565  0.6311 -1.4690
 7395SOL     OW33646   1.557   4.101  10.380  0.0937 -0.9466 -0.4229
 7395SOL    HW133647   1.641   4.115  10.336  0.8854 -0.0089  1.3683
 7395SOL    HW233648   1.539   4.179  10.433  1.3701 -1.0144  0.1189
 7396SOL     OW33649   0.010   4.322  10.489 -0.1091 -0.3295 -0.3182
 7396SOL    HW133650   0.097   4.283  10.490  0.6967  1.4528 -0.6341
 7396SOL    HW233651   4.672   4.261  10.537  0.4037 -2.4871 -2.4303
 7397SOL     OW33652   2.168   1.497   8.064 -0.2514 -0.5696  0.2337
 7397SOL    HW133653   2.261   1.502   8.042  0.0515 -1.0453  1.3823
 7397SOL    HW233654   2.127   1.555   8.001  3.0240 -0.6938 -2.0250
 7398SOL     OW33655   4.229   2.715   2.355  0.2919  0.1803 -0.2198
 7398SOL    HW133656   4.140   2.701   2.323  1.5394  0.1493 -3.6905
 7398SOL    HW233657   4.270   2.735   2.271  0.6499 -0.9861 -0.3164
 7399SOL     OW33658   1.722   1.189   6.732  0.4875 -0.6312 -0.3880
 7399SOL    HW133659   1.704   1.121   6.668  0.4279  0.2760 -1.3291
 7399SOL    HW233660   1.813   1.212   6.713  0.8108 -0.6494  1.0667
 7400SOL     OW33661   3.564   0.783   2.412 -0.2340 -0.3107  0.2044
 7400SOL    HW133662   3.482   0.748   2.378  0.5245 -2.6401  0.7758
 7400SOL    HW233663   3.526   0.850   2.469  1.7385 -0.5449  1.7890
 7401SOL     OW33664   4.406   4.090  14.677 -0.3024 -0.3019 -0.1309
 7401SOL    HW133665   4.485   4.110  14.628 -0.7641 -0.1162 -0.7984
 7401SOL    HW233666   4.343   4.110  14.608  0.3225 -1.7740 -1.1256
 7402SOL     OW33667   2.253   3.013   3.281 -0.0539  0.0077 -0.7221
 7402SOL    HW133668   2.339   3.005   3.239  0.7777  0.8863  0.8548
 7402SOL    HW233669   2.278   3.072   3.351 -0.3363  0.1225 -0.7192
 7403SOL     OW33670   1.047   1.151   5.156 -0.1543 -0.3309  0.7011
 7403SOL    HW133671   1.007   1.223   5.204 -0.1626  0.5439 -0.6265
 7403SOL    HW233672   1.013   1.077   5.206  0.7409 -0.6330  0.8618
 7404SOL     OW33673   0.758   3.993  15.336  0.2305  0.2235 -0.0504
 7404SOL    HW133674   0.833   4.009  15.279  0.7393 -0.3117  0.4702
 7404SOL    HW233675   0.705   4.065  15.302  0.2642  1.3156  2.1720
 7405SOL     OW33676   4.688   3.081   4.679  0.2702 -0.2578  0.1189
 7405SOL    HW133677   0.045   3.039   4.720  0.4043 -0.4201 -0.2864
 7405SOL    HW233678   0.001   3.089   4.589  2.2860  2.0163  1.0476
 7406SOL     OW33679   4.337   2.016   3.287  0.6590 -0.2187  0.2290
 7406SOL    HW133680   4.407   1.954   3.306  1.3916  0.0007 -1.8396
 7406SOL    HW233681   4.310   1.979   3.203  1.5209  2.1155 -1.0648
 7407SOL     OW33682   3.150   2.700  15.615 -0.3700 -0.7200 -0.0852
 7407SOL    HW133683   3.069   2.659  15.584 -0.7102 -0.8507  0.9486
 7407SOL    HW233684   3.170   2.635  15.683 -0.8674 -0.1558  0.5911
 7408SOL     OW33685   1.849   3.261   6.881  0.2702  0.1938  0.3776
 7408SOL    HW133686   1.873   3.233   6.969 -0.2938 -1.2665  0.0718
 7408SOL    HW233687   1.890   3.190   6.832 -1.1170 -2.2067  2.7039
 7409SOL     OW33688   2.571   3.340   8.219  0.2173  0.3917  0.3921
 7409SOL    HW133689   2.479   3.363   8.230  0.5382  1.4599  0.8734
 7409SOL    HW233690   2.589   3.287   8.297 -1.3257  0.6221  0.9007
 7410SOL     OW33691   1.859   4.314   5.419 -0.2118  0.1519  0.2084
 7410SOL    HW133692   1.943   4.334   5.378  0.9368 -2.4691  1.2875
 7410SOL    HW233693   1.885   4.295   5.509  1.1189  1.1664  0.0303
 7411SOL     OW33694   0.962   1.411   2.358  0.6390  0.0693 -0.3810
 7411SOL    HW133695   1.046   1.448   2.332  0.2722  1.5472  0.5156
 7411SOL    HW233696   0.984   1.321   2.382  0.4835  0.1729  0.1500
 7412SOL     OW33697   3.537   1.820   8.117  0.4346 -0.1028  0.1846
 7412SOL    HW133698   3.550   1.733   8.155 -0.6237 -0.0234  0.7397
 7412SOL    HW233699   3.619   1.833   8.069 -1.3819  0.4219 -2.7342
 7413SOL     OW33700   4.350   3.860   2.703 -0.1257  0.5022  0.4840
 7413SOL    HW133701   4.352   3.930   2.638  0.3091 -0.1834 -0.2353
 7413SOL    HW233702   4.433   3.852   2.750  0.5949  0.7215 -0.7659
 7414SOL     OW33703   2.004   1.199   0.309  0.3361  0.1695  0.3594
 7414SOL    HW133704   2.059   1.272   0.336 -0.4581 -0.2698  3.1626
 7414SOL    HW233705   1.940   1.246   0.254 -0.3651  0.5088  1.4555
 7415SOL     OW33706   2.507   1.099   9.290  0.3100 -0.1709 -0.1186
 7415SOL    HW133707   2.423   1.052   9.283  0.4330 -0.7935  2.5468
 7415SOL    HW233708   2.541   1.068   9.374 -0.3284  2.2945  1.0502
 7416SOL     OW33709   3.690   4.645   1.481 -0.0995  0.1673 -0.4139
 7416SOL    HW133710   3.706   4.572   1.422 -0.8751  0.7677 -1.3615
 7416SOL    HW233711   3.733   0.002   1.440  0.8896  1.4240  2.9230
 7417SOL     OW33712   2.671   1.525   5.515  0.0357  0.5762 -1.1133
 7417SOL    HW133713   2.584   1.534   5.552  1.0363 -0.8331  1.5983
 7417SOL    HW233714   2.703   1.615   5.520  1.6842 -0.0112 -1.0303
 7418SOL     OW33715   1.482   3.323   8.164 -0.0300  0.3967 -0.3862
 7418SOL    HW133716   1.491   3.416   8.182  0.0972  0.3333 -0.1290
 7418SOL    HW233717   1.426   3.304   8.239  0.5955 -0.2513 -0.0807
 7419SOL     OW33718   3.323   0.702   3.132 -0.2507 -0.1841 -0.1378
 7419SOL    HW133719   3.392   0.671   3.191  0.7116  0.5329 -0.8806
 7419SOL    HW233720   3.277   0.622   3.106 -2.6332  1.1691 -0.0588
 7420SOL     OW33721   2.558   0.588   3.967  0.4532 -0.0447 -0.0486
 7420SOL    HW133722   2.585   0.671   3.927 -0.5917  0.5186  0.3743
 7420SOL    HW233723   2.535   0.537   3.890 -1.0413 -0.3779  0.6131
 7421SOL     OW33724   3.251   2.782   3.832  0.0173 -0.8164  0.1519
 7421SOL    HW133725   3.330   2.826   3.863 -2.0308  2.0454  1.3034
 7421SOL    HW233726   3.250   2.715   3.900 -1.9854 -0.8212  0.1001
 7422SOL     OW33727   2.561   3.821   8.205 -0.2725 -0.0643 -0.0006
 7422SOL    HW133728   2.639   3.771   8.180  0.2069 -0.3273  2.0278
 7422SOL    HW233729   2.541   3.771   8.284 -1.9108 -0.6824 -0.8042
 7423SOL     OW33730   0.533   1.900   6.381  0.1013 -0.0725  0.4905
 7423SOL    HW133731   0.609   1.844   6.363 -1.2697 -1.2626 -1.4857
 7423SOL    HW233732   0.575   1.980   6.413  1.0010 -0.5765  0.5710
 7424SOL     OW33733   2.355   3.900  11.122  0.1294 -0.5610  0.0853
 7424SOL    HW133734   2.302   3.979  11.128  0.0807 -0.4233 -2.0434
 7424SOL    HW233735   2.371   3.880  11.214  0.9431  2.9489  0.6799
 7425SOL     OW33736   0.178   4.159  17.650 -0.1197 -0.0941  0.2491
 7425SOL    HW133737   0.215   4.199  17.572 -1.7029 -0.5898 -0.7532
 7425SOL    HW233738   0.090   4.193  17.670 -0.3536 -1.7831  2.1309
 7426SOL     OW33739   1.531   4.507   4.551 -0.5387 -0.3187  0.4894
 7426SOL    HW133740   1.488   4.543   4.629  1.4990  0.6754  1.1525
 7426SOL    HW233741   1.585   4.438   4.590 -0.0249 -0.6635 -0.8516
 7427SOL     OW33742   1.140   3.598   5.991  0.2170  0.2903 -0.2582
 7427SOL    HW133743   1.064   3.540   5.995  1.5118 -1.3053  1.2085
 7427SOL    HW233744   1.206   3.554   5.937 -0.3454 -1.0316  0.1298
 7428SOL     OW33745   2.036   4.520   3.404  0.1265  0.0222 -0.3997
 7428SOL    HW133746   1.940   4.519   3.400  0.0333  1.2084  1.4231
 7428SOL    HW233747   2.062   4.495   3.316 -0.2011  2.0562 -1.0647
 7429SOL     OW33748   1.847   2.338  10.198  0.2045 -0.1196  0.0383
 7429SOL    HW133749   1.916   2.274  10.179  0.2509  0.1639 -0.7758
 7429SOL    HW233750   1.770   2.311  10.149  2.2158 -4.3013 -0.8015
 7430SOL     OW33751   1.605   4.201   4.444 -0.2026 -0.7985  0.5181
 7430SOL    HW133752   1.688   4.234   4.479 -1.4794  1.5262  1.3516
 7430SOL    HW233753   1.573   4.152   4.520 -1.2390  1.8651  1.8055
 7431SOL     OW33754   0.843   4.437   9.682  0.0490 -0.1826  1.0981
 7431SOL    HW133755   0.913   4.454   9.745 -0.0106  2.1672  0.5427
 7431SOL    HW233756   0.887   4.389   9.611 -0.4313  0.5561  0.2990
 7432SOL     OW33757   2.644   0.910   7.059 -0.2963 -0.0682 -0.0646
 7432SOL    HW133758   2.716   0.971   7.045 -1.3484  1.7161  2.2142
 7432SOL    HW233759   2.670   0.859   7.136 -0.8674 -1.7056 -0.9515
 7433SOL     OW33760   4.031   0.411   8.045 -0.0219 -0.3923  0.1572
 7433SOL    HW133761   3.972   0.448   8.110 -0.3908 -0.5460 -0.0931
 7433SOL    HW233762   4.108   0.468   8.054  1.2899 -2.1904  0.3120
 7434SOL     OW33763   1.896   2.667   3.277 -0.9600  0.3981 -0.3936
 7434SOL    HW133764   1.927   2.582   3.247  0.9620  0.4368  1.4517
 7434SOL    HW233765   1.975   2.681   3.329 -1.8798  3.0564  0.2891
 7435SOL     OW33766   1.813   3.545  15.294 -0.2087 -0.8696  0.3142
 7435SOL    HW133767   1.888   3.510  15.341 -0.8644 -0.7120  1.4870
 7435SOL    HW233768   1.794   3.632  15.327  0.9894 -1.0981  1.6211
 7436SOL     OW33769   2.239   2.208   4.709  0.1563 -0.0591  0.4018
 7436SOL    HW133770   2.205   2.219   4.620 -0.5553 -2.8013  0.3393
 7436SOL    HW233771   2.332   2.206   4.687  0.1236  1.0055  0.1962
 7437SOL     OW33772   2.726   2.338  13.179 -0.1618 -0.1594  0.1926
 7437SOL    HW133773   2.695   2.292  13.101  1.8974 -0.6233 -0.3418
 7437SOL    HW233774   2.652   2.332  13.240  0.9299  1.6174  1.6858
 7438SOL     OW33775   0.820   0.926   5.843  0.4702 -0.1268 -0.0146
 7438SOL    HW133776   0.755   0.874   5.889  1.3255 -0.5960  0.6648
 7438SOL    HW233777   0.770   0.976   5.780 -2.2256 -2.5097  0.2684
 7439SOL     OW33778   2.975   0.999   2.350  0.2326 -0.0593  0.5165
 7439SOL    HW133779   3.005   0.941   2.420  1.1793  1.6171  1.5048
 7439SOL    HW233780   2.907   1.042   2.402  0.2624  0.4066  0.1712
 7440SOL     OW33781   3.913   3.679   2.084 -0.0573 -0.0754 -0.1151
 7440SOL    HW133782   3.918   3.636   2.169  0.3414  0.8918  0.3540
 7440SOL    HW233783   3.981   3.626   2.041  1.3152  1.5883  0.0229
 7441SOL     OW33784   2.796   0.599   2.024 -0.1171 -0.4752 -0.4432
 7441SOL    HW133785   2.781   0.692   2.009 -2.6873 -0.8698 -0.3229
 7441SOL    HW233786   2.891   0.598   2.013  0.2683 -1.3360  2.7743
 7442SOL     OW33787   0.940   0.227   2.343  0.3444 -0.2999 -0.4462
 7442SOL    HW133788   0.874   0.160   2.324  0.0312 -0.2045  0.2721
 7442SOL    HW233789   0.975   0.254   2.258  1.5047 -1.5981 -0.3663
 7443SOL     OW33790   2.155   1.837   3.694 -0.4343  0.3003  0.3564
 7443SOL    HW133791   2.192   1.895   3.760 -1.6334 -0.1052  1.4084
 7443SOL    HW233792   2.059   1.840   3.695 -0.3268  3.5640  0.3741
 7444SOL     OW33793   3.582   0.633   4.056 -0.4359 -0.6537  0.2497
 7444SOL    HW133794   3.517   0.575   4.017 -0.5540  0.3226 -1.0049
 7444SOL    HW233795   3.552   0.722   4.036 -1.7540 -1.3427 -0.8895
 7445SOL     OW33796   3.437   4.129   2.982 -0.2427 -0.1690 -0.1621
 7445SOL    HW133797   3.453   4.215   3.019  4.6841 -0.3517 -1.8139
 7445SOL    HW233798   3.434   4.132   2.886 -2.6043  2.7181  0.0352
 7446SOL     OW33799   3.498   4.515   8.046  0.2538 -0.9437 -0.2621
 7446SOL    HW133800   3.482   4.511   7.952  1.9678  1.7709 -0.6665
 7446SOL    HW233801   3.411   4.511   8.086  0.2991 -1.1629 -0.1894
 7447SOL     OW33802   3.109   2.785   5.317  0.0315 -0.1283  0.4846
 7447SOL    HW133803   3.134   2.802   5.408  0.0754 -0.4875  0.5391
 7447SOL    HW233804   3.092   2.691   5.320 -1.4807  0.1041 -0.9630
 7448SOL     OW33805   1.533   3.006   7.873  0.1153 -0.4670  0.0995
 7448SOL    HW133806   1.481   3.000   7.953 -1.4896  1.3814 -0.8077
 7448SOL    HW233807   1.621   2.985   7.905 -0.4746 -1.9204  0.7521
 7449SOL     OW33808   1.630   0.981   6.571 -0.4355  0.1789  0.4796
 7449SOL    HW133809   1.542   0.951   6.547  0.7768 -2.8391 -0.2190
 7449SOL    HW233810   1.662   0.992   6.481 -0.4173 -2.1462  0.1851
 7450SOL     OW33811   2.623   0.009  16.247 -0.8088 -0.4351 -0.0553
 7450SOL    HW133812   2.690   4.716  16.180 -1.4287 -1.0146 -0.5745
 7450SOL    HW233813   2.554   0.042  16.190 -1.6868 -1.5568  0.3565
 7451SOL     OW33814   3.750   3.903  10.808 -0.0447  0.3204  0.1781
 7451SOL    HW133815   3.808   3.874  10.878  1.0052  4.1586  0.8845
 7451SOL    HW233816   3.766   3.830  10.748  0.4295  0.2061  0.4495
 7452SOL     OW33817   4.226   0.409   4.026 -0.4172 -0.1811 -0.2126
 7452SOL    HW133818   4.181   0.467   4.087  1.4156  2.0391 -0.9482
 7452SOL    HW233819   4.154   0.376   3.972 -1.4048  1.4874  0.0678
 7453SOL     OW33820   0.605   2.948   6.567 -0.1721 -0.1801 -0.0620
 7453SOL    HW133821   0.648   2.897   6.635  0.8140  0.5820 -0.1208
 7453SOL    HW233822   0.572   3.023   6.616  0.4357 -0.3291  0.5738
 7454SOL     OW33823   1.735   2.255   8.858 -0.6088  0.2634 -0.0568
 7454SOL    HW133824   1.671   2.232   8.790  0.0976  0.7829 -0.9062
 7454SOL    HW233825   1.684   2.299   8.925  1.0263  0.4078  1.0867
 7455SOL     OW33826   2.479   1.225   7.705  0.2931 -0.1002 -0.2366
 7455SOL    HW133827   2.436   1.165   7.766  0.6685 -1.9314 -1.7609
 7455SOL    HW233828   2.419   1.296   7.726  0.0223 -1.0886  2.4325
 7456SOL     OW33829   0.543   0.348   7.162 -0.2366 -0.0120  0.3442
 7456SOL    HW133830   0.501   0.324   7.245  1.2941  0.3278  1.2186
 7456SOL    HW233831   0.469   0.342   7.101  1.5604  2.2557 -2.0386
 7457SOL     OW33832   0.967   0.310   4.512 -0.0517  0.1868 -0.2379
 7457SOL    HW133833   1.048   0.357   4.528  0.3007 -0.6447  0.4276
 7457SOL    HW233834   1.000   0.258   4.439 -1.5386  1.0849 -1.5682
 7458SOL     OW33835   1.223   2.212  15.307  0.3821  0.3458  0.1402
 7458SOL    HW133836   1.213   2.280  15.240  0.9155 -1.2484 -1.5538
 7458SOL    HW233837   1.276   2.142  15.269 -3.2966 -1.5922 -1.3742
 7459SOL     OW33838   3.414   3.697   6.655 -0.3949  0.0446 -0.3783
 7459SOL    HW133839   3.331   3.730   6.620  0.3195  1.8786 -0.3455
 7459SOL    HW233840   3.465   3.777   6.645 -0.0544 -0.1558 -0.2282
 7460SOL     OW33841   3.517   1.971   9.091 -0.4135  0.5821  0.2918
 7460SOL    HW133842   3.561   1.924   9.020 -0.6459 -1.2428  1.3356
 7460SOL    HW233843   3.595   2.002   9.137 -0.8030  0.6808  0.8985
 7461SOL     OW33844   1.312   2.541   1.937  0.0021  0.6764  0.0638
 7461SOL    HW133845   1.396   2.529   1.891  0.8068  2.3580  1.1143
 7461SOL    HW233846   1.305   2.635   1.924 -1.5555  0.7853  1.7773
 7462SOL     OW33847   3.956   0.623   8.502  0.2228  0.3306  0.2385
 7462SOL    HW133848   4.019   0.669   8.558  0.2520  1.8947 -1.0878
 7462SOL    HW233849   4.020   0.562   8.466 -0.2551 -0.2945  0.4539
 7463SOL     OW33850   4.537   0.184   1.761  0.4674  0.5360  0.5808
 7463SOL    HW133851   4.451   0.171   1.800 -0.0927 -0.0074 -0.8552
 7463SOL    HW233852   4.549   0.279   1.755  2.2635  0.4066  1.9273
 7464SOL     OW33853   3.428   1.631  12.984 -0.2811  0.1444 -0.2367
 7464SOL    HW133854   3.471   1.642  12.900  0.6139 -0.6330  0.1235
 7464SOL    HW233855   3.506   1.616  13.037  0.2336  0.9254 -0.7794
 7465SOL     OW33856   0.442   1.586   7.028  0.6004 -0.5235 -0.2502
 7465SOL    HW133857   0.527   1.596   6.985  0.4352 -0.9525 -0.6845
 7465SOL    HW233858   0.457   1.535   7.107 -0.4375  0.5196  0.6305
 7466SOL     OW33859   4.354   1.116   2.758 -0.6114 -0.1470  0.2149
 7466SOL    HW133860   4.396   1.131   2.673 -1.2692 -0.0977 -0.1060
 7466SOL    HW233861   4.322   1.027   2.742  2.6977 -0.9635 -1.8788
 7467SOL     OW33862   4.697   4.368   2.177  0.0596  0.2327  0.5234
 7467SOL    HW133863   4.626   4.340   2.119  2.0251 -0.5464 -1.5435
 7467SOL    HW233864   4.673   4.460   2.181 -0.3954  0.1184  0.4169
 7468SOL     OW33865   1.827   1.922   9.331  0.0541  0.0458  0.0973
 7468SOL    HW133866   1.759   1.897   9.393  0.9579  2.4978  2.0826
 7468SOL    HW233867   1.792   2.006   9.300 -2.9702 -1.8633 -1.6887
 7469SOL     OW33868   1.296   2.963   6.724 -0.0582  0.2729 -0.0785
 7469SOL    HW133869   1.249   2.965   6.808 -1.0199 -1.6382 -0.5729
 7469SOL    HW233870   1.238   2.907   6.673  0.6827 -0.1562 -0.4553
 7470SOL     OW33871   3.525   3.873   3.103  0.2988  0.4262  0.3067
 7470SOL    HW133872   3.489   3.871   3.192 -0.8059 -1.6364 -0.1846
 7470SOL    HW233873   3.495   3.954   3.063 -1.6520 -0.8027 -0.6846
 7471SOL     OW33874   0.082   1.185   2.599 -0.0558  0.3879  0.0301
 7471SOL    HW133875   0.141   1.221   2.533 -0.4971 -1.1294 -1.1822
 7471SOL    HW233876   0.076   1.260   2.658  2.6442  1.4178 -0.9943
 7472SOL     OW33877   1.953   2.244   4.715  0.3865 -0.4890 -0.7200
 7472SOL    HW133878   2.036   2.236   4.763 -0.5226  0.4938  1.0469
 7472SOL    HW233879   1.929   2.151   4.706 -1.0520 -0.1889 -0.0657
 7473SOL     OW33880   1.577   2.944  11.187 -0.7267 -0.5940 -0.1293
 7473SOL    HW133881   1.562   2.862  11.233 -2.4360 -0.1050  0.1653
 7473SOL    HW233882   1.543   3.003  11.254 -1.2115  0.2450 -1.0998
 7474SOL     OW33883   2.016   3.821   7.786 -0.1423  0.2119 -0.2322
 7474SOL    HW133884   2.007   3.827   7.881  0.6799 -0.4890 -0.1093
 7474SOL    HW233885   2.105   3.850   7.767  0.5697 -1.2824  0.7522
 7475SOL     OW33886   0.495   0.273   5.585 -0.3100  0.0773 -0.5108
 7475SOL    HW133887   0.507   0.279   5.680 -1.7719 -0.3360 -0.3030
 7475SOL    HW233888   0.449   0.354   5.560  1.1598  1.2714  0.6809
 7476SOL     OW33889   2.293   4.617  12.349  0.1298 -0.2031 -0.2347
 7476SOL    HW133890   2.311   4.672  12.426 -1.9950  0.1481  0.0117
 7476SOL    HW233891   2.225   4.561  12.386 -0.2636 -0.4795 -1.3916
 7477SOL     OW33892   1.083   1.610  12.880 -0.2784  0.0369  0.2783
 7477SOL    HW133893   1.022   1.649  12.817 -0.9144 -0.7123  0.4175
 7477SOL    HW233894   1.139   1.546  12.835  1.1306  2.3573 -1.2557
 7478SOL     OW33895   2.191   3.284   1.261 -0.4025 -0.5021  0.3634
 7478SOL    HW133896   2.160   3.351   1.199  1.9089  0.7572  0.5785
 7478SOL    HW233897   2.107   3.246   1.285 -0.4472 -0.5677  0.1005
 7479SOL     OW33898   3.666   0.109  17.588  0.4914  0.2083  0.0098
 7479SOL    HW133899   3.627   0.182  17.636  0.3412 -0.1855  0.4843
 7479SOL    HW233900   3.595   0.045  17.585  0.5663  0.2594 -2.6755
 7480SOL     OW33901   1.797   2.180   3.065  0.1681  0.6474  0.1908
 7480SOL    HW133902   1.770   2.088   3.066 -0.1838  0.7529  0.5954
 7480SOL    HW233903   1.888   2.181   3.038  0.5316 -1.5292  1.3079
 7481SOL     OW33904   0.614   0.892   5.328  0.0621  0.2952 -0.2340
 7481SOL    HW133905   0.638   0.939   5.408 -1.1628  1.1782 -0.3925
 7481SOL    HW233906   0.701   0.854   5.316  0.4940  1.1841  0.1014
 7482SOL     OW33907   4.259   3.201  14.437 -0.4433 -0.1358  0.0759
 7482SOL    HW133908   4.196   3.197  14.508  0.2028 -0.7288  0.6118
 7482SOL    HW233909   4.190   3.169  14.379  1.8427 -1.7837 -1.7286
 7483SOL     OW33910   1.545   4.028   0.824  0.4128  0.7788  0.1208
 7483SOL    HW133911   1.623   4.035   0.879  1.4945 -0.2242 -1.2810
 7483SOL    HW233912   1.580   3.956   0.773  0.3428  0.0444  1.1201
 7484SOL     OW33913   1.818   1.649   6.035 -0.0086 -0.1259 -0.0894
 7484SOL    HW133914   1.766   1.710   5.983  0.6620 -1.0624 -1.8711
 7484SOL    HW233915   1.890   1.704   6.066  1.2293 -1.1706 -1.1129
 7485SOL     OW33916   0.732   4.415  15.913 -0.1395 -0.2320 -0.7796
 7485SOL    HW133917   0.715   4.397  16.006 -1.1884  0.0162 -0.9244
 7485SOL    HW233918   0.724   4.326  15.877  0.7248 -1.1342  1.2618
 7486SOL     OW33919   4.412   2.191   8.351 -0.4365  0.1769 -0.0286
 7486SOL    HW133920   4.364   2.144   8.418  0.4467 -2.3992 -1.2237
 7486SOL    HW233921   4.485   2.210   8.410 -1.4890  1.1222  0.9906
 7487SOL     OW33922   1.956   3.258   2.633  0.0010  0.2865  0.1328
 7487SOL    HW133923   2.018   3.243   2.704 -0.5685 -0.1105  0.5424
 7487SOL    HW233924   2.001   3.218   2.559 -1.7827 -1.2149 -0.1415
 7488SOL     OW33925   2.885   3.723   2.244  0.5507  0.0127  0.3435
 7488SOL    HW133926   2.967   3.755   2.283  0.6869 -0.5734  0.5410
 7488SOL    HW233927   2.838   3.693   2.322  1.3819  0.1950  0.9198
 7489SOL     OW33928   1.612   4.266   6.080  0.1338  0.3614  0.0825
 7489SOL    HW133929   1.695   4.222   6.062  1.6730  3.3964 -0.2170
 7489SOL    HW233930   1.603   4.319   6.000  1.3665  2.3865  1.2847
 7490SOL     OW33931   4.014   2.802   6.595 -0.0183  0.0228 -0.5087
 7490SOL    HW133932   4.101   2.794   6.634  0.4332 -0.3259 -1.5908
 7490SOL    HW233933   3.952   2.756   6.651  1.3595 -1.6543 -0.3441
 7491SOL     OW33934   2.241   3.692  12.903  0.1690  0.3232 -0.1760
 7491SOL    HW133935   2.166   3.709  12.959 -0.6091  0.0280 -1.1360
 7491SOL    HW233936   2.288   3.775  12.912 -0.8355  1.1510 -2.5085
 7492SOL     OW33937   1.092   2.981  12.102  0.0653  0.0058  0.3830
 7492SOL    HW133938   1.065   2.929  12.178 -1.2998  2.3180  1.4915
 7492SOL    HW233939   1.033   2.956  12.031  0.5234  0.0718 -0.0169
 7493SOL     OW33940   1.131   1.759  12.220 -0.4315 -0.6755  0.0878
 7493SOL    HW133941   1.199   1.693  12.236  1.6342  1.0526 -1.7751
 7493SOL    HW233942   1.134   1.762  12.125 -0.9682  1.3018  0.1425
 7494SOL     OW33943   2.582   4.113  15.514 -0.1399  0.1798  0.3059
 7494SOL    HW133944   2.586   4.207  15.502  0.7560  0.3851  2.2254
 7494SOL    HW233945   2.670   4.094  15.547 -0.6399 -0.0789  1.4956
 7495SOL     OW33946   1.601   2.931   6.918  0.2297  0.1469  0.5197
 7495SOL    HW133947   1.567   3.019   6.899 -2.5982 -1.2213 -0.7053
 7495SOL    HW233948   1.570   2.925   7.008  1.9611 -2.6458  0.9157
 7496SOL     OW33949   0.639   2.663   7.832 -0.4689 -0.1192  0.1745
 7496SOL    HW133950   0.578   2.634   7.765 -2.1209 -0.6528  1.8974
 7496SOL    HW233951   0.603   2.620   7.910  1.0418 -2.1800 -0.2536
 7497SOL     OW33952   3.727   2.657  14.949 -0.4102  0.3915 -0.5564
 7497SOL    HW133953   3.665   2.585  14.940  0.3429 -0.2754 -0.3914
 7497SOL    HW233954   3.699   2.714  15.021  2.7130  0.5929  0.5366
 7498SOL     OW33955   0.629   2.056   7.548  0.1696 -0.2668 -0.0613
 7498SOL    HW133956   0.645   2.007   7.630  0.3045 -0.4070 -0.1710
 7498SOL    HW233957   0.692   2.127   7.549  0.8268 -0.8418 -0.9996
 7499SOL     OW33958   0.536   2.800   8.818 -0.4255  0.1868  0.0349
 7499SOL    HW133959   0.549   2.885   8.860 -0.2645  1.1800 -2.0046
 7499SOL    HW233960   0.462   2.765   8.867  2.2824 -3.2360  1.7284
 7500SOL     OW33961   1.255   2.392   6.949 -0.2476  0.0100 -0.3718
 7500SOL    HW133962   1.255   2.308   6.995  2.0891  1.2244  1.8483
 7500SOL    HW233963   1.349   2.404   6.938  0.0535 -2.9646 -1.0885
 7501SOL     OW33964   1.859   3.415   6.475  0.7016 -0.0088  0.1312
 7501SOL    HW133965   1.877   3.321   6.477 -1.8208 -0.4384  2.3183
 7501SOL    HW233966   1.901   3.432   6.391 -0.3903  0.5650 -0.2947
 7502SOL     OW33967   4.548   1.658   8.313  0.0500  0.0301 -0.4776
 7502SOL    HW133968   4.591   1.641   8.396 -0.4085 -0.8049 -0.4107
 7502SOL    HW233969   4.613   1.718   8.277  1.8691 -0.4342  2.0452
 7503SOL     OW33970   1.833   2.607   2.761  0.5435  0.5420 -0.5364
 7503SOL    HW133971   1.848   2.518   2.729  1.5492  0.6139 -0.2624
 7503SOL    HW233972   1.903   2.605   2.826 -0.6042 -1.5689  0.6337
 7504SOL     OW33973   2.613   0.089   8.485  0.4320  0.1081  0.5831
 7504SOL    HW133974   2.666   0.059   8.411  0.4596 -1.7862  1.3751
 7504SOL    HW233975   2.523   0.099   8.454  0.3065  0.9818  1.2354
 7505SOL     OW33976   3.984   0.670   0.043  0.3783 -0.1103 -0.7806
 7505SOL    HW133977   4.018   0.666   0.132  0.3971 -0.7255 -0.8108
 7505SOL    HW233978   3.902   0.622   0.053  1.2655 -1.3083  0.8987
 7506SOL     OW33979   2.528   2.557  16.577  0.0884  0.3093 -0.0101
 7506SOL    HW133980   2.469   2.518  16.512  1.4182 -2.2763  0.3073
 7506SOL    HW233981   2.590   2.485  16.590 -0.4310 -0.0133  0.6498
 7507SOL     OW33982   2.973   4.530   0.198  0.2686  0.0103  0.0703
 7507SOL    HW133983   3.010   4.589   0.132  2.2942 -1.8073 -0.4307
 7507SOL    HW233984   3.051   4.524   0.253  0.5836 -0.8924 -0.4867
 7508SOL     OW33985   0.190   2.862   1.993 -0.9070 -0.1389 -0.4161
 7508SOL    HW133986   0.245   2.803   1.942 -0.4723 -2.6353  2.9568
 7508SOL    HW233987   0.127   2.888   1.925 -2.4448  0.3885  1.2024
 7509SOL     OW33988   2.248   2.898   6.475  0.4618 -0.1586  0.5208
 7509SOL    HW133989   2.240   2.802   6.478 -0.8085 -0.1069 -1.2330
 7509SOL    HW233990   2.194   2.912   6.397  1.7884 -0.4496 -0.4640
 7510SOL     OW33991   3.420   3.548   7.986  0.3823  0.6272 -0.0229
 7510SOL    HW133992   3.437   3.624   8.042 -0.6046  0.0326  1.0689
 7510SOL    HW233993   3.507   3.514   7.964 -0.7007 -1.8190 -0.4714
 7511SOL     OW33994   2.064   4.007   8.734 -0.1354 -0.5596 -0.4581
 7511SOL    HW133995   2.120   4.029   8.808  0.5227  1.8423 -1.6648
 7511SOL    HW233996   2.036   4.091   8.697  3.1410  0.4440 -0.6632
 7512SOL     OW33997   0.166   2.564  15.145 -0.1772 -0.0798  0.0756
 7512SOL    HW133998   0.107   2.613  15.088  0.4596 -0.9602 -1.3623
 7512SOL    HW233999   0.245   2.591  15.099  1.1828 -2.3792  1.0749
 7513SOL     OW34000   1.963   1.208   6.593 -0.1121 -0.1397 -0.0620
 7513SOL    HW134001   1.975   1.228   6.500 -0.2862  0.5125  0.0551
 7513SOL    HW234002   2.045   1.238   6.632 -0.7110  2.3548 -0.6625
 7514SOL     OW34003   4.710   0.412  10.179  0.2841 -0.0711  1.0445
 7514SOL    HW134004   0.009   0.322  10.153  0.6583 -0.0900  1.3653
 7514SOL    HW234005   0.084   0.439  10.175 -0.9707  4.0520  0.2728
 7515SOL     OW34006   1.353   1.108   8.571 -0.2911  0.1701 -0.8662
 7515SOL    HW134007   1.367   1.178   8.635 -0.7042 -0.0989 -0.4797
 7515SOL    HW234008   1.259   1.098   8.557 -0.7310  2.2003  0.7658
 7516SOL     OW34009   1.664   4.491  10.090 -0.2306 -0.3084  0.0021
 7516SOL    HW134010   1.624   4.436  10.023 -0.6434 -0.8811  0.7200
 7516SOL    HW234011   1.718   4.550  10.037  0.2902 -0.1307  0.7316
 7517SOL     OW34012   1.483   1.022   5.122  0.2254  0.5461  1.0273
 7517SOL    HW134013   1.411   1.063   5.073  2.0938 -0.1314 -2.3410
 7517SOL    HW234014   1.438   0.961   5.180 -0.5673 -0.5094 -0.6822
 7518SOL     OW34015   3.801   0.684  15.501  0.1423 -0.1709  0.1706
 7518SOL    HW134016   3.802   0.767  15.454 -0.4768 -0.5313 -0.4778
 7518SOL    HW234017   3.779   0.617  15.436  3.2744  0.0083 -1.0766
 7519SOL     OW34018   1.187   1.595   7.992 -0.0165 -0.2251 -0.1999
 7519SOL    HW134019   1.240   1.549   8.057 -0.1708  1.8094  1.3597
 7519SOL    HW234020   1.155   1.677   8.031 -0.2118 -0.6837  0.5926
 7520SOL     OW34021   3.240   2.263  14.278  0.1945  0.1893 -0.2995
 7520SOL    HW134022   3.203   2.220  14.200 -2.3087 -0.2334  1.1337
 7520SOL    HW234023   3.330   2.230  14.274  0.2257  0.2272  0.1176
 7521SOL     OW34024   1.390   3.548  10.130  0.0609 -0.1827 -0.1609
 7521SOL    HW134025   1.414   3.504  10.212  1.1483 -1.8142 -1.3516
 7521SOL    HW234026   1.319   3.603  10.162 -0.2703 -0.3684 -0.5875
 7522SOL     OW34027   1.372   0.334   7.848  0.1138 -0.0181 -0.5302
 7522SOL    HW134028   1.342   0.273   7.914 -1.6324  0.2374 -1.0758
 7522SOL    HW234029   1.410   0.273   7.784  1.1643 -0.6968  0.7482
 7523SOL     OW34030   1.356   1.066   3.628 -0.3821  0.0792  0.0735
 7523SOL    HW134031   1.337   1.082   3.720 -3.3538  1.5244 -0.7875
 7523SOL    HW234032   1.386   0.975   3.629  0.0523  0.1799 -2.6322
 7524SOL     OW34033   0.933   4.656  12.223  0.1845 -0.5456 -0.2856
 7524SOL    HW134034   0.884   4.575  12.235 -0.3877  0.1387  1.9727
 7524SOL    HW234035   0.987   4.616  12.155 -0.2330 -0.4840 -0.6530
 7525SOL     OW34036   2.150   2.090   9.335  0.3914 -0.0356  0.0693
 7525SOL    HW134037   2.210   2.161   9.314  0.4398 -0.3839 -0.9597
 7525SOL    HW234038   2.119   2.112   9.423 -0.3134  0.6731 -0.3574
 7526SOL     OW34039   3.119   2.632  10.474  0.2011 -0.2958 -0.0038
 7526SOL    HW134040   3.211   2.659  10.478  0.8091 -2.4785  0.9179
 7526SOL    HW234041   3.085   2.634  10.563 -1.6291 -0.4811 -0.7004
 7527SOL     OW34042   3.367   0.201   8.347  0.5077  0.1739 -0.0392
 7527SOL    HW134043   3.305   0.156   8.405  0.8513  0.1242  0.2881
 7527SOL    HW234044   3.425   0.130   8.323 -1.1756 -0.7552 -1.3028
 7528SOL     OW34045   3.235   2.557   5.611  0.1553  0.1155 -0.1125
 7528SOL    HW134046   3.315   2.518   5.574  0.1772 -0.8362  0.9158
 7528SOL    HW234047   3.233   2.647   5.580 -0.3249  0.6374  1.4333
 7529SOL     OW34048   2.790   2.705   9.993  0.0050 -0.4644 -0.1624
 7529SOL    HW134049   2.873   2.701   9.944 -0.4701  0.9774 -1.0721
 7529SOL    HW234050   2.804   2.792  10.030  0.5920 -1.6318  2.3788
 7530SOL     OW34051   2.464   2.765   8.359 -0.3043  0.4156 -0.4859
 7530SOL    HW134052   2.394   2.779   8.423  0.4231  0.3828  0.3185
 7530SOL    HW234053   2.415   2.693   8.321 -0.7168  0.5086 -0.1389
 7531SOL     OW34054   1.975   2.205   7.262  0.0940  0.3196 -0.3011
 7531SOL    HW134055   1.886   2.179   7.284 -0.0301 -0.2880 -1.5311
 7531SOL    HW234056   2.013   2.204   7.350  4.0914  0.5817 -2.0355
 7532SOL     OW34057   1.499   3.520   5.309  0.3065  0.8776 -0.0784
 7532SOL    HW134058   1.529   3.464   5.237 -4.6876  1.1753 -2.4069
 7532SOL    HW234059   1.559   3.594   5.299  0.2307  0.6855 -1.9029
 7533SOL     OW34060   0.021   4.573   6.191  0.0370  0.0189  0.1235
 7533SOL    HW134061   0.048   4.519   6.266 -0.3536 -1.4848 -0.8237
 7533SOL    HW234062   4.644   4.562   6.190  0.0649 -0.4138  1.4482
 7534SOL     OW34063   1.447   2.996   8.537 -0.1603 -0.3481  0.1924
 7534SOL    HW134064   1.474   3.000   8.629  2.9522 -0.2044 -0.7273
 7534SOL    HW234065   1.532   2.978   8.498 -0.7161 -1.2467 -0.6016
 7535SOL     OW34066   2.999   4.494   3.015 -0.4169 -0.5697 -0.1885
 7535SOL    HW134067   3.072   4.546   2.982 -0.3324 -0.6960 -0.2015
 7535SOL    HW234068   3.014   4.417   2.960  1.5045 -0.1019 -0.2981
 7536SOL     OW34069   3.440   3.422   7.404  0.0451  0.4018  0.0060
 7536SOL    HW134070   3.461   3.494   7.345  1.8778 -0.2397 -0.1507
 7536SOL    HW234071   3.347   3.415   7.382 -0.4355  4.8558  0.6434
 7537SOL     OW34072   3.943   1.275   5.617  0.2207  0.0211 -0.2284
 7537SOL    HW134073   4.011   1.232   5.669 -1.2948 -0.1235  1.6732
 7537SOL    HW234074   3.977   1.281   5.528  0.2130  0.4419 -0.2004
 7538SOL     OW34075   1.139   3.214   6.155 -0.8608 -0.8097 -0.0293
 7538SOL    HW134076   1.054   3.250   6.131  0.1376  1.6026  0.0100
 7538SOL    HW234077   1.152   3.167   6.073  0.1647  1.0411 -0.9315
 7539SOL     OW34078   0.800   4.422   6.989 -0.6387 -0.9548  0.5667
 7539SOL    HW134079   0.858   4.472   7.047  0.4911  0.7673 -2.0872
 7539SOL    HW234080   0.714   4.414   7.030 -1.4371  0.2593 -0.9113
 7540SOL     OW34081   3.358   2.684   5.962  0.1289 -0.0569  0.6382
 7540SOL    HW134082   3.365   2.743   5.886 -2.1830 -1.5715 -0.7674
 7540SOL    HW234083   3.382   2.599   5.924 -1.0574 -0.3900  0.6389
 7541SOL     OW34084   1.900   0.499   4.195 -0.1940 -0.2808  0.0045
 7541SOL    HW134085   1.987   0.490   4.155 -0.8132  1.1860 -1.6768
 7541SOL    HW234086   1.843   0.484   4.120  0.4846  1.9118 -0.9672
 7542SOL     OW34087   1.832   4.676   5.634  0.6484 -0.3708  0.5044
 7542SOL    HW134088   1.823   4.619   5.711  0.6548 -4.5336 -2.5433
 7542SOL    HW234089   1.922   4.654   5.610  0.4540 -0.1034 -0.4896
 7543SOL     OW34090   0.215   2.207   8.512  0.1184 -0.4762 -0.6320
 7543SOL    HW134091   0.297   2.218   8.559 -0.5122 -1.4545  0.6846
 7543SOL    HW234092   0.170   2.285   8.545  1.7078 -0.8336  2.3604
 7544SOL     OW34093   4.261   3.126   7.546  0.2794 -0.7832 -0.3144
 7544SOL    HW134094   4.170   3.120   7.518  0.3723 -0.6612 -0.6454
 7544SOL    HW234095   4.244   3.094   7.635 -1.7588  1.4152  0.0914
 7545SOL     OW34096   2.339   1.370  16.821  0.1484  0.2995  0.3001
 7545SOL    HW134097   2.393   1.392  16.896  0.1444  0.2989  0.3031
 7545SOL    HW234098   2.263   1.333  16.865  0.5054 -0.0651  0.6069
 7546SOL     OW34099   1.000   2.822   1.353 -0.1215  0.2364 -0.4847
 7546SOL    HW134100   1.070   2.854   1.297 -0.8910  0.5645 -1.2667
 7546SOL    HW234101   1.028   2.733   1.372  0.1284  0.5056  0.4125
 7547SOL     OW34102   3.345   2.985   6.667 -0.2232  0.2800  0.0970
 7547SOL    HW134103   3.308   2.962   6.582  0.5888 -0.3319 -0.0855
 7547SOL    HW234104   3.421   3.040   6.647 -0.2500 -0.6125 -2.4092
 7548SOL     OW34105   4.714   3.052  12.482 -0.0412  0.0832  0.5288
 7548SOL    HW134106   0.079   3.070  12.526  1.0735  0.4198 -1.7473
 7548SOL    HW234107   4.659   3.082  12.555 -2.1973  2.0577 -1.9140
 7549SOL     OW34108   4.127   3.527  14.768 -0.2152 -0.0053  0.0061
 7549SOL    HW134109   4.182   3.450  14.780  0.6979  0.4517 -1.2324
 7549SOL    HW234110   4.190   3.600  14.771  0.6137 -0.7243 -0.0001
 7550SOL     OW34111   0.526   1.978   5.019  0.3422  0.1361 -0.1185
 7550SOL    HW134112   0.555   1.887   5.027 -0.2258  0.0947  1.5588
 7550SOL    HW234113   0.507   1.983   4.926 -0.2949  0.2807  0.0198
 7551SOL     OW34114   3.801   3.088   6.254  0.2438  0.7843 -0.0498
 7551SOL    HW134115   3.815   3.155   6.320  1.9022  1.8933 -1.5184
 7551SOL    HW234116   3.877   3.031   6.251 -2.1135 -2.2835 -2.0609
 7552SOL     OW34117   3.215   0.676   3.513  0.1066  0.0887 -0.4418
 7552SOL    HW134118   3.307   0.696   3.498  0.1460 -1.2662 -2.0163
 7552SOL    HW234119   3.215   0.603   3.575  1.0522  0.1944 -0.3172
 7553SOL     OW34120   4.135   1.914   0.429  0.2765 -0.2897  0.2864
 7553SOL    HW134121   4.195   1.862   0.377  0.5867  0.3459  0.0038
 7553SOL    HW234122   4.190   1.969   0.485  0.9567 -0.4648 -0.2199
 7554SOL     OW34123   1.642   2.209   6.794  0.2222  0.0246  0.1264
 7554SOL    HW134124   1.664   2.246   6.879  0.0606  0.6302 -0.0992
 7554SOL    HW234125   1.601   2.280   6.746  1.6907  0.3709 -0.6249
 7555SOL     OW34126   1.178   0.667   3.528  0.1228  0.1632 -0.6101
 7555SOL    HW134127   1.133   0.630   3.452 -0.1371 -0.7371 -0.0113
 7555SOL    HW234128   1.115   0.734   3.557  0.1147 -0.9480  1.9176
 7556SOL     OW34129   1.873   3.541   1.858  0.2608  0.1638 -0.2964
 7556SOL    HW134130   1.783   3.574   1.858  0.2966  0.2678  1.1552
 7556SOL    HW234131   1.863   3.446   1.864 -2.1242  0.4295 -0.0700
 7557SOL     OW34132   4.035   0.984   5.381 -0.1306 -0.0298  0.3841
 7557SOL    HW134133   4.116   1.013   5.337  0.1567 -1.5705 -0.1121
 7557SOL    HW234134   4.040   0.889   5.366  0.3324 -0.2398  1.8229
 7558SOL     OW34135   1.512   0.171   8.333  0.0858 -0.1520  0.0118
 7558SOL    HW134136   1.547   0.085   8.310 -3.1580 -0.9567 -1.8770
 7558SOL    HW234137   1.418   0.156   8.320  0.6997 -2.2295 -1.8784
 7559SOL     OW34138   1.821   2.592   8.532 -0.3019 -0.2262 -0.5374
 7559SOL    HW134139   1.775   2.563   8.454 -0.0730  0.6203 -0.9831
 7559SOL    HW234140   1.867   2.513   8.561  0.1545  0.1842 -0.1349
 7560SOL     OW34141   4.441   1.861   1.347  0.3618  0.1893 -0.0076
 7560SOL    HW134142   4.424   1.923   1.418  0.1204 -0.4422  0.4926
 7560SOL    HW234143   4.384   1.790   1.377  0.0960  0.7503  0.8062
 7561SOL     OW34144   1.824   3.657   4.098 -0.0169 -0.2684 -0.1062
 7561SOL    HW134145   1.762   3.729   4.111  0.9884  0.5800  0.0579
 7561SOL    HW234146   1.906   3.708   4.098  0.4515 -1.0130 -0.5120
 7562SOL     OW34147   2.020   1.966   7.658  0.4746  0.4008  0.2774
 7562SOL    HW134148   1.962   1.895   7.631 -0.4126  0.9784  0.6749
 7562SOL    HW234149   2.100   1.916   7.674  1.5962  1.4637 -1.9388
 7563SOL     OW34150   1.317   2.758   3.335  0.3346 -0.3985 -0.0813
 7563SOL    HW134151   1.397   2.706   3.335  0.3039 -0.4556 -1.9660
 7563SOL    HW234152   1.350   2.838   3.374 -1.6428  0.4707 -0.1632
 7564SOL     OW34153   1.823   4.570  11.656  0.5412  0.2235  0.1768
 7564SOL    HW134154   1.887   4.503  11.679  2.1353  0.8693 -2.3943
 7564SOL    HW234155   1.750   4.513  11.630 -0.3362  1.3781  0.1072
 7565SOL     OW34156   1.843   3.056   1.108 -0.7533 -0.4731 -0.4509
 7565SOL    HW134157   1.865   3.015   1.192 -0.9350  1.7158  0.6656
 7565SOL    HW234158   1.764   3.103   1.134 -1.0162 -1.2534  0.1780
 7566SOL     OW34159   0.975   0.106   2.586 -0.0159 -0.4322  0.2893
 7566SOL    HW134160   0.954   0.130   2.496  0.1816 -0.1849  0.3112
 7566SOL    HW234161   1.054   0.158   2.600  0.0585 -0.1944 -1.0169
 7567SOL     OW34162   4.450   0.430   8.327  0.2284 -0.9136 -0.2145
 7567SOL    HW134163   4.481   0.520   8.324 -0.3932 -0.7531 -2.0958
 7567SOL    HW234164   4.367   0.444   8.281  0.5475 -1.2832 -0.8952
 7568SOL     OW34165   2.969   2.171   7.728  0.2862  0.3934 -0.1256
 7568SOL    HW134166   2.989   2.231   7.656 -0.5159 -0.0575 -0.7201
 7568SOL    HW234167   2.912   2.106   7.687  0.4929 -1.3212  2.2980
 7569SOL     OW34168   2.532   3.575   3.249  0.0216 -0.1801 -0.6015
 7569SOL    HW134169   2.454   3.533   3.283 -0.7867  2.0713  0.3194
 7569SOL    HW234170   2.554   3.512   3.180 -0.4253 -1.7601  0.7011
 7570SOL     OW34171   1.530   4.376   9.834  0.1978 -0.2603 -0.1490
 7570SOL    HW134172   1.462   4.309   9.833  0.4129 -0.5129  1.9258
 7570SOL    HW234173   1.607   4.320   9.845  0.7934  0.3974 -0.9699
 7571SOL     OW34174   4.404   1.106   0.776  0.6138  0.3080 -0.2649
 7571SOL    HW134175   4.479   1.087   0.720  0.4136 -1.2538  0.0009
 7571SOL    HW234176   4.330   1.068   0.729  0.4698 -0.6719  0.7422
 7572SOL     OW34177   1.535   1.806   7.343 -0.4494  0.5888 -0.2535
 7572SOL    HW134178   1.487   1.756   7.409 -0.4496  0.4546 -0.3547
 7572SOL    HW234179   1.549   1.749   7.267 -1.3271  1.7863 -1.3156
 7573SOL     OW34180   3.668   1.075   2.004 -0.5381  0.2300  0.5089
 7573SOL    HW134181   3.619   1.083   1.922  0.5299 -0.1471 -0.1707
 7573SOL    HW234182   3.603   1.096   2.071 -1.8754  0.2160 -0.7956
 7574SOL     OW34183   2.580   2.567   8.896 -0.0272 -0.0157 -0.9197
 7574SOL    HW134184   2.602   2.478   8.870  1.4228  0.3255 -0.8796
 7574SOL    HW234185   2.627   2.615   8.827  0.6815 -0.7341 -0.9368
 7575SOL     OW34186   1.094   0.835   6.972  0.4195  0.0295 -0.0201
 7575SOL    HW134187   1.039   0.789   6.909 -1.8235  0.6808  1.4603
 7575SOL    HW234188   1.046   0.815   7.052  0.8762  2.1607  0.8017
 7576SOL     OW34189   0.486   3.983   7.195 -0.0006  0.0721  0.1672
 7576SOL    HW134190   0.439   4.061   7.167 -2.3329 -1.1618  0.6220
 7576SOL    HW234191   0.417   3.921   7.173 -1.0370  0.8785  1.1081
 7577SOL     OW34192   2.609   1.434   8.407  0.1308 -0.5168  0.0223
 7577SOL    HW134193   2.696   1.475   8.411  0.6575 -1.4772 -1.3139
 7577SOL    HW234194   2.582   1.425   8.498  2.3758  1.0078  0.8372
 7578SOL     OW34195   4.598   2.294   0.759 -0.4421 -0.1977  0.3301
 7578SOL    HW134196   4.672   2.241   0.790  0.7897  3.4618  3.5276
 7578SOL    HW234197   4.648   2.349   0.698 -0.7226 -1.3696 -0.9785
 7579SOL     OW34198   1.780   0.095   7.095  0.4448  0.3632 -0.0840
 7579SOL    HW134199   1.799   0.083   7.188  1.3046 -0.7010 -0.3972
 7579SOL    HW234200   1.691   0.059   7.090  0.6708 -0.1148 -0.6363
 7580SOL     OW34201   3.321   1.779   9.144 -0.2255  0.2203 -0.0094
 7580SOL    HW134202   3.393   1.842   9.144 -1.2037  1.3584  1.0591
 7580SOL    HW234203   3.350   1.719   9.213 -0.1472 -0.4373 -0.6125
 7581SOL     OW34204   3.216   3.398  10.413  0.0921  0.1220 -0.2240
 7581SOL    HW134205   3.261   3.404  10.328  1.6571  0.2593  0.6210
 7581SOL    HW234206   3.246   3.479  10.454 -1.0602 -0.2631  1.3536
 7582SOL     OW34207   4.436   0.088   8.638 -0.0271 -0.2198 -0.1598
 7582SOL    HW134208   4.472   0.000   8.645 -3.5794 -1.7260 -0.7008
 7582SOL    HW234209   4.346   0.067   8.612  0.0138 -0.0858 -0.4070
 7583SOL     OW34210   1.984   2.595   4.851  0.4042 -0.3367  0.0303
 7583SOL    HW134211   2.076   2.618   4.861  0.4597 -0.3172 -0.5189
 7583SOL    HW234212   1.981   2.562   4.761  2.2546 -1.0320  0.2448
 7584SOL     OW34213   2.385   1.236   8.874 -0.0961  0.3542 -0.0837
 7584SOL    HW134214   2.476   1.220   8.847 -0.7980 -1.4940 -1.3151
 7584SOL    HW234215   2.370   1.326   8.847  1.2954  0.8589  0.8345
 7585SOL     OW34216   1.194   4.390   4.698  0.3498 -0.1647 -0.1108
 7585SOL    HW134217   1.204   4.355   4.610 -1.3351 -1.9994  0.4338
 7585SOL    HW234218   1.276   4.373   4.745 -0.8448 -0.6527  1.7948
 7586SOL     OW34219   0.748   3.938   3.090  0.4659  0.4491 -0.3423
 7586SOL    HW134220   0.839   3.913   3.075  0.8840  1.9486 -0.2981
 7586SOL    HW234221   0.708   3.870   3.035  2.5793 -2.0816  1.2442
 7587SOL     OW34222   3.262   1.012  14.072 -0.8480 -0.7788 -0.8346
 7587SOL    HW134223   3.177   1.054  14.085 -0.3646  0.1138 -0.5912
 7587SOL    HW234224   3.273   0.965  14.154  0.3449  0.3586 -0.3440
 7588SOL     OW34225   4.207   1.407   2.540 -0.3902 -0.0140  0.4367
 7588SOL    HW134226   4.122   1.385   2.578 -0.4139  0.9358  0.9357
 7588SOL    HW234227   4.191   1.370   2.453 -0.2918 -0.6684  0.6975
 7589SOL     OW34228   3.972   3.175   3.026 -0.0318  0.0420 -0.2470
 7589SOL    HW134229   3.955   3.247   2.966 -0.7567 -0.9126 -1.1905
 7589SOL    HW234230   4.063   3.196   3.048 -0.2075 -0.2401  0.7372
 7590SOL     OW34231   3.499   2.632   0.197 -0.1591 -0.1700 -0.0192
 7590SOL    HW134232   3.470   2.542   0.212  0.6088 -0.0602  2.0895
 7590SOL    HW234233   3.586   2.613   0.164  1.1406  3.4420  1.3576
 7591SOL     OW34234   2.648   0.274   2.984  0.4522  0.4092 -0.5064
 7591SOL    HW134235   2.697   0.354   2.967  1.8123  0.0249  1.5823
 7591SOL    HW234236   2.595   0.274   2.904  1.6203 -1.3612 -1.2854
 7592SOL     OW34237   1.036   1.173   2.087 -0.3700  0.6134  0.1770
 7592SOL    HW134238   1.099   1.223   2.035  0.2030  1.2578  1.5077
 7592SOL    HW234239   1.048   1.087   2.048  2.0756  2.2299 -2.6899
 7593SOL     OW34240   2.584   0.973   3.117  0.3791  0.0406 -0.2538
 7593SOL    HW134241   2.511   1.000   3.173  1.5142  0.7820  0.8669
 7593SOL    HW234242   2.641   1.050   3.127  1.6490 -1.1550  1.7382
 7594SOL     OW34243   4.085   4.655   8.280 -0.5192  0.2706 -0.1258
 7594SOL    HW134244   4.100   0.007   8.217 -0.0203 -1.2187 -1.6606
 7594SOL    HW234245   4.174   4.641   8.311 -0.7752 -0.6070  0.2291
 7595SOL     OW34246   3.329   3.290  17.300 -0.0167 -0.5553 -0.5864
 7595SOL    HW134247   3.376   3.371  17.281  0.3001 -0.7951 -0.8235
 7595SOL    HW234248   3.367   3.266  17.384  1.3525  0.3861 -0.9335
 7596SOL     OW34249   1.724   2.441   8.072 -0.0437  0.0682 -0.0141
 7596SOL    HW134250   1.711   2.371   8.008  2.4214  0.5271 -1.0264
 7596SOL    HW234251   1.768   2.504   8.015  2.9788 -0.4401  1.7190
 7597SOL     OW34252   0.275   0.723   3.151 -0.1116 -0.0851  0.4410
 7597SOL    HW134253   0.247   0.659   3.086 -1.6457  0.1576  0.8699
 7597SOL    HW234254   0.369   0.704   3.159  0.3802  1.2124 -2.3882
 7598SOL     OW34255   2.270   4.194   6.312  0.1416 -0.6104 -0.0344
 7598SOL    HW134256   2.199   4.226   6.255 -2.4224 -0.2743  3.2990
 7598SOL    HW234257   2.323   4.273   6.301  0.9806 -1.2337 -0.3721
 7599SOL     OW34258   1.869   3.026  16.753 -0.0006 -0.1930 -0.2447
 7599SOL    HW134259   1.784   3.006  16.794 -2.1149  2.9792 -3.0322
 7599SOL    HW234260   1.934   3.026  16.823 -0.3430  0.9469  0.0735
 7600SOL     OW34261   0.689   1.317   6.773  0.1577  0.0848 -0.2253
 7600SOL    HW134262   0.626   1.382   6.742 -1.3303 -0.3009  2.0258
 7600SOL    HW234263   0.632   1.240   6.774  0.9941 -0.5116  1.5355
 7601SOL     OW34264   4.139   3.171   6.295  0.0390 -0.3060 -0.1846
 7601SOL    HW134265   4.125   3.106   6.227 -1.3032 -0.2799  0.0624
 7601SOL    HW234266   4.153   3.109   6.367  0.6349 -2.3684 -2.0980
 7602SOL     OW34267   1.220   1.915  14.303  0.6777  0.0911 -0.1381
 7602SOL    HW134268   1.150   1.947  14.359  0.6110  1.4746 -1.0189
 7602SOL    HW234269   1.277   1.992  14.306 -0.9205  1.3230 -1.4639
 7603SOL     OW34270   0.892   3.719   3.566  0.0619  0.0760 -0.3770
 7603SOL    HW134271   0.944   3.639   3.572 -2.2410 -1.3052  0.8008
 7603SOL    HW234272   0.880   3.717   3.471  0.3985  1.1502 -0.4474
 7604SOL     OW34273   4.701   1.068  16.020  0.0679  0.5075 -0.2739
 7604SOL    HW134274   4.682   1.122  15.944 -1.9995  0.5517  0.2653
 7604SOL    HW234275   4.681   0.983  15.980 -1.3040  1.4313 -1.5480
 7605SOL     OW34276   3.240   4.286   2.475  0.7471  0.2959  0.4039
 7605SOL    HW134277   3.189   4.349   2.527 -0.8455 -0.3453 -0.3906
 7605SOL    HW234278   3.280   4.350   2.417  1.5784 -0.2295  0.4096
 7606SOL     OW34279   0.023   0.317  11.777  0.2038  0.7613  0.4119
 7606SOL    HW134280   0.031   0.295  11.870  1.0784  1.9156  0.6107
 7606SOL    HW234281   4.646   0.323  11.769  0.1423 -2.1919 -1.0838
 7607SOL     OW34282   4.309   1.821  15.745  0.2823  0.0256 -0.0456
 7607SOL    HW134283   4.261   1.742  15.769  0.1832 -0.8344 -3.0735
 7607SOL    HW234284   4.342   1.806  15.656  1.9024  1.6813  0.2690
 7608SOL     OW34285   1.025   1.922   8.667 -0.1520  0.0800  0.3976
 7608SOL    HW134286   1.105   1.955   8.625 -0.5261 -2.9207 -2.7701
 7608SOL    HW234287   1.063   1.844   8.707  0.2081 -0.4405 -0.9566
 7609SOL     OW34288   2.253   4.119  12.864  0.0178  0.0236 -0.3456
 7609SOL    HW134289   2.277   4.081  12.949 -0.9549 -0.4432 -0.2879
 7609SOL    HW234290   2.340   4.120  12.824  1.8371 -0.2624  3.5488
 7610SOL     OW34291   1.004   0.701   4.848  0.0425 -0.2440  0.2627
 7610SOL    HW134292   0.952   0.647   4.909 -2.0773 -1.2750 -2.4351
 7610SOL    HW234293   0.960   0.785   4.858  2.1721  0.6820  1.7506
 7611SOL     OW34294   1.207   3.163   8.465 -0.5381 -0.0499  0.1510
 7611SOL    HW134295   1.266   3.102   8.509  0.8155  1.5623  0.5959
 7611SOL    HW234296   1.181   3.118   8.385 -1.6170  0.7923  0.0336
 7612SOL     OW34297   3.498   3.311   4.707 -0.1644  0.0420  0.1736
 7612SOL    HW134298   3.542   3.251   4.767  0.9046 -0.0796 -0.7249
 7612SOL    HW234299   3.580   3.353   4.681  0.4076 -0.6897  0.8084
 7613SOL     OW34300   3.108   0.711  16.095  0.6832  0.0808  0.4082
 7613SOL    HW134301   3.165   0.638  16.118 -0.2352 -0.8374 -0.2568
 7613SOL    HW234302   3.045   0.675  16.033 -0.8219  0.0629  1.9440
 7614SOL     OW34303   0.734   1.379   4.187 -0.4678 -0.1153 -0.0267
 7614SOL    HW134304   0.675   1.385   4.262  1.7919 -1.7287  1.8599
 7614SOL    HW234305   0.812   1.430   4.209 -1.4068  1.0010  0.7384
 7615SOL     OW34306   4.702   3.970   9.529 -0.5586  0.1855 -0.3302
 7615SOL    HW134307   0.008   4.053   9.570  2.4219 -0.0098 -1.6724
 7615SOL    HW234308   4.713   3.987   9.436 -0.6635  0.8003 -0.2323
 7616SOL     OW34309   2.984   3.953   1.402  0.4587  0.3815  0.3340
 7616SOL    HW134310   2.960   4.037   1.442  0.9772 -0.7080  2.9298
 7616SOL    HW234311   2.942   3.902   1.471 -0.0453  1.0436  0.5158
 7617SOL     OW34312   3.063   3.915   6.588  0.9050  0.3083  0.0267
 7617SOL    HW134313   3.110   3.922   6.671  1.8953  2.6810 -0.7362
 7617SOL    HW234314   2.990   3.865   6.623  0.4340  1.5584  0.8345
 7618SOL     OW34315   1.098   0.519   2.504 -0.6017  0.2286 -0.7557
 7618SOL    HW134316   1.098   0.515   2.409 -0.7051 -0.0627 -0.7429
 7618SOL    HW234317   1.125   0.432   2.534 -2.8368  0.3833  1.6406
 7619SOL     OW34318   2.818   1.519   5.897 -0.2825  0.1501  0.1258
 7619SOL    HW134319   2.897   1.491   5.941  0.0793 -0.6093 -1.0207
 7619SOL    HW234320   2.843   1.499   5.807  0.1249  2.8876 -0.3780
 7620SOL     OW34321   3.471   0.303  16.955 -0.3451  0.1340  0.1179
 7620SOL    HW134322   3.435   0.359  17.024  2.1379  0.5765  1.0244
 7620SOL    HW234323   3.563   0.303  16.981 -0.5016  2.3794  0.7270
 7621SOL     OW34324   1.519   1.112   5.749  0.7212 -0.2648 -0.2824
 7621SOL    HW134325   1.479   1.138   5.666 -1.6113 -2.5277  0.1339
 7621SOL    HW234326   1.612   1.106   5.728  0.3642  0.4328 -1.9976
 7622SOL     OW34327   1.592   1.680   2.601 -0.3421 -0.2293  0.0967
 7622SOL    HW134328   1.666   1.626   2.574 -0.2337 -0.3877  0.7318
 7622SOL    HW234329   1.530   1.649   2.534  0.7561  1.1163 -1.5518
 7623SOL     OW34330   2.577   1.179  13.442 -0.1004 -0.4149  0.5763
 7623SOL    HW134331   2.590   1.269  13.410 -0.3117  0.3153  2.5405
 7623SOL    HW234332   2.644   1.180  13.510  0.5812 -0.1598 -0.1017
 7624SOL     OW34333   3.093   4.075   8.724 -0.6867 -0.3968 -0.2016
 7624SOL    HW134334   3.003   4.041   8.718 -1.3555  1.1162  1.3505
 7624SOL    HW234335   3.114   4.040   8.810 -0.1060 -3.0394 -1.4079
 7625SOL     OW34336   4.710   1.299   0.536  0.7416  1.0413 -0.8533
 7625SOL    HW134337   4.684   1.237   0.605  0.3717  2.8560  0.6246
 7625SOL    HW234338   0.073   1.336   0.569  0.0835  0.2942  1.6198
 7626SOL     OW34339   3.033   3.147   7.533 -0.4013 -0.2838 -1.1174
 7626SOL    HW134340   3.059   3.059   7.506 -0.2722 -0.6732  0.2994
 7626SOL    HW234341   3.002   3.188   7.452  0.3308  0.2514 -1.1318
 7627SOL     OW34342   0.967   4.569   5.692  0.6694  0.4345 -0.2461
 7627SOL    HW134343   0.946   4.551   5.784 -0.6600 -0.0572 -0.6460
 7627SOL    HW234344   0.914   4.505   5.645  0.4531  1.2272 -1.0709
 7628SOL     OW34345   0.641   1.401   8.712  0.1055  0.2324  0.1946
 7628SOL    HW134346   0.579   1.337   8.745 -1.3330  0.4683 -2.0315
 7628SOL    HW234347   0.603   1.482   8.745 -2.6429 -1.4117  1.0186
 7629SOL     OW34348   0.918   4.416   8.541 -0.2872 -0.1224  0.4155
 7629SOL    HW134349   0.946   4.329   8.513 -1.3962  0.1337 -1.5171
 7629SOL    HW234350   0.925   4.425   8.636  1.4177  0.0036  0.2864
 7630SOL     OW34351   1.956   2.306  12.943  0.1447 -0.2163 -0.0567
 7630SOL    HW134352   2.041   2.267  12.920 -0.9237 -1.7862 -1.4154
 7630SOL    HW234353   1.971   2.400  12.947  1.6117 -0.3880 -1.4685
 7631SOL     OW34354   0.870   4.569   4.782  0.1231  0.0567 -0.2379
 7631SOL    HW134355   0.887   4.585   4.689 -1.4439  0.2726 -0.4848
 7631SOL    HW234356   0.814   4.492   4.787  0.7084 -0.3758 -0.3089
 7632SOL     OW34357   3.698   2.396  14.028  0.2274  0.2225 -0.2061
 7632SOL    HW134358   3.616   2.443  14.043  0.0913 -0.4208  1.0504
 7632SOL    HW234359   3.730   2.367  14.113  0.6362 -0.2537 -0.5203
 7633SOL     OW34360   2.735   2.669   8.690 -0.5179  0.0895 -0.0957
 7633SOL    HW134361   2.807   2.606   8.695 -1.3629 -0.8113  0.8596
 7633SOL    HW234362   2.735   2.697   8.599  1.0475  0.3904  0.0059
 7634SOL     OW34363   2.813   1.500   6.982  0.3219 -0.1427  0.0041
 7634SOL    HW134364   2.905   1.475   6.990  0.4621  0.6856  0.8943
 7634SOL    HW234365   2.785   1.498   7.074 -0.3981 -1.4889 -0.2353
 7635SOL     OW34366   3.397   4.079   2.014  0.2006 -0.1886  0.1058
 7635SOL    HW134367   3.485   4.091   2.049 -0.5497  0.0308  1.9131
 7635SOL    HW234368   3.427   4.024   1.942 -0.3748 -1.7306  1.0448
 7636SOL     OW34369   0.006   1.352   6.460 -0.3497  0.1074 -0.3091
 7636SOL    HW134370   4.711   1.366   6.366  2.4429 -1.5515 -0.9539
 7636SOL    HW234371   4.636   1.340   6.497 -0.5295  0.9928 -0.4488
 7637SOL     OW34372   0.038   2.509   1.910 -0.6523 -0.2018  0.3522
 7637SOL    HW134373   0.132   2.495   1.895 -1.1800 -2.2572 -1.0168
 7637SOL    HW234374   0.014   2.426   1.869 -0.8850  0.0285  0.0259
 7638SOL     OW34375   2.624   2.385  14.259 -0.3339  0.1225  0.2309
 7638SOL    HW134376   2.712   2.349  14.271 -0.1058  0.4392 -0.4756
 7638SOL    HW234377   2.630   2.405  14.165 -2.1186  0.0747  0.1170
 7639SOL     OW34378   3.178   2.661  12.384  0.3251 -0.5612 -0.1100
 7639SOL    HW134379   3.099   2.607  12.384  1.1984 -1.8376  1.6975
 7639SOL    HW234380   3.172   2.713  12.303  1.9899  0.7353  0.6015
 7640SOL     OW34381   2.652   0.064   5.963 -0.1126 -0.1318  0.1375
 7640SOL    HW134382   2.601   0.144   5.972 -0.7876 -0.3587 -1.5837
 7640SOL    HW234383   2.737   0.103   5.984 -0.7557  0.5875  1.4167
 7641SOL     OW34384   3.697   3.753   6.150  0.1805 -0.5355  0.8823
 7641SOL    HW134385   3.742   3.779   6.070 -0.8357 -0.2934  0.3840
 7641SOL    HW234386   3.718   3.660   6.140 -3.2807 -1.5121  2.6332
 7642SOL     OW34387   0.608   2.699   9.465  0.3906  0.6645 -0.1317
 7642SOL    HW134388   0.618   2.777   9.520 -0.5024  0.4509  0.3355
 7642SOL    HW234389   0.701   2.681   9.465  0.1999 -0.3532  0.9627
 7643SOL     OW34390   3.120   1.781   6.945  0.2060 -0.1402 -0.0513
 7643SOL    HW134391   3.055   1.808   6.881  0.0907  0.6410  0.3985
 7643SOL    HW234392   3.068   1.773   7.025 -1.3512  0.6686 -0.9935
 7644SOL     OW34393   1.020   2.861   0.440 -0.1253 -0.9247 -0.3703
 7644SOL    HW134394   0.981   2.909   0.368 -0.5745 -2.2597 -1.0050
 7644SOL    HW234395   1.026   2.772   0.406  0.2951 -1.6241  1.5075
 7645SOL     OW34396   2.335   1.055   5.532 -0.5839 -0.3595  0.2496
 7645SOL    HW134397   2.311   1.078   5.442  1.4148 -1.2955 -0.4971
 7645SOL    HW234398   2.326   0.960   5.531  3.1421 -0.6672 -0.2662
 7646SOL     OW34399   0.925   4.176   6.982 -0.2092  1.0620  0.3581
 7646SOL    HW134400   0.897   4.267   6.991  2.3104  1.8651  0.0405
 7646SOL    HW234401   0.886   4.143   7.063 -0.9580  0.2502 -0.3231
 7647SOL     OW34402   3.548   2.387   9.673 -0.6007  0.1256 -0.5090
 7647SOL    HW134403   3.630   2.371   9.720 -0.3776  1.6726 -0.3807
 7647SOL    HW234404   3.506   2.308   9.707 -2.4644  1.7855  1.0626
 7648SOL     OW34405   2.222   1.828   5.671  0.4574 -0.2521  0.0797
 7648SOL    HW134406   2.183   1.907   5.632  0.9081 -0.0122  0.1192
 7648SOL    HW234407   2.160   1.809   5.741  0.5381 -1.1135 -0.0813
 7649SOL     OW34408   2.099   1.023   3.668 -0.3234 -0.1810  0.2617
 7649SOL    HW134409   2.013   1.036   3.629  1.4919  1.4662 -3.1184
 7649SOL    HW234410   2.077   0.978   3.750  0.7963 -1.0421  0.0944
 7650SOL     OW34411   4.627   1.392   8.800  0.3226  0.8488 -0.3064
 7650SOL    HW134412   4.629   1.323   8.867  1.7047  1.8386  0.6557
 7650SOL    HW234413   4.701   1.443   8.833 -0.1914  1.0480  0.5372
 7651SOL     OW34414   0.112   1.787   6.407 -0.3823  0.4953 -0.4130
 7651SOL    HW134415   0.149   1.699   6.415  0.0416  0.7611  0.6734
 7651SOL    HW234416   0.165   1.811   6.484  0.2220 -0.5329 -0.5082
 7652SOL     OW34417   1.546   0.086   0.454  0.1984  0.8632  0.1470
 7652SOL    HW134418   1.464   0.126   0.481 -0.3161  0.0244 -0.1410
 7652SOL    HW234419   1.529   0.078   0.360  1.0593 -3.6031  0.3415
 7653SOL     OW34420   0.921   1.604   1.558  0.2493 -0.6402 -0.4247
 7653SOL    HW134421   0.882   1.524   1.521 -1.6725  0.3791 -0.5969
 7653SOL    HW234422   0.886   1.610   1.647 -0.1644 -1.5197 -0.5288
 7654SOL     OW34423   0.458   2.596   3.645 -0.2300 -0.5528 -0.1396
 7654SOL    HW134424   0.471   2.690   3.659  0.3945 -1.0241  2.5577
 7654SOL    HW234425   0.398   2.603   3.571  0.4979 -1.2462 -0.7838
 7655SOL     OW34426   3.019   2.458  11.591  0.2132 -0.0202 -0.0096
 7655SOL    HW134427   3.094   2.398  11.589 -1.1023 -1.6380 -0.6890
 7655SOL    HW234428   2.944   2.399  11.589 -0.5400  0.9642 -0.3639
 7656SOL     OW34429   3.627   2.020   4.209  0.0872 -0.5327  0.7307
 7656SOL    HW134430   3.614   1.980   4.295  0.3609 -4.4165 -1.0412
 7656SOL    HW234431   3.668   1.947   4.162  2.1278  0.7531  0.5154
 7657SOL     OW34432   1.063   3.192   7.946 -0.1492 -0.0860  0.1336
 7657SOL    HW134433   1.113   3.148   7.878 -0.7177  1.0981 -1.0627
 7657SOL    HW234434   0.975   3.199   7.909  0.0134  0.6265 -0.1245
 7658SOL     OW34435   0.856   0.794   1.049  0.5170 -0.0420  0.2741
 7658SOL    HW134436   0.864   0.835   0.963 -0.2988 -0.9512 -0.2358
 7658SOL    HW234437   0.888   0.709   1.016 -1.5488 -0.5468 -0.4519
 7659SOL     OW34438   0.550   0.644   0.477 -0.7168 -0.0005  0.1786
 7659SOL    HW134439   0.558   0.604   0.564 -1.3101 -0.1325  0.1712
 7659SOL    HW234440   0.542   0.564   0.425 -0.4251  0.5443 -0.6989
 7660SOL     OW34441   1.215   0.773   2.582  0.1544 -0.1871 -0.3159
 7660SOL    HW134442   1.177   0.798   2.497  2.8748  1.3179 -1.1004
 7660SOL    HW234443   1.269   0.701   2.550 -2.0067 -0.6542 -2.9424
 7661SOL     OW34444   0.708   4.121   9.811 -0.2907 -0.0972  0.4607
 7661SOL    HW134445   0.651   4.194   9.787  0.5748  1.2106  2.3384
 7661SOL    HW234446   0.765   4.118   9.734 -0.7816  3.5791 -0.0560
 7662SOL     OW34447   1.518   2.106   1.394 -0.1932 -0.1546  0.0651
 7662SOL    HW134448   1.522   2.096   1.298  0.4272  2.1196 -0.1493
 7662SOL    HW234449   1.580   2.179   1.395 -0.4939  0.0863  1.0559
 7663SOL     OW34450   1.140   0.564   2.255  0.7260 -0.1030  0.0898
 7663SOL    HW134451   1.220   0.613   2.238 -0.0980 -0.1254 -3.7732
 7663SOL    HW234452   1.126   0.528   2.168  0.5617 -1.2803  0.6024
 7664SOL     OW34453   1.736   2.765   6.428  0.6733  0.2509 -0.3620
 7664SOL    HW134454   1.814   2.753   6.482  0.1953 -1.5781 -0.0926
 7664SOL    HW234455   1.675   2.773   6.501  0.3717 -1.1569 -0.4663
 7665SOL     OW34456   4.143   1.815   5.879 -0.0443 -0.3433 -0.0428
 7665SOL    HW134457   4.054   1.830   5.911 -0.1785 -0.9967 -0.1072
 7665SOL    HW234458   4.159   1.897   5.832  0.1140  0.7960  1.9945
 7666SOL     OW34459   1.145   3.280   9.240 -0.2756 -0.7557  0.7613
 7666SOL    HW134460   1.212   3.301   9.305 -1.5839  1.1060  1.4935
 7666SOL    HW234461   1.192   3.206   9.201 -1.0469 -1.1353  0.5586
 7667SOL     OW34462   3.708   0.562  14.696 -0.3089 -0.1874  0.0477
 7667SOL    HW134463   3.640   0.516  14.647 -1.7795  0.5440  1.3855
 7667SOL    HW234464   3.678   0.562  14.787 -0.9109  1.4418 -0.1414
 7668SOL     OW34465   4.027   2.981   2.477 -0.4893  0.3049 -0.2261
 7668SOL    HW134466   4.092   2.937   2.533 -1.3032 -1.0420 -0.3428
 7668SOL    HW234467   3.951   2.981   2.535  0.7538 -1.4436  1.4295
 7669SOL     OW34468   0.932   3.064  16.578 -0.5723 -0.3874  0.9314
 7669SOL    HW134469   0.878   3.094  16.504  0.2745  0.5183  0.6820
 7669SOL    HW234470   0.901   2.978  16.606 -1.4511 -0.2796  0.3307
 7670SOL     OW34471   3.214   2.544  11.236  0.2437 -0.0360 -1.0749
 7670SOL    HW134472   3.162   2.464  11.231 -1.6166  1.1031  0.0801
 7670SOL    HW234473   3.297   2.512  11.272  0.0094  1.9274  1.2305
 7671SOL     OW34474   0.950   4.112   5.024  0.3490 -0.3769  0.1502
 7671SOL    HW134475   1.041   4.120   4.996  0.8991  0.3245  2.0930
 7671SOL    HW234476   0.938   4.199   5.064  0.2426 -0.1912 -0.2831
 7672SOL     OW34477   2.676   0.369   5.318  0.1950  0.1462  0.2285
 7672SOL    HW134478   2.676   0.408   5.405 -0.6749 -0.7416  0.6254
 7672SOL    HW234479   2.596   0.400   5.274  0.0500 -2.9018 -1.7097
 7673SOL     OW34480   3.117   0.917   3.996  0.2923 -0.0305 -0.0494
 7673SOL    HW134481   3.028   0.921   4.030 -0.0876 -0.8646 -0.9110
 7673SOL    HW234482   3.168   0.933   4.075  0.0094 -0.7635  0.2873
 7674SOL     OW34483   1.440   2.162   6.497  0.4613  0.0745 -0.9184
 7674SOL    HW134484   1.399   2.156   6.410 -0.2152  0.0684 -0.5998
 7674SOL    HW234485   1.358   2.142   6.541  0.5156  1.2314 -0.3018
 7675SOL     OW34486   2.682   1.581   7.476 -0.2075  0.1189 -0.4772
 7675SOL    HW134487   2.702   1.671   7.452 -1.5804  0.5075 -0.1494
 7675SOL    HW234488   2.749   1.540   7.421 -0.8991 -0.6252 -0.7579
 7676SOL     OW34489   1.077   3.490   8.671 -0.2477 -0.3317  0.9604
 7676SOL    HW134490   1.072   3.502   8.766  1.1276  0.8479  0.8760
 7676SOL    HW234491   1.022   3.412   8.661 -0.7329  0.0407  0.7365
 7677SOL     OW34492   2.947   2.065   9.035 -0.1566 -0.1007 -0.2019
 7677SOL    HW134493   2.944   2.005   9.110 -1.6569 -1.1946 -1.1417
 7677SOL    HW234494   3.039   2.057   9.010 -0.2270 -0.2124 -0.4299
 7678SOL     OW34495   2.372   4.463   3.409  0.1430 -0.2276  0.3101
 7678SOL    HW134496   2.370   4.546   3.360  0.2526 -0.8592 -0.7623
 7678SOL    HW234497   2.378   4.405   3.333 -1.1509 -1.7727  1.4028
 7679SOL     OW34498   0.474   4.345  14.225  0.1855 -0.1336 -0.2829
 7679SOL    HW134499   0.391   4.297  14.225 -0.1329  0.3988  0.8652
 7679SOL    HW234500   0.494   4.366  14.316 -0.0992 -0.2879 -0.1837
 7680SOL     OW34501   0.170   4.655   4.890  0.1042 -0.5939  0.1111
 7680SOL    HW134502   0.140   4.570   4.857  0.8304 -1.2221  1.0574
 7680SOL    HW234503   0.242   4.616   4.939 -0.6226 -1.4303  0.5087
 7681SOL     OW34504   4.622   0.286   5.550  0.2516  0.1445  0.3162
 7681SOL    HW134505   4.659   0.254   5.633  2.0320 -1.5760 -1.1564
 7681SOL    HW234506   4.546   0.229   5.540  1.2514 -0.8438 -1.6417
 7682SOL     OW34507   1.742   2.883   7.981 -0.5237  0.1633 -0.5093
 7682SOL    HW134508   1.787   2.814   7.932 -2.5814 -0.7544 -1.0995
 7682SOL    HW234509   1.815   2.914   8.034 -0.5765 -1.3907  0.4526
 7683SOL     OW34510   2.515   4.634   0.234  0.4262  0.0690 -0.4400
 7683SOL    HW134511   2.517   0.010   0.251  2.1844 -0.3565  1.7542
 7683SOL    HW234512   2.600   4.612   0.273  0.1438  1.4000  0.9087
 7684SOL     OW34513   2.847   4.231  12.395  0.2429  0.6689  1.1006
 7684SOL    HW134514   2.924   4.225  12.338  1.0237  0.0819  2.2260
 7684SOL    HW234515   2.879   4.288  12.464  1.1266 -1.6517  2.6100
 7685SOL     OW34516   3.586   0.991   5.184 -0.0698  0.5513  0.2953
 7685SOL    HW134517   3.525   0.954   5.248 -0.9228 -1.6768 -1.7783
 7685SOL    HW234518   3.521   1.027   5.124  0.1535 -0.7864 -0.7401
 7686SOL     OW34519   4.180   1.709   1.914  0.2164 -0.5670 -0.4552
 7686SOL    HW134520   4.099   1.761   1.914  0.2177 -0.5877  1.7042
 7686SOL    HW234521   4.244   1.770   1.949 -1.0379 -0.0468  0.9052
 7687SOL     OW34522   0.138   3.307   6.351 -0.2324 -0.1379  0.9658
 7687SOL    HW134523   0.077   3.234   6.362 -0.6577  0.5078  2.8704
 7687SOL    HW234524   0.160   3.297   6.258 -1.5198  1.6492  0.4642
 7688SOL     OW34525   3.279   4.667  15.531 -0.2185  0.1883 -0.8164
 7688SOL    HW134526   3.304   4.668  15.623  0.1960  0.5096 -0.9319
 7688SOL    HW234527   3.255   0.038  15.506  1.2119  0.5796 -0.7824
 7689SOL     OW34528   4.555   1.867   3.318  0.3421  0.0307  0.4929
 7689SOL    HW134529   4.636   1.914   3.299  1.4199 -1.7850  0.6513
 7689SOL    HW234530   4.578   1.777   3.340  0.0435 -1.0254 -3.3637
 7690SOL     OW34531   1.211   4.637   5.300  0.8150 -0.1397  0.2045
 7690SOL    HW134532   1.256   0.001   5.318  1.0643 -0.1560 -0.3544
 7690SOL    HW234533   1.259   4.621   5.219 -1.5687 -0.1442 -1.2028
 7691SOL     OW34534   4.283   0.985   3.652  0.4569  0.1538  0.1023
 7691SOL    HW134535   4.279   0.902   3.603  0.5952  0.6312 -0.7169
 7691SOL    HW234536   4.304   1.043   3.578  0.3199 -0.1512 -0.1796
 7692SOL     OW34537   1.319   4.575   4.063  0.0660 -0.1103  0.1423
 7692SOL    HW134538   1.370   4.564   4.143  0.9088 -1.4562 -0.5884
 7692SOL    HW234539   1.306   4.670   4.068  0.9463  0.0141  0.0019
 7693SOL     OW34540   1.601   4.210   3.539  0.6404  0.6534 -0.1894
 7693SOL    HW134541   1.606   4.216   3.635 -1.5776 -1.7760  0.0953
 7693SOL    HW234542   1.688   4.231   3.506  1.3116  0.3407  1.3379
 7694SOL     OW34543   1.741   1.437   9.407 -0.8109  0.3365 -0.2673
 7694SOL    HW134544   1.784   1.504   9.460 -0.7391  0.1591 -0.1014
 7694SOL    HW234545   1.652   1.435   9.443  0.2106  1.5816  2.3113
 7695SOL     OW34546   0.490   2.330   2.495  0.0478 -0.5195  0.0588
 7695SOL    HW134547   0.501   2.237   2.513 -1.8365 -0.8036 -0.2084
 7695SOL    HW234548   0.518   2.339   2.404 -1.3742 -3.1987 -0.6466
 7696SOL     OW34549   0.511   4.703   4.475  0.2215 -0.0530  0.4735
 7696SOL    HW134550   0.602   4.710   4.504 -0.0804 -1.0804  1.6592
 7696SOL    HW234551   0.501   4.611   4.450  2.9913 -0.4910  1.0243
 7697SOL     OW34552   0.825   0.175  13.338 -0.5046 -0.1231  0.5440
 7697SOL    HW134553   0.772   0.236  13.285 -2.1951 -1.5277  0.6140
 7697SOL    HW234554   0.819   0.217  13.424  3.6422  1.8074 -0.1399
 7698SOL     OW34555   0.749   2.603   4.488  0.0081  0.1185  0.0208
 7698SOL    HW134556   0.837   2.641   4.484  1.2997 -2.7676  1.6780
 7698SOL    HW234557   0.696   2.683   4.498 -0.3941 -0.3007  1.1515
 7699SOL     OW34558   1.083   4.509   7.077 -1.1159  0.5425  0.4440
 7699SOL    HW134559   1.120   4.502   6.989  1.1345 -0.7308  1.4852
 7699SOL    HW234560   1.108   4.421   7.105  1.6672  1.6579  1.5378
 7700SOL     OW34561   0.568   1.017  14.357 -0.2345  0.5695  0.4630
 7700SOL    HW134562   0.477   1.014  14.385 -0.9095 -0.3879 -1.8063
 7700SOL    HW234563   0.549   1.018  14.263  1.4349 -0.9056  0.1189
 7701SOL     OW34564   0.802   1.222   5.585  0.1851  0.1483 -0.5600
 7701SOL    HW134565   0.746   1.152   5.618  1.1122 -0.5457 -0.4616
 7701SOL    HW234566   0.774   1.213   5.494  0.2255 -0.3926 -0.5188
 7702SOL     OW34567   3.168   0.660   3.857  0.3551  0.0178 -0.4865
 7702SOL    HW134568   3.075   0.675   3.839 -0.3020 -0.8526  2.2531
 7702SOL    HW234569   3.170   0.725   3.927  1.0114  0.3552 -0.8122
 7703SOL     OW34570   1.039   1.850   6.933 -0.3102  0.1036  0.5032
 7703SOL    HW134571   1.038   1.757   6.912 -0.8525  0.0487  0.7846
 7703SOL    HW234572   1.126   1.870   6.897 -0.4979 -0.1474 -0.0892
 7704SOL     OW34573   2.956   1.026  13.017 -0.5782  0.3147  0.1384
 7704SOL    HW134574   3.034   0.995  13.063 -1.3897 -2.1683 -0.1514
 7704SOL    HW234575   2.960   0.959  12.948 -1.1910  0.2914  0.1279
 7705SOL     OW34576   2.019   0.762  12.258  0.2606 -0.5022  0.3701
 7705SOL    HW134577   2.043   0.718  12.176 -1.8799 -1.5447  0.3142
 7705SOL    HW234578   2.093   0.727  12.307 -0.2288  0.6423  1.9208
 7706SOL     OW34579   1.524   4.023   0.244  0.0242  0.5816 -0.2566
 7706SOL    HW134580   1.470   3.973   0.305  0.3892  0.8389  0.2819
 7706SOL    HW234581   1.520   3.961   0.171 -1.2964 -1.0879  1.2406
 7707SOL     OW34582   0.485   0.046  11.073  0.1109  0.0875  0.0221
 7707SOL    HW134583   0.411   4.710  11.045  0.1657  0.6162 -1.1407
 7707SOL    HW234584   0.487   0.019  11.165 -0.3585 -2.3630 -0.6890
 7708SOL     OW34585   1.528   4.715   5.072  0.5475 -0.0898  0.5527
 7708SOL    HW134586   1.463   0.046   5.121 -0.0867 -2.1272  1.7696
 7708SOL    HW234587   1.470   4.642   5.051  0.1915  0.9405 -2.0616
 7709SOL     OW34588   2.497   4.360   7.681  0.4362 -0.1141  0.0463
 7709SOL    HW134589   2.446   4.360   7.762 -0.3863  0.2424 -0.4738
 7709SOL    HW234590   2.535   4.272   7.683 -0.0449 -0.3192  0.4583
 7710SOL     OW34591   2.190   0.754   7.140  0.0781  0.0393  0.5476
 7710SOL    HW134592   2.250   0.680   7.133 -0.4021 -0.1333 -1.9919
 7710SOL    HW234593   2.259   0.819   7.129 -2.3469  2.6604  0.7502
 7711SOL     OW34594   4.392   0.885  15.609  0.1715  0.4865 -0.2079
 7711SOL    HW134595   4.352   0.824  15.547 -1.6620  0.1535  1.3172
 7711SOL    HW234596   4.346   0.966  15.591  0.7990  1.2039  1.3897
 7712SOL     OW34597   4.131   1.292   7.230  0.3210  0.4709  0.2692
 7712SOL    HW134598   4.109   1.312   7.139  0.1870 -1.7636 -0.1933
 7712SOL    HW234599   4.059   1.247   7.273  0.0946  0.3187 -0.2631
 7713SOL     OW34600   1.049   4.432   2.776 -0.6093 -0.1544  0.1287
 7713SOL    HW134601   1.076   4.345   2.746  3.6211  1.1823  0.0814
 7713SOL    HW234602   1.121   4.480   2.816 -0.7151 -0.1282  0.2868
 7714SOL     OW34603   4.288   4.331   4.366  0.6214 -0.0977 -0.2378
 7714SOL    HW134604   4.330   4.317   4.451 -0.9834  0.1268  0.5757
 7714SOL    HW234605   4.345   4.264   4.327 -1.4599 -1.1896 -1.3863
 7715SOL     OW34606   1.212   0.050   6.878 -0.6611 -0.0477 -0.2737
 7715SOL    HW134607   1.302   0.081   6.886 -0.4947 -0.4601 -0.5440
 7715SOL    HW234608   1.229   4.682   6.915 -0.8395  0.2515  0.5045
 7716SOL     OW34609   3.604   0.546   7.128  0.0061 -0.0971 -0.4506
 7716SOL    HW134610   3.545   0.535   7.202  0.1294  1.9777 -0.0633
 7716SOL    HW234611   3.551   0.597   7.067  2.2118  2.3591 -0.3054
 7717SOL     OW34612   4.334   2.640  14.933  0.8579 -0.0254  0.0393
 7717SOL    HW134613   4.365   2.549  14.941 -0.4668 -0.5772 -1.1832
 7717SOL    HW234614   4.331   2.655  14.839 -0.7662  0.7772  0.2287
 7718SOL     OW34615   2.690   1.553  13.893 -0.4621 -0.0778  0.1487
 7718SOL    HW134616   2.726   1.573  13.980 -0.9702  1.5626 -0.0166
 7718SOL    HW234617   2.650   1.469  13.917  3.4730 -1.7666  0.8093
 7719SOL     OW34618   0.686   0.740   1.709  0.2160  0.2972  0.0008
 7719SOL    HW134619   0.648   0.741   1.797 -0.1905  2.5776 -0.1975
 7719SOL    HW234620   0.614   0.768   1.653  0.5389  0.7907 -0.1796
 7720SOL     OW34621   3.639   4.416   8.530  0.6398  0.0964 -0.2325
 7720SOL    HW134622   3.552   4.448   8.507 -0.2592 -1.8232  0.5226
 7720SOL    HW234623   3.636   4.328   8.494  2.2283  0.2309 -0.6849
 7721SOL     OW34624   0.832   0.058  15.696  0.0107 -0.3428 -0.3719
 7721SOL    HW134625   0.888   0.052  15.619 -0.0812  2.2384 -0.6484
 7721SOL    HW234626   0.893   0.081  15.766  0.2760  1.5771 -1.2469
 7722SOL     OW34627   2.325   3.480   2.701 -0.1517  0.3324  0.0598
 7722SOL    HW134628   2.236   3.447   2.712  0.5964 -1.3490  1.1187
 7722SOL    HW234629   2.359   3.467   2.790 -1.1100 -0.1755  0.3521
 7723SOL     OW34630   3.427   4.010   8.934  0.5276  0.1822  0.2661
 7723SOL    HW134631   3.418   3.938   8.870 -0.4517 -0.6873  1.3777
 7723SOL    HW234632   3.521   4.026   8.937  0.5631 -0.6704  3.7028
 7724SOL     OW34633   1.698   3.079   3.301 -0.0853 -0.2390  0.2973
 7724SOL    HW134634   1.702   3.000   3.355 -2.1337 -1.2680 -1.0634
 7724SOL    HW234635   1.791   3.094   3.284  0.1172  0.9326  2.4092
 7725SOL     OW34636   0.184   1.964   5.543  0.2330 -0.4370 -0.5492
 7725SOL    HW134637   0.100   1.971   5.497  0.2494  0.2736 -0.4646
 7725SOL    HW234638   0.215   2.055   5.545  0.7767 -0.6588  0.7952
 7726SOL     OW34639   3.886   2.111   6.257 -0.3263  0.3149 -0.0811
 7726SOL    HW134640   3.960   2.163   6.225 -2.1092  2.7292 -0.2898
 7726SOL    HW234641   3.906   2.075   6.343 -1.0530 -0.4240 -0.2155
 7727SOL     OW34642   4.192   0.983   9.118  0.0639 -0.1086  0.4073
 7727SOL    HW134643   4.102   0.951   9.128 -0.3452  1.4380  1.7866
 7727SOL    HW234644   4.210   0.934   9.038 -1.6714 -0.0305 -0.0218
 7728SOL     OW34645   2.571   2.292   9.010  0.0300  0.5965 -0.1047
 7728SOL    HW134646   2.591   2.264   9.099 -0.1517  1.6964  0.2732
 7728SOL    HW234647   2.508   2.229   8.975  1.0077  0.0009 -0.8153
 7729SOL     OW34648   4.244   0.379   7.171 -0.3076  0.4577  0.1693
 7729SOL    HW134649   4.245   0.334   7.255  1.4816 -0.1222 -0.1541
 7729SOL    HW234650   4.298   0.453   7.198 -0.5040  1.0891 -1.1732
 7730SOL     OW34651   4.540   0.285   6.814 -0.1413  0.4672 -0.1294
 7730SOL    HW134652   4.477   0.256   6.749  1.4323  1.0366 -1.9029
 7730SOL    HW234653   4.595   0.345   6.763  2.3399 -0.8786  0.9142
 7731SOL     OW34654   3.184   1.806   8.684 -0.0209 -0.6106 -0.6903
 7731SOL    HW134655   3.269   1.837   8.716 -0.4394 -1.4455  1.2603
 7731SOL    HW234656   3.155   1.878   8.628  1.8374 -0.3905 -1.3731
 7732SOL     OW34657   0.883   1.143  16.879 -0.2294  0.0887  0.0691
 7732SOL    HW134658   0.902   1.148  16.786  0.5291  0.9041  0.2658
 7732SOL    HW234659   0.838   1.059  16.891  0.0340  0.1207  1.3615
 7733SOL     OW34660   3.943   2.112  16.151  0.0570 -0.1112 -0.0298
 7733SOL    HW134661   3.992   2.193  16.165  1.2656 -0.4140 -2.3792
 7733SOL    HW234662   4.008   2.044  16.169 -0.8050 -1.0750 -0.5596
 7734SOL     OW34663   0.896   2.105   8.335 -0.0856  1.0130  0.1604
 7734SOL    HW134664   0.858   2.075   8.253  3.4406  0.5854 -1.3526
 7734SOL    HW234665   0.911   2.021   8.378 -0.7793  0.7990 -0.0273
 7735SOL     OW34666   1.908   1.781   9.696  0.0598 -0.4926  0.4820
 7735SOL    HW134667   1.934   1.871   9.714 -0.1513 -0.0802 -1.2765
 7735SOL    HW234668   1.920   1.744   9.784  2.2272 -2.1411 -0.4901
 7736SOL     OW34669   2.114   1.530   1.443  0.1120  0.3441 -0.7120
 7736SOL    HW134670   2.068   1.614   1.440  4.3714  2.7689  1.6911
 7736SOL    HW234671   2.084   1.500   1.357  1.5374  0.3196 -1.2024
 7737SOL     OW34672   1.765   3.907  13.406  0.7158  0.4149  0.4463
 7737SOL    HW134673   1.833   3.863  13.456 -0.4282 -0.4481  1.2520
 7737SOL    HW234674   1.752   3.841  13.338 -0.0914 -1.6498  2.6046
 7738SOL     OW34675   0.162   3.212   5.792  0.0235 -0.0176 -0.0329
 7738SOL    HW134676   0.220   3.288   5.803  1.0826 -0.6985 -0.9002
 7738SOL    HW234677   0.184   3.187   5.703  1.0253  0.3672  0.1036
 7739SOL     OW34678   2.701   4.710  12.066 -0.3567  0.1676 -0.0531
 7739SOL    HW134679   2.690   0.080  12.030 -1.1278 -0.0174 -0.2850
 7739SOL    HW234680   2.632   4.662  12.021  0.2170 -1.4965  0.8612
 7740SOL     OW34681   3.081   3.438  13.724 -0.1758 -0.5998 -0.4131
 7740SOL    HW134682   3.095   3.531  13.706  0.2096 -1.0119 -2.1773
 7740SOL    HW234683   3.011   3.416  13.663 -0.9639 -0.9080  0.6005
 7741SOL     OW34684   4.395   3.708   6.633 -0.3652  0.6493  0.4524
 7741SOL    HW134685   4.378   3.633   6.576  1.5680 -0.1680  0.9685
 7741SOL    HW234686   4.327   3.770   6.604 -0.9898 -0.7588 -1.0801
 7742SOL     OW34687   0.959   3.630   8.916 -0.1777  0.0811 -0.3055
 7742SOL    HW134688   1.023   3.637   8.987 -1.0189  1.6131  0.3047
 7742SOL    HW234689   0.889   3.588   8.965 -2.0314  1.9770 -1.3251
 7743SOL     OW34690   2.201   1.389   2.593 -0.0144  0.6517 -0.0879
 7743SOL    HW134691   2.184   1.387   2.499  1.2734  0.1153 -0.3035
 7743SOL    HW234692   2.269   1.456   2.602 -0.6445  1.2756  0.1219
 7744SOL     OW34693   1.563   2.838   2.028  0.0906  0.5936  0.0365
 7744SOL    HW134694   1.486   2.820   2.082 -1.2303  1.5590 -1.5277
 7744SOL    HW234695   1.566   2.748   1.995 -0.0523  0.6676 -0.1819
 7745SOL     OW34696   4.282   3.313  14.825  0.0633  0.2338  0.2506
 7745SOL    HW134697   4.280   3.252  14.898  0.0028  0.4617  0.4380
 7745SOL    HW234698   4.325   3.277  14.748  2.4027  2.0086  0.7229
 7746SOL     OW34699   1.154   1.346   5.861  0.6504 -0.1334 -0.4307
 7746SOL    HW134700   1.171   1.256   5.890 -3.8061 -0.8518 -0.1490
 7746SOL    HW234701   1.155   1.331   5.767  0.3117 -1.1001 -0.2763
 7747SOL     OW34702   0.276   3.464   8.503  0.1541 -0.3933 -0.0496
 7747SOL    HW134703   0.267   3.558   8.516 -0.2148 -0.4666  0.2195
 7747SOL    HW234704   0.187   3.429   8.506  0.0675 -0.0121  2.2180
 7748SOL     OW34705   0.424   1.187   7.331  0.6889  0.3568 -0.0072
 7748SOL    HW134706   0.360   1.186   7.403  1.9385  0.4362  1.1167
 7748SOL    HW234707   0.445   1.094   7.324 -0.9362  0.0271 -0.4580
 7749SOL     OW34708   1.945   4.494   8.574 -0.4755 -0.3900 -0.2079
 7749SOL    HW134709   2.029   4.502   8.529 -0.1385  0.1193  0.5205
 7749SOL    HW234710   1.901   4.578   8.568 -2.3676 -1.1298  3.4607
 7750SOL     OW34711   2.949   2.881   1.880  0.5468 -0.5316  0.2976
 7750SOL    HW134712   2.968   2.788   1.881  0.3532 -0.6008 -1.5589
 7750SOL    HW234713   2.894   2.888   1.958  0.7013 -1.5672  0.4917
 7751SOL     OW34714   3.943   0.875   4.375  0.3311 -0.0774  0.0132
 7751SOL    HW134715   3.969   0.799   4.428 -2.3136 -1.1477 -0.2102
 7751SOL    HW234716   3.951   0.945   4.439  0.9437 -0.0402 -0.1034
 7752SOL     OW34717   4.347   2.812   4.696  0.1907 -0.6408 -0.3589
 7752SOL    HW134718   4.422   2.795   4.753 -1.6513 -1.3033  1.8382
 7752SOL    HW234719   4.353   2.738   4.636  4.2618  0.1678 -0.9654
 7753SOL     OW34720   0.995   3.174  16.279  0.5891 -0.3318 -0.0970
 7753SOL    HW134721   0.907   3.141  16.298 -0.2585  0.2490 -2.9375
 7753SOL    HW234722   1.054   3.105  16.309 -0.2023 -1.1636 -0.4723
 7754SOL     OW34723   3.817   4.358   3.930 -0.4200  0.4151  0.5289
 7754SOL    HW134724   3.770   4.441   3.935  0.7627  0.8670  3.9295
 7754SOL    HW234725   3.885   4.378   3.865  0.2575 -0.1191  1.0831
 7755SOL     OW34726   0.261   3.905  10.416  0.2339 -0.2136 -0.0290
 7755SOL    HW134727   0.293   3.918  10.505  0.7839 -1.1581 -0.0929
 7755SOL    HW234728   0.166   3.897  10.424  0.4626 -2.7141  0.3093
 7756SOL     OW34729   2.749   0.013   2.942 -0.0309 -0.3322 -0.3804
 7756SOL    HW134730   2.797   4.706   3.021  2.1667 -1.7640 -2.1759
 7756SOL    HW234731   2.730   0.104   2.964 -0.7867 -0.4279 -0.6326
 7757SOL     OW34732   0.754   2.494   3.357  0.0464  0.0645 -0.3070
 7757SOL    HW134733   0.837   2.540   3.366 -0.0205  0.3388 -1.0236
 7757SOL    HW234734   0.736   2.448   3.438 -1.8506  0.7018 -0.3613
 7758SOL     OW34735   3.075   0.027   6.602 -0.3087  0.0850  0.2136
 7758SOL    HW134736   3.037   4.693   6.673  0.3199  0.1780  0.6261
 7758SOL    HW234737   3.019   0.004   6.528 -1.3788  0.6898  0.8366
 7759SOL     OW34738   4.330   3.818  15.787  0.0994  0.3220 -0.0543
 7759SOL    HW134739   4.258   3.833  15.848  0.3627 -0.5847  0.4880
 7759SOL    HW234740   4.355   3.907  15.765  1.3942 -0.7410 -2.9587
 7760SOL     OW34741   3.006   3.487   7.890  0.0251  0.1106  0.2283
 7760SOL    HW134742   2.923   3.465   7.933 -1.3735 -1.2586 -3.1611
 7760SOL    HW234743   3.040   3.401   7.866 -0.8823 -0.3943  0.7557
 7761SOL     OW34744   1.018   2.365  16.005  0.4686 -0.2585 -0.0720
 7761SOL    HW134745   1.035   2.271  16.012  1.4306 -0.0926 -0.2664
 7761SOL    HW234746   1.038   2.381  15.913  0.4306  1.8510  0.2825
 7762SOL     OW34747   0.783   1.893   2.120 -0.7213  0.1403  0.3111
 7762SOL    HW134748   0.833   1.975   2.124  0.4135 -0.5426 -0.1087
 7762SOL    HW234749   0.771   1.891   2.025  2.0712 -0.4389 -0.0371
 7763SOL     OW34750   3.793   2.993   3.144  0.2218  0.0531  0.4119
 7763SOL    HW134751   3.811   2.940   3.067 -2.1056 -0.0541 -0.0695
 7763SOL    HW234752   3.849   3.066   3.119  1.1604 -1.6988 -2.5967
 7764SOL     OW34753   1.388   1.663   7.544 -0.6736  0.1480  0.1603
 7764SOL    HW134754   1.381   1.601   7.616 -1.0256 -1.1494 -0.9974
 7764SOL    HW234755   1.312   1.643   7.489 -0.1547  0.8122 -0.8115
 7765SOL     OW34756   0.963   4.168  12.396  0.1579  0.0807  0.5604
 7765SOL    HW134757   0.894   4.103  12.409  0.0656 -0.3375 -2.1473
 7765SOL    HW234758   1.028   4.136  12.459  0.1405  1.3261  1.1950
 7766SOL     OW34759   0.959   4.157   8.483 -0.3131 -0.6173  0.1577
 7766SOL    HW134760   0.874   4.115   8.498 -1.5921  1.8941  0.0888
 7766SOL    HW234761   0.969   4.155   8.388  1.4456  0.7339  0.3113
 7767SOL     OW34762   0.112   0.432   6.963 -0.0704  0.2891 -0.2388
 7767SOL    HW134763   0.065   0.472   6.889  0.0695 -0.3785 -0.6878
 7767SOL    HW234764   0.133   0.503   7.023  0.9526 -1.7813  1.8384
 7768SOL     OW34765   1.912   2.087   4.436  0.4352 -0.0769  0.1840
 7768SOL    HW134766   1.960   2.011   4.403 -0.4346 -1.3507  1.8658
 7768SOL    HW234767   1.895   2.064   4.528 -2.0271  1.0963  0.0180
 7769SOL     OW34768   2.027   3.746  14.623 -0.3662  0.6242 -0.0501
 7769SOL    HW134769   1.972   3.668  14.633 -2.0282  1.1883 -4.5773
 7769SOL    HW234770   1.961   3.814  14.642 -1.6834 -0.5421 -0.4488
 7770SOL     OW34771   3.835   2.327  12.539 -0.3730  0.0725 -0.4953
 7770SOL    HW134772   3.928   2.313  12.525 -0.1542 -0.1294  1.0789
 7770SOL    HW234773   3.805   2.245  12.579  1.0410 -0.1964 -0.0057
 7771SOL     OW34774   1.851   1.425   6.876 -0.0157  0.0673  0.0240
 7771SOL    HW134775   1.838   1.419   6.781 -1.0826  1.2290  0.0932
 7771SOL    HW234776   1.827   1.337   6.906  1.5110 -0.2131  0.3910
 7772SOL     OW34777   0.050   0.534  15.472 -0.0210 -0.0603 -0.2492
 7772SOL    HW134778   0.110   0.499  15.539 -0.4351 -1.2095 -0.4688
 7772SOL    HW234779   4.702   0.582  15.521  0.9400 -0.0612  1.0511
 7773SOL     OW34780   4.617   3.436   6.590 -0.1469 -0.1605 -0.4583
 7773SOL    HW134781   4.605   3.482   6.673  0.1986 -0.3377 -0.3094
 7773SOL    HW234782   4.543   3.376   6.593  0.0627 -0.2955  1.6572
 7774SOL     OW34783   0.229   1.792   8.329 -0.1597 -0.0446 -0.4947
 7774SOL    HW134784   0.177   1.785   8.408  0.8834 -1.9329  0.0179
 7774SOL    HW234785   0.183   1.747   8.259 -0.9144 -1.1785  0.7400
 7775SOL     OW34786   1.231   1.464  15.073  0.3730  0.1368  0.1823
 7775SOL    HW134787   1.225   1.419  14.989 -0.4349 -1.5758  1.1708
 7775SOL    HW234788   1.198   1.397  15.133  0.1509  0.0180 -0.0764
 7776SOL     OW34789   1.710   2.252   7.080 -0.0660  0.9507  0.1263
 7776SOL    HW134790   1.676   2.302   7.154 -0.2001 -0.3866  0.9647
 7776SOL    HW234791   1.682   2.162   7.097  1.1861  0.6611  0.6146
 7777SOL     OW34792   1.927   4.081   6.775 -0.4407  0.5812 -0.2224
 7777SOL    HW134793   1.984   4.010   6.804  0.2323  0.2909 -2.2484
 7777SOL    HW234794   1.980   4.116   6.704 -1.7166  3.1774  0.1226
 7778SOL     OW34795   3.802   1.175   6.470 -0.9614 -0.8301 -0.7209
 7778SOL    HW134796   3.837   1.232   6.401  2.9996 -0.3487  1.6760
 7778SOL    HW234797   3.829   1.094   6.428  0.6497 -0.3875 -0.5394
 7779SOL     OW34798   1.697   1.026   8.846 -0.0429  0.0434 -0.4628
 7779SOL    HW134799   1.720   1.049   8.756 -0.6623  1.1882 -0.3259
 7779SOL    HW234800   1.782   1.032   8.888 -1.3460  0.0693  2.1849
 7780SOL     OW34801   4.470   1.385  13.902 -0.2363  0.3669 -0.3805
 7780SOL    HW134802   4.553   1.357  13.939 -2.5809  0.0684  4.6986
 7780SOL    HW234803   4.412   1.311  13.919  1.3168 -0.7872 -0.1095
 7781SOL     OW34804   1.229   0.433  16.287  0.8109 -0.9991  0.0486
 7781SOL    HW134805   1.222   0.407  16.379 -0.3945  1.8422  0.7300
 7781SOL    HW234806   1.215   0.351  16.239  0.3486  0.8569 -2.9236
 7782SOL     OW34807   0.411   2.128   5.803  0.1487  0.2707 -0.0571
 7782SOL    HW134808   0.395   2.139   5.710  0.1925  0.9644  0.0194
 7782SOL    HW234809   0.493   2.079   5.802 -0.1974 -0.2662 -1.0177
 7783SOL     OW34810   0.974   2.142   4.245 -0.2041 -0.3250  0.5264
 7783SOL    HW134811   1.069   2.151   4.249 -0.1295 -1.0920  0.4284
 7783SOL    HW234812   0.960   2.213   4.182  1.2458  1.7685  2.5977
 7784SOL     OW34813   2.854   1.603  15.882 -0.7654  0.2000  0.1031
 7784SOL    HW134814   2.785   1.635  15.940 -0.7817  1.0339 -0.3731
 7784SOL    HW234815   2.805   1.602  15.801  1.7476 -0.7098 -1.4109
 7785SOL     OW34816   0.903   2.082   5.421  0.1930 -0.5991 -0.5099
 7785SOL    HW134817   0.835   2.025   5.386 -2.7521  2.9549 -0.5719
 7785SOL    HW234818   0.976   2.074   5.360  1.7465 -4.7025  1.8635
 7786SOL     OW34819   1.169   3.610   9.588 -0.4947 -0.0330 -0.4699
 7786SOL    HW134820   1.258   3.647   9.589 -0.7826  0.5327  2.8657
 7786SOL    HW234821   1.177   3.528   9.637 -0.6660  1.3632  1.8909
 7787SOL     OW34822   2.267   3.363   7.724  0.6497 -0.0358 -0.3707
 7787SOL    HW134823   2.271   3.422   7.649 -1.5634 -0.6506 -0.9722
 7787SOL    HW234824   2.187   3.390   7.770  1.0232 -0.9725  0.8260
 7788SOL     OW34825   1.731   3.892  11.458  0.3788  0.6229 -0.0920
 7788SOL    HW134826   1.775   3.872  11.375 -0.5974 -0.0355 -0.4370
 7788SOL    HW234827   1.727   3.988  11.451 -0.4883  0.5541 -0.5343
 7789SOL     OW34828   3.652   4.657   5.393 -0.1136 -0.0286 -0.1497
 7789SOL    HW134829   3.699   4.697   5.466  3.2417  0.2146 -2.4513
 7789SOL    HW234830   3.720   4.674   5.328 -1.7106  0.4496 -1.6894
 7790SOL     OW34831   0.961   1.193   9.079  0.1833  0.3670  0.2762
 7790SOL    HW134832   1.048   1.161   9.055 -1.1883 -1.4496 -2.2832
 7790SOL    HW234833   0.935   1.245   9.003  1.6967 -0.2801 -0.6815
 7791SOL     OW34834   3.401   2.699  10.473 -0.3940 -0.0074  0.0919
 7791SOL    HW134835   3.435   2.614  10.444  0.8656  0.5979 -0.1761
 7791SOL    HW234836   3.472   2.752  10.509  0.0327  0.4168 -1.3717
 7792SOL     OW34837   1.527   2.210   8.688 -0.3386 -0.2432 -0.3403
 7792SOL    HW134838   1.478   2.144   8.736  2.4133 -1.5221  0.6847
 7792SOL    HW234839   1.558   2.161   8.612 -0.4735 -0.0465 -0.5240
 7793SOL     OW34840   4.573   3.114   8.875  0.2074  0.1291 -0.4113
 7793SOL    HW134841   4.513   3.117   8.950 -0.2297 -0.8493 -0.7211
 7793SOL    HW234842   4.538   3.036   8.832  1.8083 -0.2623 -1.0198
 7794SOL     OW34843   3.588   4.094   8.473 -0.6570  0.0373 -0.3469
 7794SOL    HW134844   3.534   4.138   8.407  0.4876  1.6004 -0.2398
 7794SOL    HW234845   3.669   4.139   8.451  0.2010 -1.2820  0.0825
 7795SOL     OW34846   4.574   1.971  14.662 -0.6119 -0.2343  0.1277
 7795SOL    HW134847   4.622   1.893  14.635 -1.1723 -0.9768  1.2920
 7795SOL    HW234848   4.638   2.027  14.617 -0.1324 -0.5745  0.3759
 7796SOL     OW34849   1.956   3.597   5.212 -0.1285  0.7502 -0.2856
 7796SOL    HW134850   1.963   3.619   5.119  0.1888 -0.5466 -0.5731
 7796SOL    HW234851   2.025   3.645   5.258 -0.5655  0.1311  1.0092
 7797SOL     OW34852   3.881   0.875   3.775 -0.3749 -0.4113  0.1954
 7797SOL    HW134853   3.893   0.862   3.869 -0.9422 -1.0988  0.1694
 7797SOL    HW234854   3.803   0.824   3.754  0.5488 -1.7264 -0.0477
 7798SOL     OW34855   1.985   4.066   5.950  0.4256  0.0321 -0.4917
 7798SOL    HW134856   1.905   4.074   6.002  0.4293  1.8947 -0.7737
 7798SOL    HW234857   2.024   4.152   5.968  0.6657 -0.3436  0.7553
 7799SOL     OW34858   4.633   1.424   7.679  0.5258  0.3731  0.3607
 7799SOL    HW134859   4.703   1.462   7.625 -0.5322  0.7766 -0.7325
 7799SOL    HW234860   4.685   1.364   7.732  1.9528 -0.8722 -2.4654
 7800SOL     OW34861   4.441   1.328   4.227  0.3217 -0.6012  0.7590
 7800SOL    HW134862   4.490   1.260   4.180  0.8114  0.9611 -1.0000
 7800SOL    HW234863   4.361   1.330   4.174  0.3304 -2.1694  0.6895
 7801SOL     OW34864   1.042   2.457   2.689 -0.1635 -0.2409  0.4442
 7801SOL    HW134865   1.035   2.423   2.778 -0.2447  0.5742  0.7436
 7801SOL    HW234866   1.020   2.382   2.633 -0.0617  0.5319 -0.6175
 7802SOL     OW34867   2.104   1.855   0.264  0.1703 -0.6484  0.1125
 7802SOL    HW134868   2.156   1.888   0.337  1.3482  0.9195 -1.4150
 7802SOL    HW234869   2.169   1.820   0.203 -0.4998 -1.4671 -0.1373
 7803SOL     OW34870   0.626   0.351   4.207  0.1165 -0.2904  0.0403
 7803SOL    HW134871   0.654   0.265   4.175  0.0806 -0.5700  0.7661
 7803SOL    HW234872   0.649   0.335   4.298 -1.9155 -1.3210  0.3547
 7804SOL     OW34873   1.116   2.122   0.379  0.7692  0.2682 -0.4181
 7804SOL    HW134874   1.085   2.196   0.328 -2.5152 -0.2480  0.8733
 7804SOL    HW234875   1.211   2.137   0.374  0.6894  1.5190  1.6430
 7805SOL     OW34876   0.404   1.781  16.691  0.0262 -0.1261 -0.6053
 7805SOL    HW134877   0.319   1.775  16.648 -0.8645  0.2219  1.0896
 7805SOL    HW234878   0.453   1.700  16.677 -0.3004 -0.3848 -0.2627
 7806SOL     OW34879   1.917   3.534   8.703  0.6157 -0.2449  0.4395
 7806SOL    HW134880   1.989   3.597   8.694  0.4948 -0.2931 -0.9809
 7806SOL    HW234881   1.868   3.566   8.778 -0.4950 -1.8292  0.3692
 7807SOL     OW34882   3.204   3.409   4.966  0.4123  0.0285  0.3833
 7807SOL    HW134883   3.236   3.480   5.021  0.0126 -0.0010  0.6457
 7807SOL    HW234884   3.202   3.340   5.033  0.0460 -0.7335 -0.4075
 7808SOL     OW34885   2.564   2.548   5.652  0.1437  0.0408  0.3084
 7808SOL    HW134886   2.592   2.518   5.738  1.2225 -0.8236 -0.3450
 7808SOL    HW234887   2.478   2.586   5.673 -0.0812 -0.8594  1.0276
 7809SOL     OW34888   4.044   2.569  17.277 -0.1680 -0.1849 -0.3067
 7809SOL    HW134889   3.970   2.531  17.323  0.7664  0.1481  1.4829
 7809SOL    HW234890   4.002   2.642  17.232 -1.2626  0.3306  1.5654
 7810SOL     OW34891   3.620   1.319   2.512 -0.2862 -0.2183  0.6125
 7810SOL    HW134892   3.559   1.246   2.503  0.5394 -0.8017 -0.2380
 7810SOL    HW234893   3.702   1.277   2.484 -1.0746 -0.9837 -0.5039
 7811SOL     OW34894   1.140   4.016   6.145  0.2922 -0.1634 -0.3446
 7811SOL    HW134895   1.142   3.950   6.214  1.6317 -1.4414 -1.6026
 7811SOL    HW234896   1.199   4.086   6.173  0.4755 -0.9396  1.2065
 7812SOL     OW34897   4.698   4.598  10.478 -0.3726 -0.6039 -1.0803
 7812SOL    HW134898   0.006   4.507  10.492  1.4258  0.0462 -0.3160
 7812SOL    HW234899   0.055   4.637  10.522  0.3772 -2.4370 -0.7279
 7813SOL     OW34900   1.360   4.628   9.045  0.0162 -0.0657 -0.3991
 7813SOL    HW134901   1.411   4.569   9.102 -1.1644 -1.7643 -1.0905
 7813SOL    HW234902   1.430   4.685   9.013 -0.0714  0.5811  0.5720
 7814SOL     OW34903   3.196   1.281   6.835  0.4173  0.2292  0.1304
 7814SOL    HW134904   3.210   1.318   6.748  1.4985  1.6811  0.9190
 7814SOL    HW234905   3.184   1.189   6.812 -0.5020  0.2624  0.4790
 7815SOL     OW34906   2.492   0.138   4.432  0.1017  0.4782  0.1558
 7815SOL    HW134907   2.504   0.172   4.343  2.9469  1.3450  0.8708
 7815SOL    HW234908   2.572   0.097   4.466 -1.3446  0.2282  3.2936
 7816SOL     OW34909   1.298   0.157   6.249  0.2910 -0.5679 -0.2908
 7816SOL    HW134910   1.207   0.139   6.227  0.1584 -0.7213  0.4126
 7816SOL    HW234911   1.322   0.078   6.296 -1.0532 -0.4459  0.5813
 7817SOL     OW34912   1.750   3.819   0.313 -0.0557 -0.8387 -0.1994
 7817SOL    HW134913   1.773   3.912   0.317  0.0828 -0.8581 -0.5976
 7817SOL    HW234914   1.668   3.818   0.363  0.3211  0.3193  0.4488
 7818SOL     OW34915   3.405   4.508   6.183  0.2679 -0.0714  0.4509
 7818SOL    HW134916   3.455   4.434   6.148  1.3532  0.9708 -0.2208
 7818SOL    HW234917   3.424   4.496   6.276  1.0940 -0.4114  0.2439
 7819SOL     OW34918   2.877   0.257   0.932 -0.0941  0.0829 -0.7731
 7819SOL    HW134919   2.789   0.222   0.918  0.0190 -0.7695  0.6174
 7819SOL    HW234920   2.853   0.346   0.957 -1.6667  0.1138 -2.3339
 7820SOL     OW34921   1.387   0.778   3.635 -0.3364  0.1996  0.1212
 7820SOL    HW134922   1.308   0.731   3.612 -0.0465  0.5801 -1.6937
 7820SOL    HW234923   1.388   0.783   3.731 -0.9407 -4.2476  0.3402
 7821SOL     OW34924   2.086   3.741   4.057  0.0376 -0.1447  0.7674
 7821SOL    HW134925   2.085   3.826   4.012  0.7040 -0.5817 -0.0868
 7821SOL    HW234926   2.082   3.680   3.983 -1.1019  0.4839  0.3157
 7822SOL     OW34927   2.265   2.491  10.235  0.0667  0.3468  0.1690
 7822SOL    HW134928   2.239   2.482  10.327  0.4075 -1.7008  0.0684
 7822SOL    HW234929   2.251   2.399  10.213  0.2653 -0.1330  2.0150
 7823SOL     OW34930   4.063   2.808   7.457  0.2364 -0.5663 -0.3501
 7823SOL    HW134931   3.968   2.818   7.469  0.8272  4.7995 -0.1031
 7823SOL    HW234932   4.083   2.869   7.386  0.4438  2.3180  2.1715
 7824SOL     OW34933   4.278   3.842   5.189  0.0025 -0.1831 -0.3389
 7824SOL    HW134934   4.193   3.861   5.150 -0.9916 -0.7053  1.5563
 7824SOL    HW234935   4.327   3.800   5.118 -0.4051  0.4940 -1.0234
 7825SOL     OW34936   3.347   0.391   6.010 -0.3311  0.0717  0.0744
 7825SOL    HW134937   3.391   0.440   5.940 -2.4387  1.7010 -0.1250
 7825SOL    HW234938   3.407   0.403   6.084 -1.9687 -0.7280  1.5175
 7826SOL     OW34939   3.858   2.387   7.642 -0.2148 -0.1389 -0.2400
 7826SOL    HW134940   3.904   2.429   7.570  0.0756 -0.5505 -0.2938
 7826SOL    HW234941   3.892   2.298   7.634 -2.5950 -1.1767  1.1973
 7827SOL     OW34942   2.266   3.048   4.508 -0.2266 -0.5236 -0.3855
 7827SOL    HW134943   2.194   3.087   4.558  0.6643 -1.5947  1.7325
 7827SOL    HW234944   2.338   3.051   4.572 -0.1680 -0.0880 -0.4698
 7828SOL     OW34945   2.417   4.637   3.205  0.3016 -0.0275  0.3435
 7828SOL    HW134946   2.449   4.714   3.252  0.6128 -1.5641  2.6114
 7828SOL    HW234947   2.350   4.678   3.150  0.3598 -0.3068  0.0670
 7829SOL     OW34948   4.109   2.402   9.735  0.1555  0.1538 -0.0926
 7829SOL    HW134949   4.125   2.396   9.829 -3.9246 -0.6731  0.5351
 7829SOL    HW234950   4.190   2.359   9.704 -0.6307 -0.2917 -1.5363
 7830SOL     OW34951   2.650   1.159   8.797 -0.2718  0.5864 -0.2200
 7830SOL    HW134952   2.742   1.135   8.810  0.2967  3.0272  0.3911
 7830SOL    HW234953   2.659   1.230   8.734 -1.4640 -0.8903 -2.0374
 7831SOL     OW34954   3.683   1.553   3.282 -0.4152 -0.3456 -0.2782
 7831SOL    HW134955   3.588   1.567   3.277 -0.2526  1.5479  2.1130
 7831SOL    HW234956   3.704   1.501   3.204  0.0235  1.8802 -1.6476
 7832SOL     OW34957   4.225   2.217   3.004 -0.6127 -0.3802 -0.8773
 7832SOL    HW134958   4.310   2.260   3.009 -0.3708 -1.5144  4.1025
 7832SOL    HW234959   4.180   2.240   3.085 -1.6095  0.3980 -1.6535
 7833SOL     OW34960   3.782   0.502   8.677  0.3452 -0.3513  0.0521
 7833SOL    HW134961   3.828   0.560   8.617 -0.1747  1.7587  1.7115
 7833SOL    HW234962   3.814   0.418   8.644 -1.8945 -1.5396  0.8457
 7834SOL     OW34963   3.033   2.295   7.261  0.0869 -0.1262  0.0334
 7834SOL    HW134964   2.974   2.255   7.197  0.5812  0.5980 -0.8731
 7834SOL    HW234965   3.045   2.368   7.200  1.5183 -1.4553 -1.2500
 7835SOL     OW34966   4.036   3.166   3.951 -0.4063  0.5718 -0.6241
 7835SOL    HW134967   3.955   3.217   3.961 -0.8486  0.1887 -2.2963
 7835SOL    HW234968   4.106   3.230   3.936  2.8707 -3.6939 -3.4335
 7836SOL     OW34969   1.661   2.229   4.859  0.2424  0.2116 -0.3780
 7836SOL    HW134970   1.744   2.190   4.829  0.7191  0.0473  1.1804
 7836SOL    HW234971   1.695   2.288   4.926  0.8403 -1.3747  0.7286
 7837SOL     OW34972   4.519   0.258   9.314 -0.2336 -0.3996  0.1485
 7837SOL    HW134973   4.584   0.328   9.317 -2.3477  1.6091 -0.6900
 7837SOL    HW234974   4.449   0.306   9.359  1.4424  2.2105 -0.0348
 7838SOL     OW34975   3.125   0.420   1.161 -0.4311  0.6973 -0.3428
 7838SOL    HW134976   3.121   0.376   1.246  0.1781  1.9307  0.3178
 7838SOL    HW234977   3.063   0.487   1.189 -1.3907 -0.3618  0.0596
 7839SOL     OW34978   3.903   0.568   2.263 -0.3089  0.2181  0.2088
 7839SOL    HW134979   3.859   0.576   2.348  0.7006 -2.8086  1.0054
 7839SOL    HW234980   3.830   0.552   2.202  1.7139  1.8420 -2.6631
 7840SOL     OW34981   2.183   1.342  15.522 -0.5649  0.0601 -0.8439
 7840SOL    HW134982   2.262   1.388  15.550 -1.4970  0.0356  1.7579
 7840SOL    HW234983   2.187   1.357  15.427 -0.3407  0.1091 -0.8265
 7841SOL     OW34984   0.028   2.591   5.070 -0.0766 -0.1561  0.7097
 7841SOL    HW134985   0.080   2.670   5.055 -1.7882  0.1632 -3.3848
 7841SOL    HW234986   0.020   2.560   4.980 -0.3214 -2.0940  1.4149
 7842SOL     OW34987   0.220   4.402  16.652 -0.0005  0.3439 -0.1266
 7842SOL    HW134988   0.132   4.403  16.615 -0.3356 -0.9904  0.6417
 7842SOL    HW234989   0.261   4.352  16.582  0.3465  3.1057 -1.9163
 7843SOL     OW34990   3.480   3.665   5.253  0.8149  0.1009  0.0965
 7843SOL    HW134991   3.518   3.580   5.230 -1.9871 -1.0374 -0.2391
 7843SOL    HW234992   3.405   3.637   5.304 -0.2152  0.6529 -1.1269
 7844SOL     OW34993   2.168   3.139   1.561 -0.0384  0.2168 -0.0452
 7844SOL    HW134994   2.094   3.159   1.504 -0.6836 -1.8025  0.0736
 7844SOL    HW234995   2.145   3.050   1.591 -3.1002  1.3251  0.9277
 7845SOL     OW34996   1.765   0.722  11.239 -0.2251 -0.4404 -0.1005
 7845SOL    HW134997   1.726   0.735  11.153  0.0345  0.6448 -0.0581
 7845SOL    HW234998   1.845   0.681  11.205  0.8985  0.3181  1.6298
 7846SOL     OW34999   2.979   4.237   6.281 -0.0987  0.6388 -0.3935
 7846SOL    HW135000   3.071   4.258   6.292  0.3297 -1.3172 -0.1553
 7846SOL    HW235001   2.957   4.191   6.363  0.1719  0.7850 -0.2402
 7847SOL     OW35002   3.959   3.167   6.882 -0.2500  0.1717  0.0313
 7847SOL    HW135003   3.913   3.214   6.951 -0.9474 -0.7285  0.1837
 7847SOL    HW235004   4.047   3.200   6.898  0.2337 -0.3144 -1.6889
 7848SOL     OW35005   4.000   1.323   5.345 -0.6214 -0.8073 -0.3378
 7848SOL    HW135006   3.941   1.253   5.316  3.0690 -3.0521 -2.4008
 7848SOL    HW235007   4.055   1.319   5.267  0.2935  3.7272  0.1057
 7849SOL     OW35008   1.677   4.612  16.698 -0.1553 -1.0450 -0.1966
 7849SOL    HW135009   1.740   4.674  16.737 -1.5521 -1.8695  3.3379
 7849SOL    HW235010   1.684   4.541  16.761  2.4477  0.2665  1.0389
 7850SOL     OW35011   2.733   2.410   8.162  0.0611 -0.0207  0.3139
 7850SOL    HW135012   2.661   2.355   8.129  0.0597  0.0330  0.2296
 7850SOL    HW235013   2.718   2.493   8.119  0.9222 -0.7778 -1.4344
 7851SOL     OW35014   4.233   2.249   3.888 -0.0043  0.0206 -0.7059
 7851SOL    HW135015   4.286   2.270   3.965 -0.3250 -1.3456 -0.1045
 7851SOL    HW235016   4.295   2.263   3.816 -1.4275  2.0903 -1.5206
 7852SOL     OW35017   2.392   1.630   5.610 -0.4228  0.4453 -0.2367
 7852SOL    HW135018   2.328   1.678   5.663  2.0424  2.8188  0.6117
 7852SOL    HW235019   2.425   1.713   5.574  0.3352  1.0329  1.8130
 7853SOL     OW35020   3.141   4.475  13.720  0.8074 -0.0702 -0.4382
 7853SOL    HW135021   3.077   4.429  13.666  1.6243  0.1706 -1.6064
 7853SOL    HW235022   3.091   4.542  13.767  0.0876 -0.6060 -0.4435
 7854SOL     OW35023   3.592   0.886   5.873  0.1779 -0.2153  0.0848
 7854SOL    HW135024   3.629   0.973   5.855 -2.0332  0.4396 -1.2622
 7854SOL    HW235025   3.504   0.918   5.894  0.0124 -1.0812  0.6803
 7855SOL     OW35026   3.138   2.349   6.121 -0.3119 -0.1284 -0.3679
 7855SOL    HW135027   3.214   2.358   6.179 -1.2374  1.5561  0.5619
 7855SOL    HW235028   3.148   2.254   6.113  0.1795 -0.1580  0.5348
 7856SOL     OW35029   1.347   3.751  12.304 -0.2733  0.0156  0.0263
 7856SOL    HW135030   1.440   3.745  12.325  0.3267 -1.5124 -3.0170
 7856SOL    HW235031   1.311   3.733  12.390  1.5021  0.2113  0.8109
 7857SOL     OW35032   3.856   0.815  14.696 -0.1307 -0.2224  0.1312
 7857SOL    HW135033   3.809   0.870  14.634 -0.6534 -0.5345  0.2465
 7857SOL    HW235034   3.834   0.728  14.663  1.5568 -0.8099  0.5460
 7858SOL     OW35035   3.257   1.180   4.618  0.6868 -0.1265 -0.6284
 7858SOL    HW135036   3.329   1.151   4.674 -0.6226  0.6676  1.4477
 7858SOL    HW235037   3.191   1.200   4.684  0.2846 -1.1200 -0.7324
 7859SOL     OW35038   3.519   2.443   5.847 -0.3050  0.6054  0.2488
 7859SOL    HW135039   3.496   2.432   5.755  0.6961 -1.2585  0.2050
 7859SOL    HW235040   3.494   2.356   5.879  2.2580 -0.0917  0.3271
 7860SOL     OW35041   1.996   3.970  14.918  0.0488  0.2673 -0.4637
 7860SOL    HW135042   1.946   4.047  14.943 -1.4533  0.0221 -2.7183
 7860SOL    HW235043   1.937   3.907  14.959 -0.8228 -0.3522 -2.6699
 7861SOL     OW35044   1.074   1.492   6.302 -0.0701 -0.1628  0.3051
 7861SOL    HW135045   1.159   1.512   6.265  1.4741 -2.2720  2.7211
 7861SOL    HW235046   1.030   1.431   6.242 -0.1925  1.3962 -1.2130
 7862SOL     OW35047   3.740   1.484   6.681 -0.0745  0.2664  0.0496
 7862SOL    HW135048   3.695   1.412   6.636 -1.1340 -0.3016  2.0351
 7862SOL    HW235049   3.797   1.513   6.609 -0.2502  4.2174  1.5151
 7863SOL     OW35050   1.601   4.351   6.803 -0.3266 -0.3918  0.0417
 7863SOL    HW135051   1.637   4.321   6.719 -0.3767  0.5501 -0.3229
 7863SOL    HW235052   1.591   4.265   6.842 -0.7525 -0.8217 -1.0000
 7864SOL     OW35053   1.291   0.844   9.089 -0.1629  0.2048 -0.0379
 7864SOL    HW135054   1.264   0.839   8.998  0.4012 -0.2517 -0.1776
 7864SOL    HW235055   1.205   0.846   9.132  0.6323  2.2665  1.4610
 7865SOL     OW35056   0.793   3.398  15.574 -0.3431 -0.2323  0.4235
 7865SOL    HW135057   0.807   3.370  15.665 -0.4246 -3.0788 -0.4276
 7865SOL    HW235058   0.826   3.325  15.522 -1.3486  0.6907 -1.5173
 7866SOL     OW35059   2.557   2.678  12.847 -0.1143 -0.0389 -0.1036
 7866SOL    HW135060   2.575   2.750  12.907  0.7411 -0.6313  0.3603
 7866SOL    HW235061   2.646   2.641  12.847 -0.1344 -0.0888  0.0450
 7867SOL     OW35062   1.069   4.022   7.335 -0.8486  0.4484 -0.1527
 7867SOL    HW135063   1.009   3.956   7.371  2.4058 -1.9521  0.8978
 7867SOL    HW235064   1.142   4.022   7.396 -2.5361  1.3146  1.8711
 7868SOL     OW35065   2.521   3.135   3.624 -0.6507  0.2809  0.2205
 7868SOL    HW135066   2.602   3.089   3.649  0.2489  1.5951 -0.3009
 7868SOL    HW235067   2.549   3.187   3.549 -0.3160 -1.1750 -0.6683
 7869SOL     OW35068   4.454   3.148   5.742 -0.2036  0.3763  0.3855
 7869SOL    HW135069   4.389   3.138   5.812 -0.2725  0.7600  0.3786
 7869SOL    HW235070   4.523   3.190   5.793 -0.1384  1.2056 -0.3803
 7870SOL     OW35071   3.814   4.582   2.820 -0.2151 -0.5828  0.4000
 7870SOL    HW135072   3.821   4.666   2.866  3.0464 -1.2518  1.0862
 7870SOL    HW235073   3.736   4.605   2.769  0.8941  1.4188 -0.3866
 7871SOL     OW35074   1.208   1.203  16.916 -0.9487 -0.3884  0.1205
 7871SOL    HW135075   1.227   1.139  16.848 -1.2787 -0.1588 -0.1925
 7871SOL    HW235076   1.266   1.276  16.895  1.8011 -2.2047  1.5098
 7872SOL     OW35077   0.082   2.457  17.200 -0.2040 -0.1422 -0.2053
 7872SOL    HW135078   0.066   2.540  17.155 -1.0643  1.0507  2.3487
 7872SOL    HW235079   4.711   2.424  17.208 -0.8010  2.1765  2.5814
 7873SOL     OW35080   1.161   1.443   3.865 -0.5890  0.2763 -0.2964
 7873SOL    HW135081   1.067   1.441   3.885 -0.8682  0.1928 -1.5960
 7873SOL    HW235082   1.157   1.506   3.792 -1.6621  1.7473  1.0327
 7874SOL     OW35083   4.186   3.698   0.601 -0.1152  0.5845  0.0507
 7874SOL    HW135084   4.279   3.676   0.606 -0.4811 -0.7121  1.0764
 7874SOL    HW235085   4.136   3.634   0.651 -0.8322  0.3833 -0.9437
 7875SOL     OW35086   0.656   0.421   1.098  0.1258 -0.4471 -0.4215
 7875SOL    HW135087   0.590   0.385   1.158  2.2864 -2.7523  0.5642
 7875SOL    HW235088   0.719   0.349   1.100  1.8086  1.0271  0.1310
 7876SOL     OW35089   3.302   1.405   4.458 -0.4454 -0.0750 -0.0393
 7876SOL    HW135090   3.210   1.412   4.482 -0.8624 -0.4507 -1.5243
 7876SOL    HW235091   3.318   1.311   4.467  1.8882  0.2941 -0.3199
 7877SOL     OW35092   2.532   2.807   2.330 -0.3889  0.4318 -0.1371
 7877SOL    HW135093   2.529   2.750   2.406 -1.6440  2.3568  1.2589
 7877SOL    HW235094   2.475   2.763   2.266 -0.1767  1.2633 -0.9061
 7878SOL     OW35095   4.190   4.250   5.176 -0.0206  0.3735  0.6625
 7878SOL    HW135096   4.101   4.224   5.198 -0.1091 -0.1269 -0.3052
 7878SOL    HW235097   4.197   4.233   5.082  4.8924  1.5195  0.8321
 7879SOL     OW35098   3.775   0.557   7.345 -0.4422  0.2620 -0.0793
 7879SOL    HW135099   3.736   0.527   7.263  1.1844 -1.2442 -0.3157
 7879SOL    HW235100   3.811   0.641   7.318  0.2189  0.0844  0.2431
 7880SOL     OW35101   0.371   1.591   8.601  0.1157 -0.3221 -0.2515
 7880SOL    HW135102   0.324   1.515   8.568 -1.4293 -0.1260  1.4896
 7880SOL    HW235103   0.435   1.605   8.531  1.3804  3.1364  1.6111
 7881SOL     OW35104   2.546   3.328  13.401  0.0397  0.3811 -0.5744
 7881SOL    HW135105   2.540   3.346  13.495  2.0867  1.8559 -0.7353
 7881SOL    HW235106   2.453   3.334  13.378 -0.1957 -1.1229 -0.0821
 7882SOL     OW35107   2.270   1.634   2.861  0.6572  0.1299  0.5019
 7882SOL    HW135108   2.239   1.632   2.771  0.2100 -2.7357  0.7073
 7882SOL    HW235109   2.285   1.729   2.859  1.0209  0.0257 -1.4854
 7883SOL     OW35110   1.709   0.859  10.979 -0.5566  0.3671  0.1999
 7883SOL    HW135111   1.671   0.849  10.892  0.6122  0.1970 -0.2928
 7883SOL    HW235112   1.771   0.931  10.963  0.6002 -0.6158  0.2602
 7884SOL     OW35113   2.360   0.614   2.556  0.0991  0.5196 -0.1494
 7884SOL    HW135114   2.304   0.539   2.577  0.2528  0.4651  0.0605
 7884SOL    HW235115   2.431   0.600   2.619  0.7446 -2.1665 -1.4627
 7885SOL     OW35116   4.157   4.339   2.218 -0.1188 -0.0197 -0.0707
 7885SOL    HW135117   4.197   4.416   2.176 -0.8661  1.2995  1.6409
 7885SOL    HW235118   4.086   4.326   2.156 -0.0875 -0.2368 -0.0598
 7886SOL     OW35119   4.651   2.474   2.804 -0.2872  0.4032  0.0562
 7886SOL    HW135120   4.687   2.431   2.726 -0.1862  0.4294  0.0887
 7886SOL    HW235121   4.587   2.531   2.761  0.0773  0.2021 -0.7501
 7887SOL     OW35122   2.001   0.059   1.455 -0.1853 -0.0152 -0.2101
 7887SOL    HW135123   1.986   0.104   1.538 -1.2408  0.8642 -0.8659
 7887SOL    HW235124   2.060   4.708   1.482  0.6299 -0.3793 -2.9513
 7888SOL     OW35125   0.726   3.532  12.916  0.0637  0.1213  0.1878
 7888SOL    HW135126   0.749   3.613  12.963  1.8600 -0.3920  0.1822
 7888SOL    HW235127   0.664   3.568  12.852 -0.0084  0.6644  0.5609
 7889SOL     OW35128   2.051   0.075   8.598  0.2512  0.0585  0.0085
 7889SOL    HW135129   2.015   0.082   8.687 -0.6940 -2.4302 -0.1644
 7889SOL    HW235130   1.989   0.031   8.541  0.4344 -1.6901  1.1316
 7890SOL     OW35131   1.127   2.074   6.104  0.0294 -0.1028 -0.0158
 7890SOL    HW135132   1.077   2.093   6.025  1.4400 -0.4950 -1.0133
 7890SOL    HW235133   1.072   2.004   6.138  1.1938 -1.0852 -0.1630
 7891SOL     OW35134   0.325   0.781  16.462  0.4330  0.2373 -0.2069
 7891SOL    HW135135   0.273   0.829  16.398  0.1555  0.3218  0.0764
 7891SOL    HW235136   0.343   0.704  16.409 -0.5454  0.0504 -0.2805
 7892SOL     OW35137   3.736   3.070   5.368  0.1983 -0.0383 -0.4314
 7892SOL    HW135138   3.719   3.100   5.279  0.0190 -0.6180 -0.5890
 7892SOL    HW235139   3.831   3.061   5.366  0.2572  0.5785 -0.6788
 7893SOL     OW35140   2.617   1.230   5.510 -0.4399 -0.0878 -0.3760
 7893SOL    HW135141   2.595   1.305   5.455 -2.5402 -1.8696 -1.9077
 7893SOL    HW235142   2.529   1.212   5.541 -0.5678  0.7954 -0.2117
 7894SOL     OW35143   2.877   2.949  11.184  0.4624 -0.0735  0.1396
 7894SOL    HW135144   2.788   2.917  11.174 -0.4439  2.4373  0.2164
 7894SOL    HW235145   2.926   2.873  11.216 -1.7402 -1.5747 -0.0295
 7895SOL     OW35146   2.985   0.230   6.250 -0.1849  0.4961  0.0518
 7895SOL    HW135147   3.006   0.222   6.343  2.0630  1.1074 -0.4028
 7895SOL    HW235148   3.012   0.321   6.235 -1.0039  0.7827  0.3399
 7896SOL     OW35149   4.308   0.900   6.719  0.2169  0.0498 -0.8464
 7896SOL    HW135150   4.235   0.896   6.658  0.2820 -1.9536 -0.8091
 7896SOL    HW235151   4.272   0.847   6.791  3.8274  0.9625  1.5988
 7897SOL     OW35152   0.606   4.338   9.579  0.8016 -0.2721  0.3689
 7897SOL    HW135153   0.617   4.352   9.485 -0.0801  0.9685  0.4532
 7897SOL    HW235154   0.674   4.389   9.623  0.0770 -0.2747  1.4899
 7898SOL     OW35155   1.063   1.893   2.347 -0.1414 -0.3265  0.1021
 7898SOL    HW135156   0.971   1.866   2.351  0.0851 -0.5815  3.7315
 7898SOL    HW235157   1.099   1.834   2.281  0.4106  1.5845 -1.2980
 7899SOL     OW35158   0.684   2.238   5.015  0.0162  0.7914  0.4791
 7899SOL    HW135159   0.662   2.294   4.940  0.0338 -1.3809 -1.1328
 7899SOL    HW235160   0.634   2.157   5.007  1.5677 -0.1519  0.5584
 7900SOL     OW35161   2.708   0.122   1.889  0.1355 -0.0430  0.4095
 7900SOL    HW135162   2.733   0.139   1.798  2.3804  0.7525  1.1612
 7900SOL    HW235163   2.678   0.211   1.905  0.8200  0.5722 -1.7858
 7901SOL     OW35164   1.068   0.006   7.504  0.0111  0.4788 -0.3496
 7901SOL    HW135165   1.051   4.633   7.483 -0.7931  0.3367  0.8719
 7901SOL    HW235166   1.069   0.046   7.417  0.5609 -0.3855 -0.7371
 7902SOL     OW35167   4.645   1.570   7.113  0.3404  0.3935 -0.6680
 7902SOL    HW135168   0.020   1.591   7.123  0.6089 -0.0226 -2.3100
 7902SOL    HW235169   4.611   1.660   7.115 -0.5148  0.1080 -2.1410
 7903SOL     OW35170   4.108   0.874   7.495 -0.1692  0.4638  0.8457
 7903SOL    HW135171   4.186   0.926   7.511  0.3342 -0.1017  0.2478
 7903SOL    HW235172   4.144   0.802   7.443 -2.1534 -0.6713  1.0037
 7904SOL     OW35173   1.043   2.020   7.675  0.0246 -0.0433  0.2128
 7904SOL    HW135174   1.097   1.945   7.701  0.5199  0.5230  0.8324
 7904SOL    HW235175   1.068   2.081   7.744  0.4786  1.2721 -1.1185
 7905SOL     OW35176   0.592   0.611   3.207 -0.4837 -0.3569 -0.2581
 7905SOL    HW135177   0.620   0.570   3.125  0.9218 -2.4208  1.2530
 7905SOL    HW235178   0.678   0.649   3.224  0.0726 -1.7426 -0.0118
 7906SOL     OW35179   0.902   0.452   4.165 -0.0694 -0.3514 -0.6933
 7906SOL    HW135180   0.869   0.508   4.095  2.1252 -0.7086 -2.0018
 7906SOL    HW235181   0.817   0.430   4.202  0.0771  0.1847 -0.0394
 7907SOL     OW35182   3.848   1.018   8.592 -0.1938  0.0729 -0.1304
 7907SOL    HW135183   3.926   1.036   8.644 -0.1053  0.3838 -0.3755
 7907SOL    HW235184   3.865   1.077   8.520 -1.4603 -0.2378 -0.6892
 7908SOL     OW35185   4.191   3.252   5.823 -0.2450 -0.3839 -0.5105
 7908SOL    HW135186   4.186   3.290   5.735 -1.1320 -2.0058 -1.1542
 7908SOL    HW235187   4.252   3.320   5.852 -2.0481  1.9127 -2.0258
 7909SOL     OW35188   3.321   3.689  11.361  0.1611 -0.5552 -0.2238
 7909SOL    HW135189   3.230   3.681  11.332 -0.2021  1.0638  0.4904
 7909SOL    HW235190   3.332   3.609  11.412 -2.1895 -0.3731  0.5880
 7910SOL     OW35191   3.310   1.156  17.213  0.4580 -0.1307  0.4154
 7910SOL    HW135192   3.227   1.193  17.244  0.7486  0.7384  0.1626
 7910SOL    HW235193   3.287   1.121  17.127 -0.4889  0.4637  0.4222
 7911SOL     OW35194   4.576   0.981   6.647  0.3521 -0.2500 -0.4942
 7911SOL    HW135195   4.596   0.895   6.609 -2.3435 -1.1725  0.2149
 7911SOL    HW235196   4.490   0.962   6.683  0.8898  0.5126  1.2197
 7912SOL     OW35197   0.771   2.866   6.740 -0.1314 -0.2072  0.0955
 7912SOL    HW135198   0.800   2.957   6.748 -0.8704  0.0686 -0.3907
 7912SOL    HW235199   0.842   2.820   6.784 -0.0260  0.0297  0.1722
 7913SOL     OW35200   0.472   3.612   8.367 -0.2822 -0.0635 -0.1159
 7913SOL    HW135201   0.403   3.634   8.305 -0.3154  1.7686  0.5690
 7913SOL    HW235202   0.443   3.651   8.450 -1.2681  0.0137 -0.4967
 7914SOL     OW35203   2.275   3.356  17.444  0.2829  0.3302  0.0623
 7914SOL    HW135204   2.184   3.380  17.427 -0.4071 -0.6996  2.2415
 7914SOL    HW235205   2.256   3.275  17.492 -3.3383  0.4129 -1.1969
 7915SOL     OW35206   2.601   1.849   7.507  0.1012  0.5534  0.2019
 7915SOL    HW135207   2.569   1.818   7.591 -0.6171 -2.1565 -1.0901
 7915SOL    HW235208   2.519   1.845   7.459  0.3628 -3.1990  0.1251
 7916SOL     OW35209   0.282   3.830   9.470 -0.1506 -0.1131 -0.8548
 7916SOL    HW135210   0.271   3.890   9.396  0.8489  0.9586 -0.1469
 7916SOL    HW235211   0.193   3.826   9.505  0.0827 -0.7592 -0.3340
 7917SOL     OW35212   4.156   4.078   7.112  0.1025 -0.4312 -0.0502
 7917SOL    HW135213   4.142   3.991   7.148  1.8387 -0.4674  0.5137
 7917SOL    HW235214   4.169   4.121   7.197 -0.3002  1.7064 -1.0549
 7918SOL     OW35215   3.053   2.620   7.366  0.0245  0.1691  0.0801
 7918SOL    HW135216   3.137   2.583   7.391  0.5507  0.7907 -0.7833
 7918SOL    HW235217   3.065   2.624   7.271  1.1244  0.1414  0.2167
 7919SOL     OW35218   4.456   2.655  10.157  0.4718 -0.1804 -0.3828
 7919SOL    HW135219   4.459   2.703  10.075 -1.9819  0.9377  0.1942
 7919SOL    HW235220   4.527   2.707  10.196 -1.2749  2.6214 -0.9653
 7920SOL     OW35221   2.901   4.080   4.488 -0.1908 -0.3573 -0.6588
 7920SOL    HW135222   2.953   4.000   4.491 -0.7940 -0.6387  2.4322
 7920SOL    HW235223   2.843   4.044   4.420 -1.7483 -0.6748  0.8321
 7921SOL     OW35224   0.184   0.422   6.052 -0.5351  0.0322 -0.0835
 7921SOL    HW135225   0.254   0.419   5.987 -1.6259  0.9816 -1.2972
 7921SOL    HW235226   0.228   0.444   6.134 -1.3665  4.4354 -0.8193
 7922SOL     OW35227   1.740   3.948   6.622 -0.2852 -0.7540 -0.3584
 7922SOL    HW135228   1.811   3.960   6.686 -0.0818 -1.4922 -0.4479
 7922SOL    HW235229   1.675   3.911   6.682 -1.1200 -2.2612 -2.2037
 7923SOL     OW35230   0.402   2.559   5.642  0.3564 -0.5013  0.0772
 7923SOL    HW135231   0.403   2.627   5.709  0.8689  1.2097 -1.6421
 7923SOL    HW235232   0.311   2.531   5.639  0.6244 -1.2871 -0.5665
 7924SOL     OW35233   3.802   0.813   7.231 -0.2472  0.8042 -0.5502
 7924SOL    HW135234   3.835   0.821   7.142 -1.0326 -0.9220 -1.0020
 7924SOL    HW235235   3.708   0.828   7.219 -0.1024  0.0725 -2.5963
 7925SOL     OW35236   2.805   0.340   2.204 -0.1910 -0.1695  0.0361
 7925SOL    HW135237   2.804   0.381   2.118 -0.5380  0.2367  0.2293
 7925SOL    HW235238   2.720   0.297   2.214  0.3590 -0.9895  1.1880
 7926SOL     OW35239   0.301   2.872   5.462  0.5098 -0.7619 -0.2340
 7926SOL    HW135240   0.296   2.829   5.547 -2.0196 -0.2853 -0.1629
 7926SOL    HW235241   0.382   2.832   5.429  0.6331  0.8248 -1.9046
 7927SOL     OW35242   3.961   2.745   6.881 -0.1419 -0.3813 -0.1888
 7927SOL    HW135243   3.907   2.816   6.916 -2.2710 -1.9232 -0.3619
 7927SOL    HW235244   4.035   2.762   6.939 -0.9873  1.0825  0.4762
 7928SOL     OW35245   2.474   2.570   0.916 -0.5161  0.6543  0.3366
 7928SOL    HW135246   2.424   2.652   0.912 -1.9818 -0.3536 -1.9806
 7928SOL    HW235247   2.426   2.508   0.862 -1.4994 -0.6404  2.7285
 7929SOL     OW35248   0.566   4.416   7.146  0.7277 -0.3864 -0.1205
 7929SOL    HW135249   0.568   4.509   7.124  1.2836 -0.1204  1.0520
 7929SOL    HW235250   0.541   4.428   7.237 -0.2490 -1.1573 -0.2843
 7930SOL     OW35251   3.619   3.639  16.644  0.3358 -0.0564  0.3144
 7930SOL    HW135252   3.601   3.552  16.679  2.4718  0.1819  2.0183
 7930SOL    HW235253   3.536   3.679  16.670 -0.3888 -1.3648  0.0166
 7931SOL     OW35254   4.576   4.637   2.161  0.3407  0.9563  0.1356
 7931SOL    HW135255   4.496   4.631   2.109  2.2821 -0.8291 -2.6341
 7931SOL    HW235256   4.537   4.673   2.241  1.6163  0.1475  1.1361
 7932SOL     OW35257   1.744   1.093  12.228  0.2500  0.1822 -0.2479
 7932SOL    HW135258   1.808   1.152  12.269 -0.5013  0.1027  1.0689
 7932SOL    HW235259   1.777   1.067  12.143 -1.1025  2.2402 -1.3990
 7933SOL     OW35260   1.081   2.823   4.010 -0.4529  0.2152 -0.6044
 7933SOL    HW135261   1.090   2.780   3.925 -0.9524  0.1142 -0.6027
 7933SOL    HW235262   1.030   2.899   3.984 -1.2188  0.9619  3.0595
 7934SOL     OW35263   4.243   1.553   7.304 -0.1223 -0.2216  0.5569
 7934SOL    HW135264   4.158   1.517   7.330 -0.0602  0.9023  2.3809
 7934SOL    HW235265   4.298   1.479   7.329  0.8488 -0.1858 -1.5363
 7935SOL     OW35266   1.603   0.028   7.916 -0.0967  0.0929 -0.5481
 7935SOL    HW135267   1.580   0.088   7.846 -4.3991 -0.3109  0.4686
 7935SOL    HW235268   1.683   0.062   7.957 -1.6126  2.5483  0.3826
 7936SOL     OW35269   4.022   0.489   7.720  0.5335  0.1117 -0.5594
 7936SOL    HW135270   4.066   0.574   7.719 -0.7367  0.7662  0.0597
 7936SOL    HW235271   3.955   0.505   7.786  0.5984 -1.9994  0.0210
 7937SOL     OW35272   0.740   4.657   7.283  0.1349 -0.0597 -0.2776
 7937SOL    HW135273   0.736   4.622   7.372 -0.5231 -1.5690 -0.9012
 7937SOL    HW235274   0.653   4.644   7.247  0.2942  0.1715 -0.7560
 7938SOL     OW35275   2.247   0.213   5.781  0.5080  0.1987 -0.2396
 7938SOL    HW135276   2.248   0.166   5.864 -0.5272 -1.3523 -1.0849
 7938SOL    HW235277   2.186   0.283   5.804 -0.4807 -0.2379 -1.5084
 7939SOL     OW35278   0.289   3.013   5.147 -0.0544 -0.0466 -0.0392
 7939SOL    HW135279   0.372   3.059   5.160 -0.2711  0.6482 -1.1468
 7939SOL    HW235280   0.244   3.086   5.106 -0.4179  0.1225  0.6480
 7940SOL     OW35281   0.215   2.139   6.980 -0.2897  0.4775 -0.2700
 7940SOL    HW135282   0.160   2.133   7.058 -1.4549 -2.2065 -1.3108
 7940SOL    HW235283   0.210   2.048   6.952 -1.5307  1.1629 -2.2947
 7941SOL     OW35284   3.505   0.603   8.496 -0.0332  0.3990  0.1783
 7941SOL    HW135285   3.514   0.628   8.589  0.8559 -0.9933  0.4527
 7941SOL    HW235286   3.566   0.666   8.458  0.7235 -0.6402 -0.3116
 7942SOL     OW35287   2.817   3.661   5.618  0.1576  0.7357 -0.4069
 7942SOL    HW135288   2.750   3.723   5.589 -0.5335  0.0846 -0.1948
 7942SOL    HW235289   2.836   3.680   5.710  1.3078  0.5721 -0.6050
 7943SOL     OW35290   0.223   3.666   1.095  0.5585 -0.4118 -0.1379
 7943SOL    HW135291   0.152   3.723   1.066  1.2207 -1.3247 -3.5513
 7943SOL    HW235292   0.209   3.589   1.040  3.1455 -2.3806  1.9731
 7944SOL     OW35293   1.759   3.490   2.866 -0.1762  0.4756  0.2519
 7944SOL    HW135294   1.684   3.460   2.815  0.7481  0.3072 -1.0086
 7944SOL    HW235295   1.755   3.580   2.831  0.6011  0.7078  0.7510
 7945SOL     OW35296   1.980   0.335   7.496 -0.5016 -0.1435 -0.4727
 7945SOL    HW135297   1.916   0.279   7.453  0.8963 -1.0429 -1.4054
 7945SOL    HW235298   1.929   0.412   7.517 -1.7955 -1.1157 -0.0408
 7946SOL     OW35299   1.685   2.516  12.989 -0.2771 -0.9118  0.0943
 7946SOL    HW135300   1.691   2.610  12.971 -0.7133 -0.9368 -0.2010
 7946SOL    HW235301   1.744   2.509  13.064 -2.0928 -3.1053  1.3139
 7947SOL     OW35302   3.223   3.096  12.913 -0.1388 -0.5905 -0.1126
 7947SOL    HW135303   3.286   3.027  12.935  0.0989 -1.3241 -3.1205
 7947SOL    HW235304   3.278   3.143  12.850  0.9845  0.1014  1.3957
 7948SOL     OW35305   0.530   3.543   4.455 -0.0478  0.0223 -0.0462
 7948SOL    HW135306   0.624   3.558   4.464 -0.0682  0.7177 -1.1155
 7948SOL    HW235307   0.537   3.491   4.375 -0.7195  2.4806 -1.6824
 7949SOL     OW35308   3.225   2.652   1.050  0.6496 -0.2366 -0.0718
 7949SOL    HW135309   3.231   2.735   1.096  3.2026  0.0374 -0.9085
 7949SOL    HW235310   3.264   2.594   1.115  1.2583  1.8468  1.3855
 7950SOL     OW35311   1.784   1.100   5.705 -0.1221  0.6045 -0.3318
 7950SOL    HW135312   1.855   1.044   5.736  0.5863  0.1102 -2.8094
 7950SOL    HW235313   1.833   1.158   5.646  2.8274 -0.8110  0.7455
 7951SOL     OW35314   0.630   3.569   7.727 -0.3909  0.0367  0.4454
 7951SOL    HW135315   0.643   3.490   7.780  2.7742  0.0062 -0.3820
 7951SOL    HW235316   0.613   3.532   7.641 -0.3702 -0.9814  0.8770
 7952SOL     OW35317   4.456   0.811   9.570  0.4553  0.1489  0.3764
 7952SOL    HW135318   4.524   0.862   9.525  0.5067  0.2334  0.5519
 7952SOL    HW235319   4.390   0.782   9.507  0.1170  1.2306  0.2277
 7953SOL     OW35320   3.048   3.953   3.430 -0.2539  0.2435 -0.0616
 7953SOL    HW135321   2.973   3.894   3.431  0.6195 -0.7842  2.6411
 7953SOL    HW235322   3.004   4.022   3.380  0.2415 -0.5443 -1.5833
 7954SOL     OW35323   4.593   2.140   6.710  0.3282 -0.4104 -0.4103
 7954SOL    HW135324   4.670   2.136   6.653 -1.1895  1.0010 -2.5612
 7954SOL    HW235325   4.551   2.068   6.663 -0.8555  1.2685 -1.9182
 7955SOL     OW35326   0.038   4.234  10.108  0.4935  0.8251  0.3107
 7955SOL    HW135327   0.003   4.246  10.020  1.0184  2.3489  0.3121
 7955SOL    HW235328   0.131   4.231  10.087 -0.0698 -0.4938 -2.0331
 7956SOL     OW35329   1.355   3.730   1.617  0.0605  0.5481  0.1198
 7956SOL    HW135330   1.314   3.802   1.571  0.0540 -0.3649 -1.2952
 7956SOL    HW235331   1.372   3.780   1.697 -0.2097 -0.7758  1.0142
 7957SOL     OW35332   1.701   1.859   5.870  0.3645  0.4909 -0.2942
 7957SOL    HW135333   1.709   1.914   5.792  0.0593 -0.7512 -1.1964
 7957SOL    HW235334   1.671   1.918   5.939  0.1635 -0.5975  0.5593
 7958SOL     OW35335   4.182   1.928  10.887 -0.1093 -0.3502 -0.1426
 7958SOL    HW135336   4.087   1.936  10.888 -0.1786 -1.3808  2.0263
 7958SOL    HW235337   4.192   1.833  10.880 -2.3423 -0.5640 -0.2819
 7959SOL     OW35338   2.466   1.618   3.101  0.3207  0.1010  0.4328
 7959SOL    HW135339   2.522   1.694   3.119 -0.8679  1.0532  0.0435
 7959SOL    HW235340   2.384   1.666   3.097 -1.1785 -2.6415 -1.2157
 7960SOL     OW35341   1.415   4.222   0.517  0.0938  0.0514 -0.3864
 7960SOL    HW135342   1.392   4.315   0.524  2.9654  0.6543  0.7833
 7960SOL    HW235343   1.502   4.220   0.556  0.0210  0.7152 -0.1966
 7961SOL     OW35344   0.636   1.166   9.045 -0.5314 -0.3824 -0.3839
 7961SOL    HW135345   0.636   1.249   9.092  0.2050 -0.9122  0.5600
 7961SOL    HW235346   0.729   1.144   9.039 -0.3292 -0.0025  1.2509
 7962SOL     OW35347   0.873   3.137   8.820  0.2060 -0.4351  0.1666
 7962SOL    HW135348   0.948   3.090   8.784  1.8931  2.3895 -0.0064
 7962SOL    HW235349   0.872   3.219   8.771  2.5411 -0.1749  0.5762
 7963SOL     OW35350   2.503   2.203  15.132 -0.2940 -0.4604 -0.3252
 7963SOL    HW135351   2.441   2.130  15.123 -0.3591 -0.5225  0.6230
 7963SOL    HW235352   2.563   2.178  15.061  0.9010 -1.0550  0.8741
 7964SOL     OW35353   3.370   0.921  14.318 -0.1665 -0.2541 -0.1689
 7964SOL    HW135354   3.450   0.869  14.306 -0.5813 -0.7833 -0.6218
 7964SOL    HW235355   3.412   0.999  14.354  1.7704 -1.0535 -0.6693
 7965SOL     OW35356   0.011   1.446   6.203  0.5527  0.1752  0.3949
 7965SOL    HW135357   4.678   1.527   6.205  1.8169  0.9305  2.9199
 7965SOL    HW235358   0.090   1.498   6.220  0.4989 -0.3534  2.2672
 7966SOL     OW35359   2.481   3.620   3.551 -0.4747 -0.2592  0.6062
 7966SOL    HW135360   2.400   3.590   3.508 -0.0910 -0.0102 -0.2900
 7966SOL    HW235361   2.493   3.703   3.505 -1.1463 -0.4192  0.1426
 7967SOL     OW35362   1.579   0.990  16.682 -0.0720  0.0055 -0.0267
 7967SOL    HW135363   1.665   1.005  16.643  0.7370 -0.1441  1.6890
 7967SOL    HW235364   1.542   0.941  16.608 -0.0809  1.9099 -1.2810
 7968SOL     OW35365   1.202   2.379  15.102 -0.5141 -0.6477  0.1831
 7968SOL    HW135366   1.192   2.455  15.044 -0.2631 -4.0237 -4.2114
 7968SOL    HW235367   1.150   2.317  15.051  0.9107 -0.7227 -1.1392
 7969SOL     OW35368   4.335   0.044  16.102 -0.3310  0.3299  0.4055
 7969SOL    HW135369   4.429   0.064  16.104 -0.2487  0.0414 -0.7118
 7969SOL    HW235370   4.306   0.120  16.152  2.9420  0.8240  1.5612
 7970SOL     OW35371   1.709   2.157   2.279 -0.1709 -0.3107 -0.5961
 7970SOL    HW135372   1.697   2.117   2.193 -1.4352 -1.8708  0.3091
 7970SOL    HW235373   1.799   2.188   2.291 -0.3027 -0.4140  0.5909
 7971SOL     OW35374   3.909   0.977  11.201 -0.4356  0.6447 -0.3736
 7971SOL    HW135375   3.970   1.049  11.217  0.1622  0.1745 -0.5458
 7971SOL    HW235376   3.848   0.983  11.275 -3.6880  0.7668 -3.0894
 7972SOL     OW35377   4.368   3.480   8.246 -0.1387  0.2223  0.3593
 7972SOL    HW135378   4.376   3.568   8.209  0.5448  0.2446  0.5499
 7972SOL    HW235379   4.363   3.425   8.168 -2.1512 -2.4746  2.3644
 7973SOL     OW35380   3.968   0.171   7.852 -0.4414  0.2126 -0.0311
 7973SOL    HW135381   3.979   0.257   7.892 -0.8620  0.4431 -0.4081
 7973SOL    HW235382   3.884   0.188   7.809  0.6255 -0.8447 -2.4926
 7974SOL     OW35383   3.327   3.809  16.639  0.2953 -0.7408  0.7819
 7974SOL    HW135384   3.236   3.836  16.652  0.7177  1.0121  0.0843
 7974SOL    HW235385   3.350   3.845  16.553 -0.2744  0.1149  0.9885
 7975SOL     OW35386   2.042   3.452  11.052 -0.5065 -0.2670 -0.0812
 7975SOL    HW135387   1.998   3.441  11.136 -1.3895  1.0664 -0.3649
 7975SOL    HW235388   1.996   3.525  11.009  0.3385  0.3623  0.0860
 7976SOL     OW35389   4.668   3.566   8.940 -0.3392 -0.3797  0.0554
 7976SOL    HW135390   4.692   3.493   8.883  0.5897 -0.0401  0.0196
 7976SOL    HW235391   4.633   3.521   9.018 -1.5258 -2.2251 -1.5159
 7977SOL     OW35392   3.391   1.542   7.424 -0.2040  0.4790  0.0458
 7977SOL    HW135393   3.309   1.494   7.425  0.1578 -0.1007  1.4048
 7977SOL    HW235394   3.440   1.498   7.493  0.6725 -1.5630 -1.8907
 7978SOL     OW35395   3.234   0.948   2.674 -0.0321 -0.0160 -0.2920
 7978SOL    HW135396   3.192   0.907   2.599  1.2712  0.2789 -1.1683
 7978SOL    HW235397   3.169   0.932   2.743 -0.0108  0.5317 -0.1445
 7979SOL     OW35398   4.289   3.478   6.516 -0.2067  0.1929  0.7651
 7979SOL    HW135399   4.314   3.488   6.425 -1.9504  0.3320  0.2920
 7979SOL    HW235400   4.315   3.387   6.526  1.7472  0.6088 -0.6203
 7980SOL     OW35401   0.618   2.283   9.528 -0.1113  0.2533 -0.0679
 7980SOL    HW135402   0.659   2.337   9.460  2.0929  0.7999  1.6843
 7980SOL    HW235403   0.578   2.353   9.580  0.2467  1.1257 -0.9599
 7981SOL     OW35404   1.307   2.142   5.635 -0.0569 -0.6286 -0.0374
 7981SOL    HW135405   1.370   2.215   5.642  0.1771 -0.9874  1.6678
 7981SOL    HW235406   1.359   2.090   5.575 -0.8728 -0.5230 -0.8193
 7982SOL     OW35407   4.511   4.458   7.741  0.1267 -0.1762 -0.4072
 7982SOL    HW135408   4.434   4.487   7.789 -1.0787  0.3343 -2.6518
 7982SOL    HW235409   4.499   4.506   7.659 -2.0994 -0.8036 -0.4340
 7983SOL     OW35410   1.696   2.170   6.406  0.4806  0.2282  0.1805
 7983SOL    HW135411   1.607   2.176   6.440  0.6410 -1.5408  0.8795
 7983SOL    HW235412   1.689   2.202   6.316  0.3863  0.6523  0.3377
 7984SOL     OW35413   4.275   1.214   8.234  0.4962 -0.1597  0.4700
 7984SOL    HW135414   4.192   1.242   8.272  1.9438  0.7643  2.9727
 7984SOL    HW235415   4.234   1.146   8.181 -0.4615  1.6856 -1.1235
 7985SOL     OW35416   3.136   0.471   6.849 -0.2637  0.0617 -0.3740
 7985SOL    HW135417   3.074   0.534   6.812  0.6451  0.2694 -1.5367
 7985SOL    HW235418   3.115   0.489   6.941  1.1484 -2.1638  0.3742
 7986SOL     OW35419   4.424   0.178   2.113 -0.4215  0.2440 -0.0592
 7986SOL    HW135420   4.371   0.256   2.129 -0.9662 -0.6693  2.4511
 7986SOL    HW235421   4.513   0.212   2.125  0.2537 -1.6136  0.2150
 7987SOL     OW35422   3.982   2.563  15.535  0.1342 -0.1507  0.1281
 7987SOL    HW135423   4.059   2.547  15.481  0.3589 -0.9978  0.7024
 7987SOL    HW235424   3.931   2.482  15.537  1.3883 -0.9572 -0.7997
 7988SOL     OW35425   0.443   1.257  14.495 -0.6076 -0.2358 -0.1421
 7988SOL    HW135426   0.376   1.226  14.433 -0.1469 -1.7028  0.0890
 7988SOL    HW235427   0.443   1.186  14.559  2.1548 -0.6759 -0.6325
 7989SOL     OW35428   4.596   3.332   3.718 -0.1256 -0.8416  0.5883
 7989SOL    HW135429   4.671   3.391   3.728 -0.7279 -0.1308  0.9620
 7989SOL    HW235430   4.562   3.371   3.637  2.6983 -3.8099 -1.9899
 7990SOL     OW35431   2.370   1.616  11.520 -0.0383  0.2707  0.2330
 7990SOL    HW135432   2.395   1.545  11.460 -0.4145  0.9052 -0.6833
 7990SOL    HW235433   2.364   1.576  11.606 -1.3774  1.0108  0.4802
 7991SOL     OW35434   0.159   2.940   5.994 -0.0002 -0.1015  0.5356
 7991SOL    HW135435   0.159   2.960   6.087  2.1524  1.6028  0.1626
 7991SOL    HW235436   0.096   2.999   5.953  0.9845  0.5053 -0.1034
 7992SOL     OW35437   3.596   2.498   6.461  0.1809  0.1220  0.0346
 7992SOL    HW135438   3.653   2.541   6.525  0.6703 -2.3594  1.2635
 7992SOL    HW235439   3.522   2.557   6.445 -0.9658 -0.5728  2.9484
 7993SOL     OW35440   2.553   0.589   3.215  0.3039 -0.1339  0.0833
 7993SOL    HW135441   2.523   0.589   3.124 -0.9275 -1.9745  0.4842
 7993SOL    HW235442   2.473   0.616   3.260  1.7518  0.8718  2.0063
 7994SOL     OW35443   2.497   4.277   5.961  0.1025 -0.1446  0.1941
 7994SOL    HW135444   2.508   4.188   5.928  0.7165  0.1533 -0.4064
 7994SOL    HW235445   2.577   4.309   5.919  0.1262 -0.1795  0.2124
 7995SOL     OW35446   0.204   4.370   5.699 -0.1628 -0.1712 -0.0221
 7995SOL    HW135447   0.173   4.442   5.644  0.4132 -0.0382 -0.1731
 7995SOL    HW235448   0.144   4.378   5.773  0.1576  0.6908  0.1438
 7996SOL     OW35449   2.836   2.685   2.861 -0.0014 -0.2886  0.5758
 7996SOL    HW135450   2.800   2.664   2.774 -0.3484  0.7900  0.4609
 7996SOL    HW235451   2.765   2.730   2.907 -0.3940  0.7031 -1.0065
 7997SOL     OW35452   4.442   3.348   8.984  0.3967 -0.7226 -0.0427
 7997SOL    HW135453   4.404   3.295   8.914  1.1037  0.9509 -1.6838
 7997SOL    HW235454   4.430   3.282   9.053 -0.8091  2.1884  2.5378
 7998SOL     OW35455   4.671   0.297   2.065 -0.6089  0.8458 -0.6576
 7998SOL    HW135456   4.682   0.371   2.125 -2.5287 -0.7652  1.6912
 7998SOL    HW235457   4.631   0.342   1.991 -1.4355  1.7853  0.3701
 7999SOL     OW35458   4.304   0.433   2.713 -0.0786  0.0504 -0.0969
 7999SOL    HW135459   4.241   0.422   2.642  0.2065  1.3968 -0.5670
 7999SOL    HW235460   4.265   0.515   2.744 -0.3714  0.2748 -1.0758
 8000SOL     OW35461   2.875   3.028   1.325  0.3981 -0.4312 -0.0157
 8000SOL    HW135462   2.875   2.951   1.268 -3.6214 -2.1648  2.3458
 8000SOL    HW235463   2.914   2.990   1.404 -1.0102 -2.7067 -0.4329
 8001SOL     OW35464   0.442   0.007  17.314 -0.0859 -0.3400 -0.4240
 8001SOL    HW135465   0.470   4.645  17.359 -0.9373 -0.3618  0.0637
 8001SOL    HW235466   0.355   0.032  17.345 -0.9820 -2.1646 -1.4425
 8002SOL     OW35467   1.077   0.978   3.014 -0.4070  0.2864  0.3898
 8002SOL    HW135468   1.016   1.045   3.044  0.5937  1.6164 -0.5341
 8002SOL    HW235469   1.065   0.983   2.919 -0.6822  1.9803  0.5250
 8003SOL     OW35470   2.901   4.002  15.672 -0.3221  0.3327 -0.1060
 8003SOL    HW135471   2.956   4.025  15.596  0.6948 -1.1921  0.1589
 8003SOL    HW235472   2.928   3.912  15.693 -0.8244  0.1763 -0.1424
 8004SOL     OW35473   1.084   2.673   4.239  0.6700  0.6553 -0.8200
 8004SOL    HW135474   1.066   2.735   4.169 -0.6580 -1.3536 -2.2394
 8004SOL    HW235475   1.173   2.652   4.209  0.9999 -1.1511  1.4345
 8005SOL     OW35476   0.774   0.063   6.922 -0.1290  0.2042  0.4919
 8005SOL    HW135477   0.861   0.074   6.886  1.3468 -2.3198  3.2344
 8005SOL    HW235478   0.736   0.128   6.863 -1.4702 -0.2145  0.8929
 8006SOL     OW35479   4.483   2.048   0.909  0.0296 -0.1885 -0.0594
 8006SOL    HW135480   4.551   2.007   0.962  1.7262  1.3507 -1.0806
 8006SOL    HW235481   4.408   2.032   0.967  1.2033  0.1670  1.5438
 8007SOL     OW35482   1.041   2.671   4.513 -0.1561  0.2359 -0.2181
 8007SOL    HW135483   1.040   2.683   4.418  3.3060 -1.7215 -0.4799
 8007SOL    HW235484   1.045   2.765   4.531  1.2340  0.3550 -1.1629
 8008SOL     OW35485   3.831   0.848  17.430 -0.1330 -0.3840  0.3928
 8008SOL    HW135486   3.758   0.798  17.394  0.5844 -0.0360 -1.5131
 8008SOL    HW235487   3.876   0.878  17.352 -1.4878  0.9479  0.1158
 8009SOL     OW35488   1.815   4.536   1.409 -0.3153 -0.0876  0.2197
 8009SOL    HW135489   1.786   4.528   1.500  1.8406  0.3509  0.9424
 8009SOL    HW235490   1.887   4.597   1.423  0.3817 -1.0888  1.0081
 8010SOL     OW35491   4.568   0.607   1.357 -0.0325 -0.5583 -0.4892
 8010SOL    HW135492   4.507   0.622   1.285 -0.0065  1.8000 -0.0141
 8010SOL    HW235493   4.527   0.672   1.413  0.5381 -0.1190 -0.5852
 8011SOL     OW35494   0.646   0.102   8.931 -0.4836  0.2445 -0.4202
 8011SOL    HW135495   0.617   0.185   8.896  1.0677 -0.0809 -2.4668
 8011SOL    HW235496   0.701   0.079   8.856 -1.3977 -0.4274 -0.8909
 8012SOL     OW35497   0.112   1.519   4.669 -0.3537  0.0304  0.0318
 8012SOL    HW135498   0.179   1.539   4.734  0.9416 -1.8336 -0.7419
 8012SOL    HW235499   0.066   1.451   4.719  0.3181 -3.0032 -3.5483
 8013SOL     OW35500   2.224   1.840   2.064  0.2857  0.4732 -0.1373
 8013SOL    HW135501   2.223   1.935   2.078 -0.4494  0.7365 -1.9713
 8013SOL    HW235502   2.138   1.814   2.095  1.3659 -2.6175  0.2666
 8014SOL     OW35503   3.541   2.621   9.846 -0.3002 -0.4544  0.1547
 8014SOL    HW135504   3.492   2.596   9.925 -0.2327 -0.5337  0.1718
 8014SOL    HW235505   3.504   2.558   9.785 -0.3402 -0.5523  0.2792
 8015SOL     OW35506   2.081   3.309  11.715  0.0115 -0.3185 -0.4413
 8015SOL    HW135507   2.174   3.307  11.693  0.5246  1.4500  1.5981
 8015SOL    HW235508   2.042   3.394  11.696 -2.0348 -1.3287 -0.7887
 8016SOL     OW35509   3.621   3.682   2.235 -0.7960  1.2780  0.3697
 8016SOL    HW135510   3.657   3.661   2.321  1.5819  0.7114 -0.7400
 8016SOL    HW235511   3.697   3.695   2.177 -0.4950 -1.7421  0.0759
 8017SOL     OW35512   2.738   1.735   1.380 -0.0739  0.0251  0.1927
 8017SOL    HW135513   2.676   1.661   1.378 -0.8619  0.7051 -0.5692
 8017SOL    HW235514   2.692   1.794   1.321  3.2900  1.4184 -1.0152
 8018SOL     OW35515   1.286   0.415   7.143 -0.3475  0.2745 -0.0565
 8018SOL    HW135516   1.273   0.320   7.140 -2.4211  0.5499  0.4754
 8018SOL    HW235517   1.197   0.442   7.164  0.2275  3.4193 -1.5145
 8019SOL     OW35518   0.306   1.911   2.536  0.1918  0.1090  0.4221
 8019SOL    HW135519   0.226   1.963   2.541 -0.7706 -1.3899  0.8755
 8019SOL    HW235520   0.270   1.823   2.550 -0.0731  0.3436  1.1858
 8020SOL     OW35521   3.448   3.998   3.430 -0.1547  0.2376  0.4377
 8020SOL    HW135522   3.405   4.072   3.473 -3.2870 -0.0139 -2.3107
 8020SOL    HW235523   3.394   3.983   3.352  2.2708 -1.4023 -0.9496
 8021SOL     OW35524   1.091   1.644   1.163 -0.2385  0.2633 -0.2253
 8021SOL    HW135525   1.036   1.685   1.229 -2.4563 -1.7948 -0.7968
 8021SOL    HW235526   1.034   1.639   1.086  0.1938 -0.1407 -0.5244
 8022SOL     OW35527   2.786   2.723   6.488  0.3286  0.1013  0.1485
 8022SOL    HW135528   2.750   2.811   6.504 -3.0260 -0.8818 -1.8542
 8022SOL    HW235529   2.837   2.746   6.411  1.4413 -1.3285  0.4733
 8023SOL     OW35530   2.138   0.108   6.996 -0.3649 -0.4929  0.4048
 8023SOL    HW135531   2.057   0.086   7.041 -0.0604 -0.1913  1.1085
 8023SOL    HW235532   2.127   0.202   6.981 -0.1450 -0.6521 -0.7914
 8024SOL     OW35533   3.427   3.360   2.177 -0.1661  0.0578  0.6070
 8024SOL    HW135534   3.369   3.366   2.101  1.4004 -1.9727 -0.7596
 8024SOL    HW235535   3.490   3.430   2.159 -0.8223  0.7059  0.8431
 8025SOL     OW35536   2.391   3.924   5.065  0.0453  0.6729  0.3100
 8025SOL    HW135537   2.387   3.945   4.972  1.1848  0.0234  0.1155
 8025SOL    HW235538   2.451   3.992   5.094 -2.5419  2.6430  1.0134
 8026SOL     OW35539   0.449   3.638   9.097  0.2660 -0.5993  0.3652
 8026SOL    HW135540   0.421   3.556   9.056  0.3747  0.6673 -2.2573
 8026SOL    HW235541   0.479   3.613   9.184 -0.3186 -1.6900  0.2555
 8027SOL     OW35542   3.431   1.085   2.478  0.3545  0.2417  0.1724
 8027SOL    HW135543   3.344   1.120   2.461  0.8552  2.5000  2.3344
 8027SOL    HW235544   3.426   1.055   2.569  0.9337 -1.5608 -0.3807
 8028SOL     OW35545   2.002   2.484   5.503 -0.4327 -0.7725  0.2060
 8028SOL    HW135546   1.964   2.521   5.423  1.6991  2.3344  0.6028
 8028SOL    HW235547   2.093   2.464   5.481 -0.1198  0.7302  0.0893
 8029SOL     OW35548   0.967   1.961   4.825  0.2574  0.0644  0.1881
 8029SOL    HW135549   1.033   2.029   4.835 -0.2878  0.6157  0.0744
 8029SOL    HW235550   0.952   1.974   4.731  1.9578 -1.8401 -0.3539
 8030SOL     OW35551   2.156   3.017  16.946 -0.0587  0.2287 -0.0529
 8030SOL    HW135552   2.238   2.972  16.966 -1.2029 -1.6168  0.4845
 8030SOL    HW235553   2.157   3.100  16.992  2.1527  1.1190 -1.7144
 8031SOL     OW35554   0.785   0.237   7.206  0.4748 -0.4753 -0.0529
 8031SOL    HW135555   0.706   0.279   7.174  0.6703 -2.6041 -3.3940
 8031SOL    HW235556   0.756   0.147   7.223 -0.5454  0.0772  1.0899
 8032SOL     OW35557   1.752   4.546   3.426 -0.0657 -0.1867  0.0000
 8032SOL    HW135558   1.659   4.542   3.403 -0.3778 -1.4561  1.4435
 8032SOL    HW235559   1.743   4.492   3.505 -0.0383  2.4105  1.7764
 8033SOL     OW35560   2.967   2.527   5.516 -0.2183 -0.2288 -0.5092
 8033SOL    HW135561   2.909   2.501   5.587 -1.1038  2.0243 -0.4006
 8033SOL    HW235562   3.048   2.533   5.565 -0.0812  4.6712 -1.3443
 8034SOL     OW35563   1.862   2.416   4.996 -0.2494  0.3454  0.8485
 8034SOL    HW135564   1.910   2.493   4.967  1.1722 -1.4502 -1.5836
 8034SOL    HW235565   1.847   2.436   5.088  0.5817  0.8574  0.8749
 8035SOL     OW35566   3.514   3.507   9.763  0.0664  0.5890  0.0464
 8035SOL    HW135567   3.418   3.503   9.765 -0.0694  3.3486 -0.6557
 8035SOL    HW235568   3.535   3.415   9.748  1.2776  0.6467  1.4675
 8036SOL     OW35569   3.917   4.340   4.776 -0.4846  0.5062 -0.1075
 8036SOL    HW135570   3.875   4.425   4.761 -1.4171  0.0659 -0.0143
 8036SOL    HW235571   3.993   4.347   4.719  0.3139  0.0507  0.8948
 8037SOL     OW35572   2.196   0.631   1.599 -0.0546 -0.3612  0.5487
 8037SOL    HW135573   2.223   0.688   1.527 -0.2831 -0.2284  0.5698
 8037SOL    HW235574   2.143   0.562   1.559 -0.5678  0.4353 -0.1506
 8038SOL     OW35575   1.339   1.512   7.032 -0.0557  0.4187 -0.2316
 8038SOL    HW135576   1.325   1.418   7.017  2.0459  0.0575  0.0204
 8038SOL    HW235577   1.364   1.537   6.943  0.3868 -0.3275 -0.3237
 8039SOL     OW35578   3.139   0.386  16.609  0.3699 -0.4367 -0.0162
 8039SOL    HW135579   3.053   0.383  16.650 -0.4939  0.1649 -1.8138
 8039SOL    HW235580   3.192   0.328  16.663  0.2500 -1.0289 -0.5322
 8040SOL     OW35581   0.152   4.544  15.635 -0.5145  0.0019  0.3971
 8040SOL    HW135582   0.098   4.608  15.681 -0.2682  0.0659  0.5995
 8040SOL    HW235583   0.224   4.599  15.604 -0.2521  0.4069  1.7332
 8041SOL     OW35584   1.141   3.570   5.601  0.0740  0.0175  0.3464
 8041SOL    HW135585   1.234   3.548   5.605  0.1903  0.4712  0.0636
 8041SOL    HW235586   1.138   3.597   5.509 -0.2710  1.1567  0.6940
 8042SOL     OW35587   1.545   3.817   0.082  0.4277 -0.7112 -0.1946
 8042SOL    HW135588   1.602   3.746   0.112  2.1338 -0.6750 -3.2656
 8042SOL    HW235589   1.546   3.798  17.663 -0.5386  0.0110 -0.3454
 8043SOL     OW35590   1.625   2.469   4.688  0.7351  0.1424  0.1724
 8043SOL    HW135591   1.608   2.391   4.740  0.9268  0.8204  1.2519
 8043SOL    HW235592   1.547   2.522   4.702  1.4265  1.4399 -0.8278
 8044SOL     OW35593   3.751   3.034   2.617  0.1649 -0.0240 -0.5842
 8044SOL    HW135594   3.813   3.082   2.672 -1.0635  0.4565  0.3677
 8044SOL    HW235595   3.674   3.057   2.668  0.7504  0.5961  0.0160
 8045SOL     OW35596   1.134   0.184  16.243 -0.0441 -0.0199  0.6011
 8045SOL    HW135597   1.071   0.141  16.301  1.8868 -1.5729  1.5615
 8045SOL    HW235598   1.207   0.127  16.270  0.7334  1.7471  2.2441
 8046SOL     OW35599   1.234   0.295   8.603 -0.1308  0.1200  0.2920
 8046SOL    HW135600   1.196   0.376   8.570 -0.4509  0.5544  1.7135
 8046SOL    HW235601   1.283   0.256   8.531 -0.8477 -0.3153  0.0447
 8047SOL     OW35602   3.759   4.506   7.980  0.2229  0.2937  0.2056
 8047SOL    HW135603   3.753   4.559   7.900 -0.3301 -1.7010 -1.0770
 8047SOL    HW235604   3.666   4.486   7.989  0.4199 -0.5227  0.4164
 8048SOL     OW35605   4.637   1.491   3.619 -0.2287 -0.0056  0.3519
 8048SOL    HW135606   4.625   1.543   3.540  0.7456 -0.0054  0.1962
 8048SOL    HW235607   0.009   1.522   3.634 -0.5219  0.2254  1.6774
 8049SOL     OW35608   3.487   4.359   5.173  0.1586 -0.1962 -0.2170
 8049SOL    HW135609   3.530   4.386   5.091 -0.9160 -3.4475 -1.8380
 8049SOL    HW235610   3.514   4.268   5.186 -0.0824 -0.0191  1.4922
 8050SOL     OW35611   1.563   2.256   1.767  0.3832 -0.6078 -0.2386
 8050SOL    HW135612   1.504   2.225   1.835 -0.8655 -1.5415 -1.7540
 8050SOL    HW235613   1.502   2.258   1.693  1.0520  0.1359 -0.7772
 8051SOL     OW35614   3.458   2.869   9.982 -0.2448  0.1628 -0.2187
 8051SOL    HW135615   3.368   2.855   9.953  0.0601 -0.3822 -0.9012
 8051SOL    HW235616   3.507   2.849   9.902  1.0429 -0.1231  0.6370
 8052SOL     OW35617   3.921   1.129  16.375  0.0269 -0.3741  0.0928
 8052SOL    HW135618   3.853   1.124  16.308  2.5667 -1.4114 -2.4099
 8052SOL    HW235619   3.967   1.047  16.358 -0.6168 -0.4859 -1.0920
 8053SOL     OW35620   0.652   1.326   0.372 -0.1045  0.0144  0.1434
 8053SOL    HW135621   0.735   1.279   0.373 -0.1510 -0.0733 -0.0284
 8053SOL    HW235622   0.675   1.410   0.411 -0.6413  0.3437 -0.2413
 8054SOL     OW35623   1.492   2.434   1.473 -0.0787 -0.1758  0.5038
 8054SOL    HW135624   1.409   2.397   1.441  0.4969 -0.2262 -0.9380
 8054SOL    HW235625   1.551   2.370   1.433  1.2625  1.4670 -0.1095
 8055SOL     OW35626   1.814   1.502   8.420 -0.3187 -0.3398  0.2972
 8055SOL    HW135627   1.836   1.438   8.353 -0.9206 -0.1802 -0.0530
 8055SOL    HW235628   1.844   1.457   8.499 -1.9501  0.4754  1.3714
 8056SOL     OW35629   3.862   0.050   9.393 -0.0994 -0.0062  0.2021
 8056SOL    HW135630   3.947   0.076   9.430  1.2719 -1.4067 -1.9173
 8056SOL    HW235631   3.883   4.680   9.361  0.8391  0.9959 -1.9318
 8057SOL     OW35632   0.291   4.677  10.349  0.7426  0.0911 -0.4130
 8057SOL    HW135633   0.263   4.691  10.440  2.7580 -0.3315  0.2771
 8057SOL    HW235634   0.382   4.649  10.360  0.7927  0.6048  0.5003
 8058SOL     OW35635   3.144   4.255  10.806 -0.0295  0.5870 -0.4614
 8058SOL    HW135636   3.152   4.160  10.797 -0.1605  0.5601 -0.2981
 8058SOL    HW235637   3.107   4.266  10.894  3.7267  0.1928  1.1677
 8059SOL     OW35638   1.657   0.131  11.325  0.1204  0.2327 -0.0842
 8059SOL    HW135639   1.741   0.176  11.331 -0.3262  1.0183  0.3174
 8059SOL    HW235640   1.677   0.037  11.329  1.1523  0.4624 -0.0050
 8060SOL     OW35641   2.456   1.869   1.405  0.0659 -0.6822  0.0713
 8060SOL    HW135642   2.403   1.939   1.443  1.1718  0.8072 -1.1259
 8060SOL    HW235643   2.429   1.794   1.457 -0.9324  0.1108  0.6902
 8061SOL     OW35644   0.620   1.841   3.442  0.4920  0.0547  0.2713
 8061SOL    HW135645   0.676   1.909   3.480  0.5135  1.7638 -2.8239
 8061SOL    HW235646   0.667   1.762   3.468 -1.0958 -1.7819 -2.3917
 8062SOL     OW35647   2.691   2.916  14.907  0.5593 -0.3850 -0.2329
 8062SOL    HW135648   2.680   3.005  14.940  0.9093  0.5614 -2.6521
 8062SOL    HW235649   2.786   2.912  14.893  0.9254 -1.4983  2.4726
 8063SOL     OW35650   0.582   0.869   1.058 -0.2461  0.5489 -0.4221
 8063SOL    HW135651   0.575   0.952   1.106  0.1023 -0.0479  0.6634
 8063SOL    HW235652   0.676   0.853   1.066 -0.4465 -1.0034 -1.1121
 8064SOL     OW35653   1.702   4.009   5.597 -0.4874  0.0962 -0.5990
 8064SOL    HW135654   1.657   4.021   5.681  1.4457 -1.6845  0.6972
 8064SOL    HW235655   1.788   3.976   5.622 -1.4843 -0.5845  1.9465
 8065SOL     OW35656   2.458   0.004   1.586  0.0527 -0.0842  0.1263
 8065SOL    HW135657   2.423   0.080   1.632 -1.2175  0.1018 -1.1613
 8065SOL    HW235658   2.482   4.666   1.660 -1.4288 -1.4306 -0.4057
 8066SOL     OW35659   0.137   0.762   6.385 -0.0413 -0.3987  0.3042
 8066SOL    HW135660   0.230   0.779   6.370 -0.4098  1.1420 -0.2645
 8066SOL    HW235661   0.113   0.731   6.298  0.6775  0.0650 -0.0602
 8067SOL     OW35662   4.274   0.521   8.132 -0.6962 -0.2118  0.3774
 8067SOL    HW135663   4.317   0.482   8.056 -0.0823  2.3227 -0.6064
 8067SOL    HW235664   4.249   0.607   8.096  2.9770  0.4940 -0.5243
 8068SOL     OW35665   0.500   4.223   9.106 -0.1981  0.3858  0.0147
 8068SOL    HW135666   0.423   4.246   9.054 -0.1164  0.9163  0.1230
 8068SOL    HW235667   0.536   4.156   9.049  0.9067  0.5544  0.5152
 8069SOL     OW35668   1.113   2.949   9.474 -0.3046  0.1791 -0.2370
 8069SOL    HW135669   1.196   2.963   9.428 -1.1890  1.0786 -1.5701
 8069SOL    HW235670   1.122   2.863   9.514 -0.0444 -0.1897 -1.0826
 8070SOL     OW35671   4.524   4.169   8.726 -0.6438  0.2438 -0.1374
 8070SOL    HW135672   4.468   4.113   8.672  0.3728  0.5070 -1.4505
 8070SOL    HW235673   4.466   4.244   8.736 -1.5131 -0.5393  0.7160
 8071SOL     OW35674   3.806   1.264   4.240 -0.0647  0.1477  0.6811
 8071SOL    HW135675   3.806   1.268   4.336 -0.4282 -1.3362  0.7461
 8071SOL    HW235676   3.798   1.170   4.224 -1.3646  0.6814 -1.8377
 8072SOL     OW35677   3.472   2.759   3.075  0.0148  0.0280 -0.3749
 8072SOL    HW135678   3.541   2.765   3.009  0.4848 -1.3548 -0.0116
 8072SOL    HW235679   3.405   2.815   3.038  0.0352 -0.3920 -1.0499
 8073SOL     OW35680   1.437   0.010  16.790 -0.2693 -0.5319 -0.4624
 8073SOL    HW135681   1.368   0.018  16.725 -1.1963  0.3754  0.6387
 8073SOL    HW235682   1.507   4.683  16.742  0.3392  0.7272 -0.7519
 8074SOL     OW35683   3.154   4.147   2.081 -0.1238 -0.2484  0.1092
 8074SOL    HW135684   3.113   4.144   1.994  0.7211  1.1065 -0.3387
 8074SOL    HW235685   3.246   4.133   2.060 -0.5738 -0.7145 -1.6001
 8075SOL     OW35686   0.464   4.664   8.340  0.0150 -0.4945 -0.3740
 8075SOL    HW135687   0.455   4.588   8.396  1.2729 -1.7818 -1.9107
 8075SOL    HW235688   0.404   4.638   8.270  0.4470  2.4973 -1.8796
 8076SOL     OW35689   4.242   2.182   6.942 -0.3361 -0.3474  0.4923
 8076SOL    HW135690   4.283   2.267   6.955  1.9404 -1.3128 -0.3256
 8076SOL    HW235691   4.155   2.211   6.915 -0.1005 -1.7204 -1.8071
 8077SOL     OW35692   3.181   1.969   3.832  0.0750 -0.0328  0.0848
 8077SOL    HW135693   3.231   2.013   3.763  0.5820  1.1420  1.1958
 8077SOL    HW235694   3.238   1.893   3.841  1.2792  1.1969  3.0202
 8078SOL     OW35695   1.649   2.681  16.136  0.1172  0.0649 -0.2718
 8078SOL    HW135696   1.620   2.723  16.054 -2.1302 -1.4572 -0.2356
 8078SOL    HW235697   1.743   2.689  16.121 -0.0320  1.6849 -0.3938
 8079SOL     OW35698   0.080   3.369   4.620  0.0399  0.5555  0.2473
 8079SOL    HW135699   4.717   3.393   4.576  1.3186  2.3425 -1.1244
 8079SOL    HW235700   0.135   3.447   4.611  2.6906 -1.2587  0.7034
 8080SOL     OW35701   1.393   0.665   2.122  0.1849  0.0125 -0.8561
 8080SOL    HW135702   1.481   0.632   2.105  0.3239  1.6308 -3.3375
 8080SOL    HW235703   1.404   0.756   2.096  2.5262 -0.3320 -1.0709
 8081SOL     OW35704   3.453   2.129   5.981  0.3989 -0.1614 -0.0286
 8081SOL    HW135705   3.478   2.037   5.970 -1.2987 -0.5615 -0.4369
 8081SOL    HW235706   3.533   2.147   6.030 -1.2184  3.7753  1.1329
 8082SOL     OW35707   1.837   3.062   2.169 -0.4758 -0.4014  0.1794
 8082SOL    HW135708   1.782   3.115   2.226 -0.5646  0.6592 -0.8783
 8082SOL    HW235709   1.766   3.006   2.138  0.5998 -2.0492  0.7398
 8083SOL     OW35710   2.419   0.741  14.687 -0.0352  0.1980  0.0546
 8083SOL    HW135711   2.421   0.691  14.769 -1.2774  0.1391  0.0440
 8083SOL    HW235712   2.484   0.810  14.698  0.4536 -0.4133  1.0500
 8084SOL     OW35713   3.205   4.306  17.477  0.0714  0.1328  0.5383
 8084SOL    HW135714   3.121   4.269  17.451  0.2110  1.5077 -1.9195
 8084SOL    HW235715   3.196   4.304  17.572 -0.5142  0.5950  0.4919
 8085SOL     OW35716   0.962   3.923   2.626  0.0734 -0.0488 -0.4493
 8085SOL    HW135717   1.022   3.874   2.682 -1.9194  1.9792  3.4182
 8085SOL    HW235718   0.955   3.861   2.553  0.9507 -0.2922 -0.3329
 8086SOL     OW35719   3.896   4.029   4.228  0.3280 -0.4970 -0.3850
 8086SOL    HW135720   3.947   4.000   4.303 -0.6497 -1.9500 -0.2958
 8086SOL    HW235721   3.960   4.063   4.165 -0.4710 -1.3970 -1.6863
 8087SOL     OW35722   2.664   1.142   7.969  0.8192  0.3014  0.0532
 8087SOL    HW135723   2.662   1.053   8.004 -1.4667 -0.4482 -1.9904
 8087SOL    HW235724   2.748   1.146   7.925  1.4374  0.1406  1.2105
 8088SOL     OW35725   0.319   1.134   5.283  0.7707 -0.0993  0.4920
 8088SOL    HW135726   0.310   1.039   5.281  2.8766 -0.2915 -0.6769
 8088SOL    HW235727   0.307   1.146   5.377 -0.6765 -0.4505  0.3560
 8089SOL     OW35728   0.602   1.596   8.325 -0.0791 -0.1759  0.3583
 8089SOL    HW135729   0.675   1.601   8.263 -0.3510  1.4644  0.1771
 8089SOL    HW235730   0.645   1.587   8.410  1.8390 -1.1307 -0.7140
 8090SOL     OW35731   4.694   3.992   5.894  0.2292 -0.9542 -0.7836
 8090SOL    HW135732   4.650   4.009   5.810 -1.4052 -0.1782  0.2419
 8090SOL    HW235733   0.059   3.948   5.874  0.4094  0.0979 -2.3338
 8091SOL     OW35734   0.766   4.547  10.010  0.0254  0.1567 -0.1452
 8091SOL    HW135735   0.685   4.507   9.980  0.3342 -1.0160  0.5790
 8091SOL    HW235736   0.833   4.520   9.947  0.8542  0.2098  0.7023
 8092SOL     OW35737   3.127   3.870   8.477 -0.2639 -0.8164 -0.3177
 8092SOL    HW135738   3.111   3.924   8.555  2.3777 -1.7431  0.8500
 8092SOL    HW235739   3.050   3.892   8.423 -0.7777 -0.8693  0.3907
 8093SOL     OW35740   4.390   4.474  12.078 -0.2171 -0.2975 -0.1972
 8093SOL    HW135741   4.360   4.544  12.136 -1.7740  0.0427 -1.4272
 8093SOL    HW235742   4.331   4.403  12.103  0.4139  0.3718  3.1934
 8094SOL     OW35743   4.634   1.068   8.440  0.3801 -0.0844  0.5218
 8094SOL    HW135744   4.665   1.041   8.353 -2.0549 -0.7333 -0.1331
 8094SOL    HW235745   4.600   1.157   8.434  0.3902 -0.1194 -0.0487
 8095SOL     OW35746   4.543   3.978   2.948 -0.5783  0.2315 -0.4415
 8095SOL    HW135747   4.632   4.011   2.963 -1.2748  1.4127  1.0837
 8095SOL    HW235748   4.562   3.894   2.907 -1.5848 -1.3285  2.2708
 8096SOL     OW35749   3.929   0.896  16.017  0.3013  0.7513  0.6562
 8096SOL    HW135750   3.950   0.873  15.927  0.9954  0.9307  0.7738
 8096SOL    HW235751   3.892   0.984  16.025  1.5963  1.3522 -0.1254
 8097SOL     OW35752   1.480   4.310   4.751  0.2026 -0.1301 -0.1656
 8097SOL    HW135753   1.480   4.216   4.768  3.1706 -0.2899 -1.1250
 8097SOL    HW235754   1.542   4.339   4.818 -1.1045 -2.5679  2.0634
 8098SOL     OW35755   4.288   3.599   3.744 -0.5253 -0.1390  0.5447
 8098SOL    HW135756   4.355   3.660   3.775 -1.6437  1.4894 -0.2747
 8098SOL    HW235757   4.307   3.596   3.651  0.6473 -1.7875  0.8412
 8099SOL     OW35758   0.417   1.256   1.864  0.0394 -0.2402 -0.1690
 8099SOL    HW135759   0.344   1.286   1.810  1.2630  0.8449 -1.2166
 8099SOL    HW235760   0.368   1.259   1.946  1.0752 -1.4208  0.4848
 8100SOL     OW35761   4.100   2.644   4.035  0.3262 -0.2244 -0.0895
 8100SOL    HW135762   4.116   2.737   4.017  1.1341  0.0030  1.7132
 8100SOL    HW235763   4.055   2.657   4.119 -1.6723 -2.2117 -0.8601
 8101SOL     OW35764   3.928   1.244   2.961  0.1597 -0.3964 -0.1854
 8101SOL    HW135765   3.913   1.284   2.876 -0.3964  0.1761  0.1770
 8101SOL    HW235766   4.023   1.241   2.975  0.0617 -0.0400  0.5824
 8102SOL     OW35767   1.869   1.847   3.732 -0.2919  0.2435  0.6271
 8102SOL    HW135768   1.900   1.879   3.817 -0.6811 -3.4744  2.2042
 8102SOL    HW235769   1.796   1.792   3.760 -0.1276 -0.9012 -1.2084
 8103SOL     OW35770   1.944   4.711   7.574  0.3783 -0.0195  0.0604
 8103SOL    HW135771   1.905   0.068   7.619  0.1399 -1.5123  2.3932
 8103SOL    HW235772   1.909   4.637   7.625  0.6736 -1.0013 -1.1623
 8104SOL     OW35773   0.293   4.197   8.928 -0.1907 -0.0255 -0.1274
 8104SOL    HW135774   0.276   4.136   8.856  2.0869 -1.6159  0.6886
 8104SOL    HW235775   0.208   4.240   8.925  0.9036  2.1852  0.7562
 8105SOL     OW35776   4.174   0.300  16.247 -0.1353 -0.0711 -0.0442
 8105SOL    HW135777   4.228   0.342  16.181  2.1761 -1.5972  0.8524
 8105SOL    HW235778   4.237   0.294  16.319 -1.4367  0.4848  1.1494
 8106SOL     OW35779   1.544   1.979  11.509 -0.1796  0.2050  0.3085
 8106SOL    HW135780   1.626   1.969  11.459 -1.4186 -2.4587 -1.1559
 8106SOL    HW235781   1.524   1.888  11.527 -0.6440  0.0390 -1.0569
 8107SOL     OW35782   0.756   0.422  13.843  0.0992 -0.4168  0.1947
 8107SOL    HW135783   0.750   0.516  13.856  2.4012 -0.1536 -0.6482
 8107SOL    HW235784   0.700   0.397  13.916 -0.3643  4.1171  1.3989
 8108SOL     OW35785   3.726   2.086   5.247  0.2291 -0.5181  0.5069
 8108SOL    HW135786   3.793   2.067   5.182  0.6944  2.5888  0.0715
 8108SOL    HW235787   3.695   2.171   5.216 -1.6711 -1.3304  0.1980
 8109SOL     OW35788   0.794   4.669   8.057 -0.1628 -0.1778 -0.1094
 8109SOL    HW135789   0.701   4.684   8.070  0.0996  1.3836 -0.0726
 8109SOL    HW235790   0.810   4.581   8.093 -0.6021 -1.3118 -2.6864
 8110SOL     OW35791   3.509   0.681   8.090  0.0145 -0.0428 -0.4211
 8110SOL    HW135792   3.567   0.751   8.120  0.1829 -0.1785 -0.4286
 8110SOL    HW235793   3.426   0.708   8.129  0.5487 -0.2433  0.8542
 8111SOL     OW35794   1.790   2.421   5.273 -0.3817  0.7581 -0.1917
 8111SOL    HW135795   1.696   2.401   5.275 -0.0539 -0.9984 -2.0249
 8111SOL    HW235796   1.787   2.517   5.276  0.6499  0.8812 -3.2289
 8112SOL     OW35797   1.860   2.609   2.088 -0.5904  0.1247  0.2812
 8112SOL    HW135798   1.827   2.613   2.178 -1.8293  0.3474 -0.1930
 8112SOL    HW235799   1.909   2.690   2.072 -1.8912  0.6885 -0.7798
 8113SOL     OW35800   2.014   4.348   9.852  0.0164  0.2977 -0.0245
 8113SOL    HW135801   2.058   4.422   9.894 -1.4752 -0.1096  2.2542
 8113SOL    HW235802   2.029   4.365   9.759 -2.6495 -1.9968 -0.8680
 8114SOL     OW35803   2.805   3.510  11.309  0.1948  0.1086  0.1986
 8114SOL    HW135804   2.746   3.546  11.375 -0.7614 -1.1473  0.0312
 8114SOL    HW235805   2.806   3.416  11.329  1.0014 -0.0127 -0.4032
 8115SOL     OW35806   3.568   4.206   2.209  0.3633 -0.1151  0.1979
 8115SOL    HW135807   3.572   4.300   2.195  2.2627 -0.1437  0.5797
 8115SOL    HW235808   3.481   4.191   2.246  0.7689  3.4237  2.5177
 8116SOL     OW35809   0.054   1.898   4.425 -0.1674 -0.3266 -0.9698
 8116SOL    HW135810   0.045   1.916   4.332  2.1517  2.1836 -0.7126
 8116SOL    HW235811   4.681   1.880   4.448 -0.4983  3.6656  0.7011
 8117SOL     OW35812   2.348   1.019   7.844 -0.0747 -0.5753 -0.0583
 8117SOL    HW135813   2.276   0.956   7.835 -1.7707  1.0662  1.8759
 8117SOL    HW235814   2.312   1.073   7.915  1.4756  3.0725 -2.0357
 8118SOL     OW35815   4.357   4.388   7.256 -0.4938  0.4035  0.0382
 8118SOL    HW135816   4.452   4.383   7.248 -0.5655 -2.8598  1.4535
 8118SOL    HW235817   4.335   4.300   7.287  0.4748  0.7812  1.7814
 8119SOL     OW35818   0.111   3.951  15.028  0.1041  0.2664 -0.4718
 8119SOL    HW135819   0.048   3.938  15.100 -0.1746  0.0985 -0.7471
 8119SOL    HW235820   0.061   3.939  14.947  1.7121  1.7263 -1.6847
 8120SOL     OW35821   3.450   3.270   7.126 -0.3067 -0.1264 -0.3471
 8120SOL    HW135822   3.532   3.308   7.094 -1.2260  0.5554 -1.9348
 8120SOL    HW235823   3.387   3.335   7.095 -2.0155 -2.2622 -1.4004
 8121SOL     OW35824   0.405   2.170  11.877 -0.1371 -0.5641 -0.2973
 8121SOL    HW135825   0.433   2.160  11.786  1.7180  1.3816  0.0635
 8121SOL    HW235826   0.313   2.145  11.867 -0.4415  0.1000  0.8096
 8122SOL     OW35827   3.203   1.687   6.540  0.1115  0.4113  0.4991
 8122SOL    HW135828   3.233   1.673   6.630 -1.2765 -1.3738  0.6814
 8122SOL    HW235829   3.116   1.648   6.549  0.2283  0.3979  1.6136
 8123SOL     OW35830   4.603   3.199   5.118  0.0777  0.0519  0.3963
 8123SOL    HW135831   4.641   3.112   5.129 -1.8569 -0.9881 -1.0450
 8123SOL    HW235832   4.613   3.206   5.023 -1.3771 -2.7534  0.0291
 8124SOL     OW35833   4.626   1.540   4.334  0.4431 -0.2006 -0.4541
 8124SOL    HW135834   4.598   1.453   4.304 -0.5544 -0.2458  0.6371
 8124SOL    HW235835   4.584   1.549   4.419  1.4287 -0.1086  0.0295
 8125SOL     OW35836   3.687   0.574  10.087  0.1699 -0.0696 -0.0407
 8125SOL    HW135837   3.779   0.557  10.066 -0.1031 -0.0117 -1.2759
 8125SOL    HW235838   3.704   0.636  10.158 -1.0038  0.9231 -0.6305
 8126SOL     OW35839   3.661   4.141   1.291  0.0034 -0.0491  0.2374
 8126SOL    HW135840   3.647   4.055   1.329 -1.0080 -0.2995 -0.6762
 8126SOL    HW235841   3.720   4.119   1.218 -1.6742 -0.2296 -1.0827
 8127SOL     OW35842   1.478   4.181  14.558 -0.2439 -0.0917  0.5362
 8127SOL    HW135843   1.481   4.254  14.619  1.9054 -0.0541  0.3683
 8127SOL    HW235844   1.474   4.101  14.611 -0.1464 -1.1597 -1.0503
 8128SOL     OW35845   0.778   2.701   7.526 -0.0734 -0.2719  0.3021
 8128SOL    HW135846   0.705   2.639   7.526 -0.4048  0.1191 -0.1633
 8128SOL    HW235847   0.761   2.748   7.444  0.0482  0.0680  0.4725
 8129SOL     OW35848   1.468   1.434   5.510  0.0104 -0.2284 -0.3237
 8129SOL    HW135849   1.429   1.352   5.541 -0.9333  0.5634  0.6178
 8129SOL    HW235850   1.548   1.441   5.562 -0.3602 -3.1067  0.5920
 8130SOL     OW35851   1.537   3.362   4.782  0.4483 -0.5302  0.2720
 8130SOL    HW135852   1.492   3.424   4.724  2.6520  1.5138  0.7123
 8130SOL    HW235853   1.475   3.322   4.843 -0.3834  1.2504  0.6133
 8131SOL     OW35854   0.583   2.479   1.751 -0.2762  0.1990  0.1152
 8131SOL    HW135855   0.547   2.556   1.795  2.2697  1.0179  0.7551
 8131SOL    HW235856   0.523   2.409   1.777 -1.2280  0.7920 -0.4841
 8132SOL     OW35857   1.679   1.670   3.809 -0.3836 -0.0699  0.3380
 8132SOL    HW135858   1.609   1.682   3.745 -1.4466 -1.2606  1.2800
 8132SOL    HW235859   1.633   1.680   3.892 -0.2312 -0.5983  0.4810
 8133SOL     OW35860   3.246   0.701  14.426  0.2820 -0.7402 -0.4194
 8133SOL    HW135861   3.339   0.725  14.425 -0.1998  1.1824  0.4769
 8133SOL    HW235862   3.202   0.773  14.382  0.1302 -0.1972  0.6312
 8134SOL     OW35863   2.287   3.805   8.489  0.0103 -0.1602  0.2768
 8134SOL    HW135864   2.356   3.740   8.480 -0.4340 -0.5291 -0.3916
 8134SOL    HW235865   2.344   3.876   8.519 -1.6784  1.3921 -0.1344
 8135SOL     OW35866   2.278   3.454   1.733 -0.3901 -0.2004  0.3937
 8135SOL    HW135867   2.188   3.454   1.698  0.1584 -0.5681 -1.0325
 8135SOL    HW235868   2.310   3.379   1.683 -0.4615 -0.0574  0.1302
 8136SOL     OW35869   4.582   2.969   9.346  0.1274 -0.8411 -0.0942
 8136SOL    HW135870   4.579   3.065   9.354 -2.2332 -0.9896  0.7361
 8136SOL    HW235871   4.622   2.947   9.430  2.5562  2.6238 -0.3088
 8137SOL     OW35872   1.061   4.377  10.939 -0.3991 -0.1313  0.1745
 8137SOL    HW135873   1.022   4.319  11.004  0.6460  2.3373  3.0438
 8137SOL    HW235874   1.073   4.316  10.867 -1.9276 -0.1896 -0.0160
 8138SOL     OW35875   2.151   2.756   3.345 -0.2307 -0.2904 -0.5931
 8138SOL    HW135876   2.189   2.749   3.433  0.9584 -0.0553 -1.0998
 8138SOL    HW235877   2.191   2.839   3.319 -0.3631 -0.0380 -0.0068
 8139SOL     OW35878   3.233   2.450   1.672  0.1271 -0.1259 -0.8365
 8139SOL    HW135879   3.146   2.473   1.638 -0.1379  0.7051  0.3985
 8139SOL    HW235880   3.243   2.493   1.756  2.1822 -0.0991 -1.1095
 8140SOL     OW35881   3.623   3.451   0.027 -0.2748  0.3016 -0.2720
 8140SOL    HW135882   3.692   3.404   0.074 -1.9136 -3.3388 -1.5869
 8140SOL    HW235883   3.574   3.480   0.104  2.6401 -0.9354  2.0693
 8141SOL     OW35884   3.255   4.341   4.815 -0.3990  0.3963  0.0741
 8141SOL    HW135885   3.203   4.273   4.772  1.2088 -0.9012  0.2042
 8141SOL    HW235886   3.310   4.365   4.740  0.3425 -0.7328  0.2640
 8142SOL     OW35887   1.165   3.699   0.870  0.1814  0.2485 -0.1166
 8142SOL    HW135888   1.248   3.737   0.902  1.1476  0.7634 -3.2403
 8142SOL    HW235889   1.112   3.777   0.883 -1.1721 -0.1139 -3.4320
 8143SOL     OW35890   2.144   0.436   3.796 -0.1908  0.4254  0.4873
 8143SOL    HW135891   2.118   0.385   3.872  2.0294 -3.6879 -1.5490
 8143SOL    HW235892   2.088   0.402   3.726  0.0444  1.3866 -0.1788
 8144SOL     OW35893   3.675   3.028   4.464 -0.2557  0.2888 -0.5513
 8144SOL    HW135894   3.709   3.088   4.398 -1.0454  0.7060 -0.5700
 8144SOL    HW235895   3.588   3.064   4.478  0.9047  2.0017  2.2299
 8145SOL     OW35896   3.556   1.418   5.863  0.1005 -0.3712 -0.3744
 8145SOL    HW135897   3.621   1.395   5.796 -0.3319  0.6399 -1.1509
 8145SOL    HW235898   3.521   1.503   5.836  1.5321 -0.5411 -2.8050
 8146SOL     OW35899   3.302   2.827   3.531  0.1376  0.5069 -0.1046
 8146SOL    HW135900   3.294   2.817   3.626  0.8051  2.8763  0.2021
 8146SOL    HW235901   3.367   2.898   3.531  0.8783 -0.1630 -0.6678
 8147SOL     OW35902   3.589   1.183  16.828  0.2296 -0.1488 -0.2161
 8147SOL    HW135903   3.638   1.176  16.745  1.7655  0.1900  0.6589
 8147SOL    HW235904   3.657   1.190  16.895  0.7622 -0.2553 -0.7393
 8148SOL     OW35905   4.536   2.652   6.435  0.3108  0.0065  0.1924
 8148SOL    HW135906   4.614   2.674   6.385 -0.2830 -0.2420 -0.8508
 8148SOL    HW235907   4.537   2.557   6.427  1.1242  0.1345 -1.2551
 8149SOL     OW35908   1.169   3.029  16.693 -0.5368  0.1471  0.4854
 8149SOL    HW135909   1.209   3.055  16.610 -0.0231  0.1888  0.7482
 8149SOL    HW235910   1.077   3.036  16.668 -0.4653 -3.0653 -0.6301
 8150SOL     OW35911   3.471   4.321   4.595 -0.3360 -0.8707 -0.5725
 8150SOL    HW135912   3.409   4.254   4.568 -0.3998 -0.6105 -1.0764
 8150SOL    HW235913   3.526   4.332   4.517  1.0937 -0.5197  0.4729
 8151SOL     OW35914   2.001   1.748  16.261  0.1009  0.5683 -0.3019
 8151SOL    HW135915   1.989   1.694  16.184 -0.0295 -2.0974  1.5894
 8151SOL    HW235916   2.021   1.677  16.323 -0.9533  1.6217  1.2539
 8152SOL     OW35917   0.775   2.657   5.026 -0.1667  0.5683  0.3729
 8152SOL    HW135918   0.752   2.595   5.094 -3.2135  1.2687 -0.0363
 8152SOL    HW235919   0.760   2.607   4.946  1.3855  1.4906 -0.5128
 8153SOL     OW35920   0.663   3.943  12.501 -0.7241 -0.2094 -0.5863
 8153SOL    HW135921   0.708   3.891  12.435 -1.3171 -0.3968 -0.8388
 8153SOL    HW235922   0.577   3.962  12.462 -1.5059 -1.7792  0.4023
 8154SOL     OW35923   4.566   2.700   1.979 -0.5652  0.1561 -0.6488
 8154SOL    HW135924   4.589   2.786   1.943 -0.5382 -0.1770 -1.4272
 8154SOL    HW235925   4.646   2.654   1.953  0.3930  1.2704  0.3425
 8155SOL     OW35926   2.649   1.446   7.711  0.1471  0.0737 -0.4050
 8155SOL    HW135927   2.678   1.483   7.628  0.2937 -1.3581 -0.9851
 8155SOL    HW235928   2.588   1.378   7.685  0.7494 -0.5745 -0.1254
 8156SOL     OW35929   3.624   4.557   0.278 -0.1478  0.6440 -0.3065
 8156SOL    HW135930   3.547   4.532   0.227  0.1405 -1.8502  0.4894
 8156SOL    HW235931   3.667   4.617   0.217 -0.8756  0.2717 -1.1980
 8157SOL     OW35932   4.156   4.692   3.896 -0.2023  0.0461 -0.0290
 8157SOL    HW135933   4.207   0.017   3.828  0.5272 -3.0054 -1.4421
 8157SOL    HW235934   4.194   0.006   3.977 -0.3198 -0.9635  0.4295
 8158SOL     OW35935   1.992   1.696   5.132  0.0326 -0.3812 -0.1972
 8158SOL    HW135936   2.032   1.727   5.213  0.9328  0.4460 -0.9595
 8158SOL    HW235937   1.947   1.619   5.167  0.9800  0.1224  2.1374
 8159SOL     OW35938   4.548   0.169   7.076  0.2814  0.8440  0.6436
 8159SOL    HW135939   4.534   0.234   7.008  0.6670 -0.4728 -0.7115
 8159SOL    HW235940   4.635   0.136   7.054  0.1891  2.5947 -2.3056
 8160SOL     OW35941   3.518   1.185   4.754 -0.7678  0.1579  0.8576
 8160SOL    HW135942   3.551   1.105   4.793  2.2117 -0.1279 -2.2387
 8160SOL    HW235943   3.507   1.244   4.829  2.4772 -1.0604  2.2743
 8161SOL     OW35944   2.543   2.507  13.510  0.6645 -0.1217  0.4830
 8161SOL    HW135945   2.530   2.450  13.586 -0.5303 -0.9719 -0.3509
 8161SOL    HW235946   2.633   2.535  13.519  0.1928  1.2248  0.9263
 8162SOL     OW35947   0.204   0.556   5.762  0.7005 -0.1477  0.3284
 8162SOL    HW135948   0.235   0.586   5.677 -0.4685 -4.5499 -1.6153
 8162SOL    HW235949   0.284   0.546   5.814  1.1800 -1.1211 -0.6019
 8163SOL     OW35950   0.437   0.516   8.534 -0.1078  0.0762  0.8217
 8163SOL    HW135951   0.344   0.498   8.521  0.4404 -1.7188 -0.6331
 8163SOL    HW235952   0.448   0.582   8.465  1.1895 -0.4014  0.5647
 8164SOL     OW35953   1.253   3.386  11.832  0.0959 -0.2355  0.3371
 8164SOL    HW135954   1.267   3.293  11.814  1.5514  0.4139 -1.9803
 8164SOL    HW235955   1.278   3.428  11.749 -2.9097  0.8421 -0.0228
 8165SOL     OW35956   1.324   4.187   6.678  0.0477 -0.7626 -0.4967
 8165SOL    HW135957   1.383   4.212   6.749  0.5749 -1.9435 -0.5200
 8165SOL    HW235958   1.247   4.143   6.716  1.7285 -2.3436  1.0699
 8166SOL     OW35959   1.131   2.375  11.618  0.1324  0.3159 -0.2877
 8166SOL    HW135960   1.092   2.308  11.561 -2.1103  1.9804 -0.6790
 8166SOL    HW235961   1.079   2.453  11.600  0.7287  0.1780 -2.5815
 8167SOL     OW35962   0.604   3.091   8.901  0.8717 -0.2775 -0.2782
 8167SOL    HW135963   0.694   3.099   8.869  1.4151 -0.2760  1.2637
 8167SOL    HW235964   0.611   3.132   8.987 -1.1295 -1.6235  0.5096
 8168SOL     OW35965   3.291   1.654   6.789  0.0285 -0.1441  0.2398
 8168SOL    HW135966   3.319   1.577   6.838  0.4024 -0.8513 -1.1008
 8168SOL    HW235967   3.228   1.692   6.850 -0.5744  0.3970 -0.7120
 8169SOL     OW35968   2.857   3.435  14.113 -0.2467  0.1998  0.3154
 8169SOL    HW135969   2.908   3.361  14.078  0.0575  0.3607  0.4223
 8169SOL    HW235970   2.913   3.511  14.097  0.0767  0.4104  2.4311
 8170SOL     OW35971   2.880   3.541   9.969 -0.4249 -0.0164  0.1683
 8170SOL    HW135972   2.879   3.633   9.943  0.9956 -0.3725 -1.1840
 8170SOL    HW235973   2.794   3.520  10.006 -1.6166  2.9625 -0.8534
 8171SOL     OW35974   1.540   4.403  13.159  0.7843 -0.0389 -0.1009
 8171SOL    HW135975   1.525   4.314  13.189  2.4038 -0.7630 -1.4629
 8171SOL    HW235976   1.513   4.448  13.239  1.4583  0.5115 -0.1809
 8172SOL     OW35977   2.640   3.675   2.887 -0.4176 -0.1361 -1.1719
 8172SOL    HW135978   2.691   3.726   2.824  0.1673  0.2378 -0.3874
 8172SOL    HW235979   2.572   3.738   2.910 -0.3894  0.3520 -2.4007
 8173SOL     OW35980   0.724   2.057   7.247 -0.1388  0.0158 -0.2726
 8173SOL    HW135981   0.756   2.052   7.157 -0.4017  1.5328 -0.4519
 8173SOL    HW235982   0.790   2.007   7.297 -1.9072  0.2350  2.3069
 8174SOL     OW35983   0.191   3.561  15.154  0.2893  0.1465  0.0487
 8174SOL    HW135984   0.101   3.591  15.138  0.5667  1.1795  0.4059
 8174SOL    HW235985   0.205   3.474  15.117  1.5036  0.5574 -0.4619
 8175SOL     OW35986   0.624   3.516  17.568 -0.1105  0.2492 -0.1279
 8175SOL    HW135987   0.686   3.589  17.566 -0.1378  0.3466  2.2261
 8175SOL    HW235988   0.604   3.505  17.661 -1.9486 -0.0531 -0.5630
 8176SOL     OW35989   2.056   1.646   7.836  0.4818 -0.3962  0.0642
 8176SOL    HW135990   2.116   1.719   7.851  2.5370 -2.6105  2.5734
 8176SOL    HW235991   1.998   1.660   7.911  1.9623  1.0839  0.9189
 8177SOL     OW35992   0.944   1.245   7.763 -0.0317  0.7692 -0.0671
 8177SOL    HW135993   1.002   1.216   7.693 -0.7438  1.4915 -0.9627
 8177SOL    HW235994   0.884   1.170   7.773  0.4730  0.5716  1.4770
 8178SOL     OW35995   2.475   4.386   3.666  1.2181 -0.5236  0.0138
 8178SOL    HW135996   2.520   4.465   3.696  0.5725 -0.0340 -0.3125
 8178SOL    HW235997   2.454   4.409   3.576  1.3559 -0.1278  0.0832
 8179SOL     OW35998   0.353   2.856   6.779 -0.2247  0.3293  0.3077
 8179SOL    HW135999   0.313   2.837   6.694  0.1081 -2.4742  0.7650
 8179SOL    HW236000   0.376   2.949   6.772 -0.0686  0.3203  0.7313
 8180SOL     OW36001   0.734   1.122   4.044 -0.4492 -0.0547  0.0329
 8180SOL    HW136002   0.731   1.206   4.091 -0.8618 -0.5710  0.9292
 8180SOL    HW236003   0.647   1.126   4.003 -0.0867  0.5246 -0.6721
 8181SOL     OW36004   3.431   4.117   6.371  0.8487  0.4934  0.0059
 8181SOL    HW136005   3.499   4.110   6.304  0.1462 -1.2150 -0.5242
 8181SOL    HW236006   3.400   4.028   6.385 -0.0861  0.6958 -0.8622
 8182SOL     OW36007   2.340   3.886  12.580  0.6728 -0.0307 -0.4270
 8182SOL    HW136008   2.398   3.851  12.648 -1.5208  1.0949  2.0169
 8182SOL    HW236009   2.349   3.980  12.597 -1.1568 -0.2415  1.6099
 8183SOL     OW36010   3.950   3.269   5.941 -0.0129  0.1138 -0.2502
 8183SOL    HW136011   4.033   3.248   5.898 -0.2803 -1.4135 -0.0231
 8183SOL    HW236012   3.977   3.316   6.020  0.3581 -1.2047  0.4152
 8184SOL     OW36013   2.102   1.127   4.463  0.3809 -0.0951 -0.2271
 8184SOL    HW136014   2.023   1.136   4.410  0.7613  0.6688 -0.6575
 8184SOL    HW236015   2.091   1.197   4.527  0.7594  0.4269 -0.7370
 8185SOL     OW36016   1.913   3.054   5.381 -0.6986  0.6401 -0.1129
 8185SOL    HW136017   1.880   2.987   5.442  0.3772 -0.1584 -0.3989
 8185SOL    HW236018   1.977   3.097   5.437  0.0363  0.3482 -0.7244
 8186SOL     OW36019   2.098   4.088   4.321 -0.1745 -0.1867  0.1452
 8186SOL    HW136020   2.174   4.118   4.273  0.4281 -1.4642  0.2983
 8186SOL    HW236021   2.116   4.100   4.414 -3.1301  1.8979  0.4537
 8187SOL     OW36022   2.789   2.308  16.389  0.3589 -0.0885  0.3812
 8187SOL    HW136023   2.710   2.300  16.335  0.7231  3.2567 -0.6414
 8187SOL    HW236024   2.842   2.352  16.322 -2.3113  1.1083 -0.9438
 8188SOL     OW36025   3.443   1.068   1.827  0.1521 -0.0076 -0.2221
 8188SOL    HW136026   3.407   1.046   1.742  1.2580  3.3870 -1.5528
 8188SOL    HW236027   3.409   0.994   1.877  0.9945  0.2196  0.6908
 8189SOL     OW36028   0.428   1.152   6.775 -0.2962  0.3569 -0.5855
 8189SOL    HW136029   0.359   1.198   6.729 -0.0699  1.3736  0.0806
 8189SOL    HW236030   0.374   1.127   6.850 -1.5842  1.3543 -1.2012
 8190SOL     OW36031   3.288   2.531  14.334  0.7384 -0.0264  0.5785
 8190SOL    HW136032   3.280   2.435  14.330  0.8006  0.0667 -1.6472
 8190SOL    HW236033   3.377   2.540  14.366  0.8515 -1.5253  0.7150
 8191SOL     OW36034   0.441   3.975   7.820 -0.2325  0.7098  0.3024
 8191SOL    HW136035   0.421   3.914   7.749 -0.7884  1.3829 -0.1140
 8191SOL    HW236036   0.401   4.054   7.783  0.4510  0.9401  0.0606
 8192SOL     OW36037   3.941   1.865   4.104 -0.9613 -0.2747 -0.0002
 8192SOL    HW136038   3.870   1.813   4.066 -1.1567 -0.1045  0.1288
 8192SOL    HW236039   3.988   1.796   4.151  1.0492 -0.1769 -1.8933
 8193SOL     OW36040   1.353   2.914   9.332 -0.0867  0.1263 -0.3804
 8193SOL    HW136041   1.354   2.840   9.392 -0.8865  1.1437  0.8822
 8193SOL    HW236042   1.386   2.873   9.252 -0.5399 -0.5437 -0.2215
 8194SOL     OW36043   2.207   1.452   3.041  0.1335  0.1016 -0.3986
 8194SOL    HW136044   2.167   1.508   3.108 -0.5723  0.4376 -1.0993
 8194SOL    HW236045   2.258   1.515   2.990 -0.7097 -0.0973 -1.4775
 8195SOL     OW36046   4.049   2.047   4.588  0.0313 -0.3745  0.1841
 8195SOL    HW136047   3.965   2.003   4.606  0.6724 -0.8342  2.1435
 8195SOL    HW236048   4.027   2.132   4.627  0.2964 -0.3110  0.1957
 8196SOL     OW36049   0.657   2.425   4.266  0.0220 -0.1619  0.7097
 8196SOL    HW136050   0.735   2.449   4.316 -0.9343  0.3937  1.9313
 8196SOL    HW236051   0.600   2.501   4.279 -0.5892 -0.3948 -0.5428
 8197SOL     OW36052   0.139   3.928   0.100 -0.4577 -0.0574  0.0347
 8197SOL    HW136053   0.189   4.006   0.075  0.9531 -0.8340  0.4560
 8197SOL    HW236054   0.056   3.943   0.053  0.7107  1.6169 -1.4680
 8198SOL     OW36055   1.634   2.168   8.294  0.2186  0.2398  0.3863
 8198SOL    HW136056   1.587   2.209   8.366  1.1803  1.6696  0.2034
 8198SOL    HW236057   1.726   2.193   8.308  0.1897  0.6502 -0.1457
 8199SOL     OW36058   1.391   1.388   3.118 -0.2397 -0.1739 -0.3587
 8199SOL    HW136059   1.392   1.484   3.117  3.0705 -0.2071  0.2464
 8199SOL    HW236060   1.485   1.374   3.113 -0.5634 -1.7026 -2.0907
 8200SOL     OW36061   3.012   4.020  10.991  0.5283 -0.2560  0.2308
 8200SOL    HW136062   2.919   3.998  10.999  0.5533  0.1955  1.6602
 8200SOL    HW236063   3.050   3.947  11.040  0.7726 -0.6932 -0.6011
 8201SOL     OW36064   3.530   0.738  13.077 -0.3947 -0.3817 -0.5641
 8201SOL    HW136065   3.512   0.832  13.085 -1.4599 -0.7146  0.8287
 8201SOL    HW236066   3.578   0.721  13.158  0.8033 -1.3597 -1.4759
 8202SOL     OW36067   3.275   3.185   5.148  0.0130  0.1731  0.4050
 8202SOL    HW136068   3.349   3.176   5.207  0.4172  0.9641  0.0205
 8202SOL    HW236069   3.299   3.130   5.074 -0.4869  0.5349 -0.0340
 8203SOL     OW36070   0.906   2.656   2.572  0.3136 -0.1305  0.2544
 8203SOL    HW136071   0.959   2.703   2.507 -0.3605 -0.1036 -0.2721
 8203SOL    HW236072   0.975   2.603   2.614  0.9238  1.7929  1.6591
 8204SOL     OW36073   0.998   0.144   4.296 -0.0347 -0.1560 -0.4898
 8204SOL    HW136074   1.034   0.062   4.262  2.1586  0.4511  0.3577
 8204SOL    HW236075   0.966   0.190   4.218  1.0197  1.1588 -0.1507
 8205SOL     OW36076   4.022   0.686  13.822  0.2642  0.2892 -0.3115
 8205SOL    HW136077   4.114   0.699  13.799  0.4871 -0.5566  0.1081
 8205SOL    HW236078   4.034   0.617  13.886 -0.4724 -0.0916 -0.5908
 8206SOL     OW36079   2.616   2.844  11.186  0.6358 -0.2392 -0.5031
 8206SOL    HW136080   2.540   2.811  11.138 -0.0547 -1.1773  1.2381
 8206SOL    HW236081   2.608   2.785  11.261 -3.3969  1.8356  0.7060
 8207SOL     OW36082   2.087   3.879   8.049  0.2490  0.7450  0.4605
 8207SOL    HW136083   2.178   3.875   8.020  0.0447 -1.6268  0.1039
 8207SOL    HW236084   2.098   3.877   8.144 -0.0075 -0.7134  0.4612
 8208SOL     OW36085   2.643   2.054   6.834 -0.2345 -0.3658 -0.1135
 8208SOL    HW136086   2.687   2.136   6.814  1.2096 -1.0826  0.1162
 8208SOL    HW236087   2.586   2.093   6.900  0.7597  2.5564 -0.9804
 8209SOL     OW36088   0.716   2.847   0.867  0.6544  0.1671  0.2421
 8209SOL    HW136089   0.769   2.887   0.936  1.4840  0.7369 -0.7246
 8209SOL    HW236090   0.783   2.859   0.799 -0.5532  0.0789 -0.9642
 8210SOL     OW36091   2.748   4.456   6.900 -0.6010  0.3460  0.1081
 8210SOL    HW136092   2.678   4.522   6.903  0.5177  1.5777 -0.8985
 8210SOL    HW236093   2.746   4.414   6.985 -1.2852 -0.7772 -0.4611
 8211SOL     OW36094   3.235   3.315   5.525 -0.1505 -0.0988 -0.0225
 8211SOL    HW136095   3.319   3.311   5.571  0.5380  0.9331 -1.2114
 8211SOL    HW236096   3.191   3.254   5.584 -1.8427  0.4960 -0.6752
 8212SOL     OW36097   0.035   0.451   5.248 -0.2202 -0.1876 -0.0384
 8212SOL    HW136098   0.092   0.522   5.217  2.2440 -1.9674  0.3820
 8212SOL    HW236099   0.075   0.376   5.204 -0.6194  0.0572 -0.8279
 8213SOL     OW36100   2.056   0.326   9.005  0.1637  0.7179 -0.1642
 8213SOL    HW136101   2.084   0.303   9.094  1.0459  0.2069 -0.5761
 8213SOL    HW236102   2.026   0.417   9.014  0.4721  0.8292 -0.2703
 8214SOL     OW36103   1.575   4.465   7.906 -0.8095 -0.3089  0.1462
 8214SOL    HW136104   1.594   4.559   7.908 -0.1442 -0.4071 -1.2431
 8214SOL    HW236105   1.594   4.446   7.998 -0.1852  1.4925  0.3921
 8215SOL     OW36106   3.565   1.597   7.174 -0.1725  0.3959 -0.2730
 8215SOL    HW136107   3.642   1.548   7.201 -0.5936 -0.8725 -1.3776
 8215SOL    HW236108   3.553   1.636   7.260  0.3068  0.2254 -0.1299
 8216SOL     OW36109   4.466   0.705   7.648 -0.3401  0.0703  0.3925
 8216SOL    HW136110   4.479   0.638   7.581 -0.6631  0.3701  0.0223
 8216SOL    HW236111   4.370   0.704   7.654 -0.4234  3.9064 -0.1134
 8217SOL     OW36112   1.023   2.150   1.336  0.1487 -0.2107  0.3110
 8217SOL    HW136113   1.010   2.126   1.428 -2.4192 -1.5968 -0.4017
 8217SOL    HW236114   1.075   2.075   1.306  0.4699  0.7861 -1.5996
 8218SOL     OW36115   2.893   1.929   4.538  0.6941 -0.3511  0.2322
 8218SOL    HW136116   2.935   1.984   4.471 -1.6960  0.6020 -0.4651
 8218SOL    HW236117   2.813   1.978   4.554  0.2033 -0.8057 -0.8444
 8219SOL     OW36118   2.904   1.121   8.779 -0.8263  0.5019  0.1138
 8219SOL    HW136119   2.954   1.187   8.731 -0.6654 -0.7320 -1.4134
 8219SOL    HW236120   2.979   1.071   8.809  0.6912  1.8407 -1.4466
 8220SOL     OW36121   2.941   0.297   3.064  0.6111 -0.3101 -0.4094
 8220SOL    HW136122   2.932   0.246   2.984 -2.1464 -0.5190  0.0293
 8220SOL    HW236123   2.894   0.378   3.044  2.6533  1.3293  1.4050
 8221SOL     OW36124   2.731   0.044   4.848  0.2132  0.5220  0.2202
 8221SOL    HW136125   2.816   0.044   4.805 -0.4142  1.5456 -1.0473
 8221SOL    HW236126   2.729   0.132   4.884  3.4997  0.4560  0.5527
 8222SOL     OW36127   1.052   4.460  16.661  0.4590 -0.1997  0.2230
 8222SOL    HW136128   1.058   4.555  16.650  1.5416 -0.2638  0.3025
 8222SOL    HW236129   1.017   4.431  16.576 -0.1327  2.2502 -0.3837
 8223SOL     OW36130   1.363   0.119   9.243  0.1154  0.1277  0.0774
 8223SOL    HW136131   1.417   0.186   9.200  1.5815  1.1058  3.4285
 8223SOL    HW236132   1.368   0.051   9.176 -1.8428 -0.7429  0.8185
 8224SOL     OW36133   1.157   3.026   0.623 -0.4290  0.5088 -0.0972
 8224SOL    HW136134   1.127   2.980   0.545  2.3121  1.4301 -1.6998
 8224SOL    HW236135   1.138   3.117   0.602 -1.0874  0.4142  0.1125
 8225SOL     OW36136   0.389   2.498   8.329  0.0680 -0.3224  0.5715
 8225SOL    HW136137   0.295   2.487   8.341 -0.0252  0.6007  0.7005
 8225SOL    HW236138   0.396   2.567   8.394 -0.4280 -1.2980  1.6605
 8226SOL     OW36139   3.120   3.604   0.408  0.4454 -0.1854 -0.3050
 8226SOL    HW136140   3.190   3.603   0.343  1.8644  2.2660  1.2061
 8226SOL    HW236141   3.083   3.691   0.396  1.5799  0.3689  0.2553
 8227SOL     OW36142   0.395   0.373   0.966  0.3913 -0.4708  0.3951
 8227SOL    HW136143   0.442   0.455   0.977  0.2097 -0.4589  1.0586
 8227SOL    HW236144   0.437   0.340   0.886  3.2473  0.7691  1.3818
 8228SOL     OW36145   2.538   2.449  10.227 -0.2682 -0.5901  0.3360
 8228SOL    HW136146   2.494   2.382  10.279 -0.3215  0.2884  1.4226
 8228SOL    HW236147   2.468   2.514  10.219  1.3349  1.0559 -0.3740
 8229SOL     OW36148   2.018   0.966   5.777 -0.0582 -0.7712 -0.1380
 8229SOL    HW136149   2.065   0.907   5.718  1.9227  0.9178 -0.2831
 8229SOL    HW236150   2.089   1.021   5.811 -0.5708 -0.0979 -0.1446
 8230SOL     OW36151   4.032   3.718   8.347  0.4997 -0.0243 -0.1132
 8230SOL    HW136152   3.950   3.755   8.317  0.3615 -0.6945 -0.5502
 8230SOL    HW236153   4.012   3.625   8.345 -1.0703  0.3023  0.7981
 8231SOL     OW36154   1.636   1.760   1.804  0.2947 -0.3128  0.1971
 8231SOL    HW136155   1.563   1.738   1.861 -0.7028  2.5494 -0.0091
 8231SOL    HW236156   1.610   1.737   1.714 -3.0101 -2.7252  1.7771
 8232SOL     OW36157   3.972   2.982   4.239  0.0348 -0.2935 -0.1464
 8232SOL    HW136158   4.010   2.895   4.246  1.5321  0.1035 -3.0578
 8232SOL    HW236159   3.892   2.958   4.191 -2.0962  0.1065  3.2259
 8233SOL     OW36160   0.318   2.529   5.963  1.2052 -0.4721  0.0143
 8233SOL    HW136161   0.306   2.598   5.898 -1.1820 -1.8107 -0.9679
 8233SOL    HW236162   0.296   2.456   5.905  2.7818 -0.7600 -0.2109
 8234SOL     OW36163   0.198   1.064   8.658 -0.1879  0.2032 -0.1604
 8234SOL    HW136164   0.205   1.046   8.565  0.8368  1.8988 -0.4225
 8234SOL    HW236165   0.104   1.047   8.666 -0.3001  1.4027  1.2143
 8235SOL     OW36166   3.686   0.670   5.388  0.0336 -0.0018 -0.1071
 8235SOL    HW136167   3.625   0.736   5.356 -0.8090 -0.3414  0.7941
 8235SOL    HW236168   3.624   0.615   5.435  0.8248 -0.3228  0.5704
 8236SOL     OW36169   2.687   0.852   5.378  0.2342 -0.6357  0.0317
 8236SOL    HW136170   2.752   0.878   5.444 -2.1146  0.3204  1.9520
 8236SOL    HW236171   2.683   0.926   5.316  0.2383 -0.1857  0.5697
 8237SOL     OW36172   0.036   3.898   8.022  0.5581  0.4569  0.1448
 8237SOL    HW136173   0.069   3.822   7.974 -1.8845 -0.9027  0.6282
 8237SOL    HW236174   4.667   3.863   8.038  0.5447 -0.3016 -1.5694
 8238SOL     OW36175   2.992   4.246   3.848  0.5046  0.0731  0.2308
 8238SOL    HW136176   3.001   4.156   3.878  2.0937 -0.7202 -2.6087
 8238SOL    HW236177   3.073   4.277   3.890  0.0837 -1.2626  2.0314
 8239SOL     OW36178   3.944   3.891   1.545 -0.2369  0.2056 -0.5161
 8239SOL    HW136179   3.907   3.965   1.592 -0.7964 -1.7029  2.0308
 8239SOL    HW236180   3.867   3.833   1.544 -0.8441  1.0064 -0.6203
 8240SOL     OW36181   0.478   1.611   6.698 -0.5397 -0.2236 -0.4532
 8240SOL    HW136182   0.568   1.630   6.673 -0.3677 -0.3296  0.0876
 8240SOL    HW236183   0.463   1.681   6.761  1.5512  0.2155 -0.4350
 8241SOL     OW36184   0.443   0.097   3.874 -0.2390 -0.4304  0.4195
 8241SOL    HW136185   0.435   0.002   3.865 -0.9739 -0.3619  0.3513
 8241SOL    HW236186   0.364   0.120   3.924  0.0353  1.8578 -0.2030
 8242SOL     OW36187   4.373   0.107   8.938  0.6063 -0.2288  0.0467
 8242SOL    HW136188   4.324   0.181   8.975  1.8212  0.5363  0.1110
 8242SOL    HW236189   4.348   0.115   8.846  0.6698  1.8960  0.2027
 8243SOL     OW36190   3.029   2.100  14.426 -0.0837 -0.3472  0.5367
 8243SOL    HW136191   3.023   2.190  14.394 -0.7655  0.3778  2.6638
 8243SOL    HW236192   3.124   2.089  14.429 -0.2518 -2.2468 -0.9670
 8244SOL     OW36193   2.847   4.169   0.762  0.2916 -0.2822 -0.0544
 8244SOL    HW136194   2.924   4.221   0.739 -0.1296 -1.1515 -3.4151
 8244SOL    HW236195   2.791   4.229   0.812  2.1914 -0.4046  2.1865
 8245SOL     OW36196   0.423   3.775   1.494  0.4836 -0.4234 -0.5270
 8245SOL    HW136197   0.471   3.764   1.411  0.8943  0.1090 -0.3588
 8245SOL    HW236198   0.486   3.827   1.544  0.8767  0.5605 -2.0412
 8246SOL     OW36199   2.424   0.740   8.011  0.3056 -0.0383 -0.0985
 8246SOL    HW136200   2.420   0.659   7.960 -0.5627  0.1527 -0.3304
 8246SOL    HW236201   2.364   0.793   7.958 -0.1799 -0.4718  0.0251
 8247SOL     OW36202   2.750   1.609   3.347  0.0389  0.1540  0.4088
 8247SOL    HW136203   2.719   1.549   3.416 -1.1372  0.2181 -0.0611
 8247SOL    HW236204   2.796   1.671   3.404  1.8650 -1.2561  0.4532
 8248SOL     OW36205   2.519   2.150  12.350  0.5438  0.4538  0.5068
 8248SOL    HW136206   2.580   2.204  12.400  1.9426  1.3931 -2.2075
 8248SOL    HW236207   2.461   2.220  12.320  0.8565  0.2430 -0.5894
 8249SOL     OW36208   4.435   2.978  14.446  0.2784 -0.5756  0.3562
 8249SOL    HW136209   4.359   2.924  14.430  1.7913 -2.9632  1.2370
 8249SOL    HW236210   4.402   3.065  14.423 -0.4471 -1.0222 -0.2399
 8250SOL     OW36211   2.867   1.350   8.238  0.1223 -0.0532  0.7728
 8250SOL    HW136212   2.866   1.333   8.332  3.1173  0.3414  0.8656
 8250SOL    HW236213   2.879   1.445   8.234  0.0904 -0.1154 -0.7573
 8251SOL     OW36214   0.311   2.798   4.007  0.8774 -0.4139  0.2934
 8251SOL    HW136215   0.392   2.829   3.967 -0.1098 -2.9474 -3.6908
 8251SOL    HW236216   0.261   2.879   3.998  0.5221 -0.5383  1.1323
 8252SOL     OW36217   3.718   2.171   6.644 -0.0606  0.1441  0.0426
 8252SOL    HW136218   3.797   2.201   6.600 -0.9980  2.0359 -0.3605
 8252SOL    HW236219   3.725   2.076   6.632  1.1861  0.4254 -1.4300
 8253SOL     OW36220   2.558   2.936   2.876 -0.1819  0.3027  0.6121
 8253SOL    HW136221   2.571   2.860   2.933  1.5706 -0.8784 -1.3342
 8253SOL    HW236222   2.530   2.882   2.802 -1.3206  1.8217 -0.0458
 8254SOL     OW36223   0.456   2.064   8.179  0.1430 -0.0872  0.8342
 8254SOL    HW136224   0.369   2.078   8.215 -0.4094  1.5014 -1.1187
 8254SOL    HW236225   0.503   2.033   8.256  1.6471  1.3981  0.4917
 8255SOL     OW36226   0.989   1.378   6.074 -1.0525  0.1910 -0.0176
 8255SOL    HW136227   1.046   1.388   5.998 -0.6041 -0.7534  0.2058
 8255SOL    HW236228   0.938   1.300   6.053 -0.4800  0.1952 -1.4174
 8256SOL     OW36229   3.174   2.859   6.829  0.1993  0.7283  0.2327
 8256SOL    HW136230   3.112   2.930   6.810  0.7980  1.5317  1.2557
 8256SOL    HW236231   3.248   2.901   6.784  0.5645 -1.6069 -1.3097
 8257SOL     OW36232   2.828   1.008   0.195 -0.1111 -0.3801 -0.3602
 8257SOL    HW136233   2.735   1.029   0.193  0.0001  0.1087 -0.6153
 8257SOL    HW236234   2.836   1.039   0.285 -0.4635 -1.0339 -0.1105
 8258SOL     OW36235   0.019   0.150  10.095  0.2888  0.3308 -0.1475
 8258SOL    HW136236   0.016   0.065  10.140 -0.2717  1.9100  2.8003
 8258SOL    HW236237   0.094   0.133  10.037  0.7823 -0.0486  0.5996
 8259SOL     OW36238   3.708   0.177   9.192  0.4512  0.2603 -0.6788
 8259SOL    HW136239   3.745   0.138   9.271  1.9129 -0.5586 -1.7771
 8259SOL    HW236240   3.615   0.176   9.214  0.7217 -0.8562  0.4245
 8260SOL     OW36241   4.659   3.328  14.785 -0.1513  0.2030  0.4567
 8260SOL    HW136242   4.640   3.277  14.864  0.3422 -1.8562 -0.7581
 8260SOL    HW236243   4.639   3.270  14.712  0.7141  1.6739 -0.9459
 8261SOL     OW36244   0.752   0.033   2.706  0.8081  0.2645 -0.0587
 8261SOL    HW136245   0.763   4.665   2.748 -1.6334  0.1451  0.3211
 8261SOL    HW236246   0.841   0.059   2.681  0.1828  0.0432 -2.5195
 8262SOL     OW36247   0.956   2.723   1.791  0.5235 -0.0785 -0.4341
 8262SOL    HW136248   1.021   2.744   1.723 -0.7248 -0.9143 -1.8738
 8262SOL    HW236249   0.974   2.636   1.827 -0.6311 -0.1521 -0.0595
 8263SOL     OW36250   1.801   3.711   6.881  0.3205  0.1732  0.2664
 8263SOL    HW136251   1.813   3.634   6.825  2.8354 -1.1976  2.6629
 8263SOL    HW236252   1.707   3.697   6.889  0.0912  0.7528 -1.4059
 8264SOL     OW36253   1.009   1.891   3.031 -0.3139 -0.3103 -0.2614
 8264SOL    HW136254   0.941   1.908   2.967  0.6987 -0.7129 -1.4475
 8264SOL    HW236255   1.063   1.819   2.998 -0.1245 -0.1732 -0.2507
 8265SOL     OW36256   1.318   3.850   9.279 -0.5711 -0.1131  0.3805
 8265SOL    HW136257   1.401   3.868   9.234 -0.9836  0.5578 -0.1159
 8265SOL    HW236258   1.303   3.756   9.268 -0.2226 -0.0064 -1.0061
 8266SOL     OW36259   3.675   2.737   2.480 -0.1584 -0.3089  0.0074
 8266SOL    HW136260   3.651   2.823   2.513 -2.2929 -1.3493  1.1693
 8266SOL    HW236261   3.688   2.747   2.386 -1.1777 -0.1836 -0.1165
 8267SOL     OW36262   3.039   3.058   8.805 -0.0245 -0.0077 -0.5827
 8267SOL    HW136263   3.003   2.994   8.866 -0.2423  1.7200  1.1182
 8267SOL    HW236264   3.042   3.026   8.716  1.1417 -1.1020 -0.1491
 8268SOL     OW36265   3.914   1.887   9.500  0.2825 -0.5414  0.0456
 8268SOL    HW136266   3.834   1.865   9.452 -0.5714  1.3879  0.6147
 8268SOL    HW236267   3.911   1.976   9.535 -1.8903 -0.6667  0.1509
 8269SOL     OW36268   1.917   1.619   0.004 -0.5342 -0.0438  0.2961
 8269SOL    HW136269   1.984   1.621  17.610  1.2123  1.2374  2.0075
 8269SOL    HW236270   1.856   1.676  17.632  1.2914  1.8775  0.2065
 8270SOL     OW36271   1.093   0.960   0.296  0.0801 -0.7510  0.0371
 8270SOL    HW136272   1.022   0.966   0.360  0.7674  0.6256  0.6716
 8270SOL    HW236273   1.056   0.988   0.212 -1.9201  1.6304  1.7031
 8271SOL     OW36274   0.438   3.538   5.623 -0.4785 -0.6082 -0.3068
 8271SOL    HW136275   0.474   3.557   5.536 -2.8859 -2.8346 -1.8106
 8271SOL    HW236276   0.503   3.474   5.651 -2.1517 -2.1491  0.0186
 8272SOL     OW36277   1.614   0.639  13.051  0.4472 -0.1634 -0.4176
 8272SOL    HW136278   1.609   0.704  13.121  0.8289 -0.9248  0.3234
 8272SOL    HW236279   1.581   0.563  13.100 -0.4523 -0.5364 -1.5926
 8273SOL     OW36280   2.942   3.669  13.943  0.4153  0.3190  0.1033
 8273SOL    HW136281   2.878   3.740  13.956 -1.6837 -1.0231 -2.8709
 8273SOL    HW236282   2.974   3.684  13.854  0.3037 -2.3808 -0.3759
 8274SOL     OW36283   4.300   1.543   8.331  0.6683  0.1412 -0.3574
 8274SOL    HW136284   4.391   1.561   8.304  0.2877  1.8112 -0.5161
 8274SOL    HW236285   4.265   1.554   8.242 -0.5982  1.0068  0.2567
 8275SOL     OW36286   4.424   3.565   9.131 -0.2505 -0.0867  0.1347
 8275SOL    HW136287   4.426   3.508   9.053 -2.1776 -1.1515  0.8453
 8275SOL    HW236288   4.464   3.642   9.093 -3.8244  0.2620 -2.9990
 8276SOL     OW36289   0.740   1.729   4.199  0.3435  0.2390  0.5628
 8276SOL    HW136290   0.671   1.681   4.153  0.8568 -1.7202  1.8774
 8276SOL    HW236291   0.764   1.666   4.266  0.4471 -0.2879  0.0299
 8277SOL     OW36292   1.582   2.792   2.836  0.0229 -0.3905 -0.0202
 8277SOL    HW136293   1.610   2.725   2.898  0.3886 -1.0875 -0.9427
 8277SOL    HW236294   1.496   2.819   2.870  1.2656  1.5447  1.5924
 8278SOL     OW36295   2.334   0.372   8.561  0.2350  0.7879  0.1089
 8278SOL    HW136296   2.398   0.436   8.592  0.3597  0.2896  0.8844
 8278SOL    HW236297   2.373   0.289   8.588 -1.5680  0.3109  1.2209
 8279SOL     OW36298   0.580   1.550   1.527  0.3676  0.0719 -0.2984
 8279SOL    HW136299   0.634   1.472   1.541  2.0850  1.5419  1.3638
 8279SOL    HW236300   0.601   1.569   1.436  0.6917 -0.1919 -0.2750
 8280SOL     OW36301   2.844   1.884   7.658 -0.4941 -0.0169 -0.2710
 8280SOL    HW136302   2.919   1.847   7.611  0.4820  0.4067  0.9570
 8280SOL    HW236303   2.777   1.895   7.591 -0.3803 -0.0718 -0.3933
 8281SOL     OW36304   3.071   1.691   5.391 -0.1021 -0.0983 -0.3202
 8281SOL    HW136305   3.100   1.773   5.349  0.2239  0.2068  0.5003
 8281SOL    HW236306   2.996   1.665   5.338  1.0869 -1.3917 -1.3505
 8282SOL     OW36307   2.395   3.496  11.405 -0.3347 -0.3945 -0.3803
 8282SOL    HW136308   2.386   3.400  11.400 -1.6432 -0.2335 -1.2170
 8282SOL    HW236309   2.356   3.516  11.320  1.0326 -1.3710 -1.2333
 8283SOL     OW36310   3.150   0.238   4.943 -0.2522 -0.3009 -0.2056
 8283SOL    HW136311   3.080   0.286   4.897 -0.0791  0.7492  0.6217
 8283SOL    HW236312   3.169   0.165   4.884 -0.7361 -0.1344 -0.5775
 8284SOL     OW36313   2.916   4.501   3.750 -0.4429 -0.0738 -0.2384
 8284SOL    HW136314   2.823   4.497   3.728 -0.4851  0.5043 -0.1509
 8284SOL    HW236315   2.937   4.408   3.744 -2.4117 -0.4054 -2.1110
 8285SOL     OW36316   4.349   2.604  13.306 -0.3150  0.1333  0.9604
 8285SOL    HW136317   4.255   2.612  13.285 -0.3070 -0.7153  0.6172
 8285SOL    HW236318   4.370   2.698  13.309  0.7627  0.0203 -2.5091
 8286SOL     OW36319   3.505   3.175   8.367 -0.3529 -0.1448 -0.1694
 8286SOL    HW136320   3.509   3.200   8.274  0.5477  1.2633  0.2407
 8286SOL    HW236321   3.594   3.190   8.400 -0.9322  1.2880  0.7472
 8287SOL     OW36322   2.133   0.083   5.568  0.7099 -0.0502  0.6305
 8287SOL    HW136323   2.157   0.165   5.525  0.6020 -1.0921 -1.3950
 8287SOL    HW236324   2.169   0.097   5.656  1.4489  0.5372  0.2341
 8288SOL     OW36325   2.197   2.745   2.607 -0.3062 -0.1302  0.5134
 8288SOL    HW136326   2.176   2.665   2.655  1.3839  0.8773  2.9331
 8288SOL    HW236327   2.132   2.755   2.537 -0.1226  1.7980  0.6217
 8289SOL     OW36328   0.237   4.090   4.841 -0.1407 -0.0566 -0.0775
 8289SOL    HW136329   0.331   4.107   4.850 -0.0242 -0.6475 -0.1758
 8289SOL    HW236330   0.234   4.018   4.904  0.3093  0.4247  0.4906
 8290SOL     OW36331   0.075   3.461  11.698 -0.3656  0.3591  0.4277
 8290SOL    HW136332   0.136   3.413  11.642  0.1992  0.0070  1.3355
 8290SOL    HW236333   0.141   3.514  11.744  0.8306  0.2196 -1.1106
 8291SOL     OW36334   0.145   2.473  15.757  0.0186  0.2932 -0.4990
 8291SOL    HW136335   0.139   2.383  15.790 -0.6368  0.8108  0.7922
 8291SOL    HW236336   0.069   2.516  15.796  2.2973  3.3098  0.6724
 8292SOL     OW36337   1.215   3.791  10.548 -0.6371 -0.0734 -0.3620
 8292SOL    HW136338   1.188   3.864  10.604 -1.4547 -0.6791  0.0400
 8292SOL    HW236339   1.260   3.837  10.477 -0.1609 -0.5703 -0.3792
 8293SOL     OW36340   2.909   0.102   5.991 -0.4324 -0.4324 -0.4610
 8293SOL    HW136341   2.947   0.031   5.939 -0.6215 -1.3009  0.5844
 8293SOL    HW236342   2.973   0.104   6.061 -0.1010  0.0430 -0.7788
 8294SOL     OW36343   1.985   4.659  10.784 -0.0056  0.5363 -0.2305
 8294SOL    HW136344   1.942   4.620  10.708 -2.1941  0.8368  0.8504
 8294SOL    HW236345   2.050   4.594  10.812 -1.8818 -0.7482  1.1304
 8295SOL     OW36346   0.032   0.267  15.929  0.4490  0.2231  0.2699
 8295SOL    HW136347   0.125   0.251  15.944 -0.1152 -0.2620  3.1681
 8295SOL    HW236348   0.038   0.238  15.838 -1.3199 -0.2948  0.3297
 8296SOL     OW36349   0.570   0.151  13.837 -0.1859  0.1497 -0.4547
 8296SOL    HW136350   0.646   0.101  13.865  0.9922  2.3298  0.2376
 8296SOL    HW236351   0.573   0.226  13.897 -0.4068 -0.0405 -0.2053
 8297SOL     OW36352   1.548   3.316   2.818  0.2061  0.0116  0.1987
 8297SOL    HW136353   1.559   3.262   2.897  0.5189 -1.0694 -0.5782
 8297SOL    HW236354   1.495   3.256   2.766  0.5740 -0.2514  0.1330
 8298SOL     OW36355   3.210   3.930  13.012  0.1969 -0.0611  0.0063
 8298SOL    HW136356   3.268   3.952  13.085  0.7779  0.3183 -0.5671
 8298SOL    HW236357   3.278   3.921  12.945 -0.4914  2.3644 -1.0055
 8299SOL     OW36358   3.966   0.245  16.425  0.3304 -0.0258 -0.2734
 8299SOL    HW136359   3.899   0.284  16.369 -1.0615 -0.7243  0.9153
 8299SOL    HW236360   4.043   0.241  16.368  0.7450  0.7219  0.2400
 8300SOL     OW36361   2.142   3.970   3.909  0.2874  0.3566 -0.2070
 8300SOL    HW136362   2.164   3.911   3.837  1.9067  0.0306  0.5331
 8300SOL    HW236363   2.098   4.042   3.865  0.0755  1.4086  1.7221
 8301SOL     OW36364   4.002   1.722   8.771 -0.8640  0.1910  0.5750
 8301SOL    HW136365   3.925   1.728   8.828  0.1182 -2.2596  2.1323
 8301SOL    HW236366   3.966   1.668   8.700  4.6596 -0.5698 -1.6397
 8302SOL     OW36367   4.398   3.300   7.404  0.1937  0.3122 -0.2903
 8302SOL    HW136368   4.389   3.373   7.466  1.6810  0.0293  0.2757
 8302SOL    HW236369   4.341   3.235   7.445 -0.1615  0.0407 -1.2148
 8303SOL     OW36370   4.476   3.233   5.486 -0.5426 -0.5471  0.3162
 8303SOL    HW136371   4.544   3.299   5.474 -2.1796  0.7451 -1.6708
 8303SOL    HW236372   4.479   3.213   5.580  1.6966  1.9151  0.7560
 8304SOL     OW36373   2.219   1.173  12.882  0.4705 -0.0182  0.1637
 8304SOL    HW136374   2.241   1.159  12.789  0.5065  1.1519 -0.0103
 8304SOL    HW236375   2.124   1.185  12.878  0.0175 -2.5085  3.4125
 8305SOL     OW36376   0.478   4.005  14.080 -0.1308  0.2105 -0.2934
 8305SOL    HW136377   0.517   3.938  14.024 -0.1037 -0.7097  0.8092
 8305SOL    HW236378   0.425   4.042  14.010 -0.9770  0.2086  0.3446
 8306SOL     OW36379   3.002   0.972   6.794 -0.0994 -0.1749 -0.1858
 8306SOL    HW136380   3.089   1.005   6.772  0.3956 -2.0262 -1.0434
 8306SOL    HW236381   2.979   0.925   6.714 -0.3582 -0.8495  0.2795
 8307SOL     OW36382   1.897   0.458   3.021 -0.4940  0.4069  0.7296
 8307SOL    HW136383   1.903   0.512   3.100  0.6397 -0.9436  1.5779
 8307SOL    HW236384   1.849   0.384   3.057  0.4185 -0.2221  0.6464
 8308SOL     OW36385   4.710   2.250   2.360 -0.0196  0.3574 -0.5306
 8308SOL    HW136386   0.036   2.319   2.409  1.1823 -2.2092  1.9295
 8308SOL    HW236387   4.660   2.300   2.295 -0.9435  0.8797  0.5737
 8309SOL     OW36388   2.521   2.669   1.670 -0.6503  0.0841 -0.2336
 8309SOL    HW136389   2.438   2.632   1.641 -1.2246  2.2049 -1.3176
 8309SOL    HW236390   2.501   2.719   1.749 -1.1406  1.0235 -0.9442
 8310SOL     OW36391   3.294   2.398   3.573 -0.0045 -0.1270  0.2105
 8310SOL    HW136392   3.332   2.424   3.657  0.9656 -1.7971  0.3053
 8310SOL    HW236393   3.359   2.330   3.551  1.3877  1.4331 -0.5142
 8311SOL     OW36394   2.577   0.306   2.720  0.5598  0.3470  0.1939
 8311SOL    HW136395   2.629   0.309   2.640  0.4364  1.0807  0.1478
 8311SOL    HW236396   2.548   0.397   2.719 -3.6357 -0.9598  0.5198
 8312SOL     OW36397   1.973   3.988   2.652  0.2131 -0.2810  0.4516
 8312SOL    HW136398   2.055   4.015   2.611  0.8526  2.7774  3.7504
 8312SOL    HW236399   1.926   4.071   2.653  0.6073 -0.0568  0.5837
 8313SOL     OW36400   2.723   4.381   5.846 -0.3049  0.1320  0.8960
 8313SOL    HW136401   2.792   4.342   5.901 -1.1889 -2.5509  0.0679
 8313SOL    HW236402   2.776   4.394   5.767  0.8299 -1.0699  1.4482
 8314SOL     OW36403   4.097   3.824   6.813  0.3161 -0.4954 -0.0946
 8314SOL    HW136404   4.032   3.756   6.832  0.4303 -0.2341  1.2198
 8314SOL    HW236405   4.170   3.774   6.848  1.5262  0.5157 -1.1739
 8315SOL     OW36406   1.555   1.071   6.109 -0.0290 -0.3253  0.1966
 8315SOL    HW136407   1.630   1.066   6.050  1.9405  0.2921  2.6455
 8315SOL    HW236408   1.533   1.164   6.103 -3.7449 -1.1947  0.0326
 8316SOL     OW36409   0.160   0.221   4.892  0.4844 -0.5333  0.0189
 8316SOL    HW136410   0.162   0.125   4.886 -0.7235 -0.6056  0.7504
 8316SOL    HW236411   0.211   0.251   4.817  2.3364  0.6225  1.7566
 8317SOL     OW36412   0.835   2.672   2.228 -0.1023 -0.1121 -0.6907
 8317SOL    HW136413   0.925   2.653   2.253 -0.5831 -1.4078  0.0671
 8317SOL    HW236414   0.834   2.629   2.142 -0.5924  1.5332 -1.5027
 8318SOL     OW36415   1.552   2.513   5.752  0.0741  0.5227  0.0565
 8318SOL    HW136416   1.494   2.491   5.679  1.0906 -1.5959 -0.0997
 8318SOL    HW236417   1.638   2.494   5.715 -0.5630  1.4147 -1.8777
 8319SOL     OW36418   1.071   2.070  10.562 -0.1026 -0.4506  0.0027
 8319SOL    HW136419   1.110   2.086  10.648  0.9305 -1.5032 -0.2668
 8319SOL    HW236420   1.105   1.983  10.540  1.1767 -0.3752  1.6372
 8320SOL     OW36421   0.204   0.241   9.253  0.1833 -0.4766  0.5442
 8320SOL    HW136422   0.217   0.336   9.260  0.0803 -0.4484  0.3537
 8320SOL    HW236423   0.229   0.227   9.162 -0.9392 -0.5658  0.2557
 8321SOL     OW36424   1.423   0.835   6.471 -0.1873  0.1972 -0.6331
 8321SOL    HW136425   1.434   0.841   6.376 -0.7527 -2.3820 -0.8559
 8321SOL    HW236426   1.358   0.902   6.492  0.6869  1.1824 -1.1022
 8322SOL     OW36427   0.917   3.891   8.055  0.4420  0.3982  0.0280
 8322SOL    HW136428   0.859   3.959   8.024 -0.3146 -0.9936 -1.5792
 8322SOL    HW236429   0.856   3.850   8.117 -0.6298 -1.6948 -2.4236
 8323SOL     OW36430   4.220   2.549   7.242 -0.6437  0.1298 -0.3570
 8323SOL    HW136431   4.286   2.613   7.270 -1.0802  0.6477 -0.5083
 8323SOL    HW236432   4.266   2.500   7.174 -0.9893 -0.5361 -0.1056
 8324SOL     OW36433   0.787   2.660   4.150 -0.1713 -0.0220 -0.4849
 8324SOL    HW136434   0.709   2.686   4.199  0.0928 -2.1208  1.0405
 8324SOL    HW236435   0.849   2.715   4.197  1.3743 -2.6061  0.4693
 8325SOL     OW36436   4.465   1.480   2.509  0.5443  0.7728 -0.4519
 8325SOL    HW136437   4.385   1.435   2.534  1.1301  0.2448  0.4937
 8325SOL    HW236438   4.478   1.550   2.573 -0.8047  0.1021  0.5475
 8326SOL     OW36439   4.053   3.278  16.275  0.0784  0.1956  0.1157
 8326SOL    HW136440   3.963   3.275  16.241  0.1428 -0.3472 -0.0096
 8326SOL    HW236441   4.038   3.267  16.369 -2.5631  1.4046 -0.1764
 8327SOL     OW36442   0.662   4.095   8.917  0.0636  0.0096 -0.0827
 8327SOL    HW136443   0.750   4.063   8.896  0.6047  1.1654  0.4384
 8327SOL    HW236444   0.655   4.167   8.855  2.0521  1.8380  1.8154
 8328SOL     OW36445   0.137   4.676   8.052  0.0598 -0.0908  0.3956
 8328SOL    HW136446   0.048   4.644   8.034 -0.0169  0.2475  0.1810
 8328SOL    HW236447   0.117   0.048   8.079 -0.0648  0.2219 -0.7532
 8329SOL     OW36448   2.658   2.486   2.557 -0.0765 -0.2747 -0.1151
 8329SOL    HW136449   2.688   2.448   2.474 -1.4408  0.4700 -0.9529
 8329SOL    HW236450   2.652   2.410   2.615 -3.1519 -0.5104 -0.7203
 8330SOL     OW36451   1.553   1.408  12.218 -0.1688  0.0747 -0.2877
 8330SOL    HW136452   1.606   1.415  12.297 -1.7669 -0.6919  0.8403
 8330SOL    HW236453   1.493   1.341  12.249 -1.4519  1.7588  0.8884
 8331SOL     OW36454   2.468   4.599   2.303  0.1070  0.1794 -0.3549
 8331SOL    HW136455   2.517   4.642   2.372  0.0330 -0.7758  0.2926
 8331SOL    HW236456   2.437   4.521   2.350  1.0602  0.6988  1.1287
 8332SOL     OW36457   1.270   2.934  13.421  0.7246 -0.0170 -0.6091
 8332SOL    HW136458   1.250   2.842  13.399  0.7612  0.3711 -2.2733
 8332SOL    HW236459   1.296   2.961  13.333 -2.0549  3.1269 -0.4502
 8333SOL     OW36460   4.457   2.388  10.065  0.2468 -0.2823 -0.2264
 8333SOL    HW136461   4.465   2.478  10.097 -2.3250 -0.6955  1.6354
 8333SOL    HW236462   4.542   2.385  10.020  1.1197 -0.4167  1.4202
 8334SOL     OW36463   1.112   3.572   4.650 -0.1377 -0.1483  0.1543
 8334SOL    HW136464   1.127   3.567   4.555 -1.3125  2.0304 -0.1558
 8334SOL    HW236465   1.053   3.647   4.658  1.0901  0.9843 -1.1023
 8335SOL     OW36466   3.588   4.408  11.546  0.2614  0.4043  0.1265
 8335SOL    HW136467   3.512   4.461  11.520 -0.5297 -0.3377  0.8868
 8335SOL    HW236468   3.547   4.362  11.619 -0.7155  1.4175  0.2347
 8336SOL     OW36469   1.530   3.593   3.496  0.0272 -0.9819  0.1063
 8336SOL    HW136470   1.490   3.506   3.492 -0.9893 -0.3840 -2.6966
 8336SOL    HW236471   1.455   3.652   3.485 -0.6020 -2.0733 -1.5755
 8337SOL     OW36472   2.623   4.144  11.930 -0.0453  0.2548  0.2153
 8337SOL    HW136473   2.559   4.215  11.939  0.5433  0.9809 -1.1976
 8337SOL    HW236474   2.641   4.150  11.836  2.3653 -0.1306  0.6651
 8338SOL     OW36475   1.993   1.550  16.066 -0.0447  0.8704 -0.3568
 8338SOL    HW136476   1.902   1.549  16.035 -0.4517 -0.7449  0.9033
 8338SOL    HW236477   2.047   1.506  16.001 -0.4730 -0.6198  0.2855
 8339SOL     OW36478   4.110   2.074   6.062  0.2015  0.4864 -0.8638
 8339SOL    HW136479   4.173   2.056   6.133 -0.7126 -0.4327 -0.2884
 8339SOL    HW236480   4.171   2.083   5.989  0.5987  1.7225 -0.3879
 8340SOL     OW36481   4.414   0.347   3.817 -0.3471 -0.6138 -0.1602
 8340SOL    HW136482   4.454   0.266   3.849  1.0525 -0.0588 -0.5174
 8340SOL    HW236483   4.350   0.341   3.888 -0.7381  1.3797 -0.3543
 8341SOL     OW36484   3.290   1.014   0.281 -0.0783  0.0976 -0.2791
 8341SOL    HW136485   3.303   1.100   0.241 -0.4921 -0.2648 -1.2054
 8341SOL    HW236486   3.376   1.001   0.321 -0.1634 -1.0337 -0.4718
 8342SOL     OW36487   2.167   3.441   5.495 -0.0032  0.0188  0.4177
 8342SOL    HW136488   2.139   3.531   5.508  1.3797  0.7128 -1.4145
 8342SOL    HW236489   2.191   3.452   5.403  0.4738 -1.4720  0.3482
 8343SOL     OW36490   4.582   0.329  12.397 -0.5340  0.5298  0.0595
 8343SOL    HW136491   4.623   0.247  12.425 -2.9819 -0.5883  0.3930
 8343SOL    HW236492   4.567   0.366  12.484  0.6299 -1.8373  1.2627
 8344SOL     OW36493   0.031   2.713   4.647 -0.7161  0.0630 -0.1083
 8344SOL    HW136494   0.121   2.743   4.662 -0.2355 -1.4169 -0.0052
 8344SOL    HW236495   0.015   2.732   4.554  1.5364  1.2216 -0.2618
 8345SOL     OW36496   1.189   1.809   7.765  0.1131  0.3590  0.2098
 8345SOL    HW136497   1.165   1.717   7.776  0.0853  0.1967 -1.2807
 8345SOL    HW236498   1.278   1.803   7.729  0.1217 -3.5559  0.8872
 8346SOL     OW36499   0.370   2.509   7.382  0.0086 -0.2750  0.4281
 8346SOL    HW136500   0.440   2.449   7.410  0.3649  0.1411  0.4189
 8346SOL    HW236501   0.295   2.475   7.430 -0.8093 -1.7352 -1.8723
 8347SOL     OW36502   1.378   1.353   3.396  0.4252 -0.6672  0.1155
 8347SOL    HW136503   1.440   1.423   3.376  1.1177 -0.7636  1.9238
 8347SOL    HW236504   1.387   1.293   3.322  2.0889 -1.4889  1.0038
 8348SOL     OW36505   1.323   0.569  13.371  0.0235  0.2874  0.0888
 8348SOL    HW136506   1.348   0.540  13.283 -2.1855  1.3196 -0.8845
 8348SOL    HW236507   1.228   0.564  13.367  0.1571 -1.1321 -1.2574
 8349SOL     OW36508   0.135   1.069  10.257  0.2926  0.4268  0.0309
 8349SOL    HW136509   0.047   1.085  10.291 -0.1250  0.5404 -1.1062
 8349SOL    HW236510   0.124   1.000  10.192 -0.3985 -0.3143  0.9433
 8350SOL     OW36511   1.307   1.184   4.983  0.0730  0.0540  0.2906
 8350SOL    HW136512   1.271   1.253   5.039 -0.0625  1.2875 -1.3190
 8350SOL    HW236513   1.225   1.163   4.939 -0.3304  4.0826 -0.8857
 8351SOL     OW36514   2.722   3.752   6.327  0.0031  0.3252  0.4945
 8351SOL    HW136515   2.662   3.782   6.396 -0.4502  2.2088 -0.6928
 8351SOL    HW236516   2.773   3.685   6.370 -2.5316 -0.9427  1.5249
 8352SOL     OW36517   0.875   4.304   0.759  0.2871  0.1448  1.2653
 8352SOL    HW136518   0.824   4.345   0.689  2.9173 -0.6118 -1.1144
 8352SOL    HW236519   0.893   4.219   0.718  0.5753 -0.1664  2.0335
 8353SOL     OW36520   2.795   1.556   5.267  0.3814 -0.1947 -0.1986
 8353SOL    HW136521   2.753   1.531   5.349 -0.6191  1.4476 -0.2114
 8353SOL    HW236522   2.858   1.484   5.272  2.2251  1.5560  2.3135
 8354SOL     OW36523   4.490   3.328   1.368 -0.5406  0.7528 -0.5182
 8354SOL    HW136524   4.475   3.380   1.447  2.0020 -1.4322  1.3710
 8354SOL    HW236525   4.418   3.266   1.382 -0.3073  0.5393 -0.2932
 8355SOL     OW36526   2.724   4.650   0.768  0.2510 -0.2772  0.4282
 8355SOL    HW136527   2.817   4.652   0.743  0.1878  0.8118  0.2602
 8355SOL    HW236528   2.712   4.638   0.862  1.4196 -0.8503  0.5155
 8356SOL     OW36529   4.212   3.218   3.664  0.4981  0.4500 -0.2781
 8356SOL    HW136530   4.127   3.256   3.687  0.2709 -0.5692  0.5373
 8356SOL    HW236531   4.192   3.126   3.677 -0.6234  0.6277 -0.7629
 8357SOL     OW36532   2.380   0.243   9.970 -0.1010 -0.2242 -0.1636
 8357SOL    HW136533   2.367   0.167   9.913 -1.4468 -1.0962  1.3209
 8357SOL    HW236534   2.458   0.213  10.016  0.0228  1.1680  0.5298
 8358SOL     OW36535   2.667   1.125   2.187  0.0873 -0.5634  0.1398
 8358SOL    HW136536   2.711   1.181   2.124 -1.4324 -1.7969 -2.0392
 8358SOL    HW236537   2.672   1.043   2.139  1.5376  0.0214 -0.6840
 8359SOL     OW36538   1.549   3.927   9.498  0.6355  0.2120 -0.2384
 8359SOL    HW136539   1.537   3.926   9.593  0.7661  3.1082 -0.1829
 8359SOL    HW236540   1.462   3.897   9.471 -0.3585  1.6324  1.3640
 8360SOL     OW36541   1.859   3.412   0.495 -0.1702 -0.2646 -0.6416
 8360SOL    HW136542   1.822   3.414   0.583 -3.0385  0.0236 -1.8508
 8360SOL    HW236543   1.948   3.386   0.521 -1.0406 -1.6050  0.9781
 8361SOL     OW36544   4.269   1.986   1.069  0.1530  0.1017 -0.3515
 8361SOL    HW136545   4.253   2.058   1.008 -1.2971  1.0661  1.1702
 8361SOL    HW236546   4.210   2.012   1.140  0.1394  1.0779 -0.7205
 8362SOL     OW36547   1.499   4.407   3.370  0.2098 -0.1308  0.0800
 8362SOL    HW136548   1.534   4.353   3.441 -0.5599  0.8731  1.2374
 8362SOL    HW236549   1.466   4.331   3.323 -0.1320 -0.9460  1.6484
 8363SOL     OW36550   3.994   4.387   2.002 -0.5677  0.2951 -0.5249
 8363SOL    HW136551   3.960   4.315   1.949  1.8845  0.3423 -2.1716
 8363SOL    HW236552   4.031   4.441   1.932  0.2694  0.0014 -0.3091
 8364SOL     OW36553   4.027   0.354   2.345  0.9623  0.0114 -0.6513
 8364SOL    HW136554   3.978   0.426   2.305 -0.1564 -1.5393 -2.0291
 8364SOL    HW236555   4.067   0.400   2.419 -2.4247 -1.1273  1.9201
 8365SOL     OW36556   3.065   1.429   7.075 -0.2271  0.4341 -0.4446
 8365SOL    HW136557   3.115   1.357   7.039 -0.5553  0.0924 -0.2123
 8365SOL    HW236558   3.130   1.498   7.060 -0.0753  0.0675 -1.4503
 8366SOL     OW36559   2.638   4.146   1.403  0.4716  0.4416 -0.1799
 8366SOL    HW136560   2.574   4.180   1.341 -1.7104 -0.0090  1.8232
 8366SOL    HW236561   2.675   4.079   1.345 -0.8197  2.0694 -2.8910
 8367SOL     OW36562   0.657   2.967   9.246 -0.3605  0.7863 -0.4273
 8367SOL    HW136563   0.641   3.058   9.222 -2.4113  0.5195 -0.0658
 8367SOL    HW236564   0.744   2.981   9.283 -1.3521  0.0537  2.1260
 8368SOL     OW36565   4.688   2.876  13.930  0.6221  0.0692 -0.5630
 8368SOL    HW136566   0.037   2.810  13.913  1.1132  0.0884  1.2336
 8368SOL    HW236567   0.006   2.953  13.886 -0.4826 -0.1539 -1.8351
 8369SOL     OW36568   1.305   0.130   4.013  1.0039  0.1777  0.1855
 8369SOL    HW136569   1.271   0.219   4.006 -3.0685 -1.4069 -0.1542
 8369SOL    HW236570   1.337   0.112   3.925 -0.4468  1.4217 -0.5994
 8370SOL     OW36571   1.225   3.969   4.510 -0.6411  0.1695 -0.1825
 8370SOL    HW136572   1.203   4.011   4.427 -1.4742 -2.4002 -1.2723
 8370SOL    HW236573   1.313   3.936   4.493  0.0336  1.6853  0.3940
 8371SOL     OW36574   1.198   2.583  14.936 -0.6344 -0.6740 -0.2281
 8371SOL    HW136575   1.142   2.556  14.864 -1.3153  0.2904 -0.0634
 8371SOL    HW236576   1.236   2.664  14.901 -0.1379 -0.9357 -0.2952
 8372SOL     OW36577   4.538   4.573   5.678 -0.5987 -0.1204  0.4329
 8372SOL    HW136578   4.476   4.543   5.611 -1.2135  0.9353  0.5167
 8372SOL    HW236579   4.549   4.667   5.664  1.3639 -0.8106 -2.5301
 8373SOL     OW36580   4.005   3.604   4.461  0.3694  0.3815 -0.1428
 8373SOL    HW136581   3.917   3.640   4.449 -0.3610 -1.0237  0.8804
 8373SOL    HW236582   3.996   3.508   4.467  0.5509  0.5170  2.3275
 8374SOL     OW36583   1.064   4.441   4.362  0.1153 -0.2213  0.1651
 8374SOL    HW136584   1.006   4.369   4.387  0.4927 -0.1922  1.1377
 8374SOL    HW236585   1.150   4.406   4.383 -0.2765 -1.4693 -0.3216
 8375SOL     OW36586   1.008   3.009   3.220 -0.2700  0.6318 -0.3102
 8375SOL    HW136587   1.021   2.944   3.151 -2.3677  0.8367 -0.9035
 8375SOL    HW236588   0.918   3.004   3.253 -0.2405  0.4432 -0.2597
 8376SOL     OW36589   0.785   2.702   8.796 -0.4036 -0.1568  0.2773
 8376SOL    HW136590   0.815   2.729   8.883 -0.0080  0.1736  0.0379
 8376SOL    HW236591   0.706   2.748   8.771 -0.8155 -2.4521 -2.5890
 8377SOL     OW36592   1.175   4.202   8.014  0.6465  0.9556 -0.0765
 8377SOL    HW136593   1.098   4.220   7.961 -0.0046 -0.8187  0.2456
 8377SOL    HW236594   1.228   4.275   7.984  0.0225  1.7888  0.8733
 8378SOL     OW36595   4.037   1.088   6.134  0.2550 -0.0834 -0.1441
 8378SOL    HW136596   4.014   1.166   6.184 -0.0399 -0.1369 -0.1985
 8378SOL    HW236597   4.125   1.063   6.163  0.8691  0.7738 -1.2326
 8379SOL     OW36598   2.690   1.341   0.600 -0.4415  0.2128 -1.0464
 8379SOL    HW136599   2.626   1.346   0.529 -0.1549 -1.6495 -1.4238
 8379SOL    HW236600   2.624   1.333   0.670  0.2497 -0.2586 -0.4572
 8380SOL     OW36601   3.671   0.358   5.992 -0.2397 -0.0059 -0.3069
 8380SOL    HW136602   3.696   0.287   6.052 -0.9467  0.1244  0.1444
 8380SOL    HW236603   3.656   0.437   6.044  1.2913  0.2602 -0.2615
 8381SOL     OW36604   4.498   3.272  17.388  0.0743 -0.0393  0.5064
 8381SOL    HW136605   4.525   3.352  17.433 -2.0971  0.9919 -0.0292
 8381SOL    HW236606   4.428   3.304  17.331  1.6407  0.2823 -1.2109
 8382SOL     OW36607   0.348   0.860   7.437  0.4074  0.5472 -0.2843
 8382SOL    HW136608   0.280   0.865   7.370  0.3487 -0.3402 -0.2881
 8382SOL    HW236609   0.318   0.927   7.500 -1.3109 -1.3910  0.9658
 8383SOL     OW36610   0.850   2.362  12.352  0.1788  0.7380  0.0408
 8383SOL    HW136611   0.866   2.450  12.384 -0.6963  0.6889  0.6238
 8383SOL    HW236612   0.780   2.395  12.295 -1.1934 -1.4587  0.4287
 8384SOL     OW36613   4.701   3.903   3.828 -0.2583  0.4182  0.0170
 8384SOL    HW136614   0.009   3.923   3.918  1.4428  0.8223 -0.5669
 8384SOL    HW236615   0.003   3.985   3.783  0.0197  1.7909  2.6188
 8385SOL     OW36616   0.455   3.909   6.796 -0.5214  0.1966 -1.1429
 8385SOL    HW136617   0.517   3.968   6.840  0.3452 -3.2168  2.2374
 8385SOL    HW236618   0.417   3.867   6.873  1.3239  1.1328  0.2948
 8386SOL     OW36619   1.542   1.722  11.571 -0.1019 -0.2873  0.3464
 8386SOL    HW136620   1.528   1.679  11.486 -0.1399 -0.6657  0.5486
 8386SOL    HW236621   1.504   1.654  11.627  2.2406  0.9962  3.4638
 8387SOL     OW36622   4.677   1.835   9.074 -0.4454 -0.1182 -0.7885
 8387SOL    HW136623   4.599   1.841   9.131  1.0235 -1.2416  1.3469
 8387SOL    HW236624   4.681   1.919   9.028 -1.4115 -0.6248 -1.7893
 8388SOL     OW36625   3.336   4.015   7.669  0.2708  0.2691 -0.2163
 8388SOL    HW136626   3.253   4.030   7.624  0.2228  2.9983  0.7919
 8388SOL    HW236627   3.353   3.921   7.666 -0.6642  0.1391 -1.2440
 8389SOL     OW36628   2.727   3.466   3.574 -0.6713  0.2106  0.0770
 8389SOL    HW136629   2.685   3.398   3.521  0.9835 -0.9946  0.2930
 8389SOL    HW236630   2.648   3.514   3.598 -1.7094 -1.0137 -0.8818
 8390SOL     OW36631   1.080   4.477   4.932  0.1061 -0.3521 -1.0145
 8390SOL    HW136632   1.006   4.523   4.892 -0.9101  1.2473  2.6659
 8390SOL    HW236633   1.101   4.414   4.863 -0.3156 -1.4236 -0.1752
 8391SOL     OW36634   4.385   3.238   3.882  0.6430  0.6149 -0.3181
 8391SOL    HW136635   4.452   3.280   3.828  0.0835 -0.8655 -2.1673
 8391SOL    HW236636   4.323   3.210   3.815 -0.3506  2.8203 -0.3262
 8392SOL     OW36637   3.609   3.133   6.058  0.5351 -0.1622 -0.4976
 8392SOL    HW136638   3.654   3.141   5.974  0.9764 -3.7612 -0.5894
 8392SOL    HW236639   3.680   3.108   6.117 -0.4640  2.8336  1.9817
 8393SOL     OW36640   3.416   3.506  11.567 -0.7562 -0.4809 -0.3729
 8393SOL    HW136641   3.474   3.429  11.568 -1.5006 -1.0513 -0.9055
 8393SOL    HW236642   3.479   3.574  11.589 -1.2264 -0.3665  0.5987
 8394SOL     OW36643   2.329   4.403   7.887  0.1341 -0.0527  0.4275
 8394SOL    HW136644   2.369   4.387   7.973  2.1705  1.6856 -0.1819
 8394SOL    HW236645   2.328   4.499   7.894  0.3349 -0.0209 -0.0261
 8395SOL     OW36646   2.394   0.193   2.017 -0.6935  0.9707 -0.4083
 8395SOL    HW136647   2.324   0.197   2.083 -1.7640 -0.0969 -1.4659
 8395SOL    HW236648   2.432   0.280   2.014 -0.6693  1.0127  1.4614
 8396SOL     OW36649   3.123   4.519   6.093  0.4082  0.5871 -0.5383
 8396SOL    HW136650   3.156   4.522   6.002  1.0187  0.6954 -0.3155
 8396SOL    HW236651   3.202   4.501   6.144  0.1064 -2.0354 -0.9537
 8397SOL     OW36652   4.184   3.492   4.152 -0.0111 -0.1499  0.0526
 8397SOL    HW136653   4.103   3.527   4.189  1.9346  0.5652  3.6528
 8397SOL    HW236654   4.150   3.476   4.064  1.0057  0.1333 -0.3857
 8398SOL     OW36655   2.690   0.735   0.979 -0.1227  0.0244  0.0007
 8398SOL    HW136656   2.596   0.721   0.971  0.4277 -2.1649 -2.9788
 8398SOL    HW236657   2.696   0.772   1.066 -1.3698 -1.1841  0.5983
 8399SOL     OW36658   2.129   2.996   4.266  0.0318 -0.1215  0.1988
 8399SOL    HW136659   2.187   3.042   4.327  2.0453 -1.3780 -0.7633
 8399SOL    HW236660   2.102   3.056   4.198  0.7524  0.2623  0.2526
 8400SOL     OW36661   3.163   1.568   3.484 -0.1089 -0.2487 -0.1128
 8400SOL    HW136662   3.168   1.663   3.473 -0.0801 -0.1529  0.7313
 8400SOL    HW236663   3.112   1.548   3.406 -2.2122 -3.0120  1.9694
 8401SOL     OW36664   2.995   3.461   5.620  0.2617  0.0893  0.3594
 8401SOL    HW136665   3.048   3.527   5.664  1.4715 -1.9677  1.9606
 8401SOL    HW236666   2.925   3.515   5.583 -1.1287 -2.4788 -0.7805
 8402SOL     OW36667   1.383   1.276   8.777  0.2036 -0.3629 -0.6221
 8402SOL    HW136668   1.361   1.363   8.745  2.6810  0.4657 -0.1254
 8402SOL    HW236669   1.408   1.300   8.867  1.0002  0.4220 -1.0463
 8403SOL     OW36670   3.736   4.065  17.143 -0.2126  0.6895  0.7819
 8403SOL    HW136671   3.661   4.124  17.141 -1.3396 -0.6860  2.2756
 8403SOL    HW236672   3.768   4.083  17.054 -1.4609  0.1802  0.2271
 8404SOL     OW36673   2.289   0.866   4.412  0.6571  0.5872  1.0407
 8404SOL    HW136674   2.225   0.814   4.363  2.4533 -0.3886 -0.2899
 8404SOL    HW236675   2.231   0.924   4.460 -1.5464 -3.3538  3.1606
 8405SOL     OW36676   2.388   3.966   4.786 -0.4562 -0.1041  0.2535
 8405SOL    HW136677   2.325   3.903   4.750  0.5125  0.2749 -2.1181
 8405SOL    HW236678   2.449   3.970   4.712  0.0117  1.0165  0.6990
 8406SOL     OW36679   2.742   0.814   1.235  0.5443  0.0446  0.3540
 8406SOL    HW136680   2.802   0.860   1.294  0.4866  0.4812  0.0712
 8406SOL    HW236681   2.663   0.869   1.237  0.0324 -0.6092 -1.6422
 8407SOL     OW36682   3.113   0.084   2.258  0.1241  0.4378 -0.0770
 8407SOL    HW136683   3.144   4.715   2.232 -1.4009 -0.6192  1.7320
 8407SOL    HW236684   3.042   0.080   2.322 -1.5610  0.5704 -1.9531
 8408SOL     OW36685   0.770   0.459   8.385  0.0871  0.2674  0.3516
 8408SOL    HW136686   0.753   0.365   8.397  1.6781  0.4483  3.9999
 8408SOL    HW236687   0.812   0.462   8.299 -0.9296 -0.5616 -0.1758
 8409SOL     OW36688   4.541   2.807   3.322 -0.4230  0.1394 -0.3728
 8409SOL    HW136689   4.531   2.899   3.345  0.1189  0.2024 -0.3793
 8409SOL    HW236690   4.609   2.814   3.254  0.5835 -0.6097  0.5597
 8410SOL     OW36691   3.119   0.268   6.509 -0.2444 -0.3518 -0.0299
 8410SOL    HW136692   3.104   0.193   6.566 -1.8671  0.6483  0.8990
 8410SOL    HW236693   3.207   0.285   6.544 -1.2484 -0.6325  2.6867
 8411SOL     OW36694   4.543   0.990   9.208  0.0038 -0.1214  0.0109
 8411SOL    HW136695   4.630   0.994   9.246  1.1988  1.8906 -2.9329
 8411SOL    HW236696   4.493   1.031   9.279  3.3507  2.9622  0.5788
 8412SOL     OW36697   0.182   1.700  16.542 -0.1417  0.3005 -0.1736
 8412SOL    HW136698   0.097   1.714  16.500  0.0168  0.5963 -0.3943
 8412SOL    HW236699   0.176   1.613  16.582  1.4753  0.6722  0.8824
 8413SOL     OW36700   2.351   4.345   0.935 -0.0388 -0.3377 -0.1809
 8413SOL    HW136701   2.317   4.434   0.925  1.6574  0.5217  1.8765
 8413SOL    HW236702   2.400   4.336   0.853  1.5564 -0.1378  0.7576
 8414SOL     OW36703   0.311   0.713  15.082  0.6759 -0.5843  0.3092
 8414SOL    HW136704   0.359   0.633  15.063 -0.3990 -0.8182 -1.4996
 8414SOL    HW236705   0.236   0.676  15.128  1.2840 -1.5646  0.5029
 8415SOL     OW36706   1.440   3.145   6.595 -0.2101 -0.7787  0.4195
 8415SOL    HW136707   1.384   3.221   6.582  0.6910 -0.2508 -0.3611
 8415SOL    HW236708   1.374   3.083   6.628 -2.0374  0.1911 -1.4645
 8416SOL     OW36709   0.170   3.435   0.959  0.3879 -0.2280 -0.3131
 8416SOL    HW136710   0.239   3.374   0.932  2.8233  2.3399  0.0715
 8416SOL    HW236711   0.106   3.426   0.888  2.0153 -0.2899 -1.7969
 8417SOL     OW36712   0.089   0.847  17.068  0.3513  0.4009 -0.5753
 8417SOL    HW136713   0.153   0.892  17.014  0.0752  1.3965 -0.0772
 8417SOL    HW236714   0.139   0.779  17.112 -0.3474 -0.8155 -1.6466
 8418SOL     OW36715   0.450   0.556  10.734 -0.1197 -0.3645 -0.5005
 8418SOL    HW136716   0.424   0.638  10.692 -0.0808 -0.5131 -0.8113
 8418SOL    HW236717   0.427   0.568  10.826 -0.9924  3.1869 -1.1893
 8419SOL     OW36718   2.019   1.497   4.370 -1.1803  0.0467 -0.4704
 8419SOL    HW136719   1.988   1.535   4.288  1.9234  1.9970 -0.7444
 8419SOL    HW236720   2.107   1.469   4.348 -1.3800 -1.7605  1.0079
 8420SOL     OW36721   3.319   1.667   4.362  0.0800  0.1832  0.0893
 8420SOL    HW136722   3.324   1.578   4.395 -0.8671  0.4107  0.8332
 8420SOL    HW236723   3.229   1.685   4.388 -0.1903 -3.7469  1.7343
 8421SOL     OW36724   4.199   4.155   2.417  0.6313 -0.2340 -0.6620
 8421SOL    HW136725   4.198   4.219   2.346 -0.9373  0.1195 -0.3310
 8421SOL    HW236726   4.129   4.093   2.397  0.2261  0.5703 -1.7654
 8422SOL     OW36727   1.701   3.218   5.525  0.6431  0.1232 -0.0605
 8422SOL    HW136728   1.782   3.211   5.574  0.4822  0.5797  0.2695
 8422SOL    HW236729   1.734   3.271   5.453  1.9495 -2.1772 -1.1399
 8423SOL     OW36730   2.108   1.176   6.297 -0.5906  0.0097 -0.5240
 8423SOL    HW136731   2.097   1.141   6.209 -2.2805 -0.9440  0.0699
 8423SOL    HW236732   2.036   1.238   6.306 -0.5057 -0.0160  0.3207
 8424SOL     OW36733   3.238   2.575   8.016  0.6209 -0.0583  0.0359
 8424SOL    HW136734   3.193   2.514   7.957  1.6662 -0.5485 -0.2435
 8424SOL    HW236735   3.262   2.652   7.964  0.8638  0.9989  1.7164
 8425SOL     OW36736   3.761   2.819   5.809 -0.2835 -0.6188 -0.1259
 8425SOL    HW136737   3.754   2.914   5.817 -2.5464 -0.8454  0.5466
 8425SOL    HW236738   3.856   2.806   5.812  0.0040  0.9114 -2.6380
 8426SOL     OW36739   0.746   1.721   6.336 -0.1705 -0.1846  0.1049
 8426SOL    HW136740   0.815   1.685   6.392  0.1323 -1.8186 -1.3525
 8426SOL    HW236741   0.725   1.650   6.276  0.5054  1.2994 -1.8924
 8427SOL     OW36742   0.929   4.545   8.788  0.0069  0.5838 -0.2269
 8427SOL    HW136743   0.927   4.580   8.877  2.0775  0.0629  0.0345
 8427SOL    HW236744   0.897   4.617   8.735 -0.5975  0.8514  0.4987
 8428SOL     OW36745   2.520   1.196   8.319 -0.0541  0.8084 -0.3091
 8428SOL    HW136746   2.598   1.141   8.331 -0.9451 -0.6853 -1.3701
 8428SOL    HW236747   2.566   1.280   8.318  0.2944  0.6901  4.8067
 8429SOL     OW36748   0.647   0.342  13.215 -0.9445  0.2435 -0.2173
 8429SOL    HW136749   0.575   0.279  13.214  0.1269 -0.9678 -1.2776
 8429SOL    HW236750   0.601   0.423  13.191  0.4448  1.4723  1.2034
 8430SOL     OW36751   0.195   2.867   6.264 -0.3140  0.3201 -0.0881
 8430SOL    HW136752   0.245   2.856   6.345  0.6330 -0.8036 -0.8292
 8430SOL    HW236753   0.178   2.775   6.248  0.5483 -0.3330  2.7415
 8431SOL     OW36754   0.586   3.852   1.844  0.0888 -0.0845 -0.3652
 8431SOL    HW136755   0.490   3.859   1.843  0.2351  1.7328 -0.6128
 8431SOL    HW236756   0.596   3.836   1.751 -1.5876 -0.2112 -0.5227
 8432SOL     OW36757   4.299   4.114  15.486  0.7959 -0.5566 -0.1106
 8432SOL    HW136758   4.347   4.112  15.569  0.8968  0.6945 -0.1399
 8432SOL    HW236759   4.356   4.179  15.444  1.6812 -0.3779  1.3625
 8433SOL     OW36760   1.357   0.626   6.996 -0.2029  0.0488 -0.3966
 8433SOL    HW136761   1.363   0.689   7.068  0.2695 -1.8447  1.2266
 8433SOL    HW236762   1.328   0.550   7.046  1.3455 -0.3226 -0.0718
 8434SOL     OW36763   2.853   2.086  16.529  0.4647  0.5580  0.3525
 8434SOL    HW136764   2.775   2.038  16.500  0.4412  0.5010  0.5107
 8434SOL    HW236765   2.837   2.166  16.479 -1.9741 -0.4930 -0.5694
 8435SOL     OW36766   4.572   2.234  16.791  0.3188 -0.4751  0.2018
 8435SOL    HW136767   4.629   2.172  16.836 -0.4162 -1.2991  0.0003
 8435SOL    HW236768   4.497   2.222  16.849 -0.6384  0.0511 -0.9407
 8436SOL     OW36769   0.041   0.906   2.657  0.5106 -0.3625 -0.0695
 8436SOL    HW136770   0.050   0.996   2.625 -2.3264 -0.0989 -0.1716
 8436SOL    HW236771   0.129   0.899   2.694  0.4672 -0.1991  0.0607
 8437SOL     OW36772   4.418   1.759   0.888 -0.3352 -0.0444 -0.2608
 8437SOL    HW136773   4.356   1.832   0.880  3.7100  3.4814  0.5472
 8437SOL    HW236774   4.472   1.799   0.956 -0.0148 -1.0804  0.0826
 8438SOL     OW36775   1.378   3.736  12.033 -0.1870 -0.0255 -0.4098
 8438SOL    HW136776   1.465   3.696  12.032 -0.3138 -0.3213  0.3893
 8438SOL    HW236777   1.374   3.761  12.126  1.7983 -1.9664  0.1930
 8439SOL     OW36778   2.045   2.066   9.090  0.3474  0.0593  0.1149
 8439SOL    HW136779   1.964   2.099   9.129  0.3852  0.1914  0.0816
 8439SOL    HW236780   2.096   2.062   9.171  2.2277 -1.4243 -1.1410
 8440SOL     OW36781   0.796   1.416   1.158  0.4155  0.3584 -0.0374
 8440SOL    HW136782   0.810   1.481   1.089 -2.2809 -0.3188 -1.2314
 8440SOL    HW236783   0.746   1.345   1.116 -1.3781  1.0576  0.9510
 8441SOL     OW36784   1.335   3.825   9.709  0.1951 -0.4309 -0.4137
 8441SOL    HW136785   1.333   3.772   9.789 -0.5442  1.9295  1.1348
 8441SOL    HW236786   1.259   3.882   9.722 -0.8962 -2.0760  0.4747
 8442SOL     OW36787   1.119   4.247   5.559 -0.7083  0.0578  0.0512
 8442SOL    HW136788   1.213   4.243   5.546 -0.9557 -2.0259 -1.1281
 8442SOL    HW236789   1.111   4.257   5.654  0.4258 -0.7364  0.2257
 8443SOL     OW36790   2.325   3.320  11.649 -0.7285  0.5092 -0.5029
 8443SOL    HW136791   2.364   3.407  11.641 -0.0950  0.0161 -2.5845
 8443SOL    HW236792   2.380   3.268  11.591 -0.7976 -0.9182  0.7239
 8444SOL     OW36793   3.171   2.528  16.914 -0.2609 -0.9233 -0.0318
 8444SOL    HW136794   3.099   2.470  16.936 -1.0773  0.0819 -0.0684
 8444SOL    HW236795   3.129   2.591  16.855 -0.0157  0.8021  1.6380
 8445SOL     OW36796   1.934   0.766  10.763 -0.1415 -0.0238 -0.5416
 8445SOL    HW136797   1.997   0.764  10.836  0.7703  0.4060 -1.3156
 8445SOL    HW236798   1.936   0.855  10.729  1.7813  0.3516  0.5251
 8446SOL     OW36799   2.305   1.835   6.166  0.0562 -0.4770 -0.0560
 8446SOL    HW136800   2.320   1.769   6.099 -1.5623 -0.9820  0.0853
 8446SOL    HW236801   2.210   1.840   6.170 -0.0356 -0.4787 -2.4657
 8447SOL     OW36802   0.721   1.702   5.520 -0.2700  0.2580  0.0548
 8447SOL    HW136803   0.667   1.781   5.522  0.5054  0.8162 -1.8155
 8447SOL    HW236804   0.654   1.638   5.493 -1.6825  0.5906  2.7504
 8448SOL     OW36805   2.658   0.293   1.573 -0.1266 -0.4338 -0.2683
 8448SOL    HW136806   2.588   0.359   1.575  0.4114  0.1682 -1.4659
 8448SOL    HW236807   2.669   0.291   1.478  0.6721  1.8715 -0.2317
 8449SOL     OW36808   0.087   0.640   7.160 -0.3942 -0.1931 -0.3792
 8449SOL    HW136809   0.080   0.725   7.204  0.5427 -0.5111  0.3866
 8449SOL    HW236810   0.032   0.591   7.222  0.5796 -1.8041 -0.7895
 8450SOL     OW36811   1.172   1.785   8.320 -0.2624 -0.5549 -0.8144
 8450SOL    HW136812   1.250   1.841   8.317  0.1357 -1.1462 -1.7334
 8450SOL    HW236813   1.123   1.806   8.240 -2.0641 -2.7174 -0.2818
 8451SOL     OW36814   4.510   0.311  12.891  0.8869  0.7520 -0.0256
 8451SOL    HW136815   4.492   0.356  12.974 -0.0487 -0.2249  0.3079
 8451SOL    HW236816   4.592   0.268  12.915 -1.4416 -1.8259  3.3237
 8452SOL     OW36817   3.432   0.523   1.482  0.5790 -0.0984  0.2805
 8452SOL    HW136818   3.489   0.508   1.406 -1.4084 -1.5609 -0.9159
 8452SOL    HW236819   3.383   0.441   1.487 -0.7641  0.7114  0.2380
 8453SOL     OW36820   3.908   0.318  11.888  0.3945 -0.6967  0.4302
 8453SOL    HW136821   3.893   0.294  11.797 -1.0254 -0.9155  0.7169
 8453SOL    HW236822   4.003   0.319  11.897  0.4080 -0.4483  0.2457
 8454SOL     OW36823   1.737   3.372   7.358  0.9058  0.3690 -0.5096
 8454SOL    HW136824   1.797   3.326   7.417  0.5061 -0.8632 -1.0603
 8454SOL    HW236825   1.663   3.387   7.417  2.7764  1.5708  1.5079
 8455SOL     OW36826   2.868   2.328   3.704  0.1217 -0.2061  0.1561
 8455SOL    HW136827   2.947   2.278   3.682  0.4295 -1.0316  3.0826
 8455SOL    HW236828   2.900   2.372   3.783 -2.8110  0.7478  0.7973
 8456SOL     OW36829   0.346   0.018   7.558 -0.1277  0.0821 -0.7066
 8456SOL    HW136830   0.326   4.669   7.623  2.0132  0.2189  0.0946
 8456SOL    HW236831   0.261   0.024   7.514 -0.8437  1.0614  0.8375
 8457SOL     OW36832   0.163   4.679   5.560 -0.3086 -0.2227  0.0365
 8457SOL    HW136833   0.171   0.050   5.526 -1.8395 -0.0496  0.1082
 8457SOL    HW236834   0.108   4.702   5.635 -1.2677  2.0901 -1.3754
 8458SOL     OW36835   1.294   3.412   1.155  0.0806  0.4098 -0.9126
 8458SOL    HW136836   1.380   3.452   1.169  1.0711 -2.8163  2.2718
 8458SOL    HW236837   1.258   3.398   1.243  0.6394 -1.5011 -1.0005
 8459SOL     OW36838   3.425   3.283   8.083  0.0709  0.2323  0.4362
 8459SOL    HW136839   3.337   3.260   8.052 -0.5479  1.3961  1.3626
 8459SOL    HW236840   3.420   3.376   8.062 -1.3119  0.1349  0.3341
 8460SOL     OW36841   1.837   2.985   7.335 -0.0551  0.0694 -0.3269
 8460SOL    HW136842   1.749   2.965   7.367  0.6424 -1.0904  0.8506
 8460SOL    HW236843   1.842   2.928   7.258  0.6435 -0.2850 -0.0173
 8461SOL     OW36844   2.322   0.563   9.091  0.5146 -0.2095 -0.5131
 8461SOL    HW136845   2.332   0.529   9.002  1.7893  0.4180 -0.6047
 8461SOL    HW236846   2.228   0.578   9.092  0.3324 -1.4044  0.0399
 8462SOL     OW36847   2.042   3.754   6.322  0.1622 -0.2791  0.3571
 8462SOL    HW136848   1.968   3.695   6.304 -0.4509  0.1943  1.3612
 8462SOL    HW236849   2.054   3.744   6.416  0.4599 -0.6145  0.2845
 8463SOL     OW36850   0.396   3.276   3.427  0.2178 -0.1580  0.4452
 8463SOL    HW136851   0.467   3.338   3.441  0.9209 -1.1025  1.0220
 8463SOL    HW236852   0.379   3.284   3.333  1.5289 -1.4481  0.1024
 8464SOL     OW36853   0.209   0.694   4.054 -0.1128 -0.4867  0.0154
 8464SOL    HW136854   0.221   0.641   3.975  0.0881  0.4847 -0.6067
 8464SOL    HW236855   0.275   0.759   4.028  0.3724 -0.1841  1.9560
 8465SOL     OW36856   3.145   1.144   1.305  0.3298  0.6994 -0.2012
 8465SOL    HW136857   3.158   1.174   1.215  0.1715  0.4386 -0.3089
 8465SOL    HW236858   3.231   1.103   1.319  0.8479  2.2667  1.2318
 8466SOL     OW36859   0.147   2.822   7.997 -0.7149 -0.6584 -0.0938
 8466SOL    HW136860   0.097   2.840   8.076  1.6293 -0.9294  1.4526
 8466SOL    HW236861   0.108   2.739   7.969  0.0479 -1.4092  1.0721
 8467SOL     OW36862   3.593   1.432   2.230  0.5781  0.2531  0.5349
 8467SOL    HW136863   3.606   1.414   2.324 -1.5227 -1.9491  0.3973
 8467SOL    HW236864   3.593   1.339   2.209  2.0761 -0.1157  2.1495
 8468SOL     OW36865   3.360   1.061   9.025  1.0971 -0.5720  0.1109
 8468SOL    HW136866   3.302   1.136   9.010  1.7575 -0.4027 -1.6171
 8468SOL    HW236867   3.351   1.048   9.119  1.0810 -1.8346 -0.0659
 8469SOL     OW36868   0.266   4.684   8.668 -0.0545 -0.0400 -0.4781
 8469SOL    HW136869   0.333   4.621   8.692  0.7286  1.1146  0.3703
 8469SOL    HW236870   0.277   0.029   8.739 -0.1818 -1.0902  0.4806
 8470SOL     OW36871   0.882   0.097   5.604  0.1374  0.0587 -0.1424
 8470SOL    HW136872   0.856   0.091   5.696 -1.0242 -0.0798 -0.4815
 8470SOL    HW236873   0.936   0.018   5.597  0.6058  0.2604  1.3280
 8471SOL     OW36874   3.629   1.809   9.431 -0.4001  0.2177  0.1931
 8471SOL    HW136875   3.630   1.803   9.527 -1.2571  1.4728  0.2874
 8471SOL    HW236876   3.564   1.746   9.400 -0.8495 -0.1478  1.8290
 8472SOL     OW36877   0.164   1.326  10.573  0.4938  0.0427  0.0796
 8472SOL    HW136878   0.089   1.267  10.567  1.0157 -0.5295 -0.8241
 8472SOL    HW236879   0.218   1.264  10.523 -0.8005 -0.7886 -0.2844
 8473SOL     OW36880   3.355   2.167   9.203 -0.0231  0.6468 -0.1824
 8473SOL    HW136881   3.404   2.094   9.165 -0.3976 -0.2508  1.0904
 8473SOL    HW236882   3.401   2.185   9.285  0.9225  0.1089 -0.5869
 8474SOL     OW36883   2.167   4.529   2.624 -0.2999  0.2291 -0.0617
 8474SOL    HW136884   2.151   4.615   2.663  0.8493 -0.0300  0.9727
 8474SOL    HW236885   2.128   4.471   2.689 -0.8132  0.6572  0.0207
 8475SOL     OW36886   3.276   3.241   8.756 -0.0797 -0.3495  0.1104
 8475SOL    HW136887   3.305   3.235   8.665 -1.5261  1.0564 -0.4440
 8475SOL    HW236888   3.192   3.195   8.759 -0.3344  0.0785 -0.5602
 8476SOL     OW36889   3.472   2.550   7.814 -0.4093 -0.7204  0.1943
 8476SOL    HW136890   3.512   2.583   7.895  1.3661 -0.7641 -0.6675
 8476SOL    HW236891   3.452   2.461   7.842  0.3635 -0.5825  1.2188
 8477SOL     OW36892   2.470   4.241   3.886 -0.2706 -0.4576 -0.4901
 8477SOL    HW136893   2.471   4.148   3.863 -0.5185  0.2178 -3.2258
 8477SOL    HW236894   2.471   4.286   3.801 -1.9590  1.4937  0.5061
 8478SOL     OW36895   3.556   1.796   4.934  0.4220 -0.0814 -0.2155
 8478SOL    HW136896   3.527   1.887   4.944 -1.1321 -0.5944 -0.0362
 8478SOL    HW236897   3.648   1.806   4.910  0.4109  2.2245  0.6976
 8479SOL     OW36898   1.496   0.838   6.909 -0.2364  0.0586  0.9752
 8479SOL    HW136899   1.456   0.751   6.916  2.8110 -1.4540 -0.2533
 8479SOL    HW236900   1.591   0.822   6.908 -0.6921 -2.5621  0.1634
 8480SOL     OW36901   2.219   2.831   6.169  0.0562  0.1615  0.1111
 8480SOL    HW136902   2.222   2.915   6.122 -0.5573  1.4354  2.3476
 8480SOL    HW236903   2.142   2.829   6.226  1.7881  1.6936  2.5454
 8481SOL     OW36904   3.116   3.661   2.429 -0.1864 -0.0720  0.1007
 8481SOL    HW136905   3.158   3.720   2.367 -0.0908  2.3069  2.4636
 8481SOL    HW236906   3.177   3.588   2.436  0.1217  0.1925  0.1449
 8482SOL     OW36907   0.303   0.207   2.607 -0.3191  0.5237  0.0522
 8482SOL    HW136908   0.259   0.137   2.559 -0.9467  2.4060 -2.1475
 8482SOL    HW236909   0.363   0.154   2.659 -2.1556  1.4112  3.0189
 8483SOL     OW36910   4.403   3.768   7.656 -0.7843  0.1350 -0.2678
 8483SOL    HW136911   4.413   3.702   7.724 -0.3377 -0.1388 -0.5956
 8483SOL    HW236912   4.390   3.711   7.580  1.2215  1.7742 -1.8535
 8484SOL     OW36913   0.986   0.001  15.472  0.4175  0.0221 -0.1650
 8484SOL    HW136914   1.021   4.646  15.420 -0.7771  0.4877 -1.6292
 8484SOL    HW236915   1.007   0.071  15.410 -0.0786  0.6818  0.4250
 8485SOL     OW36916   2.054   0.808   4.279  0.1033 -0.2296 -0.1385
 8485SOL    HW136917   2.016   0.797   4.366 -0.0027 -1.1237 -0.2941
 8485SOL    HW236918   2.011   0.742   4.224  0.8540 -0.7647 -0.0783
 8486SOL     OW36919   4.074   2.483   5.981 -0.3571  0.3148  0.5301
 8486SOL    HW136920   4.165   2.470   6.010 -0.2917 -2.5988 -0.9477
 8486SOL    HW236921   4.082   2.476   5.886 -1.0664  0.0924  0.4885
 8487SOL     OW36922   1.433   1.736  10.892 -0.6281  0.2853  0.1877
 8487SOL    HW136923   1.455   1.815  10.941 -1.5993 -0.2330  1.4583
 8487SOL    HW236924   1.517   1.691  10.885  0.7251  2.8936 -0.5309
 8488SOL     OW36925   3.658   3.334  17.289 -0.2193  0.2583 -0.3169
 8488SOL    HW136926   3.601   3.407  17.266 -2.8990 -0.6849  3.2961
 8488SOL    HW236927   3.729   3.371  17.340 -1.0473  1.7879 -0.2816
 8489SOL     OW36928   2.760   3.104  13.561  0.2376 -0.0935 -0.4995
 8489SOL    HW136929   2.724   3.105  13.473  1.3859  1.9601 -0.9542
 8489SOL    HW236930   2.717   3.173  13.611 -1.7619 -0.9150 -1.1093
 8490SOL     OW36931   2.478   0.394  12.415  0.2973  0.4789  0.0272
 8490SOL    HW136932   2.476   0.488  12.434 -0.8976  0.2116  1.1854
 8490SOL    HW236933   2.529   0.355  12.486 -2.2170 -1.8303  0.5825
 8491SOL     OW36934   3.014   1.511   3.721 -0.1510 -0.1367  0.3974
 8491SOL    HW136935   3.008   1.416   3.734 -1.3476  0.1417  1.9005
 8491SOL    HW236936   3.070   1.526   3.645  1.7367  0.3794  1.8796
 8492SOL     OW36937   1.312   0.172  15.935 -0.4166 -0.7734  0.1076
 8492SOL    HW136938   1.250   0.164  16.008  1.1904  1.1764  1.6968
 8492SOL    HW236939   1.310   0.266  15.918  2.8189 -0.3800  1.9771
 8493SOL     OW36940   0.178   2.200   6.364  0.4790  0.2641  0.1154
 8493SOL    HW136941   0.111   2.164   6.422  0.6916 -1.1290 -0.5046
 8493SOL    HW236942   0.229   2.123   6.340 -0.6018  0.5873 -3.2478
 8494SOL     OW36943   0.498   4.241   2.245 -0.5445 -0.2670 -0.2369
 8494SOL    HW136944   0.527   4.156   2.210  0.9364  0.4310 -0.7128
 8494SOL    HW236945   0.408   4.228   2.215 -1.0515 -1.2149  1.7413
 8495SOL     OW36946   1.148   3.868   7.037  0.0059 -0.5568  0.4012
 8495SOL    HW136947   1.153   3.912   7.122 -0.4178 -0.8433  0.5766
 8495SOL    HW236948   1.239   3.844   7.018 -0.1919 -1.1608  0.2219
 8496SOL     OW36949   1.704   1.728   8.785  0.5479  0.3185  0.2028
 8496SOL    HW136950   1.799   1.738   8.795  0.3163  2.3987  0.4223
 8496SOL    HW236951   1.674   1.770   8.866 -2.7733 -1.7415  0.0486
 8497SOL     OW36952   0.072   2.561   7.925  0.5912 -0.3429  0.2962
 8497SOL    HW136953   0.096   2.471   7.946  1.6576 -0.3137 -0.7500
 8497SOL    HW236954   4.695   2.551   7.925  0.7654 -2.0658 -0.6212
 8498SOL     OW36955   0.295   2.401   2.248  0.0412  0.0233  0.0336
 8498SOL    HW136956   0.284   2.472   2.311  2.0857 -0.5121  0.9928
 8498SOL    HW236957   0.389   2.416   2.237 -0.1099  0.4599 -0.6449
 8499SOL     OW36958   0.054   1.625   0.769 -0.0069  0.3276 -0.1387
 8499SOL    HW136959   4.701   1.591   0.823  0.4479 -0.1834  0.1439
 8499SOL    HW236960   0.024   1.609   0.679 -0.0505  2.4208 -0.4900
 8500SOL     OW36961   4.142   0.036   5.444  0.2705 -0.1318  0.4076
 8500SOL    HW136962   4.151   4.681   5.382 -0.1716  1.6108 -1.7012
 8500SOL    HW236963   4.126   0.102   5.377  2.8078 -1.2944 -1.3745
 8501SOL     OW36964   4.703   0.154  14.527  0.2666  0.1941  0.1958
 8501SOL    HW136965   0.023   0.241  14.540 -1.3562  1.2879 -2.4558
 8501SOL    HW236966   4.687   0.124  14.617 -0.5047 -0.8505 -0.2981
 8502SOL     OW36967   1.330   3.074  11.978 -0.1557  0.1294 -0.4802
 8502SOL    HW136968   1.339   2.981  11.961  1.3420 -0.0702  1.4546
 8502SOL    HW236969   1.242   3.074  12.014 -0.1232  0.7793 -0.3919
 8503SOL     OW36970   2.426   1.390  14.204 -0.2365 -0.2009 -0.7849
 8503SOL    HW136971   2.407   1.306  14.246 -1.1136  0.8763  0.9173
 8503SOL    HW236972   2.390   1.446  14.272  2.0307  1.2989 -0.8153
 8504SOL     OW36973   0.269   4.306   7.575  0.1790 -0.2606 -0.5673
 8504SOL    HW136974   0.256   4.212   7.570  1.5347 -0.4571 -0.1721
 8504SOL    HW236975   0.187   4.344   7.610 -0.1438 -1.1716 -0.3346
 8505SOL     OW36976   1.479   4.468  12.901  0.9121 -0.0906 -0.1667
 8505SOL    HW136977   1.494   4.467  12.996  1.6836  0.8166 -0.2783
 8505SOL    HW236978   1.406   4.407  12.899  0.0439  0.9316  0.2944
 8506SOL     OW36979   2.956   3.189   1.128  0.2960  0.2127  0.1261
 8506SOL    HW136980   2.963   3.118   1.192  1.7816 -0.7721 -1.1320
 8506SOL    HW236981   3.000   3.149   1.053  0.3045  0.6895 -0.1227
 8507SOL     OW36982   2.773   2.322  11.598 -0.2113 -0.1368 -0.1782
 8507SOL    HW136983   2.723   2.385  11.546 -1.2972  0.6226  1.7894
 8507SOL    HW236984   2.709   2.253  11.617  0.1238 -0.8220 -1.5341
 8508SOL     OW36985   0.373   3.069   8.771 -0.2748  0.1924  0.1425
 8508SOL    HW136986   0.465   3.081   8.795  0.4068  0.1599 -2.3438
 8508SOL    HW236987   0.332   3.103   8.850  0.3577 -2.8531  1.7559
 8509SOL     OW36988   1.922   0.109  15.127  0.0915 -0.3449  0.4586
 8509SOL    HW136989   1.962   0.027  15.098  0.2047  0.0975 -0.6666
 8509SOL    HW236990   1.993   0.165  15.158 -0.0180  0.6225 -1.0007
 8510SOL     OW36991   4.179   2.946  16.618  0.6379 -0.1262  0.1441
 8510SOL    HW136992   4.225   2.991  16.688  1.0290  1.0735 -0.8706
 8510SOL    HW236993   4.101   3.001  16.618  0.8318  0.1583 -3.4616
 8511SOL     OW36994   2.935   2.871   1.566  0.2046 -1.0321  0.0568
 8511SOL    HW136995   2.851   2.864   1.611 -0.0029 -1.5828 -0.4178
 8511SOL    HW236996   2.996   2.818   1.618 -0.1890 -0.1014  1.4909
 8512SOL     OW36997   0.297   1.669   7.321  0.2389 -0.1316 -0.9880
 8512SOL    HW136998   0.358   1.743   7.327  0.1185 -0.1223  0.0664
 8512SOL    HW236999   0.355   1.593   7.318  2.6972  1.8255 -2.9775
 8513SOL     OW37000   0.150   4.044   7.616 -0.1073  0.9347 -0.3280
 8513SOL    HW137001   0.147   4.059   7.711  1.5755  2.1171 -0.4686
 8513SOL    HW237002   0.061   4.009   7.608  0.5405 -1.0138  1.0119
 8514SOL     OW37003   3.683   3.483   8.621 -0.2991 -0.1172  0.7953
 8514SOL    HW137004   3.604   3.473   8.674 -0.8240 -2.3382 -0.4049
 8514SOL    HW237005   3.749   3.520   8.680 -0.7236  0.6918  0.7584
 8515SOL     OW37006   0.421   2.215   6.832  0.4451 -0.0476 -0.5054
 8515SOL    HW137007   0.488   2.168   6.881 -0.7068  0.4001  1.5312
 8515SOL    HW237008   0.344   2.192   6.884  1.3123 -1.3298  0.2211
 8516SOL     OW37009   1.168   2.548   4.698 -0.2937  0.2425 -0.0709
 8516SOL    HW137010   1.141   2.456   4.695  3.0187 -0.7910  1.6499
 8516SOL    HW237011   1.114   2.589   4.631  0.1079  0.2277 -0.3965
 8517SOL     OW37012   1.078   4.621   3.584 -0.1854  0.1052  0.3721
 8517SOL    HW137013   1.003   4.655   3.632  0.9656  3.4549 -0.1903
 8517SOL    HW237014   1.134   4.611   3.660  0.7265 -1.3384 -0.4917
 8518SOL     OW37015   4.057   4.332   0.693 -0.1347  0.5152 -0.1659
 8518SOL    HW137016   3.973   4.287   0.703  0.3032  0.0298  1.1819
 8518SOL    HW237017   4.121   4.262   0.683 -1.5118 -1.0161  1.5748
 8519SOL     OW37018   0.371   1.078   8.413 -0.0857  0.1460 -0.0524
 8519SOL    HW137019   0.425   1.157   8.410  0.2400 -0.1131 -0.8786
 8519SOL    HW237020   0.427   1.007   8.444 -0.1946  0.6688  1.3348
 8520SOL     OW37021   0.693   2.438   8.786  0.1267  0.4393  0.6103
 8520SOL    HW137022   0.719   2.419   8.696  2.0586  0.4719  1.1764
 8520SOL    HW237023   0.726   2.526   8.804  0.2932  0.0460  2.2257
 8521SOL     OW37024   3.174   2.221   6.843  0.1912 -0.0323  0.7609
 8521SOL    HW137025   3.189   2.254   6.755  1.4917 -1.0434  0.6094
 8521SOL    HW237026   3.216   2.291   6.893  2.2166 -0.5955 -0.1887
 8522SOL     OW37027   1.628   4.065   7.673  0.3330  0.0270 -0.4357
 8522SOL    HW137028   1.588   4.122   7.739 -0.6967 -1.2377  0.0457
 8522SOL    HW237029   1.570   4.062   7.597 -1.3789 -3.3951  1.0124
 8523SOL     OW37030   2.722   3.060   7.951  0.0589  0.1088 -0.3005
 8523SOL    HW137031   2.810   3.060   7.914 -0.1996  3.8788 -0.9198
 8523SOL    HW237032   2.666   3.087   7.878  0.3768  2.1408  0.2168
 8524SOL     OW37033   4.259   0.410   2.174  0.1414 -0.4226  0.4763
 8524SOL    HW137034   4.190   0.380   2.233  0.8221 -0.4018  1.2700
 8524SOL    HW237035   4.209   0.402   2.092 -0.1063  0.2920  0.5573
 8525SOL     OW37036   0.232   4.616   3.973 -0.2296  0.4704  0.6054
 8525SOL    HW137037   0.251   4.580   4.060 -0.4780  0.2062  0.5510
 8525SOL    HW237038   0.163   4.680   3.992 -0.7723  0.5574 -1.6715
 8526SOL     OW37039   3.795   4.569   4.668  0.0100  0.6193  0.3460
 8526SOL    HW137040   3.722   4.508   4.658  1.0733 -0.8025  1.3110
 8526SOL    HW237041   3.754   4.636   4.723  1.6558  1.0066  1.1210
 8527SOL     OW37042   1.613   3.025   4.906 -0.2111 -0.1505  0.6775
 8527SOL    HW137043   1.665   3.042   4.828  1.4571 -0.2033  1.7970
 8527SOL    HW237044   1.590   2.937   4.876 -0.4897  0.3248 -0.5166
 8528SOL     OW37045   1.537   3.020  13.799 -0.0219  0.8406  0.3768
 8528SOL    HW137046   1.590   3.086  13.843 -0.4820  2.8933 -2.2179
 8528SOL    HW237047   1.453   3.035  13.842  0.8714  3.6255  1.1150
 8529SOL     OW37048   2.797   4.377   1.245 -0.0579 -0.5481  0.1690
 8529SOL    HW137049   2.832   4.457   1.205 -1.3764  0.7376  1.5476
 8529SOL    HW237050   2.714   4.405   1.284  0.6618  1.3202  0.3692
 8530SOL     OW37051   3.060   3.633  11.277  0.2214 -0.3055 -0.1558
 8530SOL    HW137052   3.069   3.538  11.269 -0.2722 -0.4552  1.0988
 8530SOL    HW237053   2.964   3.636  11.278  0.1426 -2.5627 -2.4783
 8531SOL     OW37054   3.810   3.847   1.889 -0.0883  0.3618  0.4048
 8531SOL    HW137055   3.830   3.790   1.963 -1.0098 -0.2154  0.2170
 8531SOL    HW237056   3.869   3.921   1.900  1.4623 -0.9045  0.5828
 8532SOL     OW37057   4.123   1.099   8.521 -0.3259 -0.3688  0.2827
 8532SOL    HW137058   4.147   1.080   8.612  1.9811 -1.9562 -0.6711
 8532SOL    HW237059   4.145   1.192   8.515  0.9770 -0.6919  0.1723
 8533SOL     OW37060   3.260   1.589   7.738  0.1369  0.2856  0.4962
 8533SOL    HW137061   3.242   1.664   7.795  2.3974  0.1920  1.3211
 8533SOL    HW237062   3.260   1.518   7.803 -0.5878  0.8348  1.1053
 8534SOL     OW37063   2.322   2.638  13.574 -0.1242 -0.3768 -0.1220
 8534SOL    HW137064   2.407   2.601  13.550  0.4600  1.5318 -0.9709
 8534SOL    HW237065   2.280   2.555  13.598  0.4650 -1.4152 -2.6102
 8535SOL     OW37066   1.951   2.833   8.972  0.1417 -0.0112 -0.1778
 8535SOL    HW137067   1.971   2.785   8.891  1.4677 -0.4178  0.3905
 8535SOL    HW237068   1.912   2.908   8.928 -1.3404  0.5936  2.1909
 8536SOL     OW37069   2.076   1.204  15.923  0.0430  0.3738 -0.0889
 8536SOL    HW137070   2.061   1.138  15.855  1.4817  1.6234 -1.6348
 8536SOL    HW237071   2.039   1.180  16.007 -4.3580  0.0591 -2.1409
 8537SOL     OW37072   3.064   3.784   6.312  0.2384 -0.1410 -0.6163
 8537SOL    HW137073   3.052   3.823   6.399  0.6073  0.0742 -0.6615
 8537SOL    HW237074   3.025   3.699   6.336 -2.7093  0.8959 -1.7305
 8538SOL     OW37075   2.727   2.496   6.624 -0.0455  0.0150  0.5678
 8538SOL    HW137076   2.794   2.443   6.582 -0.9836  0.0330 -0.9468
 8538SOL    HW237077   2.743   2.582   6.585  0.8567  0.6377  2.2760
 8539SOL     OW37078   0.856   3.960  16.734  0.1096  0.3558  0.5603
 8539SOL    HW137079   0.809   3.984  16.654  1.7250  1.1758 -0.1359
 8539SOL    HW237080   0.911   4.036  16.757  1.7192  0.0843 -2.3324
 8540SOL     OW37081   1.619   4.175   3.817  0.2484 -0.3076  0.0387
 8540SOL    HW137082   1.668   4.114   3.872 -2.5468 -2.6047 -0.0796
 8540SOL    HW237083   1.619   4.249   3.879  0.4953 -0.7191  0.5254
 8541SOL     OW37084   1.755   0.947   8.263 -0.1201 -0.0450 -0.1358
 8541SOL    HW137085   1.843   0.983   8.272 -0.9009  0.9673  3.3448
 8541SOL    HW237086   1.761   0.928   8.169 -2.3474 -0.4318 -0.2040
 8542SOL     OW37087   4.411   2.856   7.243 -0.0353  0.0253  0.0386
 8542SOL    HW137088   4.395   2.926   7.180 -0.2244  0.7505  0.8989
 8542SOL    HW237089   4.481   2.810   7.198 -0.7397 -0.6688 -0.3429
 8543SOL     OW37090   3.473   2.299   9.414 -0.4955  0.4110 -0.3392
 8543SOL    HW137091   3.490   2.348   9.494 -1.5728  3.0162 -1.6799
 8543SOL    HW237092   3.407   2.240   9.450 -0.2453 -0.8071 -1.8854
 8544SOL     OW37093   0.532   1.542   5.405 -0.1320 -0.3404 -0.0221
 8544SOL    HW137094   0.538   1.462   5.353  1.5971 -1.1801  1.4779
 8544SOL    HW237095   0.457   1.523   5.461  0.3533 -0.1001  0.7078
 8545SOL     OW37096   4.554   0.242   5.218  0.9493  0.6478  0.3084
 8545SOL    HW137097   4.597   0.315   5.264 -0.7001  1.0354  1.2422
 8545SOL    HW237098   4.487   0.297   5.176  1.8865  0.8157 -0.9816
 8546SOL     OW37099   2.536   3.819   6.566 -0.0467 -0.3982 -1.0011
 8546SOL    HW137100   2.493   3.868   6.636  0.1453 -1.1941 -0.3300
 8546SOL    HW237101   2.508   3.869   6.489  1.3964 -0.2929 -1.4701
 8547SOL     OW37102   2.730   4.223   5.561 -0.1122 -0.6275  0.2623
 8547SOL    HW137103   2.680   4.303   5.544 -1.1078 -1.8137 -2.4475
 8547SOL    HW237104   2.802   4.226   5.497  2.4628  1.1019  3.2476
 8548SOL     OW37105   4.682   0.089  12.499  0.7167  0.4656  0.4293
 8548SOL    HW137106   4.646   0.002  12.519 -1.7964  1.6389  0.9706
 8548SOL    HW237107   4.714   0.106  12.587  1.5809 -0.8804  0.3843
 8549SOL     OW37108   2.481   3.047   2.418  0.6843 -0.3065 -0.7105
 8549SOL    HW137109   2.542   3.060   2.490 -1.7817 -1.7585  1.6335
 8549SOL    HW237110   2.491   2.953   2.402 -1.3735 -1.0980  2.6257
 8550SOL     OW37111   3.635   2.746   4.383  0.1080 -0.2118  0.2723
 8550SOL    HW137112   3.557   2.770   4.333  0.9860  1.0846 -0.4679
 8550SOL    HW237113   3.659   2.830   4.423 -4.3426  1.5628 -0.7413
 8551SOL     OW37114   3.474   2.952   7.576 -0.0105  0.4968 -0.2688
 8551SOL    HW137115   3.562   2.989   7.584 -0.3592  1.4702 -0.9205
 8551SOL    HW237116   3.461   2.970   7.483  0.6018  0.2864 -0.3968
 8552SOL     OW37117   1.410   1.578   6.461  0.0050 -0.1001  0.2943
 8552SOL    HW137118   1.375   1.631   6.389 -0.5393  0.3542  0.8879
 8552SOL    HW237119   1.389   1.649   6.523  1.9670  0.1261  0.7009
 8553SOL     OW37120   2.454   1.041  17.234  0.6661  0.4260 -0.3095
 8553SOL    HW137121   2.510   1.114  17.208  1.1127  0.7267  1.5090
 8553SOL    HW237122   2.497   0.961  17.203 -0.7988 -0.2809 -0.5391
 8554SOL     OW37123   0.371   3.839  13.751  0.0564  0.3424 -0.2144
 8554SOL    HW137124   0.352   3.812  13.841  0.0895 -2.8986 -1.1613
 8554SOL    HW237125   0.353   3.762  13.697  1.8436 -0.8394  0.8997
 8555SOL     OW37126   1.463   0.546   0.730 -0.2216 -0.3236 -0.3904
 8555SOL    HW137127   1.512   0.609   0.678 -2.1948  0.1334 -1.6884
 8555SOL    HW237128   1.517   0.530   0.808  1.4958  1.3051 -1.2679
 8556SOL     OW37129   0.053   2.871   2.224  0.8775  0.1493  0.2140
 8556SOL    HW137130   4.688   2.847   2.182  1.5566 -0.0214 -1.0235
 8556SOL    HW237131   0.106   2.857   2.146 -0.1778  1.0810 -0.6648
 8557SOL     OW37132   4.396   2.908   5.543  0.3529 -0.6777 -0.6414
 8557SOL    HW137133   4.346   2.908   5.462  1.0915  0.1368 -1.0939
 8557SOL    HW237134   4.424   3.000   5.536  1.6396 -1.0797 -0.6527
 8558SOL     OW37135   0.806   2.304   8.078 -0.5252  0.1349  0.5290
 8558SOL    HW137136   0.737   2.330   8.017  0.9649 -0.0819 -1.2412
 8558SOL    HW237137   0.764   2.316   8.163 -0.7088 -1.2088  0.6245
 8559SOL     OW37138   0.343   3.740   3.941  0.0573  0.4124  0.5550
 8559SOL    HW137139   0.435   3.715   3.936 -0.4183 -1.0667 -1.0446
 8559SOL    HW237140   0.293   3.682   3.884  1.5083 -1.1458  0.8802
 8560SOL     OW37141   1.144   2.330   7.610  0.6385  0.2811  0.4582
 8560SOL    HW137142   1.134   2.315   7.704  1.1525 -0.1419  0.4474
 8560SOL    HW237143   1.190   2.250   7.583 -0.5873 -0.3259  0.1529
 8561SOL     OW37144   1.889   4.457  15.950  0.0055  0.4356  0.0823
 8561SOL    HW137145   1.867   4.539  15.994 -1.6720  0.8431 -1.4579
 8561SOL    HW237146   1.805   4.412  15.965  2.3329 -3.9060  0.1026
 8562SOL     OW37147   4.149   4.210   6.572  0.6615  0.5371 -0.3660
 8562SOL    HW137148   4.065   4.256   6.568 -1.0231 -2.3587  1.6937
 8562SOL    HW237149   4.150   4.189   6.479  3.7622 -2.5840  0.4000
 8563SOL     OW37150   0.818   1.763   2.334 -0.4089  0.0567  0.4653
 8563SOL    HW137151   0.819   1.673   2.302 -0.1975  1.3551 -3.1027
 8563SOL    HW237152   0.771   1.804   2.262  1.1180 -1.4057 -1.3715
 8564SOL     OW37153   3.140   2.256  12.660  0.1973 -0.2090 -0.5363
 8564SOL    HW137154   3.192   2.192  12.709 -1.1769 -1.8724 -1.2594
 8564SOL    HW237155   3.131   2.330  12.719 -1.7077 -0.0254 -1.0787
 8565SOL     OW37156   4.300   1.609   0.492 -0.3730 -0.2105  0.1234
 8565SOL    HW137157   4.260   1.601   0.579  0.4733  0.8210  0.6039
 8565SOL    HW237158   4.338   1.523   0.472  1.4931  0.6940 -0.1738
 8566SOL     OW37159   3.661   0.129   8.432 -0.7618 -0.0077  0.0228
 8566SOL    HW137160   3.717   0.055   8.454 -0.7511  0.7521  2.5023
 8566SOL    HW237161   3.619   0.095   8.353  2.7805 -1.8375 -1.0459
 8567SOL     OW37162   0.606   1.512  14.209 -0.2147 -0.1578  0.4621
 8567SOL    HW137163   0.569   1.599  14.222  3.6472  1.3116  1.3654
 8567SOL    HW237164   0.672   1.513  14.278  2.9029 -0.5250 -2.4938
 8568SOL     OW37165   2.508   0.044  10.167 -0.2400 -0.6756 -0.0394
 8568SOL    HW137166   2.529   0.049  10.260  1.0627  2.5128 -0.5290
 8568SOL    HW237167   2.460   4.681  10.151 -0.7479 -0.4883  0.5608
 8569SOL     OW37168   4.459   0.279   9.948 -0.2073 -0.3419 -0.2211
 8569SOL    HW137169   4.432   0.198   9.991 -0.3206  1.6433  3.5211
 8569SOL    HW237170   4.552   0.258   9.941  0.2376  0.7196  2.5198
 8570SOL     OW37171   4.641   3.234   7.683  0.4516 -0.9600 -0.1168
 8570SOL    HW137172   4.596   3.210   7.764  0.8572  0.2920  0.4858
 8570SOL    HW237173   4.587   3.190   7.618 -2.0503  0.7581  0.7969
 8571SOL     OW37174   2.334   4.709   1.323  0.4421 -0.0797  0.0629
 8571SOL    HW137175   2.319   4.692   1.416 -0.8821  0.8159  0.0078
 8571SOL    HW237176   2.259   4.662   1.287 -0.2293  0.6559  0.4895
 8572SOL     OW37177   3.567   4.077  15.475 -0.0319  0.0017 -0.3449
 8572SOL    HW137178   3.503   4.141  15.503  2.0382  2.1245 -0.4844
 8572SOL    HW237179   3.603   4.038  15.555 -2.3560 -1.1822  0.1132
 8573SOL     OW37180   0.455   3.023  11.368 -0.2775  0.0491  0.1326
 8573SOL    HW137181   0.492   3.039  11.281  2.1881 -2.2717  0.7433
 8573SOL    HW237182   0.463   3.105  11.415 -2.1662 -0.2155  0.8981
 8574SOL     OW37183   2.130   2.004  11.481 -0.2348  0.5471  0.3424
 8574SOL    HW137184   2.148   2.092  11.514  1.0349  0.6504 -0.6198
 8574SOL    HW237185   2.159   1.945  11.550 -0.7843  0.3041  0.3729
 8575SOL     OW37186   3.042   2.342  11.221  0.6034 -0.4669  0.2525
 8575SOL    HW137187   2.987   2.311  11.149  0.5882  0.2366 -0.0447
 8575SOL    HW237188   2.974   2.382  11.277 -1.2000 -1.1989 -1.4158
 8576SOL     OW37189   2.305   0.184   2.503  0.5644  1.5457  0.2761
 8576SOL    HW137190   2.304   0.130   2.582  1.2261 -0.2203 -0.9022
 8576SOL    HW237191   2.222   0.230   2.518  0.8267  2.0505  0.1617
 8577SOL     OW37192   1.535   1.137   1.947  0.5736 -0.3323 -0.4206
 8577SOL    HW137193   1.521   1.225   1.911 -0.0998  0.3161  1.4350
 8577SOL    HW237194   1.606   1.112   1.888 -0.8967  0.0817 -2.3562
 8578SOL     OW37195   0.934   0.929   5.273  0.3473  0.4845  0.3371
 8578SOL    HW137196   0.998   0.859   5.260 -0.9020 -0.7743  0.9617
 8578SOL    HW237197   0.890   0.908   5.356  0.0750  0.1320  0.1010
 8579SOL     OW37198   0.567   3.617   9.720  0.1161 -0.3859  0.2278
 8579SOL    HW137199   0.562   3.690   9.659  0.5943  0.2490  0.9377
 8579SOL    HW237200   0.480   3.616   9.760 -0.2080  1.7211 -0.4592
 8580SOL     OW37201   2.069   1.686   8.589  0.0849  0.0299 -0.2119
 8580SOL    HW137202   2.033   1.604   8.623  2.1184 -0.9578 -0.4560
 8580SOL    HW237203   2.103   1.655   8.505 -0.5192  2.5045 -1.3507
 8581SOL     OW37204   2.400   4.236   8.418  0.6473  0.0681 -0.1416
 8581SOL    HW137205   2.465   4.299   8.449  1.5485 -1.8687  1.9538
 8581SOL    HW237206   2.406   4.165   8.483 -1.3796  0.8373  0.8859
 8582SOL     OW37207   1.340   0.717   4.136  0.0298  0.1479 -0.2695
 8582SOL    HW137208   1.405   0.646   4.144 -0.0179  0.1578  0.2494
 8582SOL    HW237209   1.388   0.791   4.173  1.2970  0.3031 -2.2564
 8583SOL     OW37210   1.478   2.397  11.958  0.1237 -0.0468  0.1734
 8583SOL    HW137211   1.465   2.357  11.872 -1.3912  0.3155  0.2297
 8583SOL    HW237212   1.565   2.433  11.941  0.2726 -0.5107 -0.0303
 8584SOL     OW37213   1.378   1.759   4.852 -0.3762  0.8015 -0.4532
 8584SOL    HW137214   1.328   1.695   4.801 -0.9155  1.6930 -1.0488
 8584SOL    HW237215   1.331   1.841   4.835 -0.1326  0.5058 -2.5654
 8585SOL     OW37216   4.319   0.142   0.736  0.0965  0.1985  0.1887
 8585SOL    HW137217   4.383   0.158   0.806  0.8778  2.3369 -1.0074
 8585SOL    HW237218   4.247   0.117   0.793 -0.3504 -1.6506 -1.1678
 8586SOL     OW37219   4.417   4.628   3.152 -0.2735 -0.1800 -0.6869
 8586SOL    HW137220   4.389   4.538   3.139 -0.3322 -0.4264  1.1997
 8586SOL    HW237221   4.371   4.671   3.080 -0.7051 -0.0256 -0.3178
 8587SOL     OW37222   4.512   1.910   6.635  0.3449  0.2580 -0.0274
 8587SOL    HW137223   4.439   1.871   6.684  0.8223 -0.0041  0.4737
 8587SOL    HW237224   4.584   1.851   6.658  0.2359  0.3337  0.5048
 8588SOL     OW37225   3.122   0.472   2.641 -0.2640  0.0906 -0.9373
 8588SOL    HW137226   3.048   0.524   2.610 -0.7241  0.5581  0.9454
 8588SOL    HW237227   3.125   0.489   2.736  1.4191  1.5221 -1.2391
 8589SOL     OW37228   2.264   2.487   2.256 -0.1796  0.4994  0.0317
 8589SOL    HW137229   2.356   2.459   2.258  0.1454  1.5046 -0.6733
 8589SOL    HW237230   2.226   2.454   2.337  1.6253 -0.2366  0.5794
 8590SOL     OW37231   3.163   4.049   3.023 -0.1021  0.1847 -0.5727
 8590SOL    HW137232   3.115   4.128   2.997 -2.5915 -1.2799 -0.4639
 8590SOL    HW237233   3.250   4.089   3.021  0.5319 -1.0838  1.2461
 8591SOL     OW37234   0.748   3.580   3.794 -0.3321 -0.0756 -0.0857
 8591SOL    HW137235   0.783   3.661   3.758 -0.4856  0.2870  0.5961
 8591SOL    HW237236   0.825   3.524   3.781  0.1960  0.0490  2.5147
 8592SOL     OW37237   2.231   4.701   7.562  0.7801  0.1761 -0.2987
 8592SOL    HW137238   2.226   0.032   7.644 -0.9657 -0.5353  0.0290
 8592SOL    HW237239   2.138   4.680   7.557  0.0975  3.0728 -0.0797
 8593SOL     OW37240   1.985   0.478   3.587 -0.2074 -0.4489  0.3579
 8593SOL    HW137241   1.943   0.563   3.602 -1.4262 -0.5587 -2.3883
 8593SOL    HW237242   1.923   0.449   3.520  0.1384  0.0759 -0.1825
 8594SOL     OW37243   2.113   1.996  10.736  0.2152 -0.0584 -0.1521
 8594SOL    HW137244   2.161   1.988  10.818  0.2054  3.1468  0.1996
 8594SOL    HW237245   2.131   2.087  10.711  1.4380  0.2027  1.7135
 8595SOL     OW37246   2.913   4.637  12.206  0.0120  0.6364  0.2748
 8595SOL    HW137247   2.933   4.576  12.136 -0.6340  1.9108 -1.0066
 8595SOL    HW237248   2.840   4.680  12.162  0.6003 -1.2441 -2.5164
 8596SOL     OW37249   4.515   0.224   6.464 -0.6398 -0.0586 -0.3108
 8596SOL    HW137250   4.465   0.201   6.386  1.5696 -0.4954 -1.6022
 8596SOL    HW237251   4.602   0.187   6.447 -1.0533 -1.0348 -0.3065
 8597SOL     OW37252   0.640   1.277   8.085 -0.8753  0.2032 -0.0071
 8597SOL    HW137253   0.647   1.361   8.038 -2.1916  1.3208  1.8095
 8597SOL    HW237254   0.678   1.219   8.019 -1.1081  0.5030 -0.4067
 8598SOL     OW37255   3.867   2.242  14.801 -0.7207  0.1330 -0.7448
 8598SOL    HW137256   3.831   2.316  14.752 -0.4551 -0.1366 -1.3383
 8598SOL    HW237257   3.956   2.265  14.825 -0.9985  0.0674  0.3824
 8599SOL     OW37258   2.060   3.612   2.055  0.7744  0.3292 -0.1480
 8599SOL    HW137259   2.009   3.587   1.978 -1.6448 -0.2529  1.6489
 8599SOL    HW237260   2.146   3.627   2.015  0.3034  0.5302 -1.0692
 8600SOL     OW37261   1.696   0.819   7.987  0.1355  0.0555  0.6462
 8600SOL    HW137262   1.764   0.831   7.921 -1.7186 -1.4322 -1.5226
 8600SOL    HW237263   1.659   0.906   7.974  1.7584  0.9070  1.7621
 8601SOL     OW37264   3.735   2.783  10.494  0.0509  0.3606  0.3704
 8601SOL    HW137265   3.725   2.727  10.571 -0.9698  0.6278  0.4392
 8601SOL    HW237266   3.657   2.839  10.498  1.0573  1.8639 -1.3495
 8602SOL     OW37267   0.380   2.640  15.004 -0.1624 -0.1334  0.0138
 8602SOL    HW137268   0.407   2.682  15.086 -3.1453  2.4507 -0.3192
 8602SOL    HW237269   0.410   2.705  14.941 -0.3123  0.6158  0.6992
 8603SOL     OW37270   0.539   2.986   2.889  0.1601  0.4518 -0.3165
 8603SOL    HW137271   0.469   2.939   2.934  1.1021  0.6913  1.3587
 8603SOL    HW237272   0.561   2.929   2.815 -0.6217  0.1781 -0.3406
 8604SOL     OW37273   2.318   3.125   8.095  0.0337 -0.6740 -0.0630
 8604SOL    HW137274   2.382   3.122   8.167 -0.7547 -1.3916  0.6105
 8604SOL    HW237275   2.311   3.030   8.095 -0.3737 -0.6285 -1.5301
 8605SOL     OW37276   1.336   2.349   2.411 -0.6583  0.3949 -0.2569
 8605SOL    HW137277   1.358   2.349   2.318 -1.8753  2.3341 -0.5474
 8605SOL    HW237278   1.281   2.271   2.409  1.5298 -1.1578  0.1976
 8606SOL     OW37279   2.914   3.868   1.668 -0.1677  0.0823  0.2127
 8606SOL    HW137280   2.903   3.943   1.726 -1.5900  0.4163 -0.4885
 8606SOL    HW237281   3.007   3.860   1.690 -0.7335  1.2216  3.0587
 8607SOL     OW37282   4.208   0.678   5.977 -0.8652  0.2109  0.1670
 8607SOL    HW137283   4.276   0.717   6.032 -0.1331 -1.2499  0.3108
 8607SOL    HW237284   4.144   0.748   5.966 -0.5454  0.2007 -1.8186
 8608SOL     OW37285   3.722   0.380  17.029  0.1751 -0.1753  0.4838
 8608SOL    HW137286   3.785   0.426  17.085  0.8020 -2.2159  1.4631
 8608SOL    HW237287   3.788   0.353  16.966  1.5733  3.1784  0.4915
 8609SOL     OW37288   3.703   3.839   4.649 -0.3276  0.8757  0.2564
 8609SOL    HW137289   3.726   3.932   4.655  3.2171 -0.0054  0.3510
 8609SOL    HW237290   3.748   3.808   4.727  0.5164 -0.0546 -0.5958
 8610SOL     OW37291   0.514   2.816  14.830  0.1022  0.0551 -0.4921
 8610SOL    HW137292   0.588   2.787  14.884  0.0044 -0.7137 -0.7704
 8610SOL    HW237293   0.540   2.888  14.773  0.6206  0.1507 -0.1316
 8611SOL     OW37294   1.672   0.049   2.705  0.3882 -1.0574  0.0963
 8611SOL    HW137295   1.586   0.083   2.728  0.7978 -0.6066  0.9543
 8611SOL    HW237296   1.665   0.037   2.610  1.3541 -4.7468  0.5128
 8612SOL     OW37297   3.018   0.956   4.800  0.6499  0.0525  0.2784
 8612SOL    HW137298   3.044   0.928   4.712 -1.0103  0.9103 -0.4750
 8612SOL    HW237299   2.962   0.893   4.846 -0.1756 -1.2520 -2.5591
 8613SOL     OW37300   4.284   3.091  17.169  0.2676 -0.1658 -0.4806
 8613SOL    HW137301   4.345   3.074  17.097 -0.7475  1.4534 -1.7134
 8613SOL    HW237302   4.296   3.185  17.178  0.8552 -0.5284  2.3570
 8614SOL     OW37303   0.260   1.100   5.562 -0.2022  0.1792 -0.4615
 8614SOL    HW137304   0.226   1.017   5.595 -0.4898  1.1467  1.6509
 8614SOL    HW237305   0.225   1.162   5.626 -0.0673  0.6890 -0.8794
 8615SOL     OW37306   3.046   2.496   3.476 -0.1136 -0.0702  0.1467
 8615SOL    HW137307   3.134   2.464   3.494 -1.1252 -1.7176  2.1921
 8615SOL    HW237308   3.023   2.535   3.560 -2.2410 -0.2403 -0.3416
 8616SOL     OW37309   0.496   0.436   9.135 -0.4184  0.0867 -0.1731
 8616SOL    HW137310   0.523   0.498   9.067 -3.5417  1.1801 -0.3987
 8616SOL    HW237311   0.577   0.396   9.166  0.7121  1.9338 -0.7346
 8617SOL     OW37312   2.343   1.458   8.729 -0.4961  0.5211 -0.3296
 8617SOL    HW137313   2.294   1.420   8.656 -4.4222 -0.0999  2.6413
 8617SOL    HW237314   2.279   1.526   8.751 -1.3669 -0.2802 -0.3776
 8618SOL     OW37315   2.322   1.682   1.542 -0.0471 -0.0910 -0.2464
 8618SOL    HW137316   2.266   1.736   1.598  1.8319  0.4987  1.0546
 8618SOL    HW237317   2.263   1.606   1.538 -0.5966  0.2705  0.8287
 8619SOL     OW37318   0.474   0.765  15.280 -0.1403  0.1938  0.0089
 8619SOL    HW137319   0.393   0.747  15.232  0.7164  0.2921 -1.4770
 8619SOL    HW237320   0.535   0.703  15.240  0.0399  0.8496 -0.7317
 8620SOL     OW37321   0.020   4.179   3.765 -0.2002  0.0790  0.2624
 8620SOL    HW137322   4.660   4.180   3.710  0.9821 -1.7286 -1.4291
 8620SOL    HW237323   0.087   4.208   3.704  0.6674 -1.6868  0.3802
 8621SOL     OW37324   1.904   3.180   7.141  0.5253  0.1656  0.6750
 8621SOL    HW137325   1.991   3.185   7.181  0.8590  1.7048 -0.2463
 8621SOL    HW237326   1.866   3.119   7.204  1.0316 -2.0732 -1.2088
 8622SOL     OW37327   0.156   1.112   2.951 -0.4756  0.1274 -1.1479
 8622SOL    HW137328   0.092   1.177   2.980 -0.5788 -0.1842 -0.6875
 8622SOL    HW237329   0.191   1.181   2.894 -2.4243  1.4971 -0.6533
 8623SOL     OW37330   4.464   1.084  14.404 -0.6655  0.3286 -0.2520
 8623SOL    HW137331   4.463   1.070  14.498 -0.0722  0.2715 -0.2511
 8623SOL    HW237332   4.543   1.138  14.393 -0.8829  0.8077  0.5617
 8624SOL     OW37333   1.773   2.059   1.757  0.1702 -0.3614 -0.0579
 8624SOL    HW137334   1.814   2.134   1.713  1.3887  0.4880  2.4885
 8624SOL    HW237335   1.683   2.059   1.726  0.4351 -0.1262 -0.8309
 8625SOL     OW37336   2.063   4.059   5.172 -0.2048  0.6208 -0.1165
 8625SOL    HW137337   2.153   4.077   5.200  0.5983 -0.0143 -2.3374
 8625SOL    HW237338   2.033   4.150   5.166  2.0627  1.4748  1.2322
 8626SOL     OW37339   3.939   2.721   9.596 -0.2063 -0.2568 -0.0029
 8626SOL    HW137340   3.890   2.717   9.678  0.5244 -0.1591  0.4332
 8626SOL    HW237341   3.904   2.644   9.551 -0.3712  0.1431 -0.5588
 8627SOL     OW37342   0.384   0.853   4.254 -0.5249  0.0385  0.5240
 8627SOL    HW137343   0.425   0.767   4.260  0.1409  0.4829  2.2381
 8627SOL    HW237344   0.298   0.830   4.290 -0.6130  2.5316  1.8978
 8628SOL     OW37345   3.963   1.761  15.656 -0.6829  0.4557 -0.6988
 8628SOL    HW137346   4.035   1.781  15.716 -0.3997  0.0826 -0.9127
 8628SOL    HW237347   4.020   1.713  15.595  0.9228  2.3063 -0.6360
 8629SOL     OW37348   2.642   0.300   6.616 -0.6501 -0.3959  0.0501
 8629SOL    HW137349   2.693   0.235   6.664 -0.2845  0.5979  0.9805
 8629SOL    HW237350   2.617   0.359   6.686 -1.5946 -0.0232 -0.5957
 8630SOL     OW37351   1.765   3.878   6.018 -0.2950  0.9069  0.5759
 8630SOL    HW137352   1.806   3.838   6.094 -0.5346  0.0771  0.2612
 8630SOL    HW237353   1.757   3.805   5.957  2.7281  0.7045  0.4164
 8631SOL     OW37354   0.683   3.923   4.329  0.0107  0.1956 -0.8662
 8631SOL    HW137355   0.598   3.882   4.311 -0.5328  1.5104 -1.2991
 8631SOL    HW237356   0.648   4.002   4.371 -2.7892 -0.1051 -2.5966
 8632SOL     OW37357   0.275   3.827   4.717 -0.1607 -0.0606  0.2864
 8632SOL    HW137358   0.192   3.784   4.736  0.2554 -1.0022 -0.0128
 8632SOL    HW237359   0.255   3.917   4.742 -0.6620 -0.2367  0.5300
 8633SOL     OW37360   1.824   1.699   9.122  0.6470  0.9215 -0.1836
 8633SOL    HW137361   1.742   1.651   9.134  1.2503 -0.1401 -0.2302
 8633SOL    HW237362   1.801   1.782   9.163  0.8648  0.4491  0.9121
 8634SOL     OW37363   2.580   0.778  10.724 -0.1193  0.3062  0.5204
 8634SOL    HW137364   2.492   0.750  10.751 -0.6074 -0.5078 -1.8655
 8634SOL    HW237365   2.569   0.830  10.644  1.6180  0.2874  0.2733
 8635SOL     OW37366   4.452   2.654   0.142 -0.2950  0.3001  0.2523
 8635SOL    HW137367   4.452   2.749   0.130  0.3778  0.3561  0.7199
 8635SOL    HW237368   4.540   2.624   0.122  0.6116  3.5099 -0.6131
 8636SOL     OW37369   1.744   0.928   2.679 -0.2781  0.3179  0.2601
 8636SOL    HW137370   1.650   0.922   2.693 -0.1738 -0.3611  0.6838
 8636SOL    HW237371   1.744   0.938   2.584 -1.5848  0.1202  0.2402
 8637SOL     OW37372   2.518   4.078  12.455 -0.7216 -0.0571  0.2083
 8637SOL    HW137373   2.530   4.150  12.393 -3.2752  0.7146  0.5786
 8637SOL    HW237374   2.473   4.018  12.396 -1.8803 -0.0681  1.0879
 8638SOL     OW37375   1.336   3.455  12.088  0.4630  0.9398  0.9753
 8638SOL    HW137376   1.365   3.541  12.056 -2.2945  1.6057  0.2759
 8638SOL    HW237377   1.297   3.419  12.008 -0.4138 -0.4152  2.0192
 8639SOL     OW37378   2.385   3.060  15.527  0.0650  0.4064  0.2170
 8639SOL    HW137379   2.319   3.124  15.555  0.0266 -0.1043  1.3007
 8639SOL    HW237380   2.395   3.085  15.435  0.2236  2.9741  0.9082
 8640SOL     OW37381   2.438   0.270   1.178  0.4018  0.5352  0.4027
 8640SOL    HW137382   2.401   0.207   1.239 -0.5708 -0.8871 -1.6336
 8640SOL    HW237383   2.353   0.301   1.146  0.7752 -0.4862 -1.6019
 8641SOL     OW37384   2.593   1.331  14.007  0.1821 -0.0023  0.3390
 8641SOL    HW137385   2.538   1.374  14.073 -2.1157 -0.7457 -1.0688
 8641SOL    HW237386   2.591   1.238  14.028  2.3335 -0.3427 -1.0123
 8642SOL     OW37387   3.465   4.339  12.659 -0.6973  0.0473 -0.7506
 8642SOL    HW137388   3.545   4.294  12.686 -1.8470 -1.4894  0.1372
 8642SOL    HW237389   3.507   4.381  12.585  0.1210  2.4947  1.1017
 8643SOL     OW37390   0.782   1.765  12.997 -0.1059 -0.3381  0.2064
 8643SOL    HW137391   0.776   1.856  13.025  0.0755 -0.8889  1.9968
 8643SOL    HW237392   0.877   1.754  13.004 -0.0751  0.0965  0.4822
 8644SOL     OW37393   3.113   1.097  13.624 -0.2076 -0.2548  0.6695
 8644SOL    HW137394   3.073   1.144  13.697 -1.0222 -2.4968  1.6691
 8644SOL    HW237395   3.084   1.155  13.553  0.1721  1.2934  1.7706
 8645SOL     OW37396   2.049   0.362   8.498 -0.4625  0.3341  0.3569
 8645SOL    HW137397   2.033   0.273   8.527  1.0902 -0.7087 -2.0272
 8645SOL    HW237398   2.144   0.365   8.509 -0.1559 -1.1448 -1.9692
 8646SOL     OW37399   4.040   2.550   0.953 -0.0676  0.1001  0.5887
 8646SOL    HW137400   3.985   2.560   0.876  1.4330  1.5284 -0.2933
 8646SOL    HW237401   3.979   2.534   1.025 -1.1617 -2.3406 -0.8876
 8647SOL     OW37402   3.059   4.246   8.394  0.0545 -0.0448  0.8370
 8647SOL    HW137403   3.088   4.242   8.485  0.7078 -0.1702  0.6207
 8647SOL    HW237404   3.086   4.334   8.369  1.1676 -0.8245 -0.7077
 8648SOL     OW37405   0.938   1.160  13.040  0.6247  0.3263  0.8024
 8648SOL    HW137406   0.969   1.235  13.090  2.5000  0.2684 -0.2503
 8648SOL    HW237407   1.019   1.136  12.994  0.3047 -0.8713  0.8459
 8649SOL     OW37408   0.080   0.699  10.372 -0.0550 -0.1167 -0.0223
 8649SOL    HW137409   0.126   0.747  10.302  0.8597 -2.5740 -1.1055
 8649SOL    HW237410   4.707   0.715  10.348 -0.4581 -3.2076 -0.5785
 8650SOL     OW37411   4.236   2.146  10.726  0.8321  0.4255  0.1729
 8650SOL    HW137412   4.189   2.108  10.801  1.9627 -0.5119  0.4042
 8650SOL    HW237413   4.291   2.070  10.708  2.5446  1.9989 -1.1087
 8651SOL     OW37414   3.616   1.199   3.118  0.1913  0.2051  0.3338
 8651SOL    HW137415   3.629   1.159   3.204  1.5752 -1.6628 -0.7596
 8651SOL    HW237416   3.663   1.140   3.059  0.3251  0.7122 -0.0701
 8652SOL     OW37417   1.662   3.164   9.138 -0.2258 -0.2720 -0.5622
 8652SOL    HW137418   1.620   3.234   9.088  0.3892  0.6199  0.1507
 8652SOL    HW237419   1.723   3.215   9.192  1.2172 -2.2512 -0.3438
 8653SOL     OW37420   3.580   0.324   9.556  0.4276  0.0777 -0.0723
 8653SOL    HW137421   3.555   0.395   9.496 -0.1536  0.6865  0.8994
 8653SOL    HW237422   3.568   0.249   9.497 -1.0130  1.4780 -1.5453
 8654SOL     OW37423   4.372   2.253  16.972 -0.0060  0.0368  0.1108
 8654SOL    HW137424   4.291   2.204  16.956  0.0296  0.3451 -0.9684
 8654SOL    HW237425   4.351   2.311  17.046  0.5343  1.0354 -0.5222
 8655SOL     OW37426   3.354   3.335  14.813 -0.2150 -0.2227 -0.6152
 8655SOL    HW137427   3.402   3.405  14.858 -0.2192 -1.4291  1.2551
 8655SOL    HW237428   3.316   3.282  14.883  1.2130  1.2838  1.3166
 8656SOL     OW37429   1.387   2.975   6.257 -0.3747  0.1293  0.4054
 8656SOL    HW137430   1.454   3.007   6.317 -1.4329 -0.9534  2.1786
 8656SOL    HW237431   1.390   3.034   6.182 -0.7399  1.1348  1.1915
 8657SOL     OW37432   3.529   4.044   7.403  0.5274  0.1160 -0.3972
 8657SOL    HW137433   3.556   3.952   7.408  1.8940  0.5327  0.0091
 8657SOL    HW237434   3.461   4.040   7.336  1.2390 -1.2358 -1.0437
 8658SOL     OW37435   3.330   2.523   7.419  0.2833  0.0793  0.8135
 8658SOL    HW137436   3.350   2.589   7.485  0.7009 -2.6546  3.4161
 8658SOL    HW237437   3.382   2.566   7.351  0.6741 -1.7414 -0.0621
 8659SOL     OW37438   3.550   4.519  15.144  0.4546 -0.2192 -0.3174
 8659SOL    HW137439   3.629   4.466  15.151  0.1180 -0.7019 -0.1340
 8659SOL    HW237440   3.492   4.450  15.177  0.5134  0.7561  1.8752
 8660SOL     OW37441   4.623   0.726   6.553  0.0350  0.4550  0.4224
 8660SOL    HW137442   4.708   0.721   6.509 -0.1539  3.3918 -0.2308
 8660SOL    HW237443   4.573   0.665   6.498  1.4479 -0.3202  0.0024
 8661SOL     OW37444   3.412   1.954   7.437  0.5181 -0.9699 -0.2024
 8661SOL    HW137445   3.354   1.900   7.384  1.6192 -2.2021 -0.1373
 8661SOL    HW237446   3.390   2.044   7.411 -0.2063 -1.2217 -0.4622
 8662SOL     OW37447   3.427   1.145   6.977 -0.4711 -0.1962  0.2030
 8662SOL    HW137448   3.499   1.206   6.985 -0.5136 -0.5218  3.1856
 8662SOL    HW237449   3.352   1.204   6.970  0.0165  0.3850 -0.0271
 8663SOL     OW37450   2.207   0.661   5.293 -0.2723  0.1819  0.1570
 8663SOL    HW137451   2.169   0.743   5.325  0.3277  0.3312  0.4890
 8663SOL    HW237452   2.239   0.686   5.207 -2.0964 -1.2081 -0.9245
 8664SOL     OW37453   1.214   1.246   9.351  0.3144 -0.0753  0.1186
 8664SOL    HW137454   1.270   1.222   9.425  1.4539  0.5845 -0.5384
 8664SOL    HW237455   1.254   1.185   9.289  1.2317  0.1529  0.4909
 8665SOL     OW37456   4.609   0.271   2.936  0.0439  0.4505  0.2916
 8665SOL    HW137457   4.685   0.235   2.892 -0.6845  0.4227 -0.9416
 8665SOL    HW237458   4.600   0.350   2.883 -0.4855 -0.7831 -1.4551
 8666SOL     OW37459   3.986   0.311   7.009 -0.3984  0.1424  0.0599
 8666SOL    HW137460   4.054   0.333   7.073 -1.0481 -1.1181  1.1624
 8666SOL    HW237461   4.019   0.235   6.962 -0.5720  0.3350 -0.3688
 8667SOL     OW37462   4.291   2.921  15.390  0.0407 -0.2366 -0.4492
 8667SOL    HW137463   4.244   2.883  15.315 -1.1643  0.1019  0.1318
 8667SOL    HW237464   4.230   2.905  15.462  0.6321 -0.7942 -0.0702
 8668SOL     OW37465   4.431   0.011   0.510  0.1153 -0.3198  0.4688
 8668SOL    HW137466   4.389   4.643   0.502  2.6329 -1.4861 -0.2404
 8668SOL    HW237467   4.362   0.063   0.552  0.8281 -0.0184  1.2779
 8669SOL     OW37468   4.512   0.548  10.053 -0.0321  0.2820  0.2517
 8669SOL    HW137469   4.465   0.483  10.002  0.2820  0.4346 -0.2329
 8669SOL    HW237470   4.578   0.496  10.099 -0.8291  1.7053  3.0457
 8670SOL     OW37471   1.560   4.428  15.388  0.3695 -0.3693  0.0369
 8670SOL    HW137472   1.550   4.460  15.299 -0.2916  1.6913  0.8662
 8670SOL    HW237473   1.484   4.464  15.434  1.3305  3.0476 -1.0398
 8671SOL     OW37474   3.413   2.663   6.385  0.0771 -0.4823 -0.6110
 8671SOL    HW137475   3.444   2.724   6.318  1.7138  0.8153  1.3701
 8671SOL    HW237476   3.336   2.717   6.405 -0.5891 -0.9520 -1.8540
 8672SOL     OW37477   2.961   3.385   2.280  0.5887  0.2307  0.5977
 8672SOL    HW137478   2.998   3.451   2.221  1.6567 -2.2194 -1.4550
 8672SOL    HW237479   2.881   3.372   2.229  1.3535  1.4272 -0.9227
 8673SOL     OW37480   2.002   0.627  11.172 -0.0380  0.4205 -0.5861
 8673SOL    HW137481   2.055   0.552  11.145  0.5934  0.4773  0.4801
 8673SOL    HW237482   2.011   0.681  11.094 -0.3623  0.4321 -0.6158
 8674SOL     OW37483   0.472   3.611   2.660 -0.8354 -0.4540 -0.1126
 8674SOL    HW137484   0.503   3.530   2.621  3.0843  0.6188  0.7194
 8674SOL    HW237485   0.432   3.658   2.587 -0.9570 -2.9238 -1.6052
 8675SOL     OW37486   2.283   2.128  13.017 -0.0760  0.4302 -0.0721
 8675SOL    HW137487   2.281   2.075  12.937  1.3722 -0.9574  0.8235
 8675SOL    HW237488   2.193   2.124  13.050 -0.6605 -1.9731 -2.0200
 8676SOL     OW37489   3.189   3.856   2.230  1.1395  0.4387 -0.4389
 8676SOL    HW137490   3.132   3.922   2.190 -0.9011 -0.8690  0.3341
 8676SOL    HW237491   3.256   3.850   2.161  1.2008 -2.6151 -0.1115
 8677SOL     OW37492   2.798   3.486  16.712 -1.0416 -0.1943  0.6017
 8677SOL    HW137493   2.801   3.406  16.660 -0.9831 -1.0135  1.8775
 8677SOL    HW237494   2.754   3.553  16.661 -0.3656 -0.5751 -0.4810
 8678SOL     OW37495   4.527   2.450  13.461  0.1445  0.4941 -0.1088
 8678SOL    HW137496   4.506   2.470  13.552 -0.3943 -0.5031 -0.0154
 8678SOL    HW237497   4.457   2.495  13.413 -0.3845 -1.5115 -1.2131
 8679SOL     OW37498   1.902   1.911   5.393  0.3580  0.1221 -0.2234
 8679SOL    HW137499   1.893   1.973   5.320 -2.1569 -1.8430 -1.5629
 8679SOL    HW237500   1.818   1.867   5.402 -0.1454  0.8092 -1.4567
 8680SOL     OW37501   2.467   2.882   0.383 -0.2914 -0.5168  0.3815
 8680SOL    HW137502   2.508   2.801   0.353 -2.3238 -2.4472  2.7279
 8680SOL    HW237503   2.529   2.952   0.362 -1.5237  0.2566 -0.7023
 8681SOL     OW37504   2.974   1.148  13.299 -0.4033 -0.4084 -0.0793
 8681SOL    HW137505   2.929   1.109  13.224  0.9037 -0.6750 -0.7108
 8681SOL    HW237506   3.065   1.132  13.274 -0.1660 -0.1126  0.5982
 8682SOL     OW37507   4.700   4.554   3.280 -0.2856  0.2631  0.2681
 8682SOL    HW137508   4.694   4.641   3.321 -3.5261  0.7095 -1.1074
 8682SOL    HW237509   4.625   4.553   3.220 -1.6029 -2.9128  1.9629
 8683SOL     OW37510   2.398   2.629  12.536  0.0812  1.0271 -0.4714
 8683SOL    HW137511   2.443   2.581  12.467 -0.8411 -1.6726  0.8249
 8683SOL    HW237512   2.322   2.571  12.537  0.5305  0.4826  2.2607
 8684SOL     OW37513   0.949   1.475   7.506  0.8339 -0.2353 -0.5590
 8684SOL    HW137514   1.039   1.507   7.503  0.6219  0.3056 -1.2225
 8684SOL    HW237515   0.897   1.549   7.537  0.2515 -1.2448  0.8652
 8685SOL     OW37516   0.196   2.696  13.054 -0.3542  0.1211 -0.3128
 8685SOL    HW137517   0.146   2.776  13.036 -0.8468 -0.8581 -3.3807
 8685SOL    HW237518   0.193   2.684  13.149  1.0768  1.3812 -0.1183
 8686SOL     OW37519   0.787   0.650  14.920 -0.2330  0.5630  0.0764
 8686SOL    HW137520   0.804   0.731  14.873 -1.8441  0.4540 -0.6830
 8686SOL    HW237521   0.746   0.585  14.863  1.6428 -0.3611 -0.2059
 8687SOL     OW37522   0.337   3.884   9.052 -0.4167  0.4357  0.4320
 8687SOL    HW137523   0.267   3.838   9.006  0.7374 -0.7876 -0.1125
 8687SOL    HW237524   0.379   3.801   9.078 -0.7176  0.1100 -0.1256
 8688SOL     OW37525   1.560   3.501   6.159  0.4785  0.3618 -0.7738
 8688SOL    HW137526   1.608   3.582   6.178  1.2995 -0.0247 -1.2147
 8688SOL    HW237527   1.476   3.515   6.202  1.8273  1.8227  1.3896
 8689SOL     OW37528   2.579   1.885   1.178 -0.7019 -0.1021  0.0480
 8689SOL    HW137529   2.515   1.868   1.246 -0.4981  0.4739  0.3849
 8689SOL    HW237530   2.546   1.822   1.114 -0.2547 -1.0570  0.7724
 8690SOL     OW37531   0.019   4.607   9.964  0.6155 -0.3238 -0.1378
 8690SOL    HW137532   4.644   4.585   9.952  0.3723  0.1033  0.9031
 8690SOL    HW237533   0.036   4.606  10.058  0.1891 -1.1910 -0.0632
 8691SOL     OW37534   3.325   2.974  12.205 -0.0563  0.3482  0.5046
 8691SOL    HW137535   3.250   2.978  12.264 -0.8479  0.4409 -0.4923
 8691SOL    HW237536   3.309   3.054  12.155 -0.0354  1.1563  1.7863
 8692SOL     OW37537   1.487   3.327   9.022 -0.7905 -0.0194 -0.1800
 8692SOL    HW137538   1.494   3.401   9.081  1.7235 -0.9440  0.6586
 8692SOL    HW237539   1.395   3.344   8.999 -0.9007 -1.3475 -0.7724
 8693SOL     OW37540   1.846   4.613   2.890 -0.4197 -0.3681 -0.1575
 8693SOL    HW137541   1.830   4.687   2.949  1.1202 -1.7488  2.0017
 8693SOL    HW237542   1.779   4.632   2.825 -0.4021 -2.5004 -0.7837
 8694SOL     OW37543   4.629   1.468   1.020 -0.2638  0.3283  0.0571
 8694SOL    HW137544   4.705   1.425   0.980 -0.9018  0.7330 -1.5905
 8694SOL    HW237545   4.564   1.440   0.955  1.0620 -1.4468 -0.4969
 8695SOL     OW37546   0.189   3.271   7.735 -0.7327  0.1096  0.0965
 8695SOL    HW137547   0.223   3.191   7.775  0.3295  0.0521 -0.9363
 8695SOL    HW237548   0.101   3.240   7.716 -1.2539  0.3448  2.0819
 8696SOL     OW37549   1.809   0.192   8.040 -1.2538  0.0680  0.3820
 8696SOL    HW137550   1.866   0.213   8.113  0.7830  1.3486 -1.5657
 8696SOL    HW237551   1.731   0.246   8.055 -2.0558 -0.6769 -1.1254
 8697SOL     OW37552   1.556   0.388   0.411  0.0444  0.3705 -0.4069
 8697SOL    HW137553   1.521   0.398   0.500 -0.0384  0.3646 -0.4397
 8697SOL    HW237554   1.613   0.313   0.430  0.1889  0.4737 -0.4286
 8698SOL     OW37555   4.277   0.929  11.455 -0.5763 -0.0396  0.2312
 8698SOL    HW137556   4.189   0.967  11.457 -0.8408 -0.7024  1.2539
 8698SOL    HW237557   4.300   0.924  11.362 -0.7759  0.5288  0.1527
 8699SOL     OW37558   3.693   1.410   5.142 -0.1247  0.1346  0.0178
 8699SOL    HW137559   3.705   1.448   5.229 -0.3017  1.1086 -0.3833
 8699SOL    HW237560   3.730   1.322   5.153  0.5303  0.5899  1.5022
 8700SOL     OW37561   2.169   2.145   0.646  0.6220  0.4207 -0.4302
 8700SOL    HW137562   2.081   2.163   0.680  0.5118 -0.4425 -0.2547
 8700SOL    HW237563   2.227   2.219   0.668 -0.2654  1.0252 -0.1007
 8701SOL     OW37564   3.150   4.574   2.097 -0.4031 -0.1261  0.3180
 8701SOL    HW137565   3.200   4.552   2.018 -0.8620  0.7464 -0.2247
 8701SOL    HW237566   3.204   4.532   2.163 -1.3374 -3.3174 -0.9497
 8702SOL     OW37567   2.932   3.184  12.734 -0.3527  0.0779  0.1277
 8702SOL    HW137568   3.000   3.177  12.667 -1.2569 -1.3277 -0.6615
 8702SOL    HW237569   2.879   3.121  12.684 -0.9548  0.6080  0.1019
 8703SOL     OW37570   4.227   0.611   2.908 -0.6476 -0.4118  0.7098
 8703SOL    HW137571   4.228   0.706   2.895 -1.9511 -0.7323 -1.6662
 8703SOL    HW237572   4.132   0.600   2.908 -0.6121 -0.7294  1.8391
 8704SOL     OW37573   4.533   1.305   8.314 -0.2582  0.0377 -0.4532
 8704SOL    HW137574   4.453   1.267   8.277  0.7139 -1.7627 -0.7290
 8704SOL    HW237575   4.569   1.354   8.241 -0.2231 -0.3667 -0.7080
 8705SOL     OW37576   2.032   0.377   5.806  0.5764  0.4583  0.4366
 8705SOL    HW137577   1.998   0.464   5.822 -0.2902  0.9502 -4.3604
 8705SOL    HW237578   1.952   0.329   5.827  1.4632 -0.6943  1.2287
 8706SOL     OW37579   3.052   3.957   1.119  0.2165  0.0251  0.0127
 8706SOL    HW137580   3.091   4.041   1.143  0.9602  0.2083 -1.8524
 8706SOL    HW237581   3.022   3.932   1.206 -0.4640  0.5298 -0.0774
 8707SOL     OW37582   2.990   1.424   4.512 -0.0062 -0.0669  0.0698
 8707SOL    HW137583   3.006   1.403   4.604  0.1782  1.9592  0.5122
 8707SOL    HW237584   2.906   1.380   4.497 -1.3679  2.2864  0.7324
 8708SOL     OW37585   1.475   4.018   4.705 -0.2307  0.8453  0.5787
 8708SOL    HW137586   1.486   4.000   4.798  1.7637  1.1679  0.4024
 8708SOL    HW237587   1.528   3.951   4.661  1.6594  1.6262  1.6812
 8709SOL     OW37588   0.399   3.842   8.170 -0.1059 -0.8204 -0.0887
 8709SOL    HW137589   0.450   3.899   8.112  0.3621  0.2376  1.3665
 8709SOL    HW237590   0.376   3.777   8.103 -1.1767  0.0832 -0.6012
 8710SOL     OW37591   3.811   3.323   4.002  0.6614  0.6000 -0.4508
 8710SOL    HW137592   3.755   3.311   3.926  1.0832 -1.2019 -0.4624
 8710SOL    HW237593   3.802   3.418   4.001  0.6252  0.5706 -1.8820
 8711SOL     OW37594   2.023   0.345   1.989 -0.0101 -0.5255  0.3378
 8711SOL    HW137595   2.024   0.251   2.009  0.3668 -1.0917 -2.3181
 8711SOL    HW237596   1.991   0.380   2.072  1.1937  3.0859 -0.7012
 8712SOL     OW37597   1.242   1.296   7.806 -0.1492 -0.0907  0.1752
 8712SOL    HW137598   1.267   1.225   7.865  2.0995  1.5897  1.2224
 8712SOL    HW237599   1.202   1.247   7.734  1.5863 -0.9206 -0.2272
 8713SOL     OW37600   3.745   3.024   6.816  0.3186 -0.3943  0.0166
 8713SOL    HW137601   3.753   2.977   6.898  0.3969 -0.9014 -0.2833
 8713SOL    HW237602   3.806   3.097   6.826 -1.7597  1.0389  2.1882
 8714SOL     OW37603   0.427   0.501   7.879 -0.0207 -0.1610  0.1932
 8714SOL    HW137604   0.408   0.555   7.802  0.7794 -0.0676  0.0646
 8714SOL    HW237605   0.464   0.422   7.840  0.3147  0.7824 -1.3940
 8715SOL     OW37606   1.905   3.494   8.430  0.4659 -0.1955  0.0979
 8715SOL    HW137607   1.812   3.469   8.433 -0.2758  2.7345  0.8277
 8715SOL    HW237608   1.924   3.502   8.524 -0.5253  2.2418  0.0702
 8716SOL     OW37609   3.150   2.264  12.390  0.1182 -0.0899 -0.3652
 8716SOL    HW137610   3.118   2.241  12.478  0.5143  1.0709  0.0866
 8716SOL    HW237611   3.243   2.271  12.414 -0.0700 -0.5843  0.5058
 8717SOL     OW37612   4.532   3.993   6.665  0.2046 -0.3890  0.0653
 8717SOL    HW137613   4.438   3.988   6.649  0.2395 -0.7158 -0.0378
 8717SOL    HW237614   4.562   3.933   6.597  1.3270  0.2057  0.0283
 8718SOL     OW37615   4.090   0.957   7.169  0.5801  0.3438  0.2082
 8718SOL    HW137616   4.088   0.871   7.126  2.4846  0.1900  0.4098
 8718SOL    HW237617   4.057   0.947   7.259 -0.9031  1.1229 -0.2595
 8719SOL     OW37618   1.609   0.429  15.198  0.0333 -0.1851 -0.4024
 8719SOL    HW137619   1.560   0.447  15.118  1.8140 -1.1851 -1.7174
 8719SOL    HW237620   1.693   0.475  15.194 -0.9830  1.6713 -0.4935
 8720SOL     OW37621   2.993   2.390   5.302  0.8679  0.2006  0.2669
 8720SOL    HW137622   2.968   2.459   5.241 -1.3549 -0.3484  0.5380
 8720SOL    HW237623   2.979   2.436   5.386 -0.6782 -0.2301  0.2582
 8721SOL     OW37624   2.509   0.325   4.846 -0.2684 -0.1483  0.2512
 8721SOL    HW137625   2.575   0.299   4.909  1.0095 -3.6832 -2.5633
 8721SOL    HW237626   2.462   0.390   4.899  0.4618  1.3799 -0.9663
 8722SOL     OW37627   0.697   1.298   3.427  0.1576  0.0002  0.0873
 8722SOL    HW137628   0.772   1.352   3.451 -0.3779  2.4907 -3.8813
 8722SOL    HW237629   0.694   1.237   3.500  0.4327 -0.7977 -0.5743
 8723SOL     OW37630   4.058   2.338   3.216 -0.1283  0.3770 -0.4415
 8723SOL    HW137631   4.065   2.259   3.270  1.9092  0.7293 -0.1865
 8723SOL    HW237632   3.963   2.347   3.216  0.1756  3.2087  2.1054
 8724SOL     OW37633   0.400   1.026   6.000  0.0090  0.1361  0.1338
 8724SOL    HW137634   0.324   0.984   6.040  0.7249 -1.6988 -0.4447
 8724SOL    HW237635   0.381   1.008   5.907 -1.2956  1.7761  0.0704
 8725SOL     OW37636   1.259   0.898   7.758 -0.2994  0.1451  0.2683
 8725SOL    HW137637   1.331   0.837   7.741 -0.3048 -0.1149  1.1874
 8725SOL    HW237638   1.181   0.852   7.726  0.3119 -2.2686  2.2801
 8726SOL     OW37639   0.371   1.883   1.517 -0.2734 -0.4096 -0.1080
 8726SOL    HW137640   0.351   1.854   1.606 -0.7500 -2.1826 -0.7859
 8726SOL    HW237641   0.288   1.864   1.474 -0.0134  0.8699 -1.1575
 8727SOL     OW37642   2.931   2.879  12.613  0.3808 -1.1763  0.1112
 8727SOL    HW137643   2.937   2.806  12.552 -0.5949  0.1570 -1.5928
 8727SOL    HW237644   2.851   2.926  12.588 -0.0314 -1.1196  1.5355
 8728SOL     OW37645   1.388   0.910   0.624 -0.7759 -0.1112 -0.1294
 8728SOL    HW137646   1.364   0.902   0.716  1.1942 -1.4590  0.2791
 8728SOL    HW237647   1.462   0.849   0.625  0.1203  0.9689  0.4292
 8729SOL     OW37648   3.132   3.032   5.990  0.0557 -1.0910  0.1093
 8729SOL    HW137649   3.201   3.088   5.954 -1.2972 -0.4399 -1.5138
 8729SOL    HW237650   3.074   3.031   5.914  2.0874  2.4370 -1.4968
 8730SOL     OW37651   3.620   3.451   6.983 -0.3661 -0.4430 -0.2124
 8730SOL    HW137652   3.579   3.436   6.898 -0.4683 -0.0441 -0.2328
 8730SOL    HW237653   3.631   3.544   6.962  0.1421 -0.6234 -0.7424
 8731SOL     OW37654   1.538   1.519   8.867  0.2683  0.1396 -0.1187
 8731SOL    HW137655   1.459   1.522   8.812  0.7138  1.3196 -0.6910
 8731SOL    HW237656   1.587   1.594   8.832  0.8887 -0.6493 -0.9335
 8732SOL     OW37657   3.635   3.057   5.103  0.1751 -0.3962 -0.0692
 8732SOL    HW137658   3.553   3.086   5.062  0.0657 -0.3876  0.1592
 8732SOL    HW237659   3.612   2.965   5.114  1.4521 -0.5605  1.2785
 8733SOL     OW37660   0.721   2.628   8.492  0.2195  0.2873 -0.3045
 8733SOL    HW137661   0.656   2.656   8.557 -0.8671 -0.5297 -1.0504
 8733SOL    HW237662   0.689   2.683   8.420 -1.6990 -1.6025 -0.9017
 8734SOL     OW37663   3.403   3.941   8.631 -0.4097 -0.2864  0.5598
 8734SOL    HW137664   3.460   4.002   8.583 -2.4180  1.2745  0.1638
 8734SOL    HW237665   3.320   3.988   8.634 -0.8694 -1.0471 -0.2986
 8735SOL     OW37666   0.485   0.261   6.487 -0.2821  0.6033 -0.1535
 8735SOL    HW137667   0.494   0.252   6.392 -0.5015 -0.5643 -0.0631
 8735SOL    HW237668   0.492   0.355   6.501 -0.6369  0.4118  1.2476
 8736SOL     OW37669   3.384   3.039   4.978  0.0075 -0.0872 -0.1707
 8736SOL    HW137670   3.384   3.052   4.883  1.7050 -1.6447 -0.3863
 8736SOL    HW237671   3.357   2.947   4.981 -1.7489  0.4838  1.4250
 8737SOL     OW37672   0.242   2.429   6.974  0.1390  0.2708  0.1515
 8737SOL    HW137673   0.284   2.345   6.957  1.1765  0.8866 -0.3996
 8737SOL    HW237674   0.311   2.485   6.937 -0.6623 -0.6660 -2.7816
 8738SOL     OW37675   1.554   1.742   9.160 -0.6329  0.2766 -0.6132
 8738SOL    HW137676   1.542   1.729   9.254  2.0706  1.6888 -0.0758
 8738SOL    HW237677   1.501   1.821   9.148  0.1228  1.0646  1.2910
 8739SOL     OW37678   0.793   1.943   2.830  0.4215 -0.1233 -0.0405
 8739SOL    HW137679   0.805   2.035   2.850 -2.0396  0.2712 -0.3324
 8739SOL    HW237680   0.762   1.947   2.740 -0.2149 -1.9314  0.0863
 8740SOL     OW37681   1.505   4.128   9.310  0.4878 -0.8096  0.2710
 8740SOL    HW137682   1.523   4.044   9.352  2.3624  0.3605  1.7802
 8740SOL    HW237683   1.571   4.181   9.353 -2.3452  0.5214  2.9243
 8741SOL     OW37684   0.807   2.332  10.924  0.1441 -0.1100  0.0350
 8741SOL    HW137685   0.717   2.346  10.954  0.1140  1.9713 -1.1164
 8741SOL    HW237686   0.799   2.324  10.829 -0.4469 -3.4600  0.3381
 8742SOL     OW37687   2.306   3.638   1.934  0.8031 -0.1645 -1.0268
 8742SOL    HW137688   2.371   3.693   1.889  0.3091  1.6934  0.5172
 8742SOL    HW237689   2.299   3.565   1.873  3.5175 -0.7888 -0.5935
 8743SOL     OW37690   3.620   3.748   9.060 -0.2766  0.0612  0.1192
 8743SOL    HW137691   3.686   3.730   9.126  0.4438 -0.6973 -0.8099
 8743SOL    HW237692   3.608   3.840   9.083 -0.9317 -0.0274  0.1327
 8744SOL     OW37693   3.939   3.596   6.713 -0.2487  0.1954 -0.5155
 8744SOL    HW137694   3.863   3.575   6.659 -0.4411  1.1001 -0.5916
 8744SOL    HW237695   3.905   3.593   6.803  0.2892 -0.2003 -0.3259
 8745SOL     OW37696   1.884   0.627   2.031 -0.3160  0.1022  0.5929
 8745SOL    HW137697   1.956   0.651   2.089  0.7305 -0.4788 -0.4630
 8745SOL    HW237698   1.934   0.588   1.959  0.9212 -0.4118  1.7479
 8746SOL     OW37699   1.578   4.336   8.554  0.2649 -0.1524 -0.1605
 8746SOL    HW137700   1.641   4.281   8.508 -0.2237 -1.0223  0.2155
 8746SOL    HW237701   1.598   4.325   8.647 -2.4851  0.9004  0.5695
 8747SOL     OW37702   2.385   1.138   3.223 -0.4603  0.3806  0.1369
 8747SOL    HW137703   2.352   1.110   3.308 -1.1172  2.2506  0.4950
 8747SOL    HW237704   2.443   1.207   3.254 -0.6011  0.6889 -0.2805
 8748SOL     OW37705   1.756   2.095  10.491 -0.2886 -0.2521  0.4548
 8748SOL    HW137706   1.824   2.030  10.476  0.3207  1.3785 -3.8691
 8748SOL    HW237707   1.797   2.140  10.566  1.1367 -0.0448 -0.4491
 8749SOL     OW37708   3.080   0.517  12.632  0.0445  0.1071 -0.2345
 8749SOL    HW137709   3.175   0.528  12.627 -0.2893  1.9687 -2.4437
 8749SOL    HW237710   3.065   0.423  12.645 -2.4194  0.1271 -2.9726
 8750SOL     OW37711   4.344   2.192   7.658  0.1273 -0.1452 -0.5947
 8750SOL    HW137712   4.371   2.246   7.584 -0.3693 -0.9976 -1.3948
 8750SOL    HW237713   4.294   2.256   7.709 -0.9626 -1.7389  0.3082
 8751SOL     OW37714   1.566   1.267   4.371 -0.5378  0.3452 -0.0133
 8751SOL    HW137715   1.582   1.240   4.280 -0.6461  1.3690 -0.3331
 8751SOL    HW237716   1.524   1.351   4.352 -1.3215 -0.5867 -2.4778
 8752SOL     OW37717   0.485   2.789  13.659  0.3893 -0.2524  0.2907
 8752SOL    HW137718   0.469   2.865  13.714  0.8753  0.3224 -0.3548
 8752SOL    HW237719   0.441   2.801  13.574 -2.5016 -4.8607  1.1083
 8753SOL     OW37720   3.702   4.433   6.634  0.0528  0.1510  0.0541
 8753SOL    HW137721   3.659   4.480   6.706  2.6426 -0.3619  1.9637
 8753SOL    HW237722   3.782   4.402   6.677 -2.0227 -3.3201  1.3842
 8754SOL     OW37723   3.038   0.130  10.416 -0.6871  0.0369 -0.1021
 8754SOL    HW137724   3.134   0.140  10.419 -0.6216 -0.3235 -1.0198
 8754SOL    HW237725   3.028   0.215  10.459  1.4592  0.7318 -0.9625
 8755SOL     OW37726   0.617   3.149   6.328 -0.1383  0.4031  0.0516
 8755SOL    HW137727   0.541   3.153   6.387 -2.1706 -0.1009 -2.5769
 8755SOL    HW237728   0.679   3.117   6.393  0.0142  0.3962 -0.0990
 8756SOL     OW37729   1.668   1.659   2.277 -0.5097  0.3942 -0.5371
 8756SOL    HW137730   1.660   1.628   2.187 -1.9942 -1.2833  0.1859
 8756SOL    HW237731   1.762   1.646   2.291 -0.5463 -1.1276 -1.7502
 8757SOL     OW37732   4.272   1.259   1.004  0.7391  0.2559  0.3176
 8757SOL    HW137733   4.320   1.270   0.922 -1.1543 -0.8299 -0.9195
 8757SOL    HW237734   4.200   1.199   0.984  2.0392 -1.4607  0.7535
 8758SOL     OW37735   1.881   3.165   7.870 -0.5295  0.0150  0.3938
 8758SOL    HW137736   1.798   3.201   7.901  0.6186  2.3172  0.7757
 8758SOL    HW237737   1.942   3.207   7.931 -1.6005  1.3368  0.5464
 8759SOL     OW37738   2.798   3.829   3.405 -0.1944  0.0326 -0.0149
 8759SOL    HW137739   2.751   3.868   3.331 -0.4315 -0.2457 -0.0105
 8759SOL    HW237740   2.812   3.738   3.380  2.6951  0.8525 -1.3686
 8760SOL     OW37741   3.720   1.014   4.259  0.2261 -0.4872  0.1922
 8760SOL    HW137742   3.753   0.924   4.260  0.7194 -0.3266 -1.3779
 8760SOL    HW237743   3.694   1.019   4.351 -1.1591 -1.4026 -0.1423
 8761SOL     OW37744   4.622   3.109  14.613  0.0756  0.3169  0.1910
 8761SOL    HW137745   4.571   3.059  14.550  0.3750  0.5452 -0.2281
 8761SOL    HW237746   4.644   3.052  14.688 -0.1254 -0.7114 -0.5382
 8762SOL     OW37747   2.008   2.275   1.869 -0.1559  0.1079 -0.2311
 8762SOL    HW137748   2.075   2.208   1.880  0.6641  0.7857 -1.1207
 8762SOL    HW237749   2.034   2.328   1.944 -1.5349  0.7539 -0.2083
 8763SOL     OW37750   1.110   4.177   2.705  0.2675 -0.3538  0.3334
 8763SOL    HW137751   1.193   4.146   2.668 -0.7924  1.3617 -3.5018
 8763SOL    HW237752   1.053   4.109   2.670  0.8191 -0.6006 -0.0874
 8764SOL     OW37753   1.892   1.792   8.369  0.0015 -0.4907  0.5632
 8764SOL    HW137754   1.935   1.839   8.441 -1.3839  1.2755  0.2369
 8764SOL    HW237755   1.897   1.700   8.396 -0.8381 -0.6404  0.1867
 8765SOL     OW37756   3.570   0.968   8.685 -0.4319 -0.1514 -0.3327
 8765SOL    HW137757   3.650   0.929   8.720 -0.9037 -1.2506 -0.4999
 8765SOL    HW237758   3.586   1.055   8.724 -2.4728  1.0869 -2.2343
 8766SOL     OW37759   1.730   2.676   1.803  0.5707 -0.5173  0.5488
 8766SOL    HW137760   1.803   2.615   1.814  1.0347  0.3370  2.2421
 8766SOL    HW237761   1.655   2.617   1.801 -1.0374  1.4555  2.0450
 8767SOL     OW37762   2.898   0.691   3.760  0.0160 -0.2765  0.6478
 8767SOL    HW137763   2.874   0.714   3.670  4.1369 -1.3388 -0.7253
 8767SOL    HW237764   2.823   0.725   3.808  0.7467  1.6209  0.4419
 8768SOL     OW37765   3.571   1.153   6.197  0.2299 -0.6814 -0.2935
 8768SOL    HW137766   3.641   1.182   6.138 -1.5113 -0.5690 -2.3361
 8768SOL    HW237767   3.612   1.153   6.283  0.9182  2.4128 -0.6194
 8769SOL     OW37768   0.828   0.806   5.498  0.3156 -0.2945  0.1330
 8769SOL    HW137769   0.813   0.713   5.512 -0.4171 -0.1575  0.2394
 8769SOL    HW237770   0.848   0.840   5.585  1.8011 -1.0914  0.1038
 8770SOL     OW37771   4.437   2.104   5.979 -0.7280  0.7407  0.3135
 8770SOL    HW137772   4.364   2.145   5.932  0.1739  0.7196 -1.0783
 8770SOL    HW237773   4.500   2.175   5.993 -0.6521  0.4053  1.6539
 8771SOL     OW37774   3.190   3.166   4.594  0.9739 -0.4260 -0.3640
 8771SOL    HW137775   3.148   3.224   4.530 -1.1110 -0.1173  1.2773
 8771SOL    HW237776   3.113   3.157   4.650  1.2881  0.1158  0.1459
 8772SOL     OW37777   4.276   4.311   8.216 -0.1700 -0.5016  0.2944
 8772SOL    HW137778   4.363   4.273   8.217 -0.7981 -1.9850 -1.1068
 8772SOL    HW237779   4.282   4.398   8.255  2.0510 -1.6964  2.5604
 8773SOL     OW37780   4.012   3.991  11.773  0.2845 -0.0735  0.5609
 8773SOL    HW137781   4.044   3.978  11.862  1.8642  2.0537  0.2866
 8773SOL    HW237782   4.092   4.033  11.742 -1.6435  2.2707 -1.2259
 8774SOL     OW37783   2.660   0.813   3.845  0.2063 -0.1483 -0.8390
 8774SOL    HW137784   2.655   0.907   3.864  2.6781  0.0787 -1.3560
 8774SOL    HW237785   2.610   0.820   3.764 -0.1902 -1.3419 -0.6953
 8775SOL     OW37786   3.067   0.613   1.845  0.1464  0.1647  0.4723
 8775SOL    HW137787   3.135   0.626   1.780 -1.6060 -1.1888 -1.6491
 8775SOL    HW237788   3.007   0.542   1.820 -1.9249  1.0547  2.9042
 8776SOL     OW37789   0.134   1.515   1.914  0.3521 -0.0364  0.5035
 8776SOL    HW137790   0.193   1.446   1.946  1.2939  0.3756 -0.3311
 8776SOL    HW237791   0.053   1.484   1.954 -0.6847  1.2456 -0.6125
 8777SOL     OW37792   3.068   0.912  10.545 -0.1494  0.3685 -0.0001
 8777SOL    HW137793   3.135   0.920  10.613 -0.6272 -0.6255  0.5959
 8777SOL    HW237794   3.086   0.827  10.504  0.3640 -0.3118  1.5908
 8778SOL     OW37795   0.862   3.889  14.796  0.2205  0.2609  0.0878
 8778SOL    HW137796   0.845   3.878  14.890 -2.7258 -1.0751 -0.5920
 8778SOL    HW237797   0.787   3.945  14.776  0.1265  0.2218  0.3271
 8779SOL     OW37798   4.197   1.231   5.079 -0.1485  0.1750  0.3284
 8779SOL    HW137799   4.148   1.195   5.005  1.3472 -2.4407  0.6209
 8779SOL    HW237800   4.279   1.259   5.037 -0.3173 -0.9060 -0.7220
 8780SOL     OW37801   0.993   1.445   5.379  0.0993  0.5025 -0.0639
 8780SOL    HW137802   1.005   1.530   5.421 -1.4558  1.3217 -1.3077
 8780SOL    HW237803   0.911   1.458   5.331 -0.6582 -1.4348  0.6665
 8781SOL     OW37804   1.090   1.608   5.801  0.0971  0.0093 -0.3045
 8781SOL    HW137805   1.122   1.522   5.825 -2.1618 -0.1470  2.1631
 8781SOL    HW237806   1.030   1.629   5.873  0.0137  2.8536 -1.1715
 8782SOL     OW37807   3.659   4.519  15.698  0.0871  0.3522  0.3651
 8782SOL    HW137808   3.633   4.575  15.626  0.3734 -1.0910 -0.8545
 8782SOL    HW237809   3.572   4.481  15.714  0.1265  0.4532  0.8241
 8783SOL     OW37810   2.022   3.422  17.483  0.1360 -0.6730 -0.4336
 8783SOL    HW137811   1.926   3.424  17.484  0.1401 -0.9906  0.2272
 8783SOL    HW237812   2.035   3.453  17.572  0.2380  2.1547 -1.4278
 8784SOL     OW37813   0.093   0.178  15.693  0.1850 -0.4162  0.1614
 8784SOL    HW137814   0.180   0.141  15.679  0.5432  0.1594  0.8680
 8784SOL    HW237815   0.102   0.256  15.638  2.3387 -0.5511  0.3345
 8785SOL     OW37816   4.437   0.184   3.493 -0.8652 -0.3069 -0.0889
 8785SOL    HW137817   4.488   0.238   3.554 -1.5025  0.5999 -0.3516
 8785SOL    HW237818   4.408   0.260   3.442  1.1123 -0.0774 -0.8648
 8786SOL     OW37819   0.137   0.274   7.248  0.2042  0.6229 -0.3269
 8786SOL    HW137820   0.088   0.341   7.199 -3.7451  0.7607  3.8681
 8786SOL    HW237821   0.143   0.308   7.337  0.5052 -0.5445  0.0985
 8787SOL     OW37822   3.254   0.090   4.715 -0.2702 -0.1602 -0.3232
 8787SOL    HW137823   3.342   0.127   4.709 -0.1914 -0.0767  1.3814
 8787SOL    HW237824   3.215   0.146   4.647  0.2852  0.2266 -0.3195
 8788SOL     OW37825   1.305   0.663   6.638  0.3205  0.3594 -0.4901
 8788SOL    HW137826   1.230   0.657   6.578 -0.2227 -0.2630  0.2485
 8788SOL    HW237827   1.337   0.749   6.610  2.0234 -0.0140  0.3219
 8789SOL     OW37828   1.915   0.223   7.783 -0.1430  0.0890 -0.3935
 8789SOL    HW137829   1.859   0.233   7.860  2.5099  1.0523  1.4222
 8789SOL    HW237830   1.917   0.310   7.743  1.1059 -0.8744 -2.4396
 8790SOL     OW37831   2.500   2.353  12.707  0.1824  0.3307  0.2236
 8790SOL    HW137832   2.492   2.384  12.797  0.1692 -1.7853  0.9491
 8790SOL    HW237833   2.422   2.299  12.695  0.2473  0.6695 -1.8444
 8791SOL     OW37834   2.112   2.845   7.089 -0.3244 -0.2445 -0.1450
 8791SOL    HW137835   2.141   2.754   7.075 -3.3962 -1.4615  1.3675
 8791SOL    HW237836   2.176   2.878   7.151  0.5826 -0.3227 -1.0349
 8792SOL     OW37837   2.010   3.237   5.586  0.3237 -0.0174 -0.2379
 8792SOL    HW137838   2.043   3.317   5.544 -0.1089  0.2645 -0.0462
 8792SOL    HW237839   2.041   3.251   5.676 -1.6610 -0.1338  0.4588
 8793SOL     OW37840   4.356   0.329   2.966  0.0457  0.0486 -0.6665
 8793SOL    HW137841   4.344   0.382   2.887 -2.6730 -0.2751 -0.4816
 8793SOL    HW237842   4.448   0.304   2.963 -0.1269 -0.7940  0.8884
 8794SOL     OW37843   4.154   2.603  16.929  0.1473  0.2846 -0.4986
 8794SOL    HW137844   4.062   2.587  16.907 -0.3558  0.5794  1.3190
 8794SOL    HW237845   4.142   2.694  16.957  1.2421  0.1634  0.3791
 8795SOL     OW37846   2.145   0.264   2.904 -0.6081 -0.2869 -0.2255
 8795SOL    HW137847   2.054   0.283   2.929 -0.5353  1.6593 -1.4659
 8795SOL    HW237848   2.192   0.261   2.987 -2.1461 -1.5513  0.6044
 8796SOL     OW37849   0.803   0.523   7.925 -0.5853 -0.0062 -0.0824
 8796SOL    HW137850   0.770   0.556   7.842 -0.3733 -0.8477 -0.5037
 8796SOL    HW237851   0.798   0.427   7.927  0.8268 -0.0562  0.5379
 8797SOL     OW37852   0.204   2.267   7.336 -0.5741  0.5011  0.0140
 8797SOL    HW137853   0.292   2.293   7.309 -0.7425  0.6999 -0.3456
 8797SOL    HW237854   0.226   2.174   7.348  1.0255  1.1249  1.7665
 8798SOL     OW37855   3.692   0.416   4.796  0.5250  0.3145  0.4806
 8798SOL    HW137856   3.776   0.378   4.770 -0.2417 -0.8215 -0.3818
 8798SOL    HW237857   3.657   0.449   4.713 -1.8742 -3.1784  0.0952
 8799SOL     OW37858   0.462   2.018   3.735 -0.3839  0.1069 -0.0130
 8799SOL    HW137859   0.541   2.045   3.782  0.0408  0.8813 -1.1666
 8799SOL    HW237860   0.447   2.082   3.665  1.0562  0.3083 -0.1334
 8800SOL     OW37861   1.119   0.181  10.042 -0.4659  0.2409  0.4227
 8800SOL    HW137862   1.164   0.129  10.109 -0.8567  1.0837  1.3447
 8800SOL    HW237863   1.118   0.264  10.090 -0.3294  0.2168  0.4677
 8801SOL     OW37864   3.307   0.841   8.436  0.1198  0.1327 -0.0918
 8801SOL    HW137865   3.245   0.894   8.387  1.0147  2.1174  0.9035
 8801SOL    HW237866   3.276   0.755   8.408 -0.4391  0.8176 -1.5794
 8802SOL     OW37867   3.747   1.750   2.101  0.0854  0.4839 -0.0293
 8802SOL    HW137868   3.771   1.842   2.100 -3.0709  1.3212  3.8588
 8802SOL    HW237869   3.711   1.736   2.188  2.7416 -2.7911  0.5868
 8803SOL     OW37870   4.264   0.751   3.485  0.1069  0.0800 -0.4469
 8803SOL    HW137871   4.174   0.754   3.453  0.5437 -1.1813 -1.7982
 8803SOL    HW237872   4.280   0.658   3.499  1.3517  0.4553  0.6071
 8804SOL     OW37873   0.157   1.739   5.917  0.3512 -0.1535 -0.5378
 8804SOL    HW137874   0.195   1.730   6.004  0.2912  2.3640 -0.2723
 8804SOL    HW237875   0.175   1.832   5.904 -1.6434 -0.1198 -3.0463
 8805SOL     OW37876   1.835   1.027   3.615  0.3848 -0.0004  0.1267
 8805SOL    HW137877   1.781   0.967   3.666  0.6357  0.1975  0.6348
 8805SOL    HW237878   1.799   1.017   3.527 -2.0118 -0.9674  1.2338
 8806SOL     OW37879   0.702   2.428   0.116  0.2157 -0.1873  0.9763
 8806SOL    HW137880   0.781   2.478   0.134  0.1345  0.6002 -0.8440
 8806SOL    HW237881   0.673   2.396   0.202  0.7508 -0.9257  0.8803
 8807SOL     OW37882   1.522   4.289   0.212  0.4137 -0.5280 -0.0668
 8807SOL    HW137883   1.494   4.306   0.302  0.7054 -2.4186  0.3765
 8807SOL    HW237884   1.505   4.198   0.190  0.3583 -0.2878 -1.0235
 8808SOL     OW37885   4.254   4.673   3.413 -0.1712  0.0679 -0.0612
 8808SOL    HW137886   4.222   0.045   3.407 -0.8644 -0.1591  0.1508
 8808SOL    HW237887   4.317   4.671   3.341  0.2532  2.9917  0.2557
 8809SOL     OW37888   4.371   1.571  11.391 -0.1343  0.3158  0.3238
 8809SOL    HW137889   4.363   1.597  11.299 -0.0875 -0.5712  0.0753
 8809SOL    HW237890   4.292   1.519  11.401 -0.0707 -0.0017 -0.7990
 8810SOL     OW37891   0.934   1.670  13.291 -0.4271  0.7051  0.6136
 8810SOL    HW137892   0.930   1.581  13.257 -1.4735  0.1370  2.2630
 8810SOL    HW237893   0.976   1.719  13.220 -2.4814  0.1842 -0.9643
 8811SOL     OW37894   0.456   0.685   3.459  0.3423 -0.2477 -0.4153
 8811SOL    HW137895   0.496   0.610   3.503 -1.5687  0.8738  3.2603
 8811SOL    HW237896   0.485   0.682   3.368  0.4689 -0.7265 -0.3586
 8812SOL     OW37897   2.116   1.991   6.543  0.1643 -0.5586  0.3182
 8812SOL    HW137898   2.195   2.041   6.521 -1.2049  2.3816  2.0399
 8812SOL    HW237899   2.064   2.020   6.468 -0.0278  1.1791  1.1096
 8813SOL     OW37900   3.791   2.979   3.787  0.3718  0.0112 -0.6653
 8813SOL    HW137901   3.813   2.984   3.880 -1.4417  1.4940 -0.3105
 8813SOL    HW237902   3.879   2.969   3.750 -0.5181  1.5160 -3.1679
 8814SOL     OW37903   1.707   0.544   2.631 -0.0805 -0.1997  0.0958
 8814SOL    HW137904   1.702   0.502   2.545 -1.9318  0.1160  0.0629
 8814SOL    HW237905   1.624   0.526   2.674 -0.8557 -0.1152 -1.3693
 8815SOL     OW37906   1.109   0.442  15.475 -0.1286  0.3729 -0.3162
 8815SOL    HW137907   1.184   0.456  15.534 -0.6404 -0.0050  0.4274
 8815SOL    HW237908   1.114   0.528  15.433 -4.0253 -0.4564 -2.4119
 8816SOL     OW37909   0.818   0.645  13.229 -0.0384 -0.0061  0.2944
 8816SOL    HW137910   0.787   0.728  13.194  1.8050 -0.2170 -1.8310
 8816SOL    HW237911   0.736   0.600  13.248  0.5907 -1.1492  0.3091
 8817SOL     OW37912   3.015   1.351   0.645  0.3445 -0.0360  0.0282
 8817SOL    HW137913   3.053   1.357   0.557 -1.5743 -2.7575 -1.0166
 8817SOL    HW237914   2.925   1.330   0.619 -0.7866  0.1207  3.8830
 8818SOL     OW37915   2.982   0.853  16.293 -0.3368  0.7085  0.0020
 8818SOL    HW137916   2.915   0.889  16.235 -2.5339 -0.9276  1.5203
 8818SOL    HW237917   3.023   0.790  16.234 -1.1921  0.8087 -0.6853
 8819SOL     OW37918   3.291   2.115  17.096  0.4807 -0.1136  0.1537
 8819SOL    HW137919   3.293   2.028  17.136 -2.3739 -0.4647 -0.4638
 8819SOL    HW237920   3.197   2.132  17.109  1.0020  1.6106  1.5846
 8820SOL     OW37921   2.506   3.522   7.964  0.0997  0.1278  0.2561
 8820SOL    HW137922   2.421   3.510   8.006  0.4705  2.4102  1.6681
 8820SOL    HW237923   2.547   3.439   7.987 -0.8889 -0.2162  0.8067
 8821SOL     OW37924   3.185   0.964  14.737 -0.4232 -0.2913 -0.3503
 8821SOL    HW137925   3.129   0.930  14.668  1.0343 -1.1963 -1.0741
 8821SOL    HW237926   3.131   0.980  14.815 -1.1615 -1.8329 -0.5646
 8822SOL     OW37927   4.130   4.252   7.848  0.0012  0.1391  0.3385
 8822SOL    HW137928   4.043   4.243   7.810  0.3018  0.6782 -0.4887
 8822SOL    HW237929   4.107   4.307   7.923  0.2682 -1.3709  1.5098
 8823SOL     OW37930   0.448   4.018  14.920 -0.2325 -0.3497  0.7310
 8823SOL    HW137931   0.504   4.060  14.855  0.0325  0.8382  1.7235
 8823SOL    HW237932   0.503   3.977  14.987  0.8149  1.5907  1.0563
 8824SOL     OW37933   4.377   0.495   8.600  0.7404  0.4343  1.1048
 8824SOL    HW137934   4.382   0.510   8.506  2.1388  1.8741  1.4043
 8824SOL    HW237935   4.454   0.442   8.616 -0.4016 -1.1598  1.3023
 8825SOL     OW37936   0.615   2.364   0.356 -0.1922 -0.3881 -0.0736
 8825SOL    HW137937   0.543   2.426   0.361  0.3255 -0.0894  3.6013
 8825SOL    HW237938   0.569   2.286   0.325 -0.8830  0.1414 -0.3615
 8826SOL     OW37939   4.639   1.062  10.871  0.2229 -0.1382 -0.2269
 8826SOL    HW137940   4.593   1.067  10.955 -0.9888  0.0930 -0.9084
 8826SOL    HW237941   4.713   1.009  10.903 -1.1753 -2.5893 -1.0302
 8827SOL     OW37942   4.440   1.634   3.745 -0.4048  0.2577 -0.1925
 8827SOL    HW137943   4.481   1.635   3.831 -2.0286  0.5533  0.5730
 8827SOL    HW237944   4.506   1.586   3.695 -0.3185  1.0982 -0.8901
 8828SOL     OW37945   1.693   3.118   2.410 -0.4649  0.3219 -0.2969
 8828SOL    HW137946   1.703   3.197   2.463 -0.2268  1.3394 -1.8425
 8828SOL    HW237947   1.644   3.059   2.468 -1.5744 -0.6320 -2.1997
 8829SOL     OW37948   2.854   2.481   5.757  0.4041  0.2473  0.3737
 8829SOL    HW137949   2.776   2.470   5.811 -0.1482  2.6103  0.0622
 8829SOL    HW237950   2.916   2.521   5.819 -0.2429  0.9077  0.5978
 8830SOL     OW37951   2.694   2.398   7.491  0.2828 -0.2779  0.4359
 8830SOL    HW137952   2.668   2.366   7.578  1.0078  0.3626  0.8904
 8830SOL    HW237953   2.707   2.315   7.446  1.6306 -0.6974  1.5868
 8831SOL     OW37954   1.101   2.457   5.373 -0.2655 -0.3110  0.3719
 8831SOL    HW137955   1.019   2.507   5.376 -0.2924 -0.3995  1.1221
 8831SOL    HW237956   1.074   2.380   5.324 -0.8739  0.6123 -0.7526
 8832SOL     OW37957   4.519   2.622   7.632 -0.4182 -1.1251  0.1619
 8832SOL    HW137958   4.454   2.670   7.580 -1.0838 -0.8640  1.2210
 8832SOL    HW237959   4.514   2.536   7.591 -1.2159 -1.4379  0.8919
 8833SOL     OW37960   1.744   2.962   1.891  0.0310 -0.8030  0.0486
 8833SOL    HW137961   1.741   2.867   1.907  0.8237 -0.4243  2.4796
 8833SOL    HW237962   1.663   2.990   1.932  0.4618 -1.2196  1.1866
 8834SOL     OW37963   2.605   2.425   4.499 -0.0826 -0.6480  0.1554
 8834SOL    HW137964   2.582   2.343   4.544 -1.5192 -0.7154 -0.7167
 8834SOL    HW237965   2.687   2.441   4.546 -0.8634 -2.2971  2.1100
 8835SOL     OW37966   2.153   2.555   7.109  0.0605 -0.2427 -0.2634
 8835SOL    HW137967   2.177   2.535   7.018 -0.7108 -0.6627 -0.3790
 8835SOL    HW237968   2.061   2.532   7.091  0.3262 -0.5086 -1.3060
 8836SOL     OW37969   4.627   4.568   6.959 -0.2041 -0.4696  0.2655
 8836SOL    HW137970   4.535   4.558   6.980  0.4745 -0.2074  3.3618
 8836SOL    HW237971   4.624   4.592   6.867  2.8632 -0.3186  0.1948
 8837SOL     OW37972   0.641   2.123   6.517 -0.2032  0.1865  0.0304
 8837SOL    HW137973   0.570   2.186   6.523 -0.6346 -0.4586  1.7263
 8837SOL    HW237974   0.726   2.163   6.530 -0.6789  1.2435 -0.1511
 8838SOL     OW37975   0.638   3.480   9.257 -0.6462 -0.4040  0.2050
 8838SOL    HW137976   0.661   3.418   9.326 -0.0501  0.5053  0.8268
 8838SOL    HW237977   0.604   3.552   9.311 -0.7702  0.2581 -0.7593
 8839SOL     OW37978   1.873   4.703  10.221  0.0169  0.0337  0.2340
 8839SOL    HW137979   1.927   4.675  10.147 -0.0732 -2.9046  1.2887
 8839SOL    HW237980   1.931   0.042  10.271  0.6372 -1.3037  1.0429
 8840SOL     OW37981   0.117   3.154   1.144 -0.1072  0.1914 -0.0888
 8840SOL    HW137982   0.188   3.099   1.178  0.2319 -1.0214 -2.7804
 8840SOL    HW237983   0.165   3.227   1.105 -0.8536  1.2068  0.9333
 8841SOL     OW37984   3.864   0.149   2.336 -0.2932  0.4494  0.4964
 8841SOL    HW137985   3.856   0.156   2.241  1.3441 -0.3547  0.3067
 8841SOL    HW237986   3.934   0.211   2.357  0.1061 -0.0881  0.7623
 8842SOL     OW37987   4.590   1.339   2.800  0.0665 -0.7547  0.4021
 8842SOL    HW137988   4.581   1.324   2.706  1.6809 -1.9188  0.4279
 8842SOL    HW237989   4.531   1.273   2.837  1.0611 -1.3822  0.8920
 8843SOL     OW37990   4.328   4.557   7.962  0.2136 -0.7664  0.4605
 8843SOL    HW137991   4.246   4.515   7.989  1.0252 -1.9814  1.0505
 8843SOL    HW237992   4.301   4.645   7.938 -1.4929 -1.4340 -0.0160
 8844SOL     OW37993   3.556   2.203   7.636 -0.5304  0.3477  0.0967
 8844SOL    HW137994   3.595   2.121   7.666  0.1667  0.8232  0.5030
 8844SOL    HW237995   3.531   2.243   7.720 -0.4624  0.2887  0.1447
 8845SOL     OW37996   1.011   1.888   3.308  0.6596  0.2973  0.2449
 8845SOL    HW137997   1.072   1.951   3.346  0.5834  1.4888 -1.6031
 8845SOL    HW237998   1.025   1.885   3.213 -0.4962 -0.4642  0.1089
 8846SOL     OW37999   1.509   2.798   6.095 -0.4708  0.1744  0.2332
 8846SOL    HW138000   1.452   2.842   6.158  0.7538  0.6916  0.9732
 8846SOL    HW238001   1.449   2.746   6.041  0.3877  3.4479 -3.8791
 8847SOL     OW38002   1.018   4.516  14.278  0.1291  0.4723  0.3645
 8847SOL    HW138003   0.939   4.560  14.249  0.7715  1.6484  0.3940
 8847SOL    HW238004   1.020   4.544  14.369  2.2526 -0.2393  0.5548
 8848SOL     OW38005   1.797   4.125   0.345 -0.4402  0.0716  0.1591
 8848SOL    HW138006   1.789   4.195   0.410  0.4627 -2.9342  3.4602
 8848SOL    HW238007   1.706   4.112   0.318 -0.5579  0.1780  0.5063
 8849SOL     OW38008   3.928   0.593  16.033  0.5073  0.0541  0.3954
 8849SOL    HW138009   3.981   0.670  16.055  0.9264 -0.7789  2.2757
 8849SOL    HW238010   3.981   0.537  15.976 -3.3286  1.3791 -4.5679
 8850SOL     OW38011   4.123   1.957   6.530  0.0082  0.1639  0.1906
 8850SOL    HW138012   4.043   1.919   6.492 -0.1587  1.7638 -1.0764
 8850SOL    HW238013   4.178   1.961   6.452 -1.6662  0.7780 -0.9662
 8851SOL     OW38014   1.439   1.855  16.519 -0.2776  0.1302 -0.0083
 8851SOL    HW138015   1.404   1.767  16.506  0.6308 -0.3272  0.6511
 8851SOL    HW238016   1.475   1.860  16.607  2.5868 -0.8000 -1.1169
 8852SOL     OW38017   0.535   4.586   6.687 -0.7201  0.1657 -0.3716
 8852SOL    HW138018   0.626   4.556   6.693 -1.4617 -1.7614  1.1588
 8852SOL    HW238019   0.489   4.502   6.686  0.6188 -0.5847  0.7654
 8853SOL     OW38020   4.566   1.036  10.288  0.2970 -0.0979  0.0249
 8853SOL    HW138021   4.518   0.974  10.233 -0.8886  1.1400 -0.3269
 8853SOL    HW238022   4.572   1.008  10.380  0.6618  1.3822  0.4480
 8854SOL     OW38023   0.532   2.078   2.525 -0.3459  0.4328 -0.2364
 8854SOL    HW138024   0.545   2.071   2.431 -0.2957 -0.1068 -0.1918
 8854SOL    HW238025   0.475   2.001   2.523 -0.3349  0.4911 -2.5062
 8855SOL     OW38026   0.999   1.934   9.462 -0.0462  0.2282 -0.3854
 8855SOL    HW138027   0.956   2.020   9.462  0.4669  0.4831 -1.3265
 8855SOL    HW238028   1.061   1.946   9.534  1.6540 -2.7159 -1.3789
 8856SOL     OW38029   0.416   3.793   5.084  0.4045 -0.0012  0.5210
 8856SOL    HW138030   0.479   3.828   5.146  0.9048  0.0877 -0.0306
 8856SOL    HW238031   0.448   3.702   5.090  0.6779  0.0405 -0.1951
 8857SOL     OW38032   1.686   4.287  16.217  0.6475 -0.0678 -0.0730
 8857SOL    HW138033   1.660   4.207  16.262 -1.2362  0.9284  0.5969
 8857SOL    HW238034   1.770   4.254  16.184  0.1556 -0.9859 -0.4329
 8858SOL     OW38035   0.803   3.581  14.539 -0.2280 -0.0667  0.1454
 8858SOL    HW138036   0.754   3.662  14.525 -0.6121 -0.3724 -0.2479
 8858SOL    HW238037   0.790   3.538  14.455  2.8742  0.4117 -0.5997
 8859SOL     OW38038   3.059   3.876   7.907  0.1636  0.2286 -0.5191
 8859SOL    HW138039   3.095   3.962   7.883 -2.6349  0.8826 -2.4343
 8859SOL    HW238040   3.085   3.826   7.829 -0.4053 -0.5033 -0.2399
 8860SOL     OW38041   4.214   3.308   7.864  0.2875 -0.4843  0.6597
 8860SOL    HW138042   4.264   3.305   7.945 -0.0176  2.7681  0.9568
 8860SOL    HW238043   4.210   3.216   7.839 -0.8944 -0.3314  0.2596
 8861SOL     OW38044   0.382   1.349   9.396 -0.4370 -0.5164 -0.6017
 8861SOL    HW138045   0.464   1.352   9.347 -1.8348  0.4784 -2.8520
 8861SOL    HW238046   0.329   1.332   9.319  1.6688 -0.3910 -2.0660
 8862SOL     OW38047   2.606   4.445  11.199  0.3762 -0.1491 -0.1514
 8862SOL    HW138048   2.615   4.405  11.285 -0.3584 -2.2314 -1.0527
 8862SOL    HW238049   2.663   4.518  11.225 -1.8856  1.8543 -0.8274
 8863SOL     OW38050   3.348   4.094   2.317 -0.7581  0.4511 -0.0380
 8863SOL    HW138051   3.311   4.150   2.385 -0.8990  0.9188 -0.4943
 8863SOL    HW238052   3.276   4.055   2.268 -0.4437 -1.4776  1.0404
 8864SOL     OW38053   1.826   1.121   4.332 -0.6292  0.5426  0.5450
 8864SOL    HW138054   1.889   1.072   4.278  0.2670  1.2970  0.9006
 8864SOL    HW238055   1.818   1.194   4.270  1.8090 -0.5027 -0.9914
 8865SOL     OW38056   2.911   4.139   6.529  0.0815 -0.1564  0.4753
 8865SOL    HW138057   2.959   4.186   6.597 -1.2673  0.1664  1.2162
 8865SOL    HW238058   2.970   4.064   6.526  1.0341  0.7112 -2.4127
 8866SOL     OW38059   0.448   1.497   6.378 -0.3595  0.2591  0.0271
 8866SOL    HW138060   0.538   1.514   6.348  0.6086 -1.6941  1.8513
 8866SOL    HW238061   0.454   1.405   6.402 -0.8139 -0.3072 -2.0355
 8867SOL     OW38062   0.375   0.031  15.962 -0.1354 -0.7375 -0.2187
 8867SOL    HW138063   0.416   0.103  16.010 -1.6315 -0.1257  0.1463
 8867SOL    HW238064   0.452   4.700  15.933 -0.6830 -0.8191 -1.5115
 8868SOL     OW38065   1.146   2.042  16.695  0.2947 -0.2998 -0.0588
 8868SOL    HW138066   1.228   2.060  16.648 -0.9256 -1.3739 -2.6362
 8868SOL    HW238067   1.177   1.994  16.771  0.1760  0.9588  0.7906
 8869SOL     OW38068   4.330   3.435   4.384  0.5016  0.7962 -0.2239
 8869SOL    HW138069   4.301   3.438   4.475  1.1200 -0.3858  0.0033
 8869SOL    HW238070   4.244   3.434   4.341  0.7695  1.7562 -0.7807
 8870SOL     OW38071   2.952   1.870   6.735 -0.2761 -0.5049  0.6274
 8870SOL    HW138072   2.990   1.885   6.648  0.7373 -0.2950  1.1020
 8870SOL    HW238073   2.934   1.960   6.763 -0.2349  0.9231 -3.9204
 8871SOL     OW38074   1.642   0.775   1.947 -0.3306 -0.1711 -0.1436
 8871SOL    HW138075   1.682   0.825   1.875 -2.1747  0.8004 -0.4908
 8871SOL    HW238076   1.708   0.711   1.972  1.7187  2.2642  0.7095
 8872SOL     OW38077   0.664   1.981   9.432  0.3198 -0.1763  1.2284
 8872SOL    HW138078   0.676   2.014   9.342  2.1140  1.4989  2.0642
 8872SOL    HW238079   0.621   1.896   9.426  0.0333  0.1385 -1.1442
 8873SOL     OW38080   0.182   3.026   3.980 -0.1398  0.6214 -0.1390
 8873SOL    HW138081   0.095   3.033   3.939 -0.1784  1.1937  0.0433
 8873SOL    HW238082   0.187   3.118   4.004  1.4518  1.0896 -2.2842
 8874SOL     OW38083   1.621   2.744   3.255 -0.2287 -0.4993 -0.0627
 8874SOL    HW138084   1.608   2.798   3.332  0.4965 -1.0749  0.4627
 8874SOL    HW238085   1.714   2.725   3.264 -0.2247 -0.2134  0.5181
 8875SOL     OW38086   0.136   0.373   7.504 -0.3292  0.4161  0.1134
 8875SOL    HW138087   0.044   0.345   7.495 -0.1486 -0.4177  0.8036
 8875SOL    HW238088   0.152   0.358   7.597  1.1609 -1.6814 -0.4569
 8876SOL     OW38089   2.892   2.410   6.437 -0.1262  0.4115 -0.3647
 8876SOL    HW138090   2.960   2.474   6.413  0.4836  0.1996  0.7949
 8876SOL    HW238091   2.941   2.328   6.429  1.5582  1.6062 -2.1293
 8877SOL     OW38092   3.655   3.363   3.782  0.2380 -0.1438 -0.1081
 8877SOL    HW138093   3.598   3.439   3.789 -2.1385 -1.8174 -1.0913
 8877SOL    HW238094   3.639   3.334   3.692  0.9463  0.6638 -0.4855
 8878SOL     OW38095   2.684   3.083   2.592 -0.9711 -0.1051  0.2370
 8878SOL    HW138096   2.667   3.176   2.573 -0.4697 -0.0943 -0.1678
 8878SOL    HW238097   2.700   3.077   2.686 -0.2576  0.0807  0.1283
 8879SOL     OW38098   2.685   3.990  12.848 -0.3295 -0.2214  0.2914
 8879SOL    HW138099   2.643   4.075  12.830 -1.7376 -1.1249 -0.7310
 8879SOL    HW238100   2.727   3.992  12.762 -1.6517  0.2675 -0.3488
 8880SOL     OW38101   0.314   2.061   8.888 -0.7537 -0.2679  0.1294
 8880SOL    HW138102   0.278   2.022   8.809  1.3420 -1.7964 -0.0890
 8880SOL    HW238103   0.237   2.107   8.920  0.3748  2.9501 -1.7179
 8881SOL     OW38104   0.359   1.396   8.878 -0.0947 -0.0731 -0.1332
 8881SOL    HW138105   0.410   1.476   8.873 -1.1354  0.5336 -0.9395
 8881SOL    HW238106   0.271   1.434   8.877  0.3137  0.8924  0.7995
 8882SOL     OW38107   1.221   2.247   8.693 -0.1427 -0.0747  0.0388
 8882SOL    HW138108   1.231   2.152   8.697  0.0655 -0.0535  0.0574
 8882SOL    HW238109   1.189   2.249   8.603  2.1681 -1.3279 -0.8029
 8883SOL     OW38110   2.312   2.606   5.745  0.0560  0.6494 -0.2247
 8883SOL    HW138111   2.341   2.580   5.832  2.8751  2.5389 -0.5913
 8883SOL    HW238112   2.219   2.624   5.760 -0.9404 -3.1482 -1.8487
 8884SOL     OW38113   2.324   3.309  16.751 -0.5808 -0.2269 -0.8493
 8884SOL    HW138114   2.311   3.259  16.832 -1.4642 -2.1323 -2.1537
 8884SOL    HW238115   2.382   3.381  16.777 -0.5362 -0.9739  1.1518
 8885SOL     OW38116   3.421   2.089   0.414  0.4305 -0.1719 -0.3932
 8885SOL    HW138117   3.478   2.103   0.489 -0.3987 -1.8618  0.5609
 8885SOL    HW238118   3.475   2.113   0.338  1.5698  1.6649  1.0062
 8886SOL     OW38119   0.608   3.952   2.215 -0.1053  0.1864  0.1160
 8886SOL    HW138120   0.513   3.958   2.222 -0.1017 -0.5712  0.7779
 8886SOL    HW238121   0.621   3.863   2.248 -0.8524  0.4078  0.9904
 8887SOL     OW38122   2.437   2.460   4.284  0.2629  0.8259  0.6239
 8887SOL    HW138123   2.481   2.434   4.365  1.0986 -1.5945 -0.5880
 8887SOL    HW238124   2.395   2.544   4.300  0.9726  1.4125 -0.5552
 8888SOL     OW38125   3.469   1.153  15.736  0.6313 -0.2251 -0.5872
 8888SOL    HW138126   3.423   1.093  15.678  2.4486 -1.9986 -0.2011
 8888SOL    HW238127   3.438   1.240  15.710  0.1408 -0.0500  0.5932
 8889SOL     OW38128   3.341   4.185  11.081 -0.8084 -0.6572  0.2323
 8889SOL    HW138129   3.351   4.089  11.080 -2.0339 -0.7888 -1.5499
 8889SOL    HW238130   3.372   4.202  10.992 -1.7521 -2.1571 -0.4109
 8890SOL     OW38131   1.357   2.009  15.218  0.2150  0.5144  0.1216
 8890SOL    HW138132   1.338   1.947  15.148  2.4719  2.2116 -1.9878
 8890SOL    HW238133   1.408   2.074  15.170  0.0234  0.1511 -0.5607
 8891SOL     OW38134   2.069   3.758   7.078  0.8563 -0.2883 -0.0949
 8891SOL    HW138135   2.153   3.774   7.122  0.5061 -0.7450  0.7402
 8891SOL    HW238136   2.032   3.685   7.127  2.4869 -1.4930 -0.6706
 8892SOL     OW38137   0.805   2.846  12.933  0.5850  0.1176 -0.1851
 8892SOL    HW138138   0.742   2.776  12.920 -0.0803  1.1253 -2.3945
 8892SOL    HW238139   0.885   2.800  12.960 -0.9384 -2.3475  0.1133
 8893SOL     OW38140   3.772   2.831   7.488 -0.2001 -0.0264  0.3467
 8893SOL    HW138141   3.734   2.792   7.567 -1.2898  0.9399  0.2867
 8893SOL    HW238142   3.734   2.918   7.493  4.8577  2.0417  2.6600
 8894SOL     OW38143   0.830   2.752   6.010  0.7925  0.2628  0.1421
 8894SOL    HW138144   0.773   2.675   6.008  0.9016  0.2062 -0.6488
 8894SOL    HW238145   0.889   2.732   5.938 -1.5178  1.8924 -2.1913
 8895SOL     OW38146   3.996   1.891   1.679  0.0889 -0.2029 -0.1379
 8895SOL    HW138147   3.924   1.944   1.644 -0.4513  0.1507  1.4950
 8895SOL    HW238148   4.015   1.932   1.763 -0.5195 -0.3637  0.0723
 8896SOL     OW38149   2.757   4.365   9.374 -0.2002  0.5343  0.0845
 8896SOL    HW138150   2.738   4.341   9.465  0.1144 -0.1249 -0.0202
 8896SOL    HW238151   2.707   4.443   9.350 -0.0345  0.8613  0.8180
 8897SOL     OW38152   1.703   3.375   2.103 -0.0004 -0.3379  0.1339
 8897SOL    HW138153   1.751   3.371   2.186 -0.8288  0.7194  0.6758
 8897SOL    HW238154   1.624   3.325   2.122 -2.1650  3.6659  1.8041
 8898SOL     OW38155   2.158   0.251  14.237  0.3087 -0.2421 -0.0046
 8898SOL    HW138156   2.105   0.287  14.309 -1.0689 -2.4249  0.0718
 8898SOL    HW238157   2.204   0.331  14.210  0.1641 -0.3886 -0.6810
 8899SOL     OW38158   0.879   3.906   6.896  0.2718  0.1423 -0.0260
 8899SOL    HW138159   0.833   3.957   6.963  1.2366  1.6326 -0.4999
 8899SOL    HW238160   0.955   3.877   6.946  0.2157  1.4955  0.8365
 8900SOL     OW38161   0.105   3.587  17.662  0.3785  0.7584  0.0654
 8900SOL    HW138162   0.183   3.539  17.635 -1.5112 -2.7176  0.8075
 8900SOL    HW238163   0.128   3.673  17.626  1.0031  0.4610 -0.2578
 8901SOL     OW38164   2.584   2.855  13.400  0.3278 -0.1061 -0.1835
 8901SOL    HW138165   2.639   2.779  13.418  0.9901  0.2774 -0.5978
 8901SOL    HW238166   2.650   2.917  13.369 -0.7455  0.1241 -1.9702
 8902SOL     OW38167   1.223   1.409   6.726 -0.0588 -0.2921  0.0956
 8902SOL    HW138168   1.289   1.360   6.676 -0.4674  0.0938 -0.8279
 8902SOL    HW238169   1.140   1.406   6.678 -0.4362  0.2178  0.7137
 8903SOL     OW38170   0.905   3.546   6.437  0.0590  0.5068 -0.1813
 8903SOL    HW138171   0.897   3.564   6.531  2.4146 -0.6166  0.2428
 8903SOL    HW238172   0.974   3.481   6.428 -0.6157 -0.5025  2.0261
 8904SOL     OW38173   1.451   4.349   7.450 -0.1358  0.1137 -0.1712
 8904SOL    HW138174   1.416   4.297   7.521  2.3921 -1.1629  0.1281
 8904SOL    HW238175   1.544   4.328   7.450 -0.5684 -1.8693 -2.3460
 8905SOL     OW38176   4.402   4.369   3.902 -0.0173 -0.2788 -0.2913
 8905SOL    HW138177   4.411   4.413   3.817  0.9359  0.0588 -0.0114
 8905SOL    HW238178   4.309   4.376   3.924 -0.0389  0.7148 -0.6727
 8906SOL     OW38179   1.093   4.251   1.167 -0.3082  0.2269 -0.0097
 8906SOL    HW138180   1.145   4.250   1.087  1.2223 -0.4717  0.9770
 8906SOL    HW238181   1.150   4.202   1.227 -1.7685  0.5452  1.6210
 8907SOL     OW38182   3.277   2.478   9.881 -0.0873 -0.0410  0.1763
 8907SOL    HW138183   3.250   2.450   9.794 -1.2276 -0.9966  0.8389
 8907SOL    HW238184   3.224   2.557   9.894 -0.9301 -0.7814  1.2779
 8908SOL     OW38185   4.005   2.944  15.251 -0.0079 -0.0233 -0.4725
 8908SOL    HW138186   4.012   3.003  15.326  1.0007  0.9975 -1.3740
 8908SOL    HW238187   3.973   2.998  15.178  2.2310 -0.2352 -1.5991
 8909SOL     OW38188   0.813   3.403   5.356  0.4237 -0.1389 -0.2300
 8909SOL    HW138189   0.792   3.337   5.423  1.3085 -0.3911 -0.2008
 8909SOL    HW238190   0.902   3.379   5.331  0.3999 -4.0591  3.4161
 8910SOL     OW38191   2.242   3.636   3.422  0.4938  0.4236  0.2832
 8910SOL    HW138192   2.178   3.632   3.493  0.8354 -0.9685  0.5168
 8910SOL    HW238193   2.207   3.698   3.358 -0.5722 -2.5097 -1.9560
 8911SOL     OW38194   0.231   3.807  13.185  0.1794 -0.5161 -0.0444
 8911SOL    HW138195   0.280   3.805  13.103 -0.1528 -0.6159 -0.2401
 8911SOL    HW238196   0.154   3.754  13.164  0.7060 -1.1296 -0.4401
 8912SOL     OW38197   1.349   3.481   1.941  0.3865  0.0951 -0.1703
 8912SOL    HW138198   1.372   3.572   1.955  0.0087  0.2868 -0.7652
 8912SOL    HW238199   1.314   3.453   2.025  2.4361 -1.5208  0.1448
 8913SOL     OW38200   1.073   1.757  10.534  0.1353  0.1926 -0.9240
 8913SOL    HW138201   1.122   1.747  10.615 -1.2802 -1.7304 -0.3065
 8913SOL    HW238202   0.998   1.701  10.555  2.2763 -2.2726  0.1637
 8914SOL     OW38203   3.496   1.443   6.834 -0.6515 -0.2050 -0.3712
 8914SOL    HW138204   3.585   1.453   6.800 -1.6622  1.1020 -2.5665
 8914SOL    HW238205   3.457   1.367   6.792  1.8139 -1.5951 -0.1763
 8915SOL     OW38206   3.761   4.064   7.080 -0.2332  0.4011 -0.2662
 8915SOL    HW138207   3.777   4.081   7.173  0.2111 -0.4373 -0.1904
 8915SOL    HW238208   3.717   4.147   7.060  0.9310  1.1237  0.1426
 8916SOL     OW38209   3.705   0.612   7.737  0.7550  0.4841  0.0908
 8916SOL    HW138210   3.634   0.651   7.788  1.1638 -1.3892  2.0776
 8916SOL    HW238211   3.703   0.646   7.648  0.3824 -0.2780 -0.1922
 8917SOL     OW38212   3.462   3.882   6.090 -0.1261 -1.0851  0.0731
 8917SOL    HW138213   3.553   3.861   6.109  0.1722 -0.0138 -0.1526
 8917SOL    HW238214   3.420   3.847   6.169  0.6063 -2.0558  0.0349
 8918SOL     OW38215   3.599   2.000   4.494  0.2785 -0.3188  0.1107
 8918SOL    HW138216   3.670   1.949   4.534 -0.5236 -1.1154  0.5352
 8918SOL    HW238217   3.565   2.040   4.574 -1.9944 -1.3305 -0.3318
 8919SOL     OW38218   4.495   2.091   5.628  0.7776 -0.0469 -0.3627
 8919SOL    HW138219   4.515   2.182   5.607  0.5547  0.2815  0.8234
 8919SOL    HW238220   4.505   2.091   5.723 -1.1277  0.9304 -0.1499
 8920SOL     OW38221   0.271   2.348  11.004 -0.2572 -0.4091  0.6377
 8920SOL    HW138222   0.199   2.406  11.029  0.1325  0.2062  0.3130
 8920SOL    HW238223   0.304   2.325  11.091 -0.3097  1.4804  1.1468
 8921SOL     OW38224   0.500   3.403   2.452 -0.0540  0.3748  0.5586
 8921SOL    HW138225   0.436   3.332   2.444 -1.1870  1.5793 -1.4150
 8921SOL    HW238226   0.578   3.371   2.408  0.6161  1.9017  0.6482
 8922SOL     OW38227   0.062   0.537   2.554 -0.3400 -0.0084  0.0908
 8922SOL    HW138228   0.134   0.593   2.583 -2.1537  2.1499  0.4452
 8922SOL    HW238229   4.706   0.597   2.561 -0.3796  0.1119 -1.3706
 8923SOL     OW38230   1.149   0.626  11.652 -0.3450  0.3901  0.2967
 8923SOL    HW138231   1.137   0.621  11.557 -0.6924  0.8200  0.3160
 8923SOL    HW238232   1.062   0.662  11.669 -0.8815 -1.0817  0.6250
 8924SOL     OW38233   0.400   4.661   5.375  0.1883 -0.5376  0.2542
 8924SOL    HW138234   0.472   4.707   5.418 -0.8896  0.7656  0.6858
 8924SOL    HW238235   0.331   4.677   5.439  0.2175 -0.8429  0.3596
 8925SOL     OW38236   1.617   1.830   8.301 -0.1355 -0.5751 -0.4760
 8925SOL    HW138237   1.612   1.760   8.366  0.7466  1.1640  1.4728
 8925SOL    HW238238   1.711   1.845   8.304 -0.0080 -1.7210  1.2189
 8926SOL     OW38239   2.377   3.119   5.026 -0.3292  0.3171 -0.3506
 8926SOL    HW138240   2.448   3.059   5.048  0.2250  0.5314 -1.5292
 8926SOL    HW238241   2.332   3.072   4.956 -1.8529  0.3737  0.6059
 8927SOL     OW38242   2.601   3.489   1.598 -0.2243  0.4642 -0.0692
 8927SOL    HW138243   2.546   3.416   1.627  0.0029  0.7837  1.1570
 8927SOL    HW238244   2.665   3.502   1.668  0.3672  1.8620 -0.8821
 8928SOL     OW38245   2.315   3.234   5.700 -0.2050 -0.6356  0.3153
 8928SOL    HW138246   2.244   3.205   5.642  0.0430  0.0145 -0.3167
 8928SOL    HW238247   2.393   3.238   5.643 -1.0233 -0.7698 -0.8148
 8929SOL     OW38248   1.167   4.618   9.712 -0.6237 -0.1175 -0.2205
 8929SOL    HW138249   1.245   4.632   9.764 -0.7570 -0.4719  0.0782
 8929SOL    HW238250   1.195   4.545   9.657 -0.6914 -0.4020  0.1180
 8930SOL     OW38251   3.123   3.933   7.042 -0.3269  0.0898  0.3577
 8930SOL    HW138252   3.089   3.844   7.040  1.5339 -0.5258 -3.5507
 8930SOL    HW238253   3.047   3.983   7.074 -0.7055 -1.0699  1.2846
 8931SOL     OW38254   3.819   3.516  15.322 -0.1242  0.1592 -0.7121
 8931SOL    HW138255   3.886   3.522  15.390 -0.6144  0.7548 -0.2831
 8931SOL    HW238256   3.860   3.465  15.253 -0.9080 -0.9382 -0.3662
 8932SOL     OW38257   0.973   0.863   4.301 -0.4125  0.2350 -0.1517
 8932SOL    HW138258   0.881   0.846   4.278 -0.0639 -0.9449 -0.6402
 8932SOL    HW238259   1.017   0.781   4.281 -1.0919 -0.8799  3.0430
 8933SOL     OW38260   3.859   1.523   6.416  0.4104  0.1243 -0.6562
 8933SOL    HW138261   3.949   1.552   6.400 -0.1454  1.3432 -1.5544
 8933SOL    HW238262   3.863   1.434   6.381 -2.2882 -1.5166  3.2397
 8934SOL     OW38263   4.332   2.328   4.408 -0.0045 -0.0085  0.4790
 8934SOL    HW138264   4.421   2.331   4.372  0.8614  0.5540  2.6466
 8934SOL    HW238265   4.308   2.237   4.392 -0.4930  0.0573  0.8220
 8935SOL     OW38266   2.881   4.455   3.427  0.2520  0.3864 -0.4152
 8935SOL    HW138267   2.869   4.360   3.421 -0.0778  0.3992  0.0593
 8935SOL    HW238268   2.788   4.476   3.434  0.2153 -0.2889  1.1437
 8936SOL     OW38269   1.549   3.819   9.127 -0.0790 -0.3961  0.2454
 8936SOL    HW138270   1.546   3.829   9.032  2.7722 -1.2415  0.0694
 8936SOL    HW238271   1.642   3.829   9.149  0.4606 -0.0251 -2.2743
 8937SOL     OW38272   0.874   1.104   0.138  0.6712  0.1410  0.5430
 8937SOL    HW138273   0.948   1.079   0.082 -1.5515 -1.6803 -1.6370
 8937SOL    HW238274   0.867   1.197   0.118  0.4913 -0.4347 -2.0833
 8938SOL     OW38275   3.380   3.921   7.201 -0.7693  0.7861  0.7099
 8938SOL    HW138276   3.396   3.841   7.151 -0.5494  1.2235  0.0864
 8938SOL    HW238277   3.294   3.950   7.171 -0.5282  0.5153 -0.2553
 8939SOL     OW38278   3.905   1.588  13.446 -0.3398 -0.3016  0.2602
 8939SOL    HW138279   3.815   1.556  13.447 -0.3316 -0.4231 -2.5391
 8939SOL    HW238280   3.932   1.538  13.523  0.5386 -0.4751 -0.1589
 8940SOL     OW38281   1.245   2.333  15.558 -0.1104 -0.7747 -0.0083
 8940SOL    HW138282   1.187   2.288  15.620 -0.5640  0.3460  0.3843
 8940SOL    HW238283   1.262   2.271  15.488  1.6763 -0.4633  0.1325
 8941SOL     OW38284   0.606   3.326  11.004 -0.5670  0.4836 -0.4911
 8941SOL    HW138285   0.670   3.270  11.049 -1.1804  0.7127  0.6721
 8941SOL    HW238286   0.525   3.275  10.999  0.1823 -1.0235  2.8436
 8942SOL     OW38287   2.979   0.155  16.361  0.4594  0.8810 -0.0676
 8942SOL    HW138288   2.954   0.066  16.337  2.7313 -0.0619  1.0300
 8942SOL    HW238289   3.072   0.132  16.361  0.6326  1.5993 -0.3814
 8943SOL     OW38290   2.738   0.175  10.580  0.1726  0.1256  0.1521
 8943SOL    HW138291   2.770   0.146  10.666 -0.2332  2.1898  0.9924
 8943SOL    HW238292   2.801   0.245  10.564  0.2231 -0.5214 -2.4714
 8944SOL     OW38293   2.807   3.917   4.267 -0.3762  0.2277  0.0785
 8944SOL    HW138294   2.803   3.849   4.200  1.6739 -0.1663  0.3655
 8944SOL    HW238295   2.877   3.886   4.325  0.0665 -0.2100 -0.6949
 8945SOL     OW38296   3.633   0.244  16.285  0.1166  0.4836  0.3336
 8945SOL    HW138297   3.670   0.331  16.278  1.2392 -0.0931 -0.8409
 8945SOL    HW238298   3.542   0.268  16.264  0.4688 -0.1469 -1.9005
 8946SOL     OW38299   1.002   1.334   8.536 -1.0115  0.4326  0.7609
 8946SOL    HW138300   0.971   1.313   8.448  0.4482 -0.1007  0.3732
 8946SOL    HW238301   1.029   1.426   8.538 -1.0205  0.4393  0.5943
 8947SOL     OW38302   3.290   3.104   3.976 -0.4634  0.3686 -0.5637
 8947SOL    HW138303   3.374   3.103   3.931  0.6879 -0.0093  1.6336
 8947SOL    HW238304   3.223   3.088   3.909  1.8348  0.6504 -2.9118
 8948SOL     OW38305   3.230   3.725   9.154  0.2072  1.0408  0.2285
 8948SOL    HW138306   3.274   3.722   9.239  4.1661 -1.0766 -1.8877
 8948SOL    HW238307   3.227   3.821   9.148 -0.5973  0.9672 -0.6613
 8949SOL     OW38308   1.613   3.026   5.171 -0.3055  0.2249  0.1441
 8949SOL    HW138309   1.578   3.009   5.083  1.0694 -1.5170 -0.0815
 8949SOL    HW238310   1.698   3.063   5.150 -1.0871  2.2531  0.6047
 8950SOL     OW38311   0.864   2.438   7.731  0.3003 -1.1330  0.1183
 8950SOL    HW138312   0.839   2.368   7.792  0.3373 -0.6115  0.7247
 8950SOL    HW238313   0.934   2.477   7.784 -1.2577  1.8431 -0.0088
 8951SOL     OW38314   3.329   0.452   9.209 -0.5025 -0.3772 -0.0301
 8951SOL    HW138315   3.367   0.366   9.194 -2.4859 -1.0133 -1.4737
 8951SOL    HW238316   3.275   0.432   9.285 -0.2200  0.0972  0.2942
 8952SOL     OW38317   0.203   2.425   3.920  0.0723 -0.6997  1.2071
 8952SOL    HW138318   0.128   2.474   3.887  0.8861  0.7053  1.4245
 8952SOL    HW238319   0.193   2.348   3.864  0.9133  0.3103 -0.3203
 8953SOL     OW38320   1.209   4.504  10.051  0.5796  0.4047 -0.3203
 8953SOL    HW138321   1.259   4.426  10.075 -1.6401 -0.9424 -0.0865
 8953SOL    HW238322   1.276   4.555  10.005 -2.3000  1.9715 -2.7326
 8954SOL     OW38323   3.473   2.984   8.611 -0.0285 -0.1558  0.2744
 8954SOL    HW138324   3.552   3.004   8.662  0.5871  3.3194 -2.0255
 8954SOL    HW238325   3.492   3.026   8.527 -3.6089  0.3269 -0.3029
 8955SOL     OW38326   2.067   1.027   0.539 -0.1373  0.1022  0.1236
 8955SOL    HW138327   2.063   1.053   0.447 -2.7606 -0.2099  0.1498
 8955SOL    HW238328   1.985   0.978   0.540  0.8840 -1.7160 -2.1099
 8956SOL     OW38329   4.459   3.207   4.322  0.1013  0.0944 -0.2240
 8956SOL    HW138330   4.411   3.289   4.332 -0.0014  0.2715 -2.1248
 8956SOL    HW238331   4.398   3.165   4.261  0.2532  1.9226 -1.6311
 8957SOL     OW38332   1.406   4.017   7.233 -0.0151  0.3192 -0.0437
 8957SOL    HW138333   1.486   3.972   7.259  0.8803  0.4104 -2.6438
 8957SOL    HW238334   1.345   3.965   7.284 -0.6732  0.9555 -0.1785
 8958SOL     OW38335   0.545   2.615  10.946  0.3114 -0.1048  0.1274
 8958SOL    HW138336   0.503   2.557  10.881  0.2102 -0.4587  0.5080
 8958SOL    HW238337   0.632   2.635  10.911  0.1392  0.3158 -0.0560
 8959SOL     OW38338   1.004   3.822   9.580 -0.3571 -0.1323 -0.0310
 8959SOL    HW138339   1.089   3.860   9.558 -0.7334  1.6023  1.4590
 8959SOL    HW238340   1.035   3.735   9.606 -1.5772 -0.3615  0.6533
 8960SOL     OW38341   2.080   1.694   3.143  0.6145 -0.3843  0.4959
 8960SOL    HW138342   2.042   1.648   3.218 -1.1837 -0.4583 -0.4823
 8960SOL    HW238343   2.009   1.728   3.090 -0.9903  0.0205  2.8990
 8961SOL     OW38344   1.182   0.363   6.053  0.0612 -0.5780 -0.2836
 8961SOL    HW138345   1.270   0.386   6.084  0.5926 -0.2394 -1.9898
 8961SOL    HW238346   1.200   0.286   5.999  3.6062  0.3962 -0.5343
 8962SOL     OW38347   3.971   4.102   5.879  0.0884  0.0721  0.2638
 8962SOL    HW138348   3.938   4.152   5.805 -0.8049  0.2464  0.7849
 8962SOL    HW238349   3.916   4.024   5.872  0.2544  0.2524 -3.3187
 8963SOL     OW38350   3.535   0.804   4.393 -0.2816 -0.2548 -0.1302
 8963SOL    HW138351   3.462   0.828   4.335  0.8849 -2.1476 -2.4044
 8963SOL    HW238352   3.562   0.892   4.421  0.3930 -0.7068  0.6057
 8964SOL     OW38353   3.394   4.523   6.833  0.3737  0.2698  0.5041
 8964SOL    HW138354   3.479   4.562   6.852  0.3016  0.5952  0.1624
 8964SOL    HW238355   3.361   4.584   6.767  0.4286  0.9962  1.1592
 8965SOL     OW38356   2.813   2.071   2.502  0.0621 -0.1808  0.4629
 8965SOL    HW138357   2.813   2.139   2.435 -1.5308 -0.3106  0.3355
 8965SOL    HW238358   2.907   2.051   2.497 -0.0978 -1.2799  1.9289
 8966SOL     OW38359   0.328   0.229  10.245 -0.9461  0.3473 -0.0339
 8966SOL    HW138360   0.422   0.215  10.245 -1.1775 -1.2256  0.1017
 8966SOL    HW238361   0.303   0.141  10.272  0.7324 -0.1005  0.0439
 8967SOL     OW38362   1.246   0.020  16.580  0.2456 -0.0308 -0.2920
 8967SOL    HW138363   1.186   0.094  16.588  1.3236  1.0285 -1.9221
 8967SOL    HW238364   1.262   0.012  16.485  1.9156  0.2195 -0.0414
 8968SOL     OW38365   1.519   0.411   6.835  0.3328  0.6609  0.2659
 8968SOL    HW138366   1.523   0.320   6.807  0.4087  0.9652 -0.6857
 8968SOL    HW238367   1.609   0.436   6.852  0.1909  1.1509  0.3038
 8969SOL     OW38368   4.637   0.303  12.110  0.4634  0.2282  0.1650
 8969SOL    HW138369   4.704   0.371  12.100 -0.8770  1.4747 -0.3323
 8969SOL    HW238370   4.622   0.310  12.204 -1.5493  3.3317 -0.3883
 8970SOL     OW38371   2.484   0.969   8.511 -0.3933 -0.3368 -0.0163
 8970SOL    HW138372   2.526   1.040   8.463  0.0868  0.0441  0.9726
 8970SOL    HW238373   2.475   0.918   8.430 -2.2443  1.7430 -1.0981
 8971SOL     OW38374   4.559   4.061   7.183 -0.1827  0.8151  0.1203
 8971SOL    HW138375   4.648   4.096   7.172  0.1330 -0.1513 -0.4329
 8971SOL    HW238376   4.532   4.097   7.267 -4.0425  2.3097 -1.7475
 8972SOL     OW38377   3.414   3.767   2.074  0.3420 -0.1233  0.3691
 8972SOL    HW138378   3.460   3.835   2.025  0.3747 -1.0364 -0.8487
 8972SOL    HW238379   3.478   3.745   2.141 -0.6632 -0.7877  1.1131
 8973SOL     OW38380   1.479   3.237   3.800  0.0195 -0.0011 -0.0972
 8973SOL    HW138381   1.549   3.229   3.735  0.7828 -1.1702  0.8651
 8973SOL    HW238382   1.447   3.326   3.782 -1.2324 -0.3206  0.5242
 8974SOL     OW38383   1.907   3.334  12.476 -0.4907  0.0448 -0.2937
 8974SOL    HW138384   1.886   3.371  12.562  1.7849  1.7985 -0.4844
 8974SOL    HW238385   1.986   3.386  12.463  0.6565 -1.0290  2.5075
 8975SOL     OW38386   0.868   2.677  10.129 -0.3405 -0.1194  0.3353
 8975SOL    HW138387   0.888   2.767  10.156  1.5440 -0.1256 -1.1098
 8975SOL    HW238388   0.944   2.626  10.155 -1.0118 -0.0058  2.5984
 8976SOL     OW38389   2.249   2.985   7.292  0.0250  0.6387  0.7014
 8976SOL    HW138390   2.186   3.040   7.338 -1.2024  1.5705 -2.1192
 8976SOL    HW238391   2.320   2.967   7.354  0.1448  1.1105  0.6981
 8977SOL     OW38392   2.085   1.347   7.495 -0.4657 -0.2654 -0.1529
 8977SOL    HW138393   2.009   1.299   7.460  0.2056  0.0176 -2.0121
 8977SOL    HW238394   2.035   1.414   7.540 -0.5489 -0.5378  0.1581
 8978SOL     OW38395   2.115   4.572   5.072 -0.3804 -0.3997 -0.4946
 8978SOL    HW138396   2.209   4.560   5.062 -0.4655 -1.8787  0.4910
 8978SOL    HW238397   2.104   4.667   5.069 -1.5524 -0.6646 -4.8293
 8979SOL     OW38398   0.918   4.598   4.530  0.0245  1.1003 -0.0280
 8979SOL    HW138399   0.862   4.637   4.463 -0.9924 -0.1453  0.0769
 8979SOL    HW238400   0.964   4.537   4.473  0.0474  0.3133  0.8183
 8980SOL     OW38401   0.916   2.968   1.021 -0.5590 -0.1945 -0.1334
 8980SOL    HW138402   0.996   2.962   1.073 -2.3708 -1.5420  2.5024
 8980SOL    HW238403   0.888   3.058   1.037 -0.8973 -0.4587  0.7460
 8981SOL     OW38404   1.050   0.599   6.069  0.1808 -0.0922 -0.0291
 8981SOL    HW138405   1.081   0.508   6.067  0.2457 -0.0652 -0.2761
 8981SOL    HW238406   0.956   0.583   6.074  0.4185 -2.0718 -1.7347
 8982SOL     OW38407   0.684   0.609   5.286  0.0501  0.1975  0.2137
 8982SOL    HW138408   0.619   0.604   5.216  0.7630 -2.9269 -0.2361
 8982SOL    HW238409   0.685   0.517   5.314  3.5855  0.6625  1.5988
 8983SOL     OW38410   0.728   1.965  14.376  0.2465  0.4695  0.0128
 8983SOL    HW138411   0.711   1.874  14.352 -1.2784  0.9797 -0.8287
 8983SOL    HW238412   0.798   1.983  14.312  2.1422 -0.0857  1.9433
 8984SOL     OW38413   2.284   1.139   8.092 -0.4382  0.0092 -0.2086
 8984SOL    HW138414   2.206   1.172   8.138 -0.7056 -1.7339  0.5972
 8984SOL    HW238415   2.360   1.188   8.121 -0.7167  0.6237 -0.4962
 8985SOL     OW38416   2.976   3.980  13.889  0.1243 -0.0007  0.1976
 8985SOL    HW138417   3.070   3.964  13.890 -0.1143 -1.3340  0.5800
 8985SOL    HW238418   2.951   3.964  13.798 -2.0323 -0.1910  0.8338
 8986SOL     OW38419   3.106   4.324  11.097  0.0343 -0.3396  0.0009
 8986SOL    HW138420   3.063   4.245  11.130 -0.8588  0.2112  0.1614
 8986SOL    HW238421   3.194   4.289  11.084 -0.2878 -0.7789 -0.9912
 8987SOL     OW38422   1.285   3.767   7.292 -0.0623  0.5177  0.1787
 8987SOL    HW138423   1.330   3.746   7.374 -1.6566  0.1105  0.9482
 8987SOL    HW238424   1.198   3.727   7.294 -0.9525  2.3643 -1.8683
 8988SOL     OW38425   2.761   3.516   1.859 -0.4927 -0.2337  0.3838
 8988SOL    HW138426   2.749   3.483   1.948 -1.6368 -0.1445  0.2624
 8988SOL    HW238427   2.832   3.578   1.878 -0.3039  0.2485 -1.9596
 8989SOL     OW38428   0.611   2.927   0.250 -0.0194  0.3566 -0.3092
 8989SOL    HW138429   0.637   2.905   0.340  0.8060 -0.0258 -0.6444
 8989SOL    HW238430   0.585   2.840   0.221  2.9332 -0.0386 -1.7289
 8990SOL     OW38431   4.301   1.357   7.733 -0.2435 -0.2810  0.0549
 8990SOL    HW138432   4.257   1.311   7.805 -0.4861 -2.1612 -1.2898
 8990SOL    HW238433   4.246   1.324   7.662  0.5562 -1.4660 -0.0228
 8991SOL     OW38434   0.729   2.112  14.620  0.0220  0.0411  0.3045
 8991SOL    HW138435   0.726   2.076  14.531 -0.9690  1.2143 -0.1334
 8991SOL    HW238436   0.641   2.082  14.642  0.8262 -2.0988  0.5711
 8992SOL     OW38437   3.483   3.675   4.338  0.0014 -0.2844  1.0491
 8992SOL    HW138438   3.441   3.667   4.423 -0.8204  0.3729  0.7102
 8992SOL    HW238439   3.408   3.668   4.279 -1.2847  0.4911  2.5915
 8993SOL     OW38440   1.396   3.869  10.079 -0.1242  0.0514 -0.6541
 8993SOL    HW138441   1.311   3.894  10.043 -0.1855  0.1492 -0.4404
 8993SOL    HW238442   1.455   3.889  10.006  0.7279  1.9990  0.5730
 8994SOL     OW38443   0.592   1.173   2.430 -0.1346 -0.3948  0.0281
 8994SOL    HW138444   0.552   1.087   2.416 -1.9767  0.0940  2.2696
 8994SOL    HW238445   0.660   1.169   2.363 -2.3784 -0.3676 -2.2278
 8995SOL     OW38446   1.359   4.233  10.739  0.2111 -0.7533 -0.4365
 8995SOL    HW138447   1.266   4.215  10.750  0.2223 -0.4311  0.2024
 8995SOL    HW238448   1.385   4.141  10.730 -0.7633 -0.7617 -3.0219
 8996SOL     OW38449   3.289   4.582   3.174  0.2566  0.0200  0.0428
 8996SOL    HW138450   3.242   4.604   3.254  2.2787  0.4564  1.0829
 8996SOL    HW238451   3.215   4.595   3.114 -0.0384 -0.0203  0.4009
 8997SOL     OW38452   1.419   3.247   7.732  0.5371  0.2542 -0.4489
 8997SOL    HW138453   1.425   3.188   7.807  2.6269 -0.2407 -0.9920
 8997SOL    HW238454   1.496   3.226   7.679  0.8312  1.0773 -0.3495
 8998SOL     OW38455   2.597   1.790  13.780 -0.2443 -0.2449 -0.1443
 8998SOL    HW138456   2.616   1.705  13.821 -0.6191  0.4817  1.5462
 8998SOL    HW238457   2.684   1.827  13.780 -0.5644  0.4963  0.7009
 8999SOL     OW38458   3.735   0.575   2.493  0.1709  0.2277 -0.7001
 8999SOL    HW138459   3.664   0.639   2.487 -1.1925 -0.9772  2.5760
 8999SOL    HW238460   3.752   0.579   2.588  1.1128  1.9837 -0.9380
 9000SOL     OW38461   0.463   0.831  13.225 -0.4841 -0.8131 -0.5957
 9000SOL    HW138462   0.535   0.862  13.280 -1.0743  0.5344 -0.5897
 9000SOL    HW238463   0.406   0.907  13.235  1.1955  0.3306  0.4105
 9001SOL     OW38464   3.148   3.066   0.182  0.0959 -0.0140 -0.3034
 9001SOL    HW138465   3.201   3.014   0.242 -1.0362 -0.7648  0.0605
 9001SOL    HW238466   3.174   3.156   0.200 -3.0027  0.6666  0.7353
 9002SOL     OW38467   1.718   0.217   1.575  0.3426  0.0759  0.7605
 9002SOL    HW138468   1.769   0.298   1.586 -0.1887  0.4663  0.3823
 9002SOL    HW238469   1.751   0.202   1.486  0.9659  0.0916  0.9849
 9003SOL     OW38470   3.415   4.038   3.977 -0.1169 -0.5049  0.0807
 9003SOL    HW138471   3.320   4.024   3.975 -0.4211  1.4602  1.0659
 9003SOL    HW238472   3.434   4.010   3.887 -1.4086  3.8225 -1.5353
 9004SOL     OW38473   0.182   3.852   4.127 -0.2108 -0.0467  0.4292
 9004SOL    HW138474   0.181   3.769   4.174 -1.1503  0.4791  1.3323
 9004SOL    HW238475   0.240   3.827   4.055  0.0825 -0.6345  0.8727
 9005SOL     OW38476   3.291   0.290  16.003 -0.2795  0.1337 -0.2527
 9005SOL    HW138477   3.380   0.307  15.973  0.6238 -0.1525  2.2966
 9005SOL    HW238478   3.303   0.201  16.035 -0.9135  0.5507  1.1086
 9006SOL     OW38479   2.555   1.390   3.244  0.0683  0.3109 -0.1336
 9006SOL    HW138480   2.516   1.460   3.193  3.3037  0.7021 -2.1138
 9006SOL    HW238481   2.593   1.437   3.319  0.5243  0.5102 -0.4945
 9007SOL     OW38482   0.733   0.097   1.881  0.4719  0.0192  0.1973
 9007SOL    HW138483   0.765   0.063   1.965  0.7941 -0.4021 -0.0977
 9007SOL    HW238484   0.645   0.130   1.900  0.9371  0.2446  2.0063
 9008SOL     OW38485   1.588   3.797   4.583  0.0774 -0.1626 -0.7728
 9008SOL    HW138486   1.555   3.709   4.603  0.4866 -0.4293 -1.2640
 9008SOL    HW238487   1.672   3.777   4.543  0.3922  0.2313 -0.3011
 9009SOL     OW38488   1.874   3.415  14.279 -0.0949 -0.1651  0.1175
 9009SOL    HW138489   1.914   3.332  14.305  0.1840  0.0273  0.3006
 9009SOL    HW238490   1.803   3.428  14.342 -0.5501  0.0239 -0.4387
 9010SOL     OW38491   4.480   4.539  10.021  0.9017 -0.7391 -0.5372
 9010SOL    HW138492   4.459   4.474  10.087  1.2608  0.9201  1.2203
 9010SOL    HW238493   4.399   4.528   9.971 -0.6253 -0.7032  1.9013
 9011SOL     OW38494   0.090   0.877   5.694  0.4033  0.2284 -0.2641
 9011SOL    HW138495   0.052   0.797   5.659  0.2620 -0.4361  1.4300
 9011SOL    HW238496   0.008   0.900   5.739  1.1247  2.8771 -0.2958
 9012SOL     OW38497   2.382   4.463   4.564  0.1727  1.1280 -0.2004
 9012SOL    HW138498   2.456   4.517   4.594  1.5156 -1.2304  0.6968
 9012SOL    HW238499   2.395   4.377   4.602  1.3563  0.8792 -1.1650
 9013SOL     OW38500   0.552   3.764   6.566  0.0458 -0.0704 -0.0560
 9013SOL    HW138501   0.639   3.805   6.569 -0.5943  1.3928 -2.1824
 9013SOL    HW238502   0.520   3.789   6.653 -0.5413 -0.4682 -0.1634
 9014SOL     OW38503   0.305   1.705   0.845  0.0987  0.2921  0.0129
 9014SOL    HW138504   0.289   1.780   0.902 -4.3131 -0.4713 -0.2158
 9014SOL    HW238505   0.215   1.672   0.839 -0.1740  1.0493 -0.0650
 9015SOL     OW38506   3.197   0.326   8.136 -0.0824 -0.1401  0.1220
 9015SOL    HW138507   3.125   0.365   8.185 -0.1403  0.4254 -0.4315
 9015SOL    HW238508   3.261   0.322   8.208  0.0004 -0.0648  0.0520
 9016SOL     OW38509   1.464   0.376  11.269  0.0462  0.5465 -0.0623
 9016SOL    HW138510   1.403   0.306  11.245  2.1700 -1.3222 -0.0129
 9016SOL    HW238511   1.532   0.310  11.284  0.0505  1.0656  2.0692
 9017SOL     OW38512   2.591   4.493   2.083 -0.3217  0.3793  0.7832
 9017SOL    HW138513   2.669   4.549   2.081 -0.6519  0.8425  0.7425
 9017SOL    HW238514   2.542   4.541   2.150 -0.1015  1.4827  0.1528
 9018SOL     OW38515   2.943   4.600   7.942  0.4219  0.6343  0.5899
 9018SOL    HW138516   3.025   4.638   7.910  1.3150 -1.8353 -0.0206
 9018SOL    HW238517   2.899   4.680   7.973 -0.6969  0.8543 -1.5977
 9019SOL     OW38518   2.692   1.230   7.092  0.5597  0.0569  0.8668
 9019SOL    HW138519   2.687   1.196   7.181  0.4811 -0.1513  0.7833
 9019SOL    HW238520   2.762   1.173   7.059 -0.1150  0.4787 -1.3268
 9020SOL     OW38521   4.548   0.011   2.719 -0.4672  0.2174  0.2195
 9020SOL    HW138522   4.495   0.024   2.641 -1.5686 -1.6883  0.6324
 9020SOL    HW238523   4.476   0.031   2.778 -0.3237 -0.9102  0.7786
 9021SOL     OW38524   2.711   1.668  17.074  0.0688 -0.9666 -0.0550
 9021SOL    HW138525   2.738   1.728  17.144  0.0553  1.4075 -2.0973
 9021SOL    HW238526   2.792   1.617  17.066 -0.6118 -2.7505  3.8919
 9022SOL     OW38527   1.767   4.283   4.666 -0.0846 -0.7233  0.3775
 9022SOL    HW138528   1.859   4.258   4.674  0.1993  0.1358 -0.2352
 9022SOL    HW238529   1.746   4.317   4.754 -1.1091  0.6288 -0.3859
 9023SOL     OW38530   2.599   1.659   4.472  0.0406  0.2217  0.6334
 9023SOL    HW138531   2.641   1.690   4.553 -0.0956  1.6614  0.1675
 9023SOL    HW238532   2.509   1.687   4.489  0.0749 -0.2062  1.5293
 9024SOL     OW38533   1.129   2.183   3.364  0.6392  0.1651 -0.1016
 9024SOL    HW138534   1.167   2.269   3.379 -1.0986  1.1284 -1.3490
 9024SOL    HW238535   1.062   2.184   3.432 -1.7444 -0.4821 -2.4710
 9025SOL     OW38536   2.856   0.169  10.850 -0.2671  0.3043  0.7734
 9025SOL    HW138537   2.875   0.256  10.886  1.4521  0.3517 -0.2402
 9025SOL    HW238538   2.847   0.124  10.934 -1.4307 -2.7796 -0.9922
 9026SOL     OW38539   2.249   4.431   7.056 -0.0991 -0.5208  0.0214
 9026SOL    HW138540   2.171   4.443   7.002 -1.4946  0.3075  2.2126
 9026SOL    HW238541   2.238   4.337   7.065 -2.2220 -0.1645  1.1186
 9027SOL     OW38542   2.834   1.332   2.408  0.4102 -0.2905 -0.2397
 9027SOL    HW138543   2.763   1.318   2.346  0.3121  2.3384 -0.7256
 9027SOL    HW238544   2.895   1.377   2.349  1.7892 -1.2359  0.4676
 9028SOL     OW38545   0.458   2.774   9.253 -0.1796  0.0544  0.9673
 9028SOL    HW138546   0.506   2.856   9.244 -2.9843  1.4042 -1.7442
 9028SOL    HW238547   0.498   2.742   9.334  0.2612  0.8423  1.0574
 9029SOL     OW38548   1.410   4.658   7.064 -0.0352 -0.4350 -0.6870
 9029SOL    HW138549   1.499   4.656   7.029  1.0675 -0.8097  2.1269
 9029SOL    HW238550   1.399   4.570   7.101  0.3789 -1.1022 -2.1658
 9030SOL     OW38551   0.262   2.719   3.484  0.0768  0.6412 -0.3222
 9030SOL    HW138552   0.270   2.726   3.389  1.5864  1.2268 -0.1464
 9030SOL    HW238553   0.262   2.813   3.501  1.1853  0.5732  0.0028
 9031SOL     OW38554   2.522   2.303   6.617  0.3598 -0.7727 -0.6751
 9031SOL    HW138555   2.593   2.366   6.604 -0.2115  0.1751  0.7571
 9031SOL    HW238556   2.447   2.362   6.609 -0.2690 -1.3955  0.6243
 9032SOL     OW38557   3.383   2.559  16.511  0.2513 -0.2298 -0.1717
 9032SOL    HW138558   3.415   2.508  16.585 -1.6663  0.8514  1.4087
 9032SOL    HW238559   3.341   2.484  16.469 -0.8114  1.0477 -1.4348
 9033SOL     OW38560   4.364   0.549  11.597  0.2162 -0.6691  0.2993
 9033SOL    HW138561   4.294   0.513  11.543  0.1891  0.8389 -0.6717
 9033SOL    HW238562   4.427   0.579  11.531 -2.1059  1.6562 -0.8388
 9034SOL     OW38563   1.942   0.612  15.089  0.2087 -0.2651  0.1405
 9034SOL    HW138564   2.026   0.653  15.066  0.1751  0.1656  0.7908
 9034SOL    HW238565   1.967   0.542  15.150 -1.2441  0.3040  1.3974
 9035SOL     OW38566   2.430   1.509   8.242 -0.1518 -0.0770 -0.1285
 9035SOL    HW138567   2.453   1.450   8.171 -1.0260 -1.4394  0.7330
 9035SOL    HW238568   2.510   1.502   8.294 -0.6614 -3.3661  0.2055
 9036SOL     OW38569   3.409   4.513   8.443  0.4060  0.5063 -0.1045
 9036SOL    HW138570   3.375   4.506   8.354 -1.7138 -0.8072  0.8071
 9036SOL    HW238571   3.330   4.503   8.497  0.1735 -3.0844 -1.1578
 9037SOL     OW38572   3.913   0.113  15.069 -0.1802  0.2244 -0.2069
 9037SOL    HW138573   3.979   0.101  15.000 -0.5035 -0.1013 -0.4589
 9037SOL    HW238574   3.954   0.068  15.143 -0.1792  0.5242 -0.0239
 9038SOL     OW38575   3.836   0.152   7.299 -0.0691 -0.6415 -0.4347
 9038SOL    HW138576   3.860   0.240   7.329 -1.0075 -0.2424 -0.8746
 9038SOL    HW238577   3.918   0.120   7.263 -0.0787 -0.3161 -0.7447
 9039SOL     OW38578   4.547   2.354  17.171  0.6915  0.3708  0.7042
 9039SOL    HW138579   4.478   2.345  17.238  0.3711  0.5380  0.3970
 9039SOL    HW238580   4.527   2.281  17.113 -0.7714  0.2368  1.3729
 9040SOL     OW38581   4.352   3.451   9.395 -0.2795  0.2147 -0.1629
 9040SOL    HW138582   4.388   3.490   9.315  0.8263 -0.9008 -0.2183
 9040SOL    HW238583   4.266   3.428   9.361  0.6871 -1.1082 -1.7361
 9041SOL     OW38584   3.735   0.815   3.314 -0.1422 -0.3643  0.8578
 9041SOL    HW138585   3.719   0.909   3.324 -2.2359 -0.7565  1.1179
 9041SOL    HW238586   3.661   0.779   3.362 -1.0094  1.7551  1.1237
 9042SOL     OW38587   4.418   0.178  11.976  0.3428 -0.8350  0.1864
 9042SOL    HW138588   4.456   0.213  11.896 -1.9640 -0.9462 -0.9335
 9042SOL    HW238589   4.488   0.204  12.037  0.5221 -0.6415 -0.1045
 9043SOL     OW38590   3.908   2.480   3.631  0.4439  0.3411  0.5039
 9043SOL    HW138591   3.946   2.479   3.719  0.4370 -2.6260  0.4666
 9043SOL    HW238592   3.941   2.395   3.602 -1.9798 -0.0035 -1.2731
 9044SOL     OW38593   4.352   0.646   5.250  0.0618 -1.3322  0.4072
 9044SOL    HW138594   4.376   0.625   5.340  0.9652 -1.7457  0.0642
 9044SOL    HW238595   4.383   0.569   5.202  1.6950  0.6083 -1.6444
 9045SOL     OW38596   3.140   0.046   6.948  0.3146 -0.3319  0.4822
 9045SOL    HW138597   3.050   0.077   6.952  1.0725  1.9530 -0.7025
 9045SOL    HW238598   3.179   0.105   6.884 -0.8133 -0.3703 -0.2336
 9046SOL     OW38599   2.908   4.141   7.040  0.1922  0.0151 -0.4317
 9046SOL    HW138600   2.973   4.208   7.017  0.7804 -0.4845 -0.2247
 9046SOL    HW238601   2.867   4.138   6.953 -1.6082 -0.9207  0.4543
 9047SOL     OW38602   0.854   3.413   4.328 -0.4027 -0.1742 -0.1337
 9047SOL    HW138603   0.778   3.391   4.274 -0.2231  0.6060 -0.7018
 9047SOL    HW238604   0.845   3.508   4.333  2.0083  0.0352 -0.1047
 9048SOL     OW38605   4.424   0.340  10.278 -0.0635  0.2531 -0.0142
 9048SOL    HW138606   4.519   0.346  10.268  0.1101 -0.1474  1.3695
 9048SOL    HW238607   4.386   0.423  10.249 -0.7925 -0.5213 -1.2663
 9049SOL     OW38608   2.531   2.055  13.445 -0.2235  0.4424 -0.6522
 9049SOL    HW138609   2.544   2.147  13.422  0.3525  0.5950  0.2807
 9049SOL    HW238610   2.463   2.048  13.512  0.4077 -1.7479 -0.2466
 9050SOL     OW38611   4.252   4.352   3.161 -0.0598  0.7389  0.2492
 9050SOL    HW138612   4.198   4.281   3.126  0.1778 -0.0202  1.4283
 9050SOL    HW238613   4.342   4.322   3.152  0.1009  1.4440 -0.4868
 9051SOL     OW38614   3.075   1.675   5.863  0.0642  0.0605 -0.0678
 9051SOL    HW138615   3.114   1.643   5.945  0.4574  1.4008  0.2717
 9051SOL    HW238616   3.053   1.763   5.894 -0.5396 -0.7969  1.9561
 9052SOL     OW38617   1.997   0.006  14.187  0.4059 -0.3743 -0.0623
 9052SOL    HW138618   1.970   4.681  14.106 -0.6904 -0.9641  0.6244
 9052SOL    HW238619   1.924   4.704  14.246  0.7649 -1.2998  0.0585
 9053SOL     OW38620   3.073   2.859   3.012 -0.6643 -0.3336 -0.6649
 9053SOL    HW138621   3.105   2.842   3.100  0.0420  2.9823 -0.2867
 9053SOL    HW238622   2.995   2.911   3.027 -0.6435  0.0284 -1.7566
 9054SOL     OW38623   2.499   3.625   0.818  0.6881 -0.5265  0.1037
 9054SOL    HW138624   2.474   3.638   0.910  1.7789 -0.7986  0.4504
 9054SOL    HW238625   2.459   3.538   0.811  0.0302 -0.2014 -0.1607
 9055SOL     OW38626   1.809   0.016   1.105  0.0376  0.1487  0.2895
 9055SOL    HW138627   1.806   0.052   1.016 -0.7236  0.4423  0.4309
 9055SOL    HW238628   1.848   0.091   1.150  2.1480 -0.3249 -0.7773
 9056SOL     OW38629   1.458   4.113   6.452 -0.5428 -0.5281 -0.4724
 9056SOL    HW138630   1.390   4.057   6.415 -0.5587 -1.4750  0.9995
 9056SOL    HW238631   1.414   4.141   6.533  1.9056 -1.8656  1.3149
 9057SOL     OW38632   0.282   0.052   3.448 -0.2640 -0.3957 -0.7977
 9057SOL    HW138633   0.322   0.048   3.361  2.8815 -1.6012  0.7036
 9057SOL    HW238634   0.191   0.025   3.438  0.8556 -4.0972 -0.9060
 9058SOL     OW38635   4.679   4.214   5.465  0.0084 -0.7332  0.5539
 9058SOL    HW138636   4.690   4.309   5.457  2.0552 -0.8887  1.5416
 9058SOL    HW238637   4.605   4.203   5.405  0.2684 -0.5430  0.1917
 9059SOL     OW38638   4.576   3.716   5.179  0.6839  0.1939 -0.4455
 9059SOL    HW138639   4.516   3.717   5.105  0.3954 -1.7874 -0.2280
 9059SOL    HW238640   4.604   3.808   5.178 -1.2425  0.8216  1.8607
 9060SOL     OW38641   2.280   1.070   2.028  0.2036 -0.2799  0.0638
 9060SOL    HW138642   2.288   1.059   1.933  1.0280  0.9578 -0.0110
 9060SOL    HW238643   2.355   1.128   2.043 -0.8308  0.9330  0.5810
 9061SOL     OW38644   0.245   2.839   8.696  0.3061 -0.7188 -0.6961
 9061SOL    HW138645   0.288   2.924   8.704  1.0534 -1.2290  0.8851
 9061SOL    HW238646   0.260   2.803   8.784 -2.8224  0.5913  0.3559
 9062SOL     OW38647   3.310   4.426   5.791  0.5291 -0.6900 -0.0300
 9062SOL    HW138648   3.405   4.416   5.798  0.5081  0.0862  1.5326
 9062SOL    HW238649   3.302   4.514   5.754 -0.2830  0.3784  2.6643
 9063SOL     OW38650   1.347   4.353   1.299 -0.2956 -0.0908 -0.1671
 9063SOL    HW138651   1.327   4.261   1.314  0.4944 -0.2727 -0.2423
 9063SOL    HW238652   1.421   4.349   1.238 -0.6508  1.3071 -0.7068
 9064SOL     OW38653   2.817   2.881  13.715 -0.6680  0.9215  0.2317
 9064SOL    HW138654   2.889   2.927  13.757 -0.7071  0.2440  1.0268
 9064SOL    HW238655   2.773   2.949  13.663 -0.1170  1.8229  0.9456
 9065SOL     OW38656   0.572   4.459   2.137 -0.2267 -0.2054  0.6403
 9065SOL    HW138657   0.666   4.451   2.121  0.1142 -0.1893  2.7009
 9065SOL    HW238658   0.554   4.373   2.174  1.7085 -0.8576  0.0598
 9066SOL     OW38659   1.140   0.360  13.650 -0.2394  0.0815  0.2057
 9066SOL    HW138660   1.209   0.407  13.696 -0.2786 -0.0011  0.3493
 9066SOL    HW238661   1.187   0.322  13.576  0.4954  0.2980  0.5620
 9067SOL     OW38662   4.085   1.547   5.850 -0.1378 -0.3566 -0.3626
 9067SOL    HW138663   4.005   1.550   5.797  0.1863  1.0975 -0.7652
 9067SOL    HW238664   4.097   1.640   5.864 -1.0630 -0.1333 -1.0255
 9068SOL     OW38665   0.606   2.202   1.961  0.2808  0.9229  0.0383
 9068SOL    HW138666   0.697   2.212   1.935 -0.0343  0.7508 -1.1134
 9068SOL    HW238667   0.571   2.159   1.883 -2.7414  1.7248  0.9270
 9069SOL     OW38668   0.164   2.575   4.162  0.5739  0.2948 -0.1916
 9069SOL    HW138669   0.151   2.523   4.083 -0.4450 -1.5982  1.2342
 9069SOL    HW238670   0.193   2.660   4.128  2.4733 -0.0824  0.4752
 9070SOL     OW38671   3.028   2.457   2.926  0.0835 -0.5044  0.1510
 9070SOL    HW138672   3.027   2.486   3.017  1.2237 -0.2429  0.0827
 9070SOL    HW238673   2.976   2.527   2.887  1.1840  1.0600  1.4869
 9071SOL     OW38674   0.611   1.904   8.414  0.5650 -0.1649 -0.1893
 9071SOL    HW138675   0.588   1.816   8.444  1.6619 -0.2988  0.2481
 9071SOL    HW238676   0.707   1.898   8.413  0.4876 -1.3310 -0.6809
 9072SOL     OW38677   2.449   0.728   9.742  0.0984 -0.0167  0.2445
 9072SOL    HW138678   2.430   0.636   9.757  1.6014 -0.4168 -0.2411
 9072SOL    HW238679   2.365   0.773   9.743 -0.3001 -0.8020  1.2959
 9073SOL     OW38680   1.770   4.274   1.528  0.0500 -0.3660  0.4014
 9073SOL    HW138681   1.781   4.355   1.479  0.9625 -0.5333  0.3286
 9073SOL    HW238682   1.675   4.278   1.524 -0.0087 -2.1259  0.0309
 9074SOL     OW38683   1.123   1.099  10.948  0.2798 -0.3283  0.2312
 9074SOL    HW138684   1.130   1.035  10.877 -3.0068 -1.9117  1.3453
 9074SOL    HW238685   1.209   1.141  10.943  1.2416 -2.3491 -0.2962
 9075SOL     OW38686   4.297   1.731   7.921 -0.1799  0.0669  0.3992
 9075SOL    HW138687   4.368   1.695   7.868  0.5564  1.6519  0.3000
 9075SOL    HW238688   4.281   1.662   7.985  0.2151 -0.7680 -0.3985
 9076SOL     OW38689   1.723   3.660   6.393 -0.0597  0.2906 -0.1812
 9076SOL    HW138690   1.718   3.564   6.386 -0.3031  0.1597  1.7604
 9076SOL    HW238691   1.702   3.677   6.484 -0.3704  2.3817 -0.6425
 9077SOL     OW38692   3.900   4.698   1.751 -0.1156 -0.3807  0.2054
 9077SOL    HW138693   3.810   4.666   1.758  1.0186 -3.3085  1.5102
 9077SOL    HW238694   3.878   0.072   1.760 -1.1212 -0.2920 -2.9278
 9078SOL     OW38695   0.301   2.403   2.694 -0.6744  0.8559  0.0104
 9078SOL    HW138696   0.367   2.377   2.631  0.3380 -0.8893  1.7683
 9078SOL    HW238697   0.255   2.471   2.646 -0.2442 -0.2502 -1.9518
 9079SOL     OW38698   3.143   0.612   4.211  0.1759 -0.0338  0.3206
 9079SOL    HW138699   3.211   0.680   4.214 -0.9169  1.1054 -0.4414
 9079SOL    HW238700   3.094   0.628   4.291 -1.1272  1.4804 -0.7691
 9080SOL     OW38701   1.136   0.145   1.740  0.3596 -0.3064  0.4652
 9080SOL    HW138702   1.221   0.187   1.721  0.5842 -0.2124  1.6745
 9080SOL    HW238703   1.100   0.220   1.787 -1.8408  0.0753 -1.8176
 9081SOL     OW38704   2.632   4.010  15.106 -0.1467  0.1686  0.3795
 9081SOL    HW138705   2.690   4.036  15.178 -0.9190  1.9769  0.3493
 9081SOL    HW238706   2.555   3.982  15.155 -0.6465 -2.4999 -1.9330
 9082SOL     OW38707   1.475   3.282  12.824 -0.3737 -0.0055 -0.1932
 9082SOL    HW138708   1.412   3.354  12.817  1.8412  1.8343 -1.0673
 9082SOL    HW238709   1.552   3.332  12.850 -0.2942 -1.3023  2.0770
 9083SOL     OW38710   0.737   2.380   4.014 -0.1786 -0.1570  0.3034
 9083SOL    HW138711   0.676   2.434   3.963 -0.4643 -0.7451  0.0191
 9083SOL    HW238712   0.700   2.406   4.098  0.9695 -0.9176  1.0466
 9084SOL     OW38713   2.422   2.761   1.230  0.8427 -0.0878  0.4012
 9084SOL    HW138714   2.397   2.831   1.169  1.9488  0.7788  0.9357
 9084SOL    HW238715   2.464   2.813   1.299 -0.7562  0.8028  0.7190
 9085SOL     OW38716   3.608   0.784   6.639  0.5303 -0.2015 -0.2013
 9085SOL    HW138717   3.617   0.693   6.670  0.1513 -0.2135 -0.1327
 9085SOL    HW238718   3.696   0.818   6.625  0.1251  1.1626  0.5635
 9086SOL     OW38719   4.633   0.244   8.342 -0.3650  0.3367 -0.4349
 9086SOL    HW138720   4.548   0.287   8.352 -2.0992 -3.0335 -0.6075
 9086SOL    HW238721   4.647   0.275   8.253  1.3211 -0.8880 -0.5930
 9087SOL     OW38722   2.583   1.152   2.782  0.1281  1.0958  0.2355
 9087SOL    HW138723   2.521   1.152   2.854  0.4598 -0.2792  0.5192
 9087SOL    HW238724   2.537   1.117   2.705 -0.9185 -1.0830  1.8642
 9088SOL     OW38725   1.555   4.028   2.131  0.3002 -0.6295 -0.2342
 9088SOL    HW138726   1.582   4.080   2.207 -1.6801  0.2146 -0.1209
 9088SOL    HW238727   1.460   4.043   2.127 -0.0514 -2.4521  1.2757
 9089SOL     OW38728   3.007   1.946   5.934 -0.1707  0.8064 -0.5708
 9089SOL    HW138729   3.067   2.017   5.958 -1.0248  1.5511 -0.6428
 9089SOL    HW238730   2.951   2.011   5.892  0.2911  0.0466 -2.3522
 9090SOL     OW38731   2.323   1.844   3.191  0.0357  0.0325 -0.1235
 9090SOL    HW138732   2.306   1.878   3.278  1.6919 -1.1695  0.6623
 9090SOL    HW238733   2.233   1.815   3.176  0.2768 -0.8441  0.1219
 9091SOL     OW38734   0.052   3.293   2.408 -0.4526  0.4466 -0.6418
 9091SOL    HW138735   0.052   3.377   2.454 -2.2460 -0.3108  0.7590
 9091SOL    HW238736   0.141   3.292   2.375 -0.4414  1.7452 -0.6475
 9092SOL     OW38737   2.078   1.702   4.865  0.4505 -0.2656  0.6870
 9092SOL    HW138738   2.012   1.692   4.796  2.1249  2.1686 -1.2814
 9092SOL    HW238739   2.025   1.699   4.945 -0.8155 -0.5491 -0.1493
 9093SOL     OW38740   1.256   0.313   4.708  0.0799  0.8309 -0.2076
 9093SOL    HW138741   1.327   0.333   4.770 -1.0022  0.5311  1.1316
 9093SOL    HW238742   1.263   0.384   4.645 -0.3257  1.6431  0.6567
 9094SOL     OW38743   3.899   2.682  17.646 -0.6969 -0.1103 -0.0975
 9094SOL    HW138744   3.966   2.750  17.636  1.0723 -1.7800  0.3222
 9094SOL    HW238745   3.891   2.656  17.554 -2.5236 -0.4348  0.1508
 9095SOL     OW38746   4.438   2.334   3.753  0.0735 -0.3495  0.5383
 9095SOL    HW138747   4.531   2.312   3.745 -0.0276 -1.4439  2.1709
 9095SOL    HW238748   4.408   2.301   3.669  0.5020 -0.0202  0.2598
 9096SOL     OW38749   3.445   3.089   5.389 -0.0517  0.5331 -0.2658
 9096SOL    HW138750   3.527   3.138   5.391 -0.4396  1.1850 -0.4371
 9096SOL    HW238751   3.400   3.102   5.472 -3.2637  1.6635 -2.1616
 9097SOL     OW38752   1.404   0.330  10.150 -0.2072  0.2120  0.0516
 9097SOL    HW138753   1.319   0.374  10.148  1.6939  3.7688 -2.5573
 9097SOL    HW238754   1.419   0.330  10.245 -1.3363 -1.8330  0.2322
 9098SOL     OW38755   3.215   2.820   5.563 -0.3107  0.0534 -0.0660
 9098SOL    HW138756   3.267   2.897   5.584  1.3939 -0.9247 -0.7403
 9098SOL    HW238757   3.184   2.810   5.653  2.3401 -0.5331  0.7800
 9099SOL     OW38758   1.859   0.316   2.684 -0.3672  0.1207 -0.3298
 9099SOL    HW138759   1.811   0.245   2.726  0.1924 -0.2705 -0.3520
 9099SOL    HW238760   1.804   0.387   2.716 -0.6789 -0.4785  0.4785
 9100SOL     OW38761   3.162   1.684  14.513  0.1301 -0.1228  0.5185
 9100SOL    HW138762   3.256   1.688  14.528  0.4862  1.2114 -2.1708
 9100SOL    HW238763   3.127   1.652  14.597 -0.8690 -1.4506 -0.4051
 9101SOL     OW38764   4.288   0.385   9.026  0.2537 -0.5905 -0.1288
 9101SOL    HW138765   4.279   0.363   9.119 -0.1435 -1.1304 -0.2898
 9101SOL    HW238766   4.375   0.424   9.022 -1.3888  2.9779 -0.6220
 9102SOL     OW38767   2.329   4.187   5.264 -0.1211 -0.1497  0.4793
 9102SOL    HW138768   2.311   4.212   5.354 -1.5740 -1.5348  0.5628
 9102SOL    HW238769   2.425   4.196   5.260 -0.4610  3.5397  0.0402
 9103SOL     OW38770   2.416   1.226   2.222 -0.6220 -0.2516 -0.0526
 9103SOL    HW138771   2.470   1.303   2.210 -0.0414 -0.6643 -0.0610
 9103SOL    HW238772   2.485   1.160   2.227 -0.2036  0.0794 -1.6110
 9104SOL     OW38773   2.686   0.741   4.478  0.7483  0.2034 -0.1307
 9104SOL    HW138774   2.640   0.687   4.542  2.1678  1.9097  2.3254
 9104SOL    HW238775   2.663   0.705   4.392  1.5091 -1.6127  0.4491
 9105SOL     OW38776   3.235   0.002   5.680 -0.0031 -0.3014  0.0804
 9105SOL    HW138777   3.234   4.706   5.585 -1.7045 -0.2954  0.0946
 9105SOL    HW238778   3.309   0.063   5.681 -0.9854  0.8615  0.5983
 9106SOL     OW38779   1.218   0.270   2.581 -0.6321  0.1776 -0.2019
 9106SOL    HW138780   1.288   0.297   2.520  0.8109  1.4412  2.0276
 9106SOL    HW238781   1.273   0.232   2.649  0.1604 -1.6604 -1.8690
 9107SOL     OW38782   4.560   1.118   7.737  0.0927 -0.1296  0.0625
 9107SOL    HW138783   4.506   1.192   7.709  0.0222  0.1663  0.9663
 9107SOL    HW238784   4.614   1.163   7.801 -1.0449  1.0458  0.2029
 9108SOL     OW38785   2.101   2.132   8.010  0.3153 -0.4183  0.1873
 9108SOL    HW138786   2.132   2.044   8.028  0.4343 -0.8322 -1.9620
 9108SOL    HW238787   2.029   2.124   7.947  0.1201  2.5119  0.0350
 9109SOL     OW38788   3.862   0.112   5.413 -0.6586  0.4690  0.2270
 9109SOL    HW138789   3.932   0.089   5.352  0.2150  1.4601  0.8421
 9109SOL    HW238790   3.805   0.164   5.357 -2.3653 -1.0243  0.5855
 9110SOL     OW38791   0.160   3.849   4.996 -0.0694 -0.2025  0.5798
 9110SOL    HW138792   0.246   3.853   5.038 -1.1339  0.0957  2.7284
 9110SOL    HW238793   0.147   3.754   4.994 -0.2248 -0.1319 -1.1173
 9111SOL     OW38794   4.213   4.563   0.617  0.3459 -0.1484 -0.5507
 9111SOL    HW138795   4.155   4.487   0.614  0.9773 -0.8278  4.0271
 9111SOL    HW238796   4.198   4.601   0.531  1.8939 -0.3956 -0.9308
 9112SOL     OW38797   2.177   4.179   8.249 -0.1193  0.5389 -0.5552
 9112SOL    HW138798   2.177   4.088   8.279 -1.5799  1.0413  0.9548
 9112SOL    HW238799   2.262   4.213   8.279  0.7169 -0.9072 -1.2600
 9113SOL     OW38800   0.337   4.386   0.220 -0.1198  0.5590 -0.2268
 9113SOL    HW138801   0.306   4.370   0.309  1.6584 -2.1587 -0.0939
 9113SOL    HW238802   0.261   4.418   0.172  0.2549 -0.0380 -1.2191
 9114SOL     OW38803   4.503   4.132   8.215  0.2618 -0.3877 -0.4147
 9114SOL    HW138804   4.539   4.054   8.258  3.0071  1.7504  1.2174
 9114SOL    HW238805   4.467   4.092   8.136  1.3685 -1.1648 -0.5261
 9115SOL     OW38806   2.668   3.166   3.993  0.4540 -0.2138 -0.1859
 9115SOL    HW138807   2.602   3.230   3.964  0.7907  0.9036  1.5372
 9115SOL    HW238808   2.742   3.196   3.940 -1.5859  2.6389 -1.4892
 9116SOL     OW38809   0.317   1.036  13.298  0.5582 -0.1135 -0.0042
 9116SOL    HW138810   0.227   1.071  13.293  0.0114 -1.1506  3.0631
 9116SOL    HW238811   0.359   1.109  13.342 -2.9109  1.5676  0.5380
 9117SOL     OW38812   2.688   2.038   7.912  0.4701 -0.2364  0.3875
 9117SOL    HW138813   2.620   2.088   7.957 -0.3071 -1.6843  0.7912
 9117SOL    HW238814   2.639   1.968   7.868  2.1377 -0.5854 -0.9126
 9118SOL     OW38815   3.718   3.580  16.964  0.7359  0.0077 -0.2483
 9118SOL    HW138816   3.702   3.595  17.057 -0.7925 -0.8721 -0.3625
 9118SOL    HW238817   3.777   3.651  16.940  0.6553 -0.2319 -1.1609
 9119SOL     OW38818   1.261   1.965   7.306  0.5781 -0.5494 -0.4390
 9119SOL    HW138819   1.275   1.899   7.238  0.0527 -0.7207 -0.3830
 9119SOL    HW238820   1.227   1.904   7.371  3.6298 -2.0599 -0.2698
 9120SOL     OW38821   0.713   0.053   8.434 -0.3664 -0.4521  0.0633
 9120SOL    HW138822   0.630   0.012   8.411 -1.2666  2.3891 -1.7303
 9120SOL    HW238823   0.737   0.113   8.364  0.3604 -0.0796  0.6246
 9121SOL     OW38824   3.138   1.522   3.035 -0.4569  0.4373  0.2659
 9121SOL    HW138825   3.098   1.491   3.116  0.1998  2.5280  1.3706
 9121SOL    HW238826   3.061   1.537   2.980  0.7166 -1.7356 -1.9902
 9122SOL     OW38827   1.123   0.080   8.900  0.2292  0.1485  0.1059
 9122SOL    HW138828   1.105   0.124   8.817 -0.2787 -0.6146 -0.1919
 9122SOL    HW238829   1.212   0.046   8.891  0.3816  0.3503  0.8839
 9123SOL     OW38830   2.000   0.177   3.952  0.8294  0.1614 -0.3323
 9123SOL    HW138831   1.915   0.162   3.994  1.0079 -1.4744 -0.5512
 9123SOL    HW238832   2.066   0.132   4.005 -0.4248 -1.6935 -0.3039
 9124SOL     OW38833   2.718   2.673   7.659  0.8128  0.1689 -0.6137
 9124SOL    HW138834   2.746   2.707   7.574  0.5788 -1.5404 -1.3524
 9124SOL    HW238835   2.626   2.697   7.665  0.7075  0.0563 -1.9810
 9125SOL     OW38836   0.885   3.920   9.268  0.3825  0.7214  0.1799
 9125SOL    HW138837   0.819   3.865   9.227  1.5933 -1.0462  0.5709
 9125SOL    HW238838   0.951   3.857   9.297  0.4766  0.9190  0.4033
 9126SOL     OW38839   2.695   2.646  10.884 -0.2589 -0.5052 -0.1967
 9126SOL    HW138840   2.675   2.595  10.805  0.6558 -0.0630 -0.7158
 9126SOL    HW238841   2.612   2.664  10.928  0.2189 -0.4276  0.6829
 9127SOL     OW38842   4.253   3.636  11.663  0.5136 -0.7699 -0.2779
 9127SOL    HW138843   4.341   3.629  11.626  0.7233  0.6845 -0.0641
 9127SOL    HW238844   4.259   3.586  11.744  1.7589  2.1566  1.4354
 9128SOL     OW38845   3.928   4.374   6.783  0.9079  0.1250 -0.5795
 9128SOL    HW138846   4.005   4.407   6.828  0.2666 -0.2723  0.8247
 9128SOL    HW238847   3.933   4.282   6.808  0.7880 -0.5915 -3.1928
 9129SOL     OW38848   4.110   1.914  12.424 -0.4625  0.3405 -0.6026
 9129SOL    HW138849   4.035   1.890  12.479  0.2219 -0.7214 -0.1317
 9129SOL    HW238850   4.147   1.984  12.478 -0.8777 -1.1253  1.5917
 9130SOL     OW38851   0.527   3.170   5.570  0.3638 -0.5195  0.1442
 9130SOL    HW138852   0.489   3.174   5.483 -0.9928 -0.2224  0.7427
 9130SOL    HW238853   0.540   3.262   5.595 -1.5550  0.6474 -3.1767
 9131SOL     OW38854   1.726   1.558   4.881  0.2037  0.0650  0.5654
 9131SOL    HW138855   1.779   1.484   4.911  1.9418 -0.4510 -3.8724
 9131SOL    HW238856   1.646   1.511   4.857 -0.3438  1.8649 -1.1133
 9132SOL     OW38857   2.100   0.398  14.840 -0.3865 -0.3154 -0.0251
 9132SOL    HW138858   2.060   0.379  14.925  1.0499 -1.1172  0.4754
 9132SOL    HW238859   2.078   0.491  14.835 -0.2765 -0.1068  2.9613
 9133SOL     OW38860   1.438   1.875  10.449 -0.1530  0.5040 -0.1539
 9133SOL    HW138861   1.456   1.946  10.387 -0.1601  0.3434 -0.3436
 9133SOL    HW238862   1.377   1.826  10.394  0.1466  2.8449 -2.5748
 9134SOL     OW38863   0.022   4.163   8.506 -0.1781 -0.4421  0.1949
 9134SOL    HW138864   4.660   4.125   8.544  0.0579 -0.3066  0.8387
 9134SOL    HW238865   0.035   4.113   8.425  0.7577  0.1543 -0.0206
 9135SOL     OW38866   1.432   2.081   3.814  0.1128 -0.2904  0.2674
 9135SOL    HW138867   1.487   2.157   3.794 -0.3533 -0.3496 -1.2984
 9135SOL    HW238868   1.465   2.071   3.903  0.6337  2.7838  0.4190
 9136SOL     OW38869   2.716   0.675   2.269 -0.4630  0.1190 -0.1005
 9136SOL    HW138870   2.739   0.659   2.178 -2.5867  1.7120 -0.9165
 9136SOL    HW238871   2.635   0.626   2.282 -1.2140  1.7084  1.3054
 9137SOL     OW38872   2.381   1.613  14.025  0.1135 -0.2031 -0.0738
 9137SOL    HW138873   2.384   1.531  13.976  1.0519 -0.7462  0.8722
 9137SOL    HW238874   2.415   1.575  14.106 -1.3793 -0.4458  0.4402
 9138SOL     OW38875   2.497   3.410  17.566  0.1968 -0.0525  0.7846
 9138SOL    HW138876   2.407   3.401  17.536  0.8426  2.3077 -1.8036
 9138SOL    HW238877   2.546   3.397  17.485 -0.3468  0.9220  0.3087
 9139SOL     OW38878   2.117   3.135   6.501  0.1421 -0.6830  0.4462
 9139SOL    HW138879   2.156   3.153   6.587  0.8604  1.0422 -0.2532
 9139SOL    HW238880   2.161   3.050   6.496  2.1552  0.4416 -0.8646
 9140SOL     OW38881   1.268   1.353   0.701  0.4561 -0.5327  0.1823
 9140SOL    HW138882   1.313   1.269   0.708 -0.2712 -0.9482 -0.2550
 9140SOL    HW238883   1.343   1.393   0.656 -0.0941  0.5003  0.1873
 9141SOL     OW38884   1.320   4.222   4.058  0.1013  0.0657  0.6755
 9141SOL    HW138885   1.370   4.304   4.060 -1.0796  0.8273 -1.8512
 9141SOL    HW238886   1.392   4.162   4.078 -0.3101 -0.6601 -0.0424
 9142SOL     OW38887   0.235   1.655   2.572  0.4270  0.4845  0.0272
 9142SOL    HW138888   0.322   1.621   2.552 -1.6006 -3.7752 -1.5523
 9142SOL    HW238889   0.184   1.600   2.513  0.9494  0.0476 -0.0139
 9143SOL     OW38890   2.649   1.945  14.912  0.1171 -0.3155 -0.1062
 9143SOL    HW138891   2.729   1.938  14.861  0.9172 -1.1212  1.2701
 9143SOL    HW238892   2.680   1.920  14.999  3.2103 -0.1673 -1.1885
 9144SOL     OW38893   3.722   4.371   5.453 -0.3130 -0.2539  0.3149
 9144SOL    HW138894   3.688   4.460   5.465  0.4939  0.2427 -1.1221
 9144SOL    HW238895   3.654   4.322   5.500 -2.9014  1.0232 -2.0849
 9145SOL     OW38896   0.172   0.428   7.942  0.6587  0.3389 -0.1955
 9145SOL    HW138897   0.156   0.492   8.011 -1.9937 -1.3761  0.8020
 9145SOL    HW238898   0.264   0.453   7.930  0.5445  1.3295  1.0386
 9146SOL     OW38899   2.955   3.467   3.722  0.0456 -0.7688 -0.2046
 9146SOL    HW138900   2.886   3.454   3.657 -1.7974 -0.9372  1.7944
 9146SOL    HW238901   2.985   3.553   3.691 -0.6217 -0.5306 -0.1723
 9147SOL     OW38902   3.856   2.100   2.660 -0.5817 -0.1675 -1.0823
 9147SOL    HW138903   3.840   2.058   2.745  0.6020 -2.1030 -1.8205
 9147SOL    HW238904   3.797   2.174   2.672 -0.0815  0.3140 -1.5969
 9148SOL     OW38905   3.940   3.405   2.898 -0.3935 -0.4425 -0.0577
 9148SOL    HW138906   3.906   3.491   2.875  0.6615  0.0552  0.2250
 9148SOL    HW238907   3.982   3.387   2.814  1.2132  0.5478  0.5351
 9149SOL     OW38908   2.802   1.359   6.257 -0.0502  0.1152 -0.3336
 9149SOL    HW138909   2.720   1.310   6.267  0.7877 -0.9610  1.2971
 9149SOL    HW238910   2.814   1.400   6.343 -1.1862  1.8292 -1.0023
 9150SOL     OW38911   4.680   1.769   7.508 -0.3329  0.2730 -0.3716
 9150SOL    HW138912   4.714   1.827   7.577  0.6973  0.8207 -1.3471
 9150SOL    HW238913   4.586   1.761   7.525 -0.6682  1.6458 -1.6114
 9151SOL     OW38914   2.156   0.229  15.207  0.3281 -0.2665  0.2000
 9151SOL    HW138915   2.099   0.233  15.283 -0.5151  1.8462 -0.5336
 9151SOL    HW238916   2.237   0.191  15.241  0.8385  1.4278  0.9120
 9152SOL     OW38917   0.807   3.429   8.200 -0.0250 -0.5762 -0.0185
 9152SOL    HW138918   0.852   3.372   8.262  2.2673 -0.0558 -1.1911
 9152SOL    HW238919   0.717   3.398   8.207  0.4526 -2.6611 -3.0038
 9153SOL     OW38920   1.175   1.837   5.383  0.3944  0.7217  0.4590
 9153SOL    HW138921   1.260   1.793   5.378  0.7347  1.2776  1.2135
 9153SOL    HW238922   1.118   1.770   5.421 -0.5548  0.5355 -1.3084
 9154SOL     OW38923   1.613   2.288   2.483 -0.2899 -0.1501 -0.1508
 9154SOL    HW138924   1.521   2.305   2.464 -0.3646  0.5539  0.8522
 9154SOL    HW238925   1.633   2.234   2.407 -2.8718 -1.2747 -0.0307
 9155SOL     OW38926   4.175   3.015   6.503 -0.2117  0.0790  0.0376
 9155SOL    HW138927   4.117   2.950   6.542  0.1584 -0.5855 -0.5045
 9155SOL    HW238928   4.255   2.980   6.543  1.0338  3.4549  0.5734
 9156SOL     OW38929   0.337   0.197   9.474 -0.7727  0.4949 -0.2103
 9156SOL    HW138930   0.306   0.110   9.498  1.2272 -0.7032 -1.9783
 9156SOL    HW238931   0.301   0.189   9.385 -1.3939  1.2698 -0.0309
 9157SOL     OW38932   2.593   4.539   4.276 -0.1979  0.2601  0.1656
 9157SOL    HW138933   2.623   4.455   4.310  0.5963  0.6975  0.5402
 9157SOL    HW238934   2.667   4.600   4.284 -0.5990  0.8078 -0.2335
 9158SOL     OW38935   3.891   3.380  14.825  0.4900  0.0606 -0.2610
 9158SOL    HW138936   3.959   3.443  14.802  0.2166  1.1479  1.9088
 9158SOL    HW238937   3.809   3.413  14.787 -0.7422 -2.1472  0.4938
 9159SOL     OW38938   2.771   3.238   3.159  0.1240  0.2906  0.2091
 9159SOL    HW138939   2.790   3.172   3.092 -1.0660 -0.2619  0.4293
 9159SOL    HW238940   2.729   3.309   3.111  1.2724 -0.2578 -1.6177
 9160SOL     OW38941   2.972   0.413   4.777  0.3552 -0.4288 -0.0210
 9160SOL    HW138942   2.945   0.488   4.724  3.7952  0.2650 -0.7727
 9160SOL    HW238943   3.035   0.456   4.835 -2.5363  0.0546  2.7765
 9161SOL     OW38944   1.667   1.878   9.560 -0.1866 -0.4003 -0.1433
 9161SOL    HW138945   1.708   1.958   9.593 -0.9390  0.4101 -1.1404
 9161SOL    HW238946   1.720   1.806   9.594 -0.4350 -0.7160 -0.4245
 9162SOL     OW38947   1.245   0.493   0.580  0.2087  0.3640  0.7424
 9162SOL    HW138948   1.322   0.520   0.628  0.0295  2.1712  0.0078
 9162SOL    HW238949   1.222   0.578   0.542  1.5588 -0.2312 -1.4223
 9163SOL     OW38950   2.147   0.957   0.245 -0.5672  0.2719  0.1184
 9163SOL    HW138951   2.081   1.026   0.252  0.7945  1.6110 -0.1550
 9163SOL    HW238952   2.160   0.956   0.150  1.9815 -2.0249  0.4754
 9164SOL     OW38953   1.333   2.943   2.484 -0.0641  0.4322 -0.3637
 9164SOL    HW138954   1.271   2.899   2.542  1.0746 -1.1243 -0.3224
 9164SOL    HW238955   1.412   2.946   2.538 -1.7854  0.9699  2.1665
 9165SOL     OW38956   3.265   1.361   4.000 -0.1140  0.1436 -0.0582
 9165SOL    HW138957   3.211   1.429   4.040  1.4545  0.7418  1.0662
 9165SOL    HW238958   3.219   1.344   3.918 -1.0362  2.8385 -0.1019
 9166SOL     OW38959   1.181   0.524   2.826 -0.1247 -0.8066 -0.1075
 9166SOL    HW138960   1.203   0.538   2.734 -0.1702  1.0409  0.1581
 9166SOL    HW238961   1.109   0.586   2.844 -0.3032 -0.3969 -2.2980
 9167SOL     OW38962   3.733   2.432  16.087 -0.1298 -0.3463  0.0275
 9167SOL    HW138963   3.726   2.485  16.167 -2.6381  0.9867 -1.0694
 9167SOL    HW238964   3.679   2.475  16.020  1.3935 -0.8301 -1.5020
 9168SOL     OW38965   3.333   0.959  13.632 -0.2138 -0.6008 -0.1266
 9168SOL    HW138966   3.368   0.983  13.718 -0.7159  2.0374 -0.6442
 9168SOL    HW238967   3.246   0.995  13.648  0.6423  0.2449  2.5655
 9169SOL     OW38968   1.512   2.527   1.737 -0.0206  0.0809  0.5092
 9169SOL    HW138969   1.466   2.527   1.654  0.8828 -1.1336  0.0029
 9169SOL    HW238970   1.560   2.444   1.731  0.9652  0.6300  0.6926
 9170SOL     OW38971   1.651   2.882  15.565  0.1952  0.3782  0.4769
 9170SOL    HW138972   1.641   2.951  15.498 -0.6729  0.4890  0.7173
 9170SOL    HW238973   1.721   2.913  15.622 -1.0491 -0.2895  2.3813
 9171SOL     OW38974   3.530   3.353   6.308  0.2760  0.0168  0.2735
 9171SOL    HW138975   3.518   3.276   6.253 -1.7795  0.7127 -0.2479
 9171SOL    HW238976   3.603   3.324   6.362 -0.0403 -0.4324  0.4582
 9172SOL     OW38977   3.540   4.157   6.889 -0.2653  0.2158  0.1612
 9172SOL    HW138978   3.454   4.160   6.847  0.3028  1.0596 -0.9357
 9172SOL    HW238979   3.589   4.114   6.818 -0.6023 -0.0382  0.0833
 9173SOL     OW38980   0.286   2.423   1.758 -0.0307 -0.1762  0.1044
 9173SOL    HW138981   0.318   2.389   1.842  0.4164 -1.0197 -0.4150
 9173SOL    HW238982   0.247   2.346   1.718 -0.8133 -0.1439  0.8101
 9174SOL     OW38983   2.873   2.050   8.244  0.5398 -0.2402 -0.0610
 9174SOL    HW138984   2.919   2.065   8.326 -2.3657 -0.1116  1.5741
 9174SOL    HW238985   2.925   2.117   8.200  0.2605 -0.1656 -0.2862
 9175SOL     OW38986   0.249   1.381   8.484 -0.5033 -0.7359 -0.0646
 9175SOL    HW138987   0.193   1.318   8.529 -1.1404 -0.7131 -0.8293
 9175SOL    HW238988   0.284   1.331   8.411 -0.0795 -0.4230 -0.0791
 9176SOL     OW38989   1.599   2.288   3.733  0.0045 -0.0791  0.5214
 9176SOL    HW138990   1.676   2.278   3.677  0.0937 -0.0082  0.6323
 9176SOL    HW238991   1.641   2.336   3.804  1.0854 -0.2774  0.0008
 9177SOL     OW38992   3.867   1.993   3.185 -0.2807 -0.5589  0.7647
 9177SOL    HW138993   3.819   1.931   3.241 -2.2278  0.9359  0.7719
 9177SOL    HW238994   3.925   2.036   3.248  1.4264 -3.1728  0.9423
 9178SOL     OW38995   2.515   3.266   7.920 -0.1260 -0.3169  0.4199
 9178SOL    HW138996   2.453   3.219   7.975 -2.1725  2.3647  0.4257
 9178SOL    HW238997   2.464   3.280   7.840  0.3788 -0.7191  0.0270
 9179SOL     OW38998   0.079   2.594  11.415 -0.1860  0.2894 -0.2672
 9179SOL    HW138999   0.070   2.669  11.357 -2.1119  0.2756  0.0045
 9179SOL    HW239000   0.042   2.531  11.353  0.4471 -1.6484  1.3258
 9180SOL     OW39001   0.616   3.613   3.158 -0.0997 -0.4629 -0.5021
 9180SOL    HW139002   0.577   3.526   3.147  1.1556 -1.5708  3.4698
 9180SOL    HW239003   0.561   3.647   3.088  0.1076 -2.2976 -1.5377
 9181SOL     OW39004   2.412   0.868  15.228 -0.2758 -0.3307  0.1622
 9181SOL    HW139005   2.469   0.906  15.161 -1.0597 -0.7563 -0.7479
 9181SOL    HW239006   2.476   0.823  15.283  1.8248 -1.4234 -3.1962
 9182SOL     OW39007   3.328   1.544   7.073 -0.7044 -0.0264 -0.5700
 9182SOL    HW139008   3.379   1.504   7.002 -2.3320  0.4977 -2.0398
 9182SOL    HW239009   3.401   1.570   7.129  0.0545 -1.4730 -0.8657
 9183SOL     OW39010   4.196   0.822   0.737 -0.0917  0.4636 -0.1757
 9183SOL    HW139011   4.128   0.888   0.725 -0.9156 -0.1081  1.3920
 9183SOL    HW239012   4.162   0.775   0.813  1.3916 -0.0323  0.1857
 9184SOL     OW39013   0.453   0.600   2.813  0.4381  0.5925  0.2850
 9184SOL    HW139014   0.517   0.629   2.748 -0.4030 -0.4239 -1.0080
 9184SOL    HW239015   0.461   0.671   2.877  0.7392  0.2550  0.6172
 9185SOL     OW39016   1.003   3.009   5.039 -0.6945  0.3660 -0.1517
 9185SOL    HW139017   1.006   3.084   5.098  1.4835  1.2493 -1.3696
 9185SOL    HW239018   1.050   3.050   4.966 -1.1910  1.4194  0.1265
 9186SOL     OW39019   1.599   3.131   0.330  0.0661  0.7819  0.0533
 9186SOL    HW139020   1.650   3.205   0.299 -1.3463  1.0856 -1.5106
 9186SOL    HW239021   1.611   3.153   0.423 -2.1123  0.2085  0.4849
 9187SOL     OW39022   0.023   1.857  11.661 -0.1641 -0.6074 -0.4614
 9187SOL    HW139023   4.654   1.880  11.629  0.5636  0.8048 -1.4385
 9187SOL    HW239024   0.038   1.765  11.636  1.7727 -0.0767 -1.2104
 9188SOL     OW39025   4.547   3.509   3.516 -0.3902  0.3376 -0.0884
 9188SOL    HW139026   4.477   3.555   3.470 -1.9986 -1.1858  0.8468
 9188SOL    HW239027   4.626   3.538   3.471 -1.8707  1.5866 -1.8815
 9189SOL     OW39028   1.544   2.637   2.319  0.4870  0.0143  0.0068
 9189SOL    HW139029   1.470   2.689   2.288  0.0102  0.1621  1.4241
 9189SOL    HW239030   1.534   2.625   2.413  0.6184  0.8472  0.1288
 9190SOL     OW39031   2.238   3.147   2.500 -0.0075 -0.0370  0.0197
 9190SOL    HW139032   2.324   3.140   2.459  0.7049 -0.5583  1.5955
 9190SOL    HW239033   2.182   3.154   2.423 -1.9001  0.1270  1.3903
 9191SOL     OW39034   3.314   1.671  14.988 -0.1805  0.5084 -0.0284
 9191SOL    HW139035   3.275   1.752  14.957  2.7915  0.4419 -3.9623
 9191SOL    HW239036   3.389   1.714  15.028  0.5895 -0.9261  0.0539
 9192SOL     OW39037   4.290   4.488   1.491  0.0018  0.4150 -0.2372
 9192SOL    HW139038   4.287   4.449   1.404 -0.0091  3.5736 -1.6714
 9192SOL    HW239039   4.374   4.533   1.494  0.9118 -1.4504  2.9607
 9193SOL     OW39040   1.313   2.916   4.679 -0.2994 -0.5749 -0.4561
 9193SOL    HW139041   1.353   2.964   4.606 -0.2249  1.1545  0.7275
 9193SOL    HW239042   1.238   2.975   4.680 -0.9515 -1.3997 -0.1103
 9194SOL     OW39043   2.459   1.535  16.991  0.0202 -0.7002  0.9306
 9194SOL    HW139044   2.554   1.545  16.980 -0.6580  2.3443 -2.1908
 9194SOL    HW239045   2.433   1.626  16.975  1.2832 -0.3287  0.9892
 9195SOL     OW39046   1.808   2.796   6.816  0.1326 -0.1300 -0.4214
 9195SOL    HW139047   1.758   2.715   6.817 -1.2641  0.7035 -2.0921
 9195SOL    HW239048   1.747   2.854   6.862  2.1713  2.7167 -1.2652
 9196SOL     OW39049   4.251   3.867   8.370  0.1913 -0.5954 -0.0359
 9196SOL    HW139050   4.267   3.837   8.281 -0.1500 -1.4655  0.1848
 9196SOL    HW239051   4.165   3.829   8.389  0.9559 -0.2331  4.2789
 9197SOL     OW39052   3.287   3.865   8.260 -0.1316  0.8255 -0.0341
 9197SOL    HW139053   3.234   3.802   8.211  0.7769 -0.4278  0.5814
 9197SOL    HW239054   3.251   3.852   8.348 -0.4068 -1.6166 -0.5093
 9198SOL     OW39055   0.218   0.693   9.703  0.0067  0.7837  0.3139
 9198SOL    HW139056   0.299   0.651   9.733  0.5227  0.2259 -1.8325
 9198SOL    HW239057   0.156   0.650   9.763  1.2854  0.5148  1.4493
 9199SOL     OW39058   4.396   1.375  14.671 -0.1222 -0.0564  0.0311
 9199SOL    HW139059   4.332   1.436  14.709  2.3888  1.8852  1.1758
 9199SOL    HW239060   4.458   1.448  14.671  0.4249 -0.5192 -0.3062
 9200SOL     OW39061   2.263   3.296   8.358 -0.1552  0.4728  0.0832
 9200SOL    HW139062   2.233   3.209   8.386  0.2014 -0.0576 -1.1881
 9200SOL    HW239063   2.283   3.341   8.441 -1.1009  0.0822  0.5226
 9201SOL     OW39064   4.339   0.930   8.143  0.5902 -0.6371  0.1968
 9201SOL    HW139065   4.432   0.950   8.143  0.9135 -2.1688  2.1602
 9201SOL    HW239066   4.316   0.915   8.234  0.7211  2.9357  0.8341
 9202SOL     OW39067   2.599   2.153   6.056  0.4330  0.7720 -0.2249
 9202SOL    HW139068   2.554   2.232   6.027  0.6553  0.6549 -0.8947
 9202SOL    HW239069   2.687   2.181   6.080  1.1039 -1.9426  0.4741
 9203SOL     OW39070   4.457   0.453   9.557 -0.4941 -0.0308 -0.4238
 9203SOL    HW139071   4.547   0.485   9.549 -0.5017  0.0679 -0.1185
 9203SOL    HW239072   4.418   0.486   9.477  1.1354 -0.6535 -1.4688
 9204SOL     OW39073   2.716   0.762   0.358  0.1150 -0.1246 -0.3291
 9204SOL    HW139074   2.653   0.832   0.378 -3.0744 -3.0148 -0.1541
 9204SOL    HW239075   2.790   0.802   0.403  0.9070 -0.2179 -1.5323
 9205SOL     OW39076   4.463   1.307   2.304 -0.1177 -0.5089 -0.1218
 9205SOL    HW139077   4.415   1.230   2.335 -0.7050 -0.4503 -0.8832
 9205SOL    HW239078   4.482   1.353   2.385  0.0585  1.2759 -1.1835
 9206SOL     OW39079   0.624   1.632   1.285  0.0222 -0.4162  0.2631
 9206SOL    HW139080   0.689   1.562   1.274  0.3014 -0.0030 -0.7186
 9206SOL    HW239081   0.682   1.704   1.262 -0.7558 -0.8279 -2.9914
 9207SOL     OW39082   3.526   1.991   9.876  0.1123  1.0378 -0.6309
 9207SOL    HW139083   3.509   1.944   9.957  0.8223  0.1496 -0.9909
 9207SOL    HW239084   3.481   1.937   9.810 -0.6324  0.9041 -0.0096
 9208SOL     OW39085   0.215   2.958   4.758 -0.7236  0.5180  0.4634
 9208SOL    HW139086   0.262   2.911   4.689 -0.0732  0.1442  1.1700
 9208SOL    HW239087   0.284   3.013   4.795  0.5973 -0.4295 -0.5667
 9209SOL     OW39088   1.202   4.486   3.783 -0.4297 -0.1086  0.0867
 9209SOL    HW139089   1.286   4.517   3.816 -0.1011  0.1819 -1.0115
 9209SOL    HW239090   1.166   4.455   3.866  0.5846 -1.9279 -0.1682
 9210SOL     OW39091   4.675   1.728   5.274 -0.1273 -0.4101 -0.0687
 9210SOL    HW139092   4.688   1.643   5.315  2.4536 -0.1824 -0.4137
 9210SOL    HW239093   4.677   1.786   5.350 -2.1756 -1.7404  1.0022
 9211SOL     OW39094   1.025   2.628   7.570 -0.3894  0.4135 -0.1544
 9211SOL    HW139095   1.061   2.550   7.611  0.0263 -0.6847 -2.6035
 9211SOL    HW239096   0.930   2.621   7.581 -0.6506  1.4838 -1.7566
 9212SOL     OW39097   4.412   1.208   5.565 -0.2274  0.4891  0.0786
 9212SOL    HW139098   4.354   1.284   5.561 -2.1821 -0.9300  1.3608
 9212SOL    HW239099   4.371   1.151   5.499  0.4185 -1.8333  1.6845
 9213SOL     OW39100   0.254   3.356   1.400 -0.8816 -0.2390  0.1134
 9213SOL    HW139101   0.314   3.404   1.457 -0.7683 -0.8678  0.5159
 9213SOL    HW239102   0.321   3.334   1.335  0.1093  1.0600  0.6858
 9214SOL     OW39103   1.276   0.330   6.608  0.1513 -0.3000 -0.5154
 9214SOL    HW139104   1.307   0.240   6.600 -1.4226 -1.1607  2.9236
 9214SOL    HW239105   1.313   0.371   6.530 -0.0426 -1.6372 -1.3197
 9215SOL     OW39106   0.521   2.668   4.201  0.6708 -0.2319 -0.0569
 9215SOL    HW139107   0.528   2.623   4.117  0.6996 -1.5251  0.6493
 9215SOL    HW239108   0.455   2.731   4.171 -0.4298 -2.3447 -2.1077
 9216SOL     OW39109   4.630   1.584   1.676  0.1114  0.4368 -0.1265
 9216SOL    HW139110   4.628   1.610   1.584 -1.5419 -0.6993 -0.4170
 9216SOL    HW239111   4.539   1.610   1.692 -0.2873 -1.7649  1.2870
 9217SOL     OW39112   1.494   0.126   6.792  0.1946 -0.3943 -0.0141
 9217SOL    HW139113   1.483   0.133   6.697 -1.6904  1.2729  0.3246
 9217SOL    HW239114   1.525   0.035   6.801 -0.8167 -0.6474  0.9914
 9218SOL     OW39115   1.170   3.596   5.054 -0.0319  0.5547  0.3508
 9218SOL    HW139116   1.122   3.677   5.036  1.7958  1.3865 -0.7911
 9218SOL    HW239117   1.168   3.582   5.149 -0.3993  0.0081  0.2586
 9219SOL     OW39118   4.240   2.501   9.001  0.0254 -0.0782  0.0650
 9219SOL    HW139119   4.163   2.445   8.996 -0.1228  0.3665 -2.8754
 9219SOL    HW239120   4.305   2.446   9.046 -0.0787  0.5899  1.0155
 9220SOL     OW39121   1.182   3.401   4.846 -0.0063 -0.0156 -0.1350
 9220SOL    HW139122   1.197   3.472   4.909 -0.1855 -2.4720  2.7053
 9220SOL    HW239123   1.147   3.451   4.773  1.1534  1.1067  0.0798
 9221SOL     OW39124   4.233   0.867   5.177 -0.1896  0.2724 -0.3178
 9221SOL    HW139125   4.187   0.821   5.107  0.8759  0.0650 -0.8816
 9221SOL    HW239126   4.294   0.798   5.204  0.0466  0.0772 -1.3415
 9222SOL     OW39127   3.933   2.099   3.828 -0.1427  0.2519  0.3634
 9222SOL    HW139128   4.027   2.082   3.823 -0.1362  0.1906  0.6989
 9222SOL    HW239129   3.923   2.160   3.902 -0.3666  1.6922 -0.8442
 9223SOL     OW39130   0.745   4.035   3.357  0.4393  0.1666 -0.3656
 9223SOL    HW139131   0.732   3.991   3.273 -0.9632 -0.5909  0.2363
 9223SOL    HW239132   0.661   4.080   3.365 -0.1510 -0.6981 -1.6323
 9224SOL     OW39133   2.636   3.627   0.190  0.8636  0.2372 -0.4036
 9224SOL    HW139134   2.636   3.720   0.211 -0.1924  0.1955 -0.1826
 9224SOL    HW239135   2.706   3.589   0.243  0.0880 -0.0030  0.4621
 9225SOL     OW39136   1.055   0.898   2.758  0.3577  0.0400 -0.1009
 9225SOL    HW139137   1.027   0.815   2.796  0.0180  0.2106  0.0230
 9225SOL    HW239138   1.130   0.885   2.700 -0.3352  0.8022 -1.1632
 9226SOL     OW39139   1.888   2.194   4.048  0.0851  0.4108  0.0886
 9226SOL    HW139140   1.949   2.237   3.988  0.0091  0.0495 -0.2443
 9226SOL    HW239141   1.887   2.266   4.111  1.0118  1.4672 -1.1106
 9227SOL     OW39142   0.224   2.426   7.585 -0.2213  0.0067 -0.4716
 9227SOL    HW139143   0.170   2.352   7.557 -0.6668  0.1233  0.0771
 9227SOL    HW239144   0.283   2.378   7.643 -0.7720 -1.3780 -1.0687
 9228SOL     OW39145   2.480   0.059   5.451 -0.0103 -0.4859 -0.3732
 9228SOL    HW139146   2.566   0.091   5.425  0.7257 -0.6447  1.8599
 9228SOL    HW239147   2.464   0.089   5.541 -3.0689  1.1057 -1.4577
 9229SOL     OW39148   0.573   3.688   5.861 -0.1884  0.2113  0.2873
 9229SOL    HW139149   0.664   3.663   5.870 -0.3056  0.6005  2.5827
 9229SOL    HW239150   0.533   3.602   5.873 -1.7926  0.8148 -0.5981
 9230SOL     OW39151   4.307   1.680  17.300 -0.5196  0.3155 -0.8148
 9230SOL    HW139152   4.264   1.622  17.362  0.6481 -1.6423 -1.8235
 9230SOL    HW239153   4.342   1.745  17.361 -2.6507  0.1001  0.5937
 9231SOL     OW39154   3.445   0.076   3.746  0.2239  0.4323 -0.4133
 9231SOL    HW139155   3.395   0.135   3.802  1.4743  1.0052  0.1124
 9231SOL    HW239156   3.511   0.136   3.711  0.5297  2.4817  3.6651
 9232SOL     OW39157   1.357   0.017   2.509  0.1994  0.1207  0.3946
 9232SOL    HW139158   1.318   0.077   2.445  0.3069 -1.7122 -1.3937
 9232SOL    HW239159   1.335   0.058   2.592 -0.0130  2.5393 -0.8642
 9233SOL     OW39160   2.287   2.179  12.663  0.0444 -0.2972 -0.2422
 9233SOL    HW139161   2.192   2.184  12.668 -0.0931 -1.8903 -1.3014
 9233SOL    HW239162   2.296   2.091  12.700  1.8000  0.1025  0.2996
 9234SOL     OW39163   4.480   0.892   7.095 -0.1859  0.2007 -0.2863
 9234SOL    HW139164   4.420   0.966   7.109  2.0068  1.5450  2.0585
 9234SOL    HW239165   4.561   0.923   7.136  0.7419  1.5762 -3.1845
 9235SOL     OW39166   2.719   1.632  14.172 -0.3356  0.5109 -0.3480
 9235SOL    HW139167   2.660   1.694  14.214 -0.6461  0.4271 -0.6542
 9235SOL    HW239168   2.747   1.571  14.240  1.5847  1.3560 -0.3907
 9236SOL     OW39169   1.682   0.574  12.264  0.3257 -0.2398  0.2433
 9236SOL    HW139170   1.686   0.668  12.245 -1.3078  0.5322  3.6327
 9236SOL    HW239171   1.682   0.545  12.173  0.9793 -2.6231  1.0154
 9237SOL     OW39172   1.370   2.402   3.687 -0.2696 -0.0772  0.0063
 9237SOL    HW139173   1.458   2.365   3.694  0.1737  0.8875 -0.3363
 9237SOL    HW239174   1.325   2.368   3.764  0.7456  0.8354  1.0296
 9238SOL     OW39175   3.326   0.697   6.088 -0.0579 -0.5000 -0.4393
 9238SOL    HW139176   3.383   0.678   6.162 -1.0012 -1.3435  0.0602
 9238SOL    HW239177   3.370   0.649   6.018 -1.7628 -0.7423 -1.3408
 9239SOL     OW39178   3.692   1.024  14.115  0.1855  0.0770 -0.1018
 9239SOL    HW139179   3.705   0.930  14.122  0.1502  0.1523  1.0691
 9239SOL    HW239180   3.765   1.041  14.056 -0.5541 -0.0210 -1.0388
 9240SOL     OW39181   3.812   2.564  13.227 -0.3202 -0.0443 -0.3322
 9240SOL    HW139182   3.773   2.600  13.147 -1.1206  1.0087  0.5369
 9240SOL    HW239183   3.767   2.614  13.294 -0.0943  0.2075 -0.3659
 9241SOL     OW39184   3.148   0.331   4.185  0.2506 -0.1075 -0.5796
 9241SOL    HW139185   3.170   0.294   4.271  1.3894 -0.4420 -1.0178
 9241SOL    HW239186   3.127   0.421   4.210 -0.4896 -0.2210 -0.7973
 9242SOL     OW39187   2.927   2.350  14.261  0.1708 -0.6586 -0.1525
 9242SOL    HW139188   2.969   2.431  14.289  2.0309 -1.4576 -0.5833
 9242SOL    HW239189   2.968   2.340  14.175 -1.3457  0.7492 -1.0187
 9243SOL     OW39190   0.697   2.486   5.211 -0.2565 -0.0417 -0.1529
 9243SOL    HW139191   0.679   2.399   5.174  1.7419 -1.1554  1.4487
 9243SOL    HW239192   0.663   2.468   5.299  0.8165  1.2753  0.5280
 9244SOL     OW39193   3.428   3.734   6.989 -0.8974 -0.0122  0.4092
 9244SOL    HW139194   3.360   3.768   6.932  1.0030  0.9305 -1.3021
 9244SOL    HW239195   3.400   3.645   7.008 -0.8472 -0.0667  0.2312
 9245SOL     OW39196   2.993   3.112   3.532 -0.0660  0.0130 -0.1561
 9245SOL    HW139197   3.075   3.160   3.518  0.2703 -0.1223  1.3619
 9245SOL    HW239198   2.937   3.183   3.501  0.7244  1.0082  0.6882
 9246SOL     OW39199   3.877   0.272   8.565 -0.2605  0.2858  0.0747
 9246SOL    HW139200   3.897   0.183   8.592  2.8518  1.6489  2.2262
 9246SOL    HW239201   3.793   0.254   8.522  0.1477  1.9881 -1.4601
 9247SOL     OW39202   3.599   2.505  14.321  0.1095  0.1295 -0.4237
 9247SOL    HW139203   3.620   2.596  14.299  0.0059  0.8088  2.3290
 9247SOL    HW239204   3.684   2.476  14.353  0.5395  1.5774 -0.2783
 9248SOL     OW39205   4.234   0.304   7.431  0.4357 -0.3339 -0.4725
 9248SOL    HW139206   4.236   0.232   7.494  0.5775 -2.0451 -2.4324
 9248SOL    HW239207   4.140   0.325   7.430  0.4911 -0.0239  2.7963
 9249SOL     OW39208   2.973   2.079   5.502  0.1373  0.2795 -0.2630
 9249SOL    HW139209   3.034   2.021   5.547  0.0058 -1.4044 -2.2941
 9249SOL    HW239210   2.967   2.156   5.559 -0.1759 -0.1386  0.2775
 9250SOL     OW39211   2.035   4.420   2.824 -0.7117  0.2697 -0.4034
 9250SOL    HW139212   2.035   4.346   2.884  1.3681  1.7328  1.3873
 9250SOL    HW239213   1.967   4.471   2.868  0.5912  1.8694 -0.2678
 9251SOL     OW39214   1.028   3.837   5.051  0.3967 -0.7714  0.2337
 9251SOL    HW139215   1.063   3.868   5.135  0.2425 -0.1466  0.0680
 9251SOL    HW239216   1.015   3.918   5.002 -1.8909 -1.7001 -0.6742
 9252SOL     OW39217   2.950   3.900   5.240  0.6107 -0.2979  0.6521
 9252SOL    HW139218   2.854   3.905   5.238  0.7646  2.8536  0.1943
 9252SOL    HW239219   2.970   3.896   5.147 -0.3889 -2.0544  0.5239
 9253SOL     OW39220   2.872   1.657  13.339 -0.4127 -0.1627 -0.3467
 9253SOL    HW139221   2.951   1.603  13.340 -0.4536 -0.2295 -0.9500
 9253SOL    HW239222   2.891   1.711  13.416  2.2584  1.6399 -2.2756
 9254SOL     OW39223   4.127   2.235  14.862 -0.2189  0.2771  0.9425
 9254SOL    HW139224   4.138   2.147  14.826  0.9604  0.4647  0.8416
 9254SOL    HW239225   4.157   2.226  14.952  1.4434 -2.6764  0.0769
 9255SOL     OW39226   1.641   2.231  12.968 -0.1576  1.0182  0.7776
 9255SOL    HW139227   1.640   2.319  13.005  1.1284  0.6367  1.7070
 9255SOL    HW239228   1.734   2.219  12.988 -0.1080 -0.8819 -0.6236
 9256SOL     OW39229   2.870   2.929  10.473  0.1866  0.3427 -0.7207
 9256SOL    HW139230   2.796   2.972  10.429 -1.2767  0.4103  1.8395
 9256SOL    HW239231   2.842   2.918  10.563  0.7134  1.6683 -0.4028
 9257SOL     OW39232   3.204   3.797  17.224  0.2069 -0.6799  0.4204
 9257SOL    HW139233   3.109   3.785  17.236 -0.4403  1.1626 -2.6920
 9257SOL    HW239234   3.244   3.742  17.291  0.7766  1.6356  1.9940
 9258SOL     OW39235   0.197   2.637   2.415  0.5682 -0.0324 -0.6547
 9258SOL    HW139236   0.228   2.679   2.495  2.2562 -1.1517 -0.7275
 9258SOL    HW239237   0.192   2.712   2.356 -0.4155  0.2323 -0.2466
 9259SOL     OW39238   0.452   0.309   9.902 -0.4146 -0.6050 -0.0409
 9259SOL    HW139239   0.517   0.242   9.923 -0.6951 -0.7975  0.2065
 9259SOL    HW239240   0.372   0.257   9.911  0.2057 -1.6507 -0.6296
 9260SOL     OW39241   2.093   2.481   8.293  0.2212 -0.4572  0.0718
 9260SOL    HW139242   2.084   2.576   8.291  0.1132 -0.4571  0.4906
 9260SOL    HW239243   2.188   2.479   8.302 -0.0140 -1.8800  2.4753
 9261SOL     OW39244   4.211   0.755  11.689 -0.2715 -0.3463  0.5202
 9261SOL    HW139245   4.248   0.673  11.656 -0.0398  1.1910 -3.0316
 9261SOL    HW239246   4.242   0.814  11.621 -2.4329 -1.0426 -1.0693
 9262SOL     OW39247   1.224   4.441   9.162  0.4703  0.2248 -0.0818
 9262SOL    HW139248   1.129   4.456   9.170  0.4251  0.3334 -0.8432
 9262SOL    HW239249   1.253   4.519   9.114 -0.0216  1.6626  1.9338
 9263SOL     OW39250   2.369   0.956   7.059  0.3352  0.4538 -0.8700
 9263SOL    HW139251   2.383   1.038   7.011  2.6019  1.7488  1.9674
 9263SOL    HW239252   2.460   0.926   7.060  0.0395 -0.4223 -0.7664
 9264SOL     OW39253   1.596   2.575   4.036 -0.1451  0.4681 -0.0725
 9264SOL    HW139254   1.650   2.520   3.979 -0.0868  0.4228  0.0274
 9264SOL    HW239255   1.654   2.596   4.110 -0.2211  0.2811  0.0406
 9265SOL     OW39256   1.282   1.668  10.349 -0.2624 -0.0361  0.3659
 9265SOL    HW139257   1.308   1.627  10.431  0.3900  1.1836  0.7701
 9265SOL    HW239258   1.201   1.710  10.376 -0.1386  0.1946  0.3802
 9266SOL     OW39259   2.756   4.327   0.956  0.6598 -0.4282  0.4672
 9266SOL    HW139260   2.784   4.321   1.047  3.1677  0.9871 -0.2152
 9266SOL    HW239261   2.688   4.393   0.965 -0.8108 -1.7588 -0.8903
 9267SOL     OW39262   1.229   0.891   8.816 -0.4384 -0.5927 -0.1037
 9267SOL    HW139263   1.163   0.830   8.784  0.7370 -2.0453  0.2652
 9267SOL    HW239264   1.307   0.878   8.763 -0.2635  1.0299 -0.2556
 9268SOL     OW39265   3.162   1.933   2.855 -0.0694 -1.0991  0.1477
 9268SOL    HW139266   3.177   1.841   2.833  1.1985 -1.1092  1.0715
 9268SOL    HW239267   3.150   1.915   2.948 -1.7274  2.1177  0.5305
 9269SOL     OW39268   1.264   3.190   2.753  0.2147 -0.2478  0.0608
 9269SOL    HW139269   1.264   3.131   2.828  2.6366  0.9914  0.9990
 9269SOL    HW239270   1.196   3.141   2.705  0.2564  1.2926 -1.5817
 9270SOL     OW39271   0.440   1.243   6.430 -0.2150  0.6452 -0.4683
 9270SOL    HW139272   0.489   1.189   6.492 -0.3126 -0.8038 -1.6727
 9270SOL    HW239273   0.349   1.217   6.445 -0.4318  1.5741 -0.1752
 9271SOL     OW39274   4.116   2.464   8.219 -0.1738  0.6316  0.0656
 9271SOL    HW139275   4.111   2.396   8.152 -1.8241  1.3252 -0.5191
 9271SOL    HW239276   4.194   2.438   8.268 -1.7968 -2.0714  1.1740
 9272SOL     OW39277   0.171   1.289   6.723 -0.0545 -0.0001 -0.2005
 9272SOL    HW139278   0.137   1.348   6.790  0.8433 -0.0278  0.2706
 9272SOL    HW239279   0.162   1.348   6.648  1.1180  2.4509  1.5897
 9273SOL     OW39280   0.273   4.585   2.283  0.0418  0.1094 -0.1188
 9273SOL    HW139281   0.293   4.503   2.239  1.5375  0.4053  0.0196
 9273SOL    HW239282   0.275   4.646   2.209  0.2074 -0.4912 -0.6094
 9274SOL     OW39283   3.111   1.063   8.397 -0.2088 -0.3075 -0.0698
 9274SOL    HW139284   3.100   1.157   8.383  1.4261 -0.0561  0.3010
 9274SOL    HW239285   3.130   1.050   8.490 -0.8854 -4.1284 -0.5022
 9275SOL     OW39286   1.954   1.194  15.597  0.3847  0.1799 -0.1823
 9275SOL    HW139287   1.978   1.142  15.521 -3.9986 -0.5736 -1.0552
 9275SOL    HW239288   2.019   1.264  15.599  0.6915 -0.1286  1.0360
 9276SOL     OW39289   1.915   3.783   0.581  0.1027 -0.1219 -0.0039
 9276SOL    HW139290   1.985   3.749   0.636  0.3745  0.7686  0.2045
 9276SOL    HW239291   1.900   3.714   0.516  0.2608 -2.4310  2.4024
 9277SOL     OW39292   2.941   3.734  17.582 -0.3058 -0.3561  0.4453
 9277SOL    HW139293   2.931   3.787  17.503  1.0634 -0.0200  0.5065
 9277SOL    HW239294   2.862   3.679  17.584  0.6427 -1.7499 -0.1865
 9278SOL     OW39295   0.004   3.079   3.291 -0.1115  0.0889 -0.4796
 9278SOL    HW139296   0.001   3.042   3.380 -1.2439 -1.2989 -1.0942
 9278SOL    HW239297   4.659   3.150   3.303  0.6527  0.7274 -0.1816
 9279SOL     OW39298   1.889   0.250  11.412 -0.1315  0.5025 -0.2201
 9279SOL    HW139299   1.928   0.234  11.326  0.7362 -0.9730  0.4613
 9279SOL    HW239300   1.954   0.298  11.462  1.8544 -1.9395 -0.4657
 9280SOL     OW39301   1.573   2.005  10.762 -0.2626 -0.3305 -0.6160
 9280SOL    HW139302   1.503   2.055  10.803 -0.7998 -0.9564 -0.7827
 9280SOL    HW239303   1.625   1.987  10.841  0.5634  0.1517 -1.0427
 9281SOL     OW39304   2.331   4.406   2.454 -0.6990  0.2858  0.3882
 9281SOL    HW139305   2.284   4.461   2.517  1.6944  0.4276  2.0372
 9281SOL    HW239306   2.374   4.345   2.514  0.3576 -0.8264 -1.4966
 9282SOL     OW39307   0.586   2.609  14.055  0.1778  0.0214 -0.0543
 9282SOL    HW139308   0.588   2.539  14.120  0.3782  1.1100  1.1136
 9282SOL    HW239309   0.494   2.635  14.056  0.6483  1.6804 -0.2891
 9283SOL     OW39310   2.547   2.219   7.143  0.2388 -0.1464 -0.1536
 9283SOL    HW139311   2.452   2.202   7.141  0.4661 -1.3738 -0.8941
 9283SOL    HW239312   2.553   2.306   7.181  0.1687  0.7132 -2.0858
 9284SOL     OW39313   2.839   1.852  10.716  0.3184  0.1455 -0.4477
 9284SOL    HW139314   2.801   1.803  10.789  0.4852  0.6354 -0.0370
 9284SOL    HW239315   2.929   1.820  10.724 -0.2414 -1.5232 -0.7995
 9285SOL     OW39316   4.314   1.972   4.739  0.5100  0.8835 -0.1822
 9285SOL    HW139317   4.358   1.907   4.685  0.3929 -0.5492  1.4480
 9285SOL    HW239318   4.229   1.970   4.694  0.8304 -1.2378 -0.7068
 9286SOL     OW39319   1.115   0.736  16.383  0.5687  0.3716  0.3663
 9286SOL    HW139320   1.174   0.712  16.311  0.9808  1.1691  0.4420
 9286SOL    HW239321   1.034   0.686  16.370 -0.2851  2.0453 -0.6343
 9287SOL     OW39322   4.389   3.623   7.410  0.4102  0.1943 -0.1768
 9287SOL    HW139323   4.368   3.599   7.319 -0.4946 -0.9970  0.3483
 9287SOL    HW239324   4.475   3.661   7.392  0.2185  1.5144  1.7699
 9288SOL     OW39325   4.256   3.161   8.852 -0.3842  0.0879 -0.0670
 9288SOL    HW139326   4.271   3.197   8.765  0.6492 -0.3545 -0.0702
 9288SOL    HW239327   4.238   3.070   8.828 -0.1074  0.3427 -1.2349
 9289SOL     OW39328   4.057   2.881   3.724 -0.4189  0.3029  0.3258
 9289SOL    HW139329   4.120   2.887   3.795  0.6669 -1.5956 -0.4740
 9289SOL    HW239330   4.122   2.886   3.654 -0.5553 -3.0584 -0.0616
 9290SOL     OW39331   0.676   1.361   7.627 -0.3360  0.3675 -0.4414
 9290SOL    HW139332   0.761   1.327   7.598 -0.1391  0.1177  0.4007
 9290SOL    HW239333   0.615   1.287   7.633 -0.7581  0.5493 -2.8780
 9291SOL     OW39334   1.807   1.268  11.275 -0.1909  0.1067  0.1809
 9291SOL    HW139335   1.829   1.192  11.221  0.4268 -0.0312  0.6245
 9291SOL    HW239336   1.746   1.231  11.338 -2.0700  0.4439 -1.4665
 9292SOL     OW39337   4.039   4.397   3.653 -0.0503  0.0060  0.3205
 9292SOL    HW139338   4.102   4.426   3.587 -0.1907 -0.1572  0.1172
 9292SOL    HW239339   4.085   4.405   3.737  1.9801  3.4874 -1.1096
 9293SOL     OW39340   2.534   3.584   6.893  0.0163  0.0299  0.6868
 9293SOL    HW139341   2.470   3.531   6.940 -1.1179 -0.0270 -0.9087
 9293SOL    HW239342   2.620   3.547   6.911 -0.2868 -1.8139 -1.6437
 9294SOL     OW39343   3.085   1.599  16.543 -0.4482 -0.1155  0.0147
 9294SOL    HW139344   3.017   1.583  16.609 -0.4724  0.7016  0.1851
 9294SOL    HW239345   3.162   1.600  16.600 -0.4175 -3.0472  0.0241
 9295SOL     OW39346   0.104   1.320   5.199 -0.1603 -0.0655  0.2813
 9295SOL    HW139347   0.162   1.255   5.238 -0.4702  0.9157  2.3388
 9295SOL    HW239348   0.139   1.307   5.110  0.5957  3.9603 -0.0343
 9296SOL     OW39349   4.083   2.798   2.693  0.3460 -0.0870  0.2881
 9296SOL    HW139350   4.041   2.713   2.706 -2.0635  0.5088 -3.4082
 9296SOL    HW239351   4.163   2.769   2.650  0.4332  1.0522 -0.3246
 9297SOL     OW39352   0.462   4.062  11.305 -0.1968  0.4906  0.8725
 9297SOL    HW139353   0.458   4.151  11.272 -1.8090  0.3011  0.5629
 9297SOL    HW239354   0.414   4.072  11.387  0.8146 -2.1148  1.8160
 9298SOL     OW39355   1.751   3.303   5.788 -0.1970 -0.4420 -0.0550
 9298SOL    HW139356   1.823   3.362   5.766 -2.4561  1.5925 -2.0927
 9298SOL    HW239357   1.699   3.322   5.710  0.3179 -1.7630 -0.7147
 9299SOL     OW39358   2.789   4.360   4.959  0.0203 -0.2333 -0.0744
 9299SOL    HW139359   2.871   4.311   4.964 -1.1492 -2.3299 -1.7576
 9299SOL    HW239360   2.812   4.445   4.997  0.8954  0.2565 -1.7072
 9300SOL     OW39361   3.999   2.205   6.564  0.1196 -0.1303  0.0978
 9300SOL    HW139362   4.066   2.136   6.569  0.7176  0.2908 -2.3695
 9300SOL    HW239363   3.999   2.220   6.658 -1.5930 -1.6258  0.3622
 9301SOL     OW39364   2.012   4.146  13.324 -0.0794  0.2512 -0.5003
 9301SOL    HW139365   1.919   4.141  13.302 -0.2843  1.8701  0.0216
 9301SOL    HW239366   2.013   4.129  13.418  1.9409 -1.7204 -0.8662
 9302SOL     OW39367   2.059   0.332  17.162  0.0422  0.0143 -0.0906
 9302SOL    HW139368   2.011   0.251  17.144 -0.1691  0.0847  0.1545
 9302SOL    HW239369   1.987   0.394  17.174  0.2665 -0.1605  2.1770
 9303SOL     OW39370   2.551   0.681   5.900 -0.2346 -0.5664  0.0736
 9303SOL    HW139371   2.546   0.669   5.995  2.1102  1.7026  0.4453
 9303SOL    HW239372   2.480   0.620   5.879 -0.3931 -0.2252 -0.3983
 9304SOL     OW39373   4.459   4.065   0.102  0.4911  0.1096 -0.0378
 9304SOL    HW139374   4.474   4.051   0.195 -1.5689  0.7792  0.3996
 9304SOL    HW239375   4.491   3.979   0.077  0.0840  0.1090 -0.5810
 9305SOL     OW39376   0.516   1.228   5.864  0.4491  0.3962 -0.0949
 9305SOL    HW139377   0.522   1.303   5.923  3.1575 -1.4655  1.9596
 9305SOL    HW239378   0.488   1.156   5.920  0.6324  0.8582  0.5921
 9306SOL     OW39379   1.484   0.578   8.786 -0.1145  0.2757 -0.3009
 9306SOL    HW139380   1.454   0.637   8.718 -0.3683  1.2686  0.6775
 9306SOL    HW239381   1.491   0.641   8.858  2.1958 -1.2085  0.7805
 9307SOL     OW39382   4.264   3.859   5.842  0.9660 -0.4042 -0.0562
 9307SOL    HW139383   4.246   3.928   5.779  0.2356 -0.0710  0.5134
 9307SOL    HW239384   4.296   3.911   5.916 -0.7640  0.7894 -0.1515
 9308SOL     OW39385   0.959   1.369   7.993 -0.4308 -0.5984 -0.5731
 9308SOL    HW139386   0.874   1.410   7.975  0.0275 -0.1693 -1.7680
 9308SOL    HW239387   0.983   1.321   7.913  1.0190 -0.3816 -0.2703
 9309SOL     OW39388   4.227   2.580  15.413  0.2188  0.0773  0.5428
 9309SOL    HW139389   4.315   2.616  15.424 -0.3141  1.7059 -0.5652
 9309SOL    HW239390   4.199   2.618  15.330  1.7110 -0.3369 -0.1479
 9310SOL     OW39391   1.041   1.439   9.281  0.9387 -0.0782  0.7421
 9310SOL    HW139392   1.114   1.378   9.288  2.0626  1.3366  1.4637
 9310SOL    HW239393   1.071   1.529   9.294 -1.1637  0.7708 -0.2869
 9311SOL     OW39394   3.152   4.497  10.284  0.4108 -0.1892 -0.5244
 9311SOL    HW139395   3.138   4.467  10.374 -1.4497  2.3578  0.0347
 9311SOL    HW239396   3.239   4.537  10.286  0.5598 -0.6083  1.4024
 9312SOL     OW39397   1.038   2.202   3.123  0.3820 -0.1259 -0.5508
 9312SOL    HW139398   1.055   2.187   3.216  1.7678  0.5231 -0.7019
 9312SOL    HW239399   0.956   2.153   3.112  1.4514 -2.4735  1.9802
 9313SOL     OW39400   3.080   2.221   3.578  1.0899  0.2631 -0.6840
 9313SOL    HW139401   3.129   2.150   3.537  0.6237  1.6921 -3.7315
 9313SOL    HW239402   3.149   2.285   3.595 -0.8116  1.9905  0.5756
 9314SOL     OW39403   0.566   0.292  11.037 -0.0020  0.7386 -0.1408
 9314SOL    HW139404   0.549   0.198  11.048 -1.0855  1.1558  1.7719
 9314SOL    HW239405   0.561   0.319  11.129  2.6382  0.9943 -0.0826
 9315SOL     OW39406   0.837   0.349  16.958  0.5794 -0.8107 -0.0014
 9315SOL    HW139407   0.929   0.320  16.963 -0.0843 -2.7205  1.2932
 9315SOL    HW239408   0.824   0.376  17.049  0.2957  2.2938 -0.9712
 9316SOL     OW39409   2.141   0.561   4.047  0.0547 -0.3503 -0.1181
 9316SOL    HW139410   2.198   0.630   4.082  1.1114 -1.9365  1.3140
 9316SOL    HW239411   2.146   0.578   3.953  0.2190  0.0990 -0.0271
 9317SOL     OW39412   3.936   1.626   7.048  0.0278 -0.4523  0.3807
 9317SOL    HW139413   4.003   1.582   6.996 -1.5245 -1.5116 -0.7448
 9317SOL    HW239414   3.862   1.627   6.987 -0.0560  1.2256  0.5094
 9318SOL     OW39415   3.252   0.088  16.357  0.1869  0.3410 -0.1994
 9318SOL    HW139416   3.281   0.178  16.370 -0.4214  0.3142  1.3030
 9318SOL    HW239417   3.323   0.051  16.409 -0.0257  0.4125  0.1370
 9319SOL     OW39418   2.455   0.466   1.628  0.4861 -0.4509 -0.2105
 9319SOL    HW139419   2.480   0.557   1.613  0.3459  0.0193  2.3652
 9319SOL    HW239420   2.361   0.479   1.642  0.0822  0.0250 -3.4754
 9320SOL     OW39421   3.359   2.625  10.153  0.1625  0.3884 -0.1150
 9320SOL    HW139422   3.362   2.540  10.198 -1.1004 -0.8306 -2.3303
 9320SOL    HW239423   3.446   2.662  10.169  0.7702 -0.2526 -1.8918
 9321SOL     OW39424   2.056   1.216   9.288 -0.2502  0.2826  0.2285
 9321SOL    HW139425   2.090   1.225   9.199  3.2278 -0.6130  1.4599
 9321SOL    HW239426   2.072   1.303   9.326 -2.1084  0.2837  1.0375
 9322SOL     OW39427   3.504   1.022   8.427 -0.6527 -0.3663 -0.0974
 9322SOL    HW139428   3.421   0.978   8.408 -0.8722 -0.4398  1.0320
 9322SOL    HW239429   3.506   1.021   8.523  3.8660 -1.5518 -0.1739
 9323SOL     OW39430   1.324   0.989  12.626 -0.3598  0.4586 -0.1326
 9323SOL    HW139431   1.395   1.017  12.569 -0.8118 -0.6387 -1.2270
 9323SOL    HW239432   1.367   0.912  12.662 -1.5688  0.0522  0.4499
 9324SOL     OW39433   3.930   3.174  14.640 -0.2615 -0.2683  0.3051
 9324SOL    HW139434   3.938   3.231  14.564 -2.0841 -0.2675  0.1031
 9324SOL    HW239435   3.914   3.231  14.715  0.3505  2.4613 -1.6355
 9325SOL     OW39436   2.830   2.238   4.795  0.0982 -0.5478 -0.2299
 9325SOL    HW139437   2.879   2.258   4.715  0.8566 -1.5971 -0.0199
 9325SOL    HW239438   2.896   2.205   4.856 -0.7395 -0.3859  0.7671
 9326SOL     OW39439   3.192   3.923   4.769  0.2454 -0.4221 -0.0433
 9326SOL    HW139440   3.137   3.881   4.835  2.3309 -0.8228  1.4542
 9326SOL    HW239441   3.225   3.849   4.718 -1.4595 -2.1867  1.4498
 9327SOL     OW39442   4.261   3.943   6.652 -0.0097  0.5884  0.3480
 9327SOL    HW139443   4.189   3.902   6.700  1.0641  0.0998  1.5193
 9327SOL    HW239444   4.216   4.020   6.616 -2.4052 -0.8875  0.2131
 9328SOL     OW39445   2.351   0.867   9.097 -0.3950 -0.6116  0.0432
 9328SOL    HW139446   2.330   0.777   9.122 -1.8159  0.3404  2.3019
 9328SOL    HW239447   2.413   0.854   9.025 -1.8789 -1.8182 -1.0198
 9329SOL     OW39448   0.034   4.470   6.441  0.3057  0.2573  0.4393
 9329SOL    HW139449   0.023   4.375   6.428 -1.0836  0.6811 -1.5469
 9329SOL    HW239450   4.697   4.466   6.519  0.6880  3.1043  0.8294
 9330SOL     OW39451   4.108   1.542   3.185 -0.1952  0.0960 -0.1421
 9330SOL    HW139452   4.099   1.493   3.104 -2.5850 -2.4706  1.6618
 9330SOL    HW239453   4.063   1.619   3.150  0.8297  0.5213 -0.5169
 9331SOL     OW39454   0.961   0.970   6.728 -0.1312  0.5641  0.0947
 9331SOL    HW139455   0.970   0.878   6.703  3.6055  0.9845 -0.0955
 9331SOL    HW239456   0.895   0.969   6.797  0.3668  0.4498  0.5724
 9332SOL     OW39457   2.063   4.384   5.238 -0.0369 -0.4680  0.0131
 9332SOL    HW139458   2.074   4.441   5.314 -1.8806 -1.2779  0.8843
 9332SOL    HW239459   2.069   4.438   5.160  2.4121 -2.5872 -1.2923
 9333SOL     OW39460   0.701   0.914   0.235 -0.0742  1.1889 -0.1178
 9333SOL    HW139461   0.739   0.992   0.196 -1.2810  1.4455 -0.7856
 9333SOL    HW239462   0.683   0.857   0.161 -1.6254 -1.0833  1.9856
 9334SOL     OW39463   3.248   4.500   5.082 -0.1678  0.6073 -0.0501
 9334SOL    HW139464   3.321   4.504   5.144 -0.3830  0.9120  0.1773
 9334SOL    HW239465   3.298   4.521   5.002  0.8361  0.4497  0.5321
 9335SOL     OW39466   0.024   1.509   2.386 -0.2642  0.2953 -0.0779
 9335SOL    HW139467   4.710   1.579   2.329  0.7981 -1.3811 -2.7420
 9335SOL    HW239468   4.665   1.489   2.439  0.1175 -0.4962  0.1845
 9336SOL     OW39469   3.504   1.765   6.424  0.4564 -0.2553 -0.2784
 9336SOL    HW139470   3.483   1.845   6.375  1.2351 -0.3255 -0.7320
 9336SOL    HW239471   3.483   1.798   6.511  2.1478 -0.9770  0.3997
 9337SOL     OW39472   3.040   2.316  10.236 -0.2362 -1.0781  0.1346
 9337SOL    HW139473   3.106   2.270  10.184  1.3635 -0.6914  1.8612
 9337SOL    HW239474   2.957   2.287  10.197  0.8951 -1.6465 -1.8351
 9338SOL     OW39475   3.284   0.823   4.981 -0.3270 -0.8704 -0.1121
 9338SOL    HW139476   3.298   0.780   5.066 -1.7172  2.1518  1.6397
 9338SOL    HW239477   3.329   0.906   4.990  0.5251 -1.2996 -0.4454
 9339SOL     OW39478   3.397   0.433   6.562 -0.1995  0.4448  0.5293
 9339SOL    HW139479   3.336   0.434   6.635 -0.8831  0.2806 -0.0383
 9339SOL    HW239480   3.462   0.493   6.600 -1.7476  0.0629  3.7551
 9340SOL     OW39481   2.625   2.723   8.089 -0.4164 -0.2680  0.8161
 9340SOL    HW139482   2.675   2.788   8.137  2.1735 -2.2274  0.7612
 9340SOL    HW239483   2.542   2.723   8.136  0.3309 -0.3998  2.1254
 9341SOL     OW39484   1.633   2.066   4.017 -0.2334 -0.2244  0.0915
 9341SOL    HW139485   1.725   2.091   4.001 -1.4892  3.8189 -0.8198
 9341SOL    HW239486   1.627   2.071   4.112 -3.2942  2.1591 -0.2388
 9342SOL     OW39487   2.531   2.793   1.939  0.0332 -0.3525 -0.4986
 9342SOL    HW139488   2.593   2.796   2.012 -1.0822  1.2072  0.3862
 9342SOL    HW239489   2.458   2.761   1.991 -1.1813 -0.0490 -2.0193
 9343SOL     OW39490   1.455   0.394   6.400 -0.9153 -0.2531 -0.4099
 9343SOL    HW139491   1.548   0.377   6.385 -1.1363 -1.0706 -0.8591
 9343SOL    HW239492   1.417   0.339   6.331 -0.6608  1.2700 -1.7534
 9344SOL     OW39493   0.152   4.026   7.307 -0.3719  0.5188 -0.0122
 9344SOL    HW139494   0.173   4.113   7.271 -2.6967  0.4143 -1.6135
 9344SOL    HW239495   0.167   4.032   7.401  1.1961 -1.5632 -0.1461
 9345SOL     OW39496   3.961   0.481  15.632 -0.2353 -0.7950  0.1631
 9345SOL    HW139497   4.030   0.538  15.664 -1.1537  0.1875  0.3882
 9345SOL    HW239498   3.903   0.544  15.588  0.0776  0.1463  1.1143
 9346SOL     OW39499   0.815   4.260   3.510 -0.0145 -0.1147 -0.1536
 9346SOL    HW139500   0.907   4.283   3.525  0.3243 -1.6077  0.1105
 9346SOL    HW239501   0.821   4.195   3.440 -0.8513  0.0997 -0.4089
 9347SOL     OW39502   0.730   1.940   4.045  0.4593  0.1505 -0.6074
 9347SOL    HW139503   0.662   1.989   4.092  0.3319  0.2273 -0.8739
 9347SOL    HW239504   0.741   1.857   4.092 -0.6148 -0.4852 -1.4673
 9348SOL     OW39505   1.895   1.791   1.817 -0.1111 -0.0829  0.2816
 9348SOL    HW139506   1.912   1.864   1.876  0.8278  0.8224 -1.1217
 9348SOL    HW239507   1.800   1.797   1.809 -0.0271  0.1253 -0.5990
 9349SOL     OW39508   3.400   1.461  16.109  0.2048 -0.4274 -0.3047
 9349SOL    HW139509   3.387   1.553  16.132 -2.1332 -1.2698  1.6195
 9349SOL    HW239510   3.454   1.440  16.185  0.7456  1.4085 -0.1628
 9350SOL     OW39511   0.285   1.497  15.236 -0.0507  0.3389  0.4693
 9350SOL    HW139512   0.283   1.512  15.142 -3.5227  3.2663  0.9608
 9350SOL    HW239513   0.329   1.413  15.241  1.1797  0.8944 -1.2045
 9351SOL     OW39514   3.151   3.125  10.383 -0.0852 -0.3028 -0.0430
 9351SOL    HW139515   3.139   3.155  10.293 -0.7459 -0.1811  0.0831
 9351SOL    HW239516   3.161   3.215  10.412  0.6344 -0.0428 -1.1120
 9352SOL     OW39517   1.578   0.786   8.952 -0.1720  0.0062  0.1796
 9352SOL    HW139518   1.623   0.859   8.910  0.3863 -0.8952 -0.8093
 9352SOL    HW239519   1.567   0.823   9.040  1.7654  0.5618  0.1748
 9353SOL     OW39520   4.559   1.429  10.484  0.1184 -0.2887 -0.1976
 9353SOL    HW139521   4.572   1.375  10.561  2.7895  2.1804  1.0740
 9353SOL    HW239522   4.573   1.367  10.412  1.8636 -1.0022  0.7469
 9354SOL     OW39523   3.807   4.687   5.167 -0.5310 -0.7231 -0.4832
 9354SOL    HW139524   3.858   0.041   5.130  0.6380 -0.9636  0.6745
 9354SOL    HW239525   3.834   4.607   5.123 -0.8127 -1.7603  1.2084
 9355SOL     OW39526   1.100   1.457   2.675 -0.1261 -0.5970 -0.0443
 9355SOL    HW139527   1.113   1.545   2.638  0.9649 -0.0883  1.5472
 9355SOL    HW239528   1.192   1.432   2.677  0.7171  2.4224 -0.0241
 9356SOL     OW39529   1.909   1.913   2.073 -0.2117 -0.5955 -0.2526
 9356SOL    HW139530   1.863   1.993   2.050 -1.0166 -0.8376  0.5107
 9356SOL    HW239531   1.963   1.937   2.148  0.8039 -2.1293 -0.4823
 9357SOL     OW39532   4.481   1.884  11.499 -0.1741  0.1739 -0.2746
 9357SOL    HW139533   4.421   1.919  11.566 -1.1576  2.7041 -2.4848
 9357SOL    HW239534   4.527   1.965  11.477  1.1683 -0.5721 -0.1706
 9358SOL     OW39535   0.439   4.332   1.565  0.3227 -0.0292 -0.7796
 9358SOL    HW139536   0.386   4.380   1.501 -4.2508 -1.4078  1.9337
 9358SOL    HW239537   0.523   4.315   1.524  0.5854 -3.4404  1.1621
 9359SOL     OW39538   0.663   3.873  13.543  0.1060  0.1940 -0.4791
 9359SOL    HW139539   0.753   3.853  13.516  0.6709  1.4628  0.4333
 9359SOL    HW239540   0.611   3.830  13.476 -1.3695  0.7289  0.3178
 9360SOL     OW39541   2.899   1.394   7.769  0.4949  0.2117  0.8527
 9360SOL    HW139542   2.913   1.482   7.803 -0.2475  0.2411  1.0911
 9360SOL    HW239543   2.803   1.391   7.758  0.4179  2.1795  1.1578
 9361SOL     OW39544   1.270   2.070   2.079  0.1574  0.3129 -0.1789
 9361SOL    HW139545   1.362   2.063   2.057  0.1271  1.1961 -0.6106
 9361SOL    HW239546   1.276   2.084   2.174 -0.8174 -1.7000  0.1796
 9362SOL     OW39547   1.511   2.684   9.278  0.3448  0.1195  0.4313
 9362SOL    HW139548   1.570   2.610   9.297  0.0349 -0.7474 -1.8838
 9362SOL    HW239549   1.451   2.694   9.352  0.4493 -1.0780  0.6922
 9363SOL     OW39550   3.030   1.916   9.239 -0.6843 -0.3339 -0.1615
 9363SOL    HW139551   3.115   1.877   9.217 -1.2663 -0.3124 -2.4491
 9363SOL    HW239552   2.992   1.844   9.288  0.9456  0.0224  1.6520
 9364SOL     OW39553   2.822   1.996   4.124  0.2200  0.4320 -0.1029
 9364SOL    HW139554   2.737   1.954   4.109  1.9024 -2.6962 -0.9121
 9364SOL    HW239555   2.813   2.064   4.057  1.0869 -2.0085 -2.6960
 9365SOL     OW39556   1.177   4.338   8.771 -0.1235 -0.4359 -0.1375
 9365SOL    HW139557   1.205   4.246   8.770  1.4869  0.0155  2.8574
 9365SOL    HW239558   1.107   4.327   8.834 -0.8714  0.5103 -0.8074
 9366SOL     OW39559   0.524   0.512   2.035 -0.0660  0.3523  0.0499
 9366SOL    HW139560   0.606   0.489   2.079 -0.1189  0.8210  0.3936
 9366SOL    HW239561   0.546   0.602   2.008  0.4916  0.4951  0.9881
 9367SOL     OW39562   1.473   1.041   4.487 -0.6661  0.0524  0.5060
 9367SOL    HW139563   1.488   1.116   4.430  4.2819 -0.2838  1.3139
 9367SOL    HW239564   1.564   1.033   4.515 -0.0037  0.1557 -1.6055
 9368SOL     OW39565   1.452   3.050  11.412 -0.1751  0.2392 -0.0398
 9368SOL    HW139566   1.542   3.039  11.443  0.5373  1.3258 -1.6997
 9368SOL    HW239567   1.401   2.981  11.455  0.2596 -0.1723 -0.1902
 9369SOL     OW39568   4.352   1.365   3.972  0.2993  0.4754  0.9442
 9369SOL    HW139569   4.286   1.331   3.911  0.1732 -1.9252  2.4371
 9369SOL    HW239570   4.431   1.325   3.935 -1.6791 -2.5845  0.0998
 9370SOL     OW39571   1.880   1.315   4.975 -0.3121  0.3647 -0.0289
 9370SOL    HW139572   1.813   1.246   4.973  0.7650 -0.7091  0.8965
 9370SOL    HW239573   1.949   1.280   4.919 -0.6081  2.0561 -1.4325
 9371SOL     OW39574   3.826   1.574   5.316 -0.4354 -0.1743  0.2120
 9371SOL    HW139575   3.839   1.663   5.350  0.2811 -0.0451 -0.3982
 9371SOL    HW239576   3.895   1.529   5.364  1.0311 -0.2868 -1.9942
 9372SOL     OW39577   2.306   0.625   8.787  0.0820  0.4476  0.5399
 9372SOL    HW139578   2.285   0.719   8.787 -3.5755 -0.3564 -0.1215
 9372SOL    HW239579   2.229   0.584   8.749  2.9657 -3.3652 -1.1915
 9373SOL     OW39580   2.164   1.420   0.394 -0.3599 -0.4672 -0.3614
 9373SOL    HW139581   2.170   1.401   0.487  0.5776 -0.0195 -0.3258
 9373SOL    HW239582   2.097   1.489   0.391  1.2352  1.0595 -0.9186
 9374SOL     OW39583   2.522   3.872   5.835  0.5171  0.3003 -0.6125
 9374SOL    HW139584   2.581   3.808   5.874 -2.0654 -1.0495  1.0754
 9374SOL    HW239585   2.578   3.949   5.824  2.4138 -1.2859 -1.8834
 9375SOL     OW39586   3.529   0.836   3.725  0.5430 -0.2873 -0.0846
 9375SOL    HW139587   3.518   0.742   3.713 -0.6966 -0.0975 -0.4383
 9375SOL    HW239588   3.480   0.865   3.647 -0.3413  0.5782  0.7922
 9376SOL     OW39589   1.717   3.202  17.619 -0.3556 -0.2581  0.0149
 9376SOL    HW139590   1.634   3.182  17.662 -0.0608  0.3573  0.8742
 9376SOL    HW239591   1.762   3.134  17.668 -0.6000 -1.4271 -1.3993
 9377SOL     OW39592   2.432   0.759   3.420 -0.3943 -0.6309  0.2516
 9377SOL    HW139593   2.350   0.786   3.379 -0.6026  0.1056  1.1706
 9377SOL    HW239594   2.389   0.700   3.482  0.2159  0.2141  1.4806
 9378SOL     OW39595   1.460   2.047   2.517  0.7840 -0.2038  0.7854
 9378SOL    HW139596   1.492   2.127   2.558 -0.8735  0.1511  1.3793
 9378SOL    HW239597   1.543   2.012   2.484  1.2044  2.5501 -1.1526
 9379SOL     OW39598   2.747   1.398   3.528  0.6197 -0.5062  0.7735
 9379SOL    HW139599   2.786   1.403   3.615 -2.2309  1.5798  1.9513
 9379SOL    HW239600   2.680   1.331   3.539  2.4131 -2.3965  0.1510
 9380SOL     OW39601   2.275   1.880   2.468  0.5266  0.3511  0.0973
 9380SOL    HW139602   2.279   1.934   2.547  0.1130 -2.1636  1.8307
 9380SOL    HW239603   2.338   1.918   2.407 -2.4666  1.4812 -2.3011
 9381SOL     OW39604   0.896   0.255   3.846 -0.2158  0.0317  0.7977
 9381SOL    HW139605   0.861   0.216   3.926 -1.9816 -2.4561 -1.1774
 9381SOL    HW239606   0.981   0.283   3.879  0.5862  0.9176 -2.0499
 9382SOL     OW39607   3.395   4.227   7.168  0.1708  0.1589 -0.2838
 9382SOL    HW139608   3.426   4.150   7.120  0.0915 -1.0254  1.5181
 9382SOL    HW239609   3.455   4.292   7.133 -0.6045  0.5723 -0.8532
 9383SOL     OW39610   3.874   2.314   4.024  0.2468  0.0802 -0.0106
 9383SOL    HW139611   3.925   2.373   3.968  1.8587 -1.4596 -0.1699
 9383SOL    HW239612   3.802   2.374   4.043 -1.1279 -1.1767 -1.3439
 9384SOL     OW39613   4.529   0.062  10.366 -0.5924 -0.0926  0.2713
 9384SOL    HW139614   4.576   4.717  10.422 -2.4888 -1.3536  0.4300
 9384SOL    HW239615   4.541   0.147  10.408  1.0491  0.2081 -0.7920
 9385SOL     OW39616   3.947   3.637   6.016 -0.2722 -0.4982  0.0358
 9385SOL    HW139617   4.035   3.665   6.041 -0.8585  2.0156 -0.7250
 9385SOL    HW239618   3.947   3.543   6.033  0.3572 -0.2909  1.1668
 9386SOL     OW39619   2.578   2.842   1.446  0.2231  0.7261  0.1578
 9386SOL    HW139620   2.577   2.934   1.473 -1.3223  0.4695  1.0237
 9386SOL    HW239621   2.570   2.796   1.530  0.9275  1.9748  0.9245
 9387SOL     OW39622   3.544   2.188   3.275 -0.3682  0.3564  0.4280
 9387SOL    HW139623   3.533   2.280   3.249 -1.3958  0.4402  1.1136
 9387SOL    HW239624   3.496   2.154   3.200  2.2370 -1.2426 -0.4851
 9388SOL     OW39625   3.305   0.624   1.719  0.5515  0.0848 -0.4120
 9388SOL    HW139626   3.400   0.628   1.727  0.3557  2.0748  0.9971
 9388SOL    HW239627   3.296   0.579   1.635 -1.1076 -1.7903  0.7708
 9389SOL     OW39628   2.040   0.373  11.592  0.2610  0.9710  0.4725
 9389SOL    HW139629   2.024   0.466  11.574  1.8113  1.2088  0.2668
 9389SOL    HW239630   2.118   0.366  11.647 -0.6127 -0.9755  1.4469
 9390SOL     OW39631   3.684   2.062   6.101 -0.1620  0.5177 -0.0730
 9390SOL    HW139632   3.741   2.053   6.024 -0.5255  1.3734 -0.4492
 9390SOL    HW239633   3.752   2.080   6.166  1.4722  1.4054 -2.0415
 9391SOL     OW39634   3.919   0.171   2.053  0.0377  0.3746  0.6269
 9391SOL    HW139635   4.009   0.203   2.051  0.5147 -0.9112  1.9474
 9391SOL    HW239636   3.878   0.222   1.983 -1.2039 -0.3873  0.8004
 9392SOL     OW39637   2.871   0.757  14.838 -0.0617  0.2118 -0.4374
 9392SOL    HW139638   2.902   0.671  14.869  0.0141  0.5507  0.4156
 9392SOL    HW239639   2.931   0.816  14.884  0.8669 -1.9213  1.0989
 9393SOL     OW39640   1.755   3.240   8.128  0.3593  0.2628 -0.1576
 9393SOL    HW139641   1.771   3.221   8.220 -0.3031 -2.7394 -0.6411
 9393SOL    HW239642   1.667   3.276   8.125  0.9888  1.6793 -1.5923
 9394SOL     OW39643   0.143   1.135   4.306  0.2139  0.2142  0.4776
 9394SOL    HW139644   0.090   1.064   4.270  2.8277 -1.6640  0.3207
 9394SOL    HW239645   0.203   1.154   4.234 -1.4766  1.1415 -0.7049
 9395SOL     OW39646   2.011   0.225   2.477 -0.3317  0.3603  0.2129
 9395SOL    HW139647   1.975   0.145   2.439 -0.9000  1.3380 -1.2981
 9395SOL    HW239648   1.948   0.234   2.548  0.4042 -2.3281  1.2433
 9396SOL     OW39649   4.127   4.089   6.087 -0.0187  0.2664 -0.3823
 9396SOL    HW139650   4.066   4.106   6.016 -0.3605  0.3956 -0.0567
 9396SOL    HW239651   4.207   4.117   6.043  1.6279 -2.0166  1.1308
 9397SOL     OW39652   1.910   2.505   7.011 -0.0218  0.1151  0.2242
 9397SOL    HW139653   1.890   2.475   6.922 -0.9641 -1.0847  0.8343
 9397SOL    HW239654   1.915   2.420   7.055  0.0137  0.1631  0.3131
 9398SOL     OW39655   2.891   3.078  17.247  0.3471 -0.2982 -0.6445
 9398SOL    HW139656   2.827   3.008  17.259  0.0076  0.1801  0.3571
 9398SOL    HW239657   2.936   3.043  17.171 -2.2041 -0.1024 -2.2587
 9399SOL     OW39658   1.192   0.077   3.031  0.7356 -0.2137 -0.6142
 9399SOL    HW139659   1.105   0.055   2.998  0.8275 -0.5515 -0.6258
 9399SOL    HW239660   1.204   0.000   3.087  1.4315 -0.5580 -1.2330
 9400SOL     OW39661   2.128   4.369   1.260  0.1044  0.0844  0.1537
 9400SOL    HW139662   2.200   4.320   1.220 -1.2977  0.3066 -2.6533
 9400SOL    HW239663   2.161   4.364   1.349 -2.3464  0.6062  1.0800
 9401SOL     OW39664   3.029   2.200   9.863  0.3044 -0.3586  0.3820
 9401SOL    HW139665   2.987   2.286   9.858 -0.0221 -0.5952 -0.9783
 9401SOL    HW239666   3.040   2.190   9.768  0.3014 -2.6724  0.6149
 9402SOL     OW39667   1.302   2.121   3.101  0.4153 -0.0542  0.9841
 9402SOL    HW139668   1.210   2.142   3.115  0.8420  2.6712 -0.1830
 9402SOL    HW239669   1.337   2.210   3.107  1.4389 -0.3297 -0.9372
 9403SOL     OW39670   3.953   2.056  10.699  0.1245  0.5312  0.9050
 9403SOL    HW139671   3.973   2.137  10.747  0.3877  0.7535  0.4170
 9403SOL    HW239672   3.913   2.097  10.623 -0.0267 -0.5991  0.3794
 9404SOL     OW39673   1.992   1.927  11.286 -0.6855 -0.4807  0.4714
 9404SOL    HW139674   2.028   1.969  11.364 -0.7923 -0.4387  0.4982
 9404SOL    HW239675   2.064   1.866  11.269 -1.5793 -1.4460  0.1315
 9405SOL     OW39676   0.281   3.968   8.402  0.0669  0.2743  0.3800
 9405SOL    HW139677   0.336   3.950   8.326  0.9258 -1.4902  1.4050
 9405SOL    HW239678   0.203   3.996   8.355  1.0349  0.2917 -1.1901
 9406SOL     OW39679   0.667   3.261   2.908  0.7002  0.7306  0.6502
 9406SOL    HW139680   0.688   3.239   2.817 -1.6869 -0.5092  0.3862
 9406SOL    HW239681   0.633   3.181   2.949  0.3733  0.6684  0.2577
 9407SOL     OW39682   4.212   1.514   8.074  0.4229  0.3337  0.2521
 9407SOL    HW139683   4.205   1.442   8.011  2.6249 -0.3175  0.7263
 9407SOL    HW239684   4.123   1.514   8.107  0.4098  2.7367  0.2000
 9408SOL     OW39685   2.264   1.090   5.265  0.8394  0.0707  0.2334
 9408SOL    HW139686   2.300   1.058   5.182  0.4863  1.1394 -0.3200
 9408SOL    HW239687   2.224   1.170   5.232  0.5977  0.1005  0.5989
 9409SOL     OW39688   2.335   1.209   1.029 -0.3239 -0.2822  0.2535
 9409SOL    HW139689   2.324   1.139   1.093  2.0063 -2.0381 -1.2473
 9409SOL    HW239690   2.276   1.282   1.045  1.2984  0.8398  1.1354
 9410SOL     OW39691   1.320   3.373  13.809  0.2000 -0.5327  0.1252
 9410SOL    HW139692   1.389   3.372  13.742 -0.4569 -0.3295 -0.5488
 9410SOL    HW239693   1.362   3.409  13.888  4.0752 -1.3240 -1.5481
 9411SOL     OW39694   2.333   0.461   9.795 -0.2466 -0.0290 -0.2722
 9411SOL    HW139695   2.258   0.502   9.839 -1.8268 -1.9432 -1.2012
 9411SOL    HW239696   2.358   0.391   9.855  0.9978  0.9121  0.3059
 9412SOL     OW39697   2.096   2.791   0.790 -0.7817  0.1330  0.1854
 9412SOL    HW139698   2.071   2.847   0.864 -0.4051  0.4492  0.0745
 9412SOL    HW239699   2.012   2.784   0.745 -1.2153 -0.2640  1.0472
 9413SOL     OW39700   1.187   4.019   9.495  0.1581 -0.3760  0.1321
 9413SOL    HW139701   1.223   3.954   9.434 -0.8731  1.2430 -2.1875
 9413SOL    HW239702   1.178   4.105   9.454  0.8012 -0.2613  0.2342
 9414SOL     OW39703   1.576   3.807   6.222 -0.2399 -0.1444  0.1309
 9414SOL    HW139704   1.602   3.761   6.301 -0.7754 -0.7132 -0.0236
 9414SOL    HW239705   1.623   3.888   6.242  0.5667 -1.0246  1.7597
 9415SOL     OW39706   3.054   2.234   8.154 -0.3313  0.5145  0.4126
 9415SOL    HW139707   3.130   2.281   8.188 -0.8278  0.7274  1.2322
 9415SOL    HW239708   3.029   2.293   8.083 -1.8109  0.2537  0.7264
 9416SOL     OW39709   1.296   3.272  11.493  0.0941 -0.0864  0.1581
 9416SOL    HW139710   1.354   3.347  11.508  1.4266 -1.2298  0.7937
 9416SOL    HW239711   1.357   3.219  11.442  0.8761  0.5010  0.4801
 9417SOL     OW39712   0.350   2.592   2.870  0.2568  0.3155  0.0928
 9417SOL    HW139713   0.286   2.566   2.937 -0.7584  1.2328 -0.5435
 9417SOL    HW239714   0.354   2.520   2.808 -0.1599 -0.2394  0.7074
 9418SOL     OW39715   0.976   1.319  15.423 -0.7880 -0.8001 -0.1481
 9418SOL    HW139716   1.002   1.278  15.505 -2.3102  0.7666  1.1169
 9418SOL    HW239717   0.906   1.261  15.395 -0.5666 -1.4214  0.5832
 9419SOL     OW39718   1.364   2.989   3.506  0.1580 -0.2974 -0.2195
 9419SOL    HW139719   1.324   3.075   3.492 -1.6976 -0.8589  1.6945
 9419SOL    HW239720   1.371   2.994   3.601  2.7375  0.5736 -0.4678
 9420SOL     OW39721   1.111   4.256   5.902  0.2020  0.6599 -0.0876
 9420SOL    HW139722   1.082   4.321   5.966 -0.8371 -0.1466  0.2536
 9420SOL    HW239723   1.061   4.177   5.925  1.1303  0.0206 -0.2553
 9421SOL     OW39724   3.905   4.702   6.304  0.1081 -0.0776  0.1708
 9421SOL    HW139725   3.932   4.611   6.288  2.5426  1.3522 -3.8007
 9421SOL    HW239726   3.982   0.029   6.269  0.2194 -1.4407 -1.3406
 9422SOL     OW39727   0.447   4.522   7.380 -0.4347  0.2166  0.2688
 9422SOL    HW139728   0.418   4.600   7.428 -0.4297  0.2831  0.1641
 9422SOL    HW239729   0.407   4.456   7.437  0.8912  0.8944  2.0072
 9423SOL     OW39730   1.165   0.557   5.767 -0.0238  0.1098 -0.1943
 9423SOL    HW139731   1.121   0.626   5.817 -1.0465 -1.2325  0.7373
 9423SOL    HW239732   1.232   0.540   5.834 -0.1123 -3.1485 -0.9784
 9424SOL     OW39733   2.093   3.655   3.793 -0.0089 -0.1443 -0.6214
 9424SOL    HW139734   2.146   3.708   3.734  0.4701 -1.0555 -1.0023
 9424SOL    HW239735   2.033   3.624   3.726  0.4712 -0.9070 -0.7031
 9425SOL     OW39736   1.182   3.906   0.317 -0.0639  0.3396 -0.0606
 9425SOL    HW139737   1.237   3.956   0.378  0.5791 -1.3550  0.7590
 9425SOL    HW239738   1.097   3.949   0.320 -0.5181 -0.6160  0.4422
 9426SOL     OW39739   2.944   4.065   1.853 -0.0311 -0.4125 -0.1515
 9426SOL    HW139740   2.879   4.135   1.849 -1.0298 -1.3881 -0.7862
 9426SOL    HW239741   2.913   4.006   1.921 -3.1954  0.2489 -0.9964
 9427SOL     OW39742   0.526   4.459   4.943 -0.2110 -0.1774  0.3337
 9427SOL    HW139743   0.478   4.535   4.975  0.1325  0.0910  0.2152
 9427SOL    HW239744   0.488   4.453   4.856  0.2131 -0.2409  0.1523
 9428SOL     OW39745   3.753   1.934   6.481 -0.1304  0.4685 -0.2421
 9428SOL    HW139746   3.734   1.904   6.570  1.6535  0.4010  0.1219
 9428SOL    HW239747   3.670   1.960   6.441 -1.5697 -0.7775  1.9507
 9429SOL     OW39748   2.483   3.643   2.530 -0.3402  0.1071  0.0150
 9429SOL    HW139749   2.443   3.577   2.587 -0.7588 -2.7623 -3.6398
 9429SOL    HW239750   2.419   3.715   2.527  1.6336  1.9251  1.5053
 9430SOL     OW39751   1.440   1.625   2.830  0.0867  0.3900  0.0257
 9430SOL    HW139752   1.433   1.542   2.782 -1.4852  1.1784 -1.1154
 9430SOL    HW239753   1.469   1.681   2.758  1.3410  0.4991  0.6117
 9431SOL     OW39754   3.229   2.223  15.811 -0.3626  0.3384 -0.1630
 9431SOL    HW139755   3.227   2.139  15.767 -0.1954  0.7540 -0.9651
 9431SOL    HW239756   3.315   2.261  15.793 -0.3032 -0.6835 -2.0661
 9432SOL     OW39757   1.372   3.351   4.058  0.2463 -0.0289 -0.9177
 9432SOL    HW139758   1.418   3.351   3.974 -0.9811  2.4953 -1.5765
 9432SOL    HW239759   1.444   3.306   4.102  0.0561  1.0756  0.5332
 9433SOL     OW39760   3.534   0.103   9.414  0.4229  0.1509 -0.2792
 9433SOL    HW139761   3.520   0.038   9.346 -2.5360  1.4884 -0.9365
 9433SOL    HW239762   3.443   0.103   9.444  0.6246 -4.1840  0.3422
 9434SOL     OW39763   0.276   4.142   5.877 -0.4823 -0.1315  0.0034
 9434SOL    HW139764   0.259   4.199   5.802  0.9129  0.2901  0.0023
 9434SOL    HW239765   0.352   4.085   5.859  0.6222  1.2687  0.2157
 9435SOL     OW39766   1.485   3.090   0.075  0.3678  0.4420  0.1265
 9435SOL    HW139767   1.414   3.033   0.106  1.2451  0.0356  1.4156
 9435SOL    HW239768   1.537   3.086   0.155 -0.8965  2.6674  1.0440
 9436SOL     OW39769   3.100   0.325   9.337  0.5134  0.0401 -0.4169
 9436SOL    HW139770   3.096   0.345   9.431  0.6909  1.9142 -0.8051
 9436SOL    HW239771   3.093   0.230   9.340 -0.8459  0.1253 -1.0383
 9437SOL     OW39772   2.094   3.459  10.023  0.0948  0.6530  0.1098
 9437SOL    HW139773   2.163   3.422   9.968  2.0133  1.4671  1.9574
 9437SOL    HW239774   2.144   3.524  10.073 -0.9958  1.1611  0.5385
 9438SOL     OW39775   2.276   3.840   2.480  0.3275 -0.0882  0.0470
 9438SOL    HW139776   2.220   3.911   2.511 -0.8563 -2.0306  2.3613
 9438SOL    HW239777   2.307   3.896   2.409 -0.9031 -0.2535 -0.6138
 9439SOL     OW39778   2.089   3.648  12.318  0.3915  0.0850  0.3281
 9439SOL    HW139779   2.125   3.569  12.358 -0.1309  0.3674  1.3349
 9439SOL    HW239780   2.160   3.684  12.264  1.1419  1.8002  2.4486
 9440SOL     OW39781   1.370   4.677   1.711  0.2406  0.2937 -0.2463
 9440SOL    HW139782   1.284   4.657   1.675  0.8595 -1.2601 -0.8098
 9440SOL    HW239783   1.369   0.055   1.709  0.0906  0.2872 -0.3781
 9441SOL     OW39784   1.214   0.721   0.423 -0.0733  0.5107  0.0336
 9441SOL    HW139785   1.293   0.776   0.428  0.3950 -0.1235 -0.4417
 9441SOL    HW239786   1.152   0.756   0.359 -2.7533 -2.8877  0.8121
 9442SOL     OW39787   4.598   3.280  13.525 -0.4283  0.7065 -0.3405
 9442SOL    HW139788   4.511   3.306  13.556 -1.8796 -0.4850 -3.4196
 9442SOL    HW239789   4.595   3.188  13.552 -2.8156  0.0157 -3.0318
 9443SOL     OW39790   1.833   3.044   6.222 -0.1790  0.5548 -0.0873
 9443SOL    HW139791   1.825   3.075   6.132 -0.5607  5.2225  1.5699
 9443SOL    HW239792   1.742   3.049   6.254 -1.1681  1.6940 -3.1332
 9444SOL     OW39793   3.196   0.873   6.383 -0.2207  0.4342  0.3174
 9444SOL    HW139794   3.269   0.812   6.381 -0.9479 -0.4949  1.8237
 9444SOL    HW239795   3.243   0.954   6.361  0.4442 -0.1240 -0.3023
 9445SOL     OW39796   2.146   2.666   7.842 -0.0382  0.1400  0.5157
 9445SOL    HW139797   2.121   2.711   7.761  0.2556 -0.0877  0.3043
 9445SOL    HW239798   2.140   2.571   7.838  0.2232  0.2022 -1.1923
 9446SOL     OW39799   0.658   0.558   8.944 -0.2935 -0.7674 -0.1041
 9446SOL    HW139800   0.681   0.571   8.852  1.3966  3.7327  0.9411
 9446SOL    HW239801   0.706   0.632   8.981 -1.9416 -0.7844  2.0564
 9447SOL     OW39802   0.293   0.074  11.786  0.1237 -0.0788 -0.4055
 9447SOL    HW139803   0.207   0.093  11.823 -0.4363 -0.2166 -1.6509
 9447SOL    HW239804   0.351   0.144  11.816  0.1727  0.7192 -2.3799
 9448SOL     OW39805   0.562   3.391   4.712  0.5500 -0.3848 -0.5390
 9448SOL    HW139806   0.563   3.446   4.634 -0.5346  1.2158  0.5735
 9448SOL    HW239807   0.469   3.370   4.722  0.1075  2.3667  1.2001
 9449SOL     OW39808   1.126   3.783   2.806  0.0339 -0.2740 -0.1779
 9449SOL    HW139809   1.168   3.704   2.772  0.6750 -0.4739  1.0809
 9449SOL    HW239810   1.207   3.827   2.834  1.2040 -1.3327 -1.9301
 9450SOL     OW39811   0.738   0.388  15.368  0.3229 -0.1721 -0.1472
 9450SOL    HW139812   0.818   0.335  15.374 -0.2865 -0.8883  1.6942
 9450SOL    HW239813   0.769   0.460  15.313  0.8374 -0.8271 -0.7104
 9451SOL     OW39814   4.486   0.436  12.637 -0.4548 -0.3489 -0.2757
 9451SOL    HW139815   4.512   0.405  12.724 -0.1778  1.6289  0.3369
 9451SOL    HW239816   4.395   0.408  12.627 -1.1007  1.1236  1.4535
 9452SOL     OW39817   1.087   1.657  15.860 -0.1614 -0.4797 -0.1903
 9452SOL    HW139818   1.017   1.599  15.890 -1.8107  1.5086 -0.2051
 9452SOL    HW239819   1.039   1.732  15.824  0.1746 -0.0227  0.3049
 9453SOL     OW39820   4.133   2.869  15.621  0.1743  0.8538  0.6004
 9453SOL    HW139821   4.084   2.925  15.680  2.2297  2.0164  1.1989
 9453SOL    HW239822   4.184   2.823  15.689  0.7445 -0.0036 -0.3971
 9454SOL     OW39823   4.340   3.376   6.241  0.4335 -0.6991 -0.1806
 9454SOL    HW139824   4.422   3.334   6.214  0.2266  0.2378 -2.2547
 9454SOL    HW239825   4.276   3.307   6.228 -0.1759 -0.5141  1.8675
 9455SOL     OW39826   4.147   4.417   3.924  0.0363  0.1194  0.1207
 9455SOL    HW139827   4.102   4.426   4.008  1.9964 -2.3848  1.4472
 9455SOL    HW239828   4.174   4.508   3.920 -2.2801  0.7062 -2.3748
 9456SOL     OW39829   2.356   0.792   1.431 -0.7958  0.5235 -0.1171
 9456SOL    HW139830   2.347   0.808   1.337 -0.8652 -3.2358 -0.7850
 9456SOL    HW239831   2.307   0.865   1.469  0.3653  2.1421 -1.7473
 9457SOL     OW39832   4.072   1.605   5.151 -0.5058 -0.2378  0.5088
 9457SOL    HW139833   4.006   1.617   5.219  0.6685 -0.0663  1.5950
 9457SOL    HW239834   4.140   1.558   5.199 -0.7089 -0.3750  0.6630
 9458SOL     OW39835   3.697   1.991   7.770  0.0109  0.4998 -0.4546
 9458SOL    HW139836   3.733   1.963   7.854 -0.0116 -1.2457 -1.0288
 9458SOL    HW239837   3.624   1.930   7.763  0.3825  0.0071 -0.0465
 9459SOL     OW39838   1.526   3.724   3.201  0.3113 -0.4291  0.1136
 9459SOL    HW139839   1.498   3.649   3.150  0.9480 -0.4486 -0.2019
 9459SOL    HW239840   1.446   3.711   3.253  1.1633 -1.0738  1.2583
 9460SOL     OW39841   3.115   4.326   7.031 -0.2685  0.5002 -0.1486
 9460SOL    HW139842   3.147   4.410   7.064  0.3059  0.5327 -0.7996
 9460SOL    HW239843   3.155   4.317   6.945  1.4215  0.8559  0.6027
 9461SOL     OW39844   3.385   4.189  16.573  0.0007  0.4819  0.0729
 9461SOL    HW139845   3.415   4.145  16.653 -3.0747  0.3515  1.1500
 9461SOL    HW239846   3.376   4.111  16.518 -1.1689  0.6746  0.0048
 9462SOL     OW39847   4.687   2.320   9.859 -0.3816  0.1809  0.0505
 9462SOL    HW139848   4.697   2.414   9.869  0.2341  0.0987  0.2325
 9462SOL    HW239849   4.696   2.309   9.765 -1.3024 -0.2645  0.0168
 9463SOL     OW39850   2.002   2.952   3.598  0.2880 -0.4199  0.1440
 9463SOL    HW139851   2.085   2.909   3.578  0.8923  1.0637 -0.5500
 9463SOL    HW239852   1.958   2.881   3.644 -0.3978  0.8773  1.4835
 9464SOL     OW39853   0.813   1.535   2.172 -0.1003 -0.1670  0.1475
 9464SOL    HW139854   0.898   1.579   2.166  0.6193 -1.1548  2.8458
 9464SOL    HW239855   0.832   1.475   2.244 -1.4579 -0.1843  0.4800
 9465SOL     OW39856   1.954   2.213   7.722  1.0119 -0.4658  0.0007
 9465SOL    HW139857   1.970   2.124   7.690  0.1571 -0.0697 -1.5429
 9465SOL    HW239858   1.915   2.259   7.647  0.5315  0.1730  0.6500
 9466SOL     OW39859   1.937   4.383   1.061 -0.2585  0.4485 -0.6226
 9466SOL    HW139860   2.015   4.392   1.117 -1.0328 -1.4424  0.7789
 9466SOL    HW239861   1.865   4.384   1.123 -0.6587 -3.8481 -1.0314
 9467SOL     OW39862   2.860   4.301   0.410 -0.1364  0.3624 -0.4161
 9467SOL    HW139863   2.948   4.333   0.391 -0.7530  2.0608 -0.3708
 9467SOL    HW239864   2.893   4.213   0.429 -0.7219  0.1122 -0.5714
 9468SOL     OW39865   1.128   3.330   3.890  0.0401 -0.0359  0.2738
 9468SOL    HW139866   1.090   3.398   3.946  0.8923 -0.1052  0.9497
 9468SOL    HW239867   1.222   3.329   3.907 -0.3696 -1.6473  2.3892
 9469SOL     OW39868   1.925   3.955   4.963  0.3855 -0.2641 -0.2319
 9469SOL    HW139869   1.995   3.994   5.015  0.2130 -0.8710  0.4588
 9469SOL    HW239870   1.853   3.969   5.024  0.7278 -0.5878  0.2504
 9470SOL     OW39871   3.137   3.471   4.679 -0.0043 -0.3852 -0.1407
 9470SOL    HW139872   3.201   3.491   4.747 -0.8716 -1.1015  0.8869
 9470SOL    HW239873   3.106   3.384   4.704 -2.3610  1.1795  2.3864
 9471SOL     OW39874   2.521   0.204   6.411 -0.0440  0.9477  0.1796
 9471SOL    HW139875   2.601   0.236   6.452 -0.5022  0.0427  1.7746
 9471SOL    HW239876   2.480   0.167   6.489  2.2197 -4.5546 -1.2543
 9472SOL     OW39877   3.512   2.588  10.880 -0.1564  0.0514 -0.2570
 9472SOL    HW139878   3.562   2.573  10.960 -0.4523 -0.1666 -0.1141
 9472SOL    HW239879   3.429   2.620  10.915 -1.2599 -0.0008 -2.8147
 9473SOL     OW39880   1.391   4.162   3.306  0.6521  0.2074 -0.1320
 9473SOL    HW139881   1.298   4.170   3.330  0.1600 -0.1601 -1.8958
 9473SOL    HW239882   1.385   4.123   3.219  1.7239  3.4816 -1.6807
 9474SOL     OW39883   3.861   3.711   4.855  0.2780 -0.3701 -0.0523
 9474SOL    HW139884   3.922   3.642   4.828  2.7738  1.2366  1.4687
 9474SOL    HW239885   3.888   3.730   4.945 -3.4681  0.9627  0.7822
 9475SOL     OW39886   3.396   1.644   6.193  0.4497 -0.0910  0.5090
 9475SOL    HW139887   3.420   1.663   6.284  0.2602 -0.3295  0.6080
 9475SOL    HW239888   3.347   1.563   6.203  0.6688 -0.3802 -0.8271
 9476SOL     OW39889   2.537   0.938   3.613  0.0687  0.1685 -0.6819
 9476SOL    HW139890   2.508   1.029   3.602 -1.0304 -0.3456 -2.0637
 9476SOL    HW239891   2.482   0.899   3.546  2.2693  0.4064 -2.6315
 9477SOL     OW39892   1.509   2.801   5.318 -0.1945 -0.7713 -0.6416
 9477SOL    HW139893   1.440   2.753   5.273  0.4576 -1.9401 -0.3781
 9477SOL    HW239894   1.519   2.874   5.257 -0.3609  1.0112  1.4407
 9478SOL     OW39895   0.776   2.254   7.456  0.1936  0.0922 -0.2257
 9478SOL    HW139896   0.848   2.289   7.403  1.0933  0.0250  0.9491
 9478SOL    HW239897   0.769   2.171   7.409  0.4683 -0.3242  0.4642
 9479SOL     OW39898   3.643   1.171   3.617 -0.2794  0.8586 -0.2201
 9479SOL    HW139899   3.556   1.156   3.656  0.9615 -3.4193  0.9337
 9479SOL    HW239900   3.675   1.250   3.659 -3.1696  0.9958  1.7833
 9480SOL     OW39901   1.767   0.323   5.920  0.1646 -0.6310 -0.4333
 9480SOL    HW139902   1.732   0.410   5.901  1.6265 -0.1328 -0.8100
 9480SOL    HW239903   1.709   0.267   5.870 -2.2069  0.8640  0.6340
 9481SOL     OW39904   0.878   0.949   0.452  0.1747  0.2767  0.6017
 9481SOL    HW139905   0.801   0.942   0.395  0.0606 -2.1970  1.0935
 9481SOL    HW239906   0.864   0.867   0.498  0.0914  0.8291  1.5704
 9482SOL     OW39907   1.342   3.381   3.528 -0.6664 -0.2718  0.3339
 9482SOL    HW139908   1.279   3.316   3.498 -0.3347 -0.3653 -0.1705
 9482SOL    HW239909   1.409   3.324   3.567  0.2156  0.4489 -0.1226
 9483SOL     OW39910   1.165   3.842  17.332  0.6292  0.2206  0.6485
 9483SOL    HW139911   1.217   3.775  17.376  2.5492  1.3587  0.1043
 9483SOL    HW239912   1.150   3.799  17.248 -2.0488  2.6104 -0.0880
 9484SOL     OW39913   3.007   0.158   8.328  0.4222 -0.1827 -0.2864
 9484SOL    HW139914   2.987   0.250   8.344 -1.5151 -0.4882 -0.9543
 9484SOL    HW239915   2.918   0.127   8.309  0.2664 -0.2534  0.5813
 9485SOL     OW39916   4.082   4.513   2.651  1.0400 -0.6432  0.3270
 9485SOL    HW139917   4.076   4.516   2.747 -0.7534  1.1354  0.1704
 9485SOL    HW239918   4.160   4.459   2.642 -0.3732 -2.9402  1.8963
 9486SOL     OW39919   0.861   1.755   1.330 -0.3447 -0.4511  0.1295
 9486SOL    HW139920   0.803   1.823   1.365 -0.4918 -0.2848 -0.4290
 9486SOL    HW239921   0.867   1.697   1.406  0.7232  1.5655  1.5802
 9487SOL     OW39922   2.019   2.999   6.844 -0.3194  0.1751 -0.1056
 9487SOL    HW139923   2.058   2.989   6.930  1.8481  1.5562 -0.9306
 9487SOL    HW239924   1.962   2.922   6.841  0.4515 -0.3772 -0.4624
 9488SOL     OW39925   0.445   2.858   7.893  0.0521 -0.2168  0.0365
 9488SOL    HW139926   0.433   2.814   7.978 -0.5259 -1.3918 -0.6481
 9488SOL    HW239927   0.497   2.784   7.861  0.3554 -0.6841  1.5796
 9489SOL     OW39928   1.270   3.514   8.919 -0.0707  0.2432  0.6042
 9489SOL    HW139929   1.197   3.529   8.979 -2.5982 -1.8728 -1.9738
 9489SOL    HW239930   1.241   3.428   8.888  1.3671 -0.0785  0.1131
 9490SOL     OW39931   1.192   4.413   7.579 -0.0386 -0.5705  0.7105
 9490SOL    HW139932   1.177   4.376   7.492  3.3976 -0.7195  0.1839
 9490SOL    HW239933   1.119   4.475   7.581  0.5303  0.1339 -0.0787
 9491SOL     OW39934   2.702   0.646  12.394 -0.0264 -0.6845 -1.3559
 9491SOL    HW139935   2.607   0.647  12.385 -0.4687  2.7865  3.4417
 9491SOL    HW239936   2.710   0.576  12.459  3.0427 -2.0518 -3.2108
 9492SOL     OW39937   2.446   1.951   5.596 -0.1906  0.6558 -0.2865
 9492SOL    HW139938   2.476   1.971   5.685 -1.4926 -0.4298  0.4011
 9492SOL    HW239939   2.360   1.912   5.612 -0.8738  2.7646  1.1202
 9493SOL     OW39940   0.022   0.609   9.885 -0.6273  0.2786 -0.1902
 9493SOL    HW139941   4.646   0.620   9.868 -1.0963 -3.3365  0.1085
 9493SOL    HW239942   0.028   0.517   9.860 -2.9624 -0.4356  1.8832
 9494SOL     OW39943   1.947   3.611   0.333  0.2508  0.2436  0.5476
 9494SOL    HW139944   1.908   3.542   0.386  2.2363 -0.1332  1.5285
 9494SOL    HW239945   1.871   3.659   0.299 -0.2248  0.7857  2.4080
 9495SOL     OW39946   2.648   3.418   6.084  0.3440 -0.1424  0.0731
 9495SOL    HW139947   2.657   3.509   6.057  2.4963 -0.1271  0.8723
 9495SOL    HW239948   2.611   3.373   6.008  1.0911  0.0801 -0.4200
 9496SOL     OW39949   1.146   3.330   2.105  0.0587  0.5493 -0.0548
 9496SOL    HW139950   1.119   3.310   2.194 -1.2301  0.9676 -0.3627
 9496SOL    HW239951   1.066   3.368   2.069 -1.1911 -1.0785  1.0368
 9497SOL     OW39952   1.313   2.220   6.248 -0.1488  0.0214  0.1110
 9497SOL    HW139953   1.259   2.188   6.175 -0.4254 -1.2774  0.8797
 9497SOL    HW239954   1.374   2.266   6.192 -1.3896 -0.1348 -1.3606
 9498SOL     OW39955   4.128   2.301   2.647 -0.5496 -0.7322 -0.6557
 9498SOL    HW139956   4.055   2.287   2.708 -0.6681  2.3956 -0.0711
 9498SOL    HW239957   4.079   2.337   2.574 -0.4812  2.9733  1.1142
 9499SOL     OW39958   0.495   2.731   6.423  0.1197 -0.2933  0.3375
 9499SOL    HW139959   0.564   2.713   6.359 -0.0466  2.5034 -0.6471
 9499SOL    HW239960   0.533   2.806   6.469  0.9868 -1.0369  0.8318
 9500SOL     OW39961   0.956   0.504   8.174  0.2350 -0.0510  0.2891
 9500SOL    HW139962   1.026   0.452   8.135  0.4324  0.0301  0.5331
 9500SOL    HW239963   0.925   0.542   8.092  0.7971  1.2017  0.6530
 9501SOL     OW39964   1.775   3.945   1.998  0.3118  0.3946 -0.2354
 9501SOL    HW139965   1.722   4.002   2.053 -1.1164  0.1921 -1.3848
 9501SOL    HW239966   1.862   3.985   1.999  0.6708 -0.4391  1.3847
 9502SOL     OW39967   3.582   3.634   1.105 -0.3780  0.1344 -0.0041
 9502SOL    HW139968   3.533   3.580   1.042  0.0520 -0.2563 -0.0073
 9502SOL    HW239969   3.626   3.561   1.148 -0.7849 -0.3796 -0.4472
 9503SOL     OW39970   0.827   1.537   9.461 -0.3644  0.1705  0.2850
 9503SOL    HW139971   0.791   1.466   9.515 -0.0617  0.2420  0.5822
 9503SOL    HW239972   0.900   1.491   9.420  0.0480  1.5967 -0.5745
 9504SOL     OW39973   2.038   3.240   0.175  0.0926  0.0714 -0.0475
 9504SOL    HW139974   2.050   3.329   0.142  0.6027  0.6817  1.7948
 9504SOL    HW239975   2.120   3.234   0.224  0.1857  2.1001  0.0397
 9505SOL     OW39976   2.351   4.107   7.264  0.2765 -0.3980  0.7336
 9505SOL    HW139977   2.436   4.078   7.232  0.0517  1.8540 -1.8756
 9505SOL    HW239978   2.362   4.108   7.360  0.6521 -0.5258  0.6921
 9506SOL     OW39979   3.589   3.806   7.929 -0.2970  0.0445  0.0812
 9506SOL    HW139980   3.575   3.850   8.013 -1.4488 -1.7574  0.8213
 9506SOL    HW239981   3.672   3.848   7.909 -0.9557  0.6930 -1.3052
 9507SOL     OW39982   1.418   3.593   4.254  0.1759 -0.2782  0.3079
 9507SOL    HW139983   1.445   3.501   4.253  0.5632 -0.2015  2.5920
 9507SOL    HW239984   1.420   3.614   4.161  1.8784 -0.9467  0.1864
 9508SOL     OW39985   1.014   0.881  15.663  0.5456 -0.3916 -0.3937
 9508SOL    HW139986   0.974   0.889  15.577  0.4369  2.5894 -0.0467
 9508SOL    HW239987   0.936   0.881  15.719 -0.2130  1.4820 -1.4711
 9509SOL     OW39988   3.088   0.429  15.912  0.3021  0.1701 -1.0480
 9509SOL    HW139989   3.164   0.374  15.933  0.6271  0.7896 -0.5936
 9509SOL    HW239990   3.037   0.429  15.993  0.2774  1.1278 -1.0613
 9510SOL     OW39991   3.011   0.165   2.790 -0.3071 -0.6048 -0.4996
 9510SOL    HW139992   3.062   0.084   2.781  2.0591  0.9325 -0.7602
 9510SOL    HW239993   2.986   0.173   2.697 -2.6923 -3.9442 -0.1678
 9511SOL     OW39994   4.443   1.290   6.218 -0.1644 -0.2210 -0.3593
 9511SOL    HW139995   4.462   1.226   6.287 -1.9021 -1.2206 -0.8047
 9511SOL    HW239996   4.461   1.369   6.269  0.1595 -0.9824  0.6871
 9512SOL     OW39997   1.287   2.907   7.322 -0.4640 -0.2159  0.3686
 9512SOL    HW139998   1.223   2.875   7.386 -0.9424  2.3264  1.1606
 9512SOL    HW239999   1.330   2.983   7.363 -1.9907  0.4291  0.8023
 9513SOL     OW40000   0.107   4.191   0.319  0.4054 -0.9877  0.3066
 9513SOL    HW140001   0.041   4.204   0.251  2.4552  2.5003 -1.0059
 9513SOL    HW240002   0.113   4.281   0.352 -1.0239 -0.9550  0.4620
 9514SOL     OW40003   1.669   0.858   3.758 -0.3662  0.7190  0.0882
 9514SOL    HW140004   1.682   0.908   3.838  1.8932  2.0081 -1.0773
 9514SOL    HW240005   1.585   0.812   3.766 -0.4915  0.6826 -1.3912
 9515SOL     OW40006   1.501   3.583   8.776 -0.5297 -0.4512  0.0814
 9515SOL    HW140007   1.428   3.568   8.836 -1.3037  0.1328 -0.7163
 9515SOL    HW240008   1.578   3.551   8.823 -1.6735 -2.1073  0.7845
 9516SOL     OW40009   0.213   4.552   3.146  0.2057  0.4668  0.7871
 9516SOL    HW140010   0.134   4.553   3.200 -0.6427  1.9106 -0.4722
 9516SOL    HW240011   0.208   4.641   3.111  1.1813 -0.2447 -1.1634
 9517SOL     OW40012   4.559   0.484   2.742  0.0760 -0.0359  0.6403
 9517SOL    HW140013   4.468   0.460   2.721  0.1870  1.1926 -1.2484
 9517SOL    HW240014   4.542   0.573   2.774 -1.6068 -0.6522  1.5094
 9518SOL     OW40015   1.890   1.107   5.341 -0.4380  0.7358 -0.5414
 9518SOL    HW140016   1.953   1.155   5.288  0.1991  0.8378  0.3253
 9518SOL    HW240017   1.830   1.072   5.274 -2.4981 -0.4581  1.9212
 9519SOL     OW40018   2.443   0.070  16.719 -0.1328  0.7559 -0.0791
 9519SOL    HW140019   2.393   0.062  16.638  1.4324 -1.6931 -0.7947
 9519SOL    HW240020   2.443   0.165  16.735  0.4356  0.7552 -0.0595
 9520SOL     OW40021   4.317   2.312   1.801  0.2711  0.3061  0.2081
 9520SOL    HW140022   4.274   2.293   1.717 -1.1239 -0.3027  1.0583
 9520SOL    HW240023   4.245   2.319   1.863 -1.2570 -1.8160 -1.3158
 9521SOL     OW40024   0.255   1.462   4.445 -0.2409  0.5327 -0.1852
 9521SOL    HW140025   0.238   1.531   4.381  0.8268 -0.5117 -1.5945
 9521SOL    HW240026   0.191   1.485   4.513  0.1179  1.1111 -0.0396
 9522SOL     OW40027   2.353   2.507   8.306 -0.5078 -0.0017  0.3686
 9522SOL    HW140028   2.357   2.503   8.210  1.2596 -1.7380  0.5158
 9522SOL    HW240029   2.399   2.427   8.332  0.0679 -0.1041 -0.9414
 9523SOL     OW40030   3.818   1.787   4.847 -0.3736 -0.5226 -0.4536
 9523SOL    HW140031   3.886   1.840   4.887 -1.0142 -0.7622  0.9296
 9523SOL    HW240032   3.855   1.705   4.879  1.9852  0.3530 -0.9425
 9524SOL     OW40033   3.748   2.728   7.234 -0.1867  0.7784  0.3192
 9524SOL    HW140034   3.806   2.652   7.234 -1.1880  0.0057  1.2073
 9524SOL    HW240035   3.763   2.759   7.323  0.1645 -2.2228  1.3075
 9525SOL     OW40036   0.548   0.420  14.035  0.6668  0.1383 -0.0474
 9525SOL    HW140037   0.537   0.512  14.061 -0.9833  0.1539 -0.7814
 9525SOL    HW240038   0.467   0.380  14.066 -1.0239  1.2892 -3.0000
 9526SOL     OW40039   3.183   0.062  10.030  0.0486 -0.5926 -0.9063
 9526SOL    HW140040   3.194   4.696   9.987 -0.2675 -0.6238 -0.9287
 9526SOL    HW240041   3.271   0.074  10.067 -0.2672  1.2169 -0.7373
 9527SOL     OW40042   2.405   2.737  10.366 -0.7240  0.1862  0.8097
 9527SOL    HW140043   2.367   2.720  10.279  0.9946  0.9117 -0.0729
 9527SOL    HW240044   2.360   2.677  10.426 -3.3715  0.5846 -0.7486
 9528SOL     OW40045   2.318   4.037   2.274 -0.4789  0.1756 -0.0137
 9528SOL    HW140046   2.247   4.101   2.269  0.5792  1.3014 -0.5560
 9528SOL    HW240047   2.305   3.994   2.190  2.0014  0.9787 -0.7920
 9529SOL     OW40048   0.913   4.148  13.542 -0.2558  0.3072 -0.1208
 9529SOL    HW140049   0.918   4.241  13.519 -0.1054  0.6370  1.2216
 9529SOL    HW240050   0.998   4.139  13.586  0.1702  1.7943 -0.6126
 9530SOL     OW40051   4.708   2.571   9.935 -0.4436  0.3164 -0.0009
 9530SOL    HW140052   4.678   2.640   9.876  0.2171 -0.8865 -1.7494
 9530SOL    HW240053   4.712   2.621  10.016  1.9271 -0.3011  0.2538
 9531SOL     OW40054   0.025   1.711   8.517  0.1824  0.5828  0.0297
 9531SOL    HW140055   4.691   1.632   8.533 -1.1123  1.6043  0.8740
 9531SOL    HW240056   0.082   1.706   8.593  0.2269  0.1957 -0.0282
 9532SOL     OW40057   3.718   3.041  10.037  0.3377 -0.2503 -0.6030
 9532SOL    HW140058   3.689   3.046   9.946  1.2751 -2.8467 -1.0206
 9532SOL    HW240059   3.812   3.032  10.025  0.4006 -0.3267 -0.0619
 9533SOL     OW40060   3.276   4.256   3.342  0.2553  0.7705 -0.0012
 9533SOL    HW140061   3.328   4.271   3.263  0.2503 -2.6892 -0.6722
 9533SOL    HW240062   3.198   4.225   3.296  1.1904  0.9210 -1.7098
 9534SOL     OW40063   1.927   0.798  16.379 -0.8486 -0.5189 -0.3567
 9534SOL    HW140064   1.841   0.755  16.376 -0.4199 -1.4491  0.7758
 9534SOL    HW240065   1.945   0.836  16.293  3.1011 -2.2808 -0.2774
 9535SOL     OW40066   0.742   0.314   2.111 -0.0927 -0.7018  0.3385
 9535SOL    HW140067   0.784   0.395   2.139 -1.0515  0.0156 -0.2763
 9535SOL    HW240068   0.757   0.326   2.017  1.8394 -1.8970  0.5072
 9536SOL     OW40069   1.825   1.555   2.485  0.1161  0.2561  0.1410
 9536SOL    HW140070   1.887   1.560   2.557 -1.0750  1.2297  1.1047
 9536SOL    HW240071   1.828   1.461   2.471  1.9644  0.2561  0.5450
 9537SOL     OW40072   3.236   2.924   1.152 -0.2721  0.5223 -0.7732
 9537SOL    HW140073   3.193   2.967   1.078 -1.8637  0.6251  0.2086
 9537SOL    HW240074   3.200   2.962   1.233  1.9371  1.5172 -0.2677
 9538SOL     OW40075   1.868   1.493   8.895 -0.2355  0.5031  0.7011
 9538SOL    HW140076   1.899   1.531   8.978  0.3442  2.7592 -0.5333
 9538SOL    HW240077   1.775   1.483   8.913  0.0557  0.3958  2.1555
 9539SOL     OW40078   0.492   0.738   5.527  0.1537 -0.1623  0.5717
 9539SOL    HW140079   0.557   0.681   5.567  0.1961 -1.0000 -0.6879
 9539SOL    HW240080   0.538   0.770   5.449  0.1786  0.0264  0.6640
 9540SOL     OW40081   3.176   4.653   0.637 -0.4350  0.1939  0.0758
 9540SOL    HW140082   3.259   4.615   0.665 -1.5820 -2.0725  0.4225
 9540SOL    HW240083   3.113   4.628   0.705 -0.2224  0.9767  0.5579
 9541SOL     OW40084   3.880   0.090  13.578  0.1231  0.3594  1.1846
 9541SOL    HW140085   3.865   0.127  13.665 -0.7911 -0.2189  1.2755
 9541SOL    HW240086   3.819   0.151  13.537 -0.7895 -1.4411 -0.1655
 9542SOL     OW40087   3.668   1.706   6.031  0.5447 -0.3587 -0.5962
 9542SOL    HW140088   3.717   1.754   6.098  0.1800 -0.6810 -0.0926
 9542SOL    HW240089   3.713   1.743   5.955  0.4890  0.1839 -0.3683
 9543SOL     OW40090   3.745   1.408   8.295 -0.1689 -0.2718  0.1297
 9543SOL    HW140091   3.687   1.399   8.219 -0.0309  0.3046 -0.0446
 9543SOL    HW240092   3.706   1.489   8.328 -1.0507  0.7422 -3.3157
 9544SOL     OW40093   1.223   1.482  12.698 -0.2249  0.3299 -0.1113
 9544SOL    HW140094   1.219   1.447  12.609  0.7806 -1.3056  0.4660
 9544SOL    HW240095   1.316   1.460  12.703  0.0194  1.4585  0.3843
 9545SOL     OW40096   3.606   4.460   2.137 -0.4588  0.3526 -0.0618
 9545SOL    HW140097   3.662   4.436   2.063 -1.1237  0.0288 -0.4612
 9545SOL    HW240098   3.630   4.552   2.142  0.8288 -0.0334  0.9758
 9546SOL     OW40099   4.374   4.543   5.898  0.0672  0.0945 -0.1293
 9546SOL    HW140100   4.435   4.547   5.825 -0.4115  0.2005 -0.5242
 9546SOL    HW240101   4.293   4.568   5.853 -0.3763  0.4066  0.8397
 9547SOL     OW40102   4.246   4.584  10.280  0.1954  0.2347 -0.1949
 9547SOL    HW140103   4.309   4.547  10.342  0.3823  0.5959 -0.1734
 9547SOL    HW240104   4.238   4.504  10.227 -0.6410  0.2185 -0.0453
 9548SOL     OW40105   0.349   2.289   1.983  0.1840  0.0916 -0.2605
 9548SOL    HW140106   0.435   2.248   1.995 -1.2465 -2.4475  1.3148
 9548SOL    HW240107   0.303   2.271   2.065  1.8529  0.0207  0.6668
 9549SOL     OW40108   2.728   4.705   1.502 -0.3359 -0.4528 -0.3295
 9549SOL    HW140109   2.686   0.038   1.571  2.1213  1.7655 -0.4644
 9549SOL    HW240110   2.763   4.626   1.544  1.7176 -0.2532 -1.6493
 9550SOL     OW40111   3.729   4.417   1.310 -0.5409 -0.1326 -0.5130
 9550SOL    HW140112   3.701   4.326   1.296 -2.6676  0.6514 -1.3752
 9550SOL    HW240113   3.795   4.426   1.242  0.3504 -1.7866  0.1262
 9551SOL     OW40114   2.085   0.736   0.918 -0.1435 -0.1898  0.0409
 9551SOL    HW140115   2.089   0.825   0.883 -0.9124 -0.4751 -0.7537
 9551SOL    HW240116   2.142   0.754   0.993  1.8751  1.8293 -1.9548
 9552SOL     OW40117   1.432   1.304   1.570 -0.4353 -0.2026  0.2810
 9552SOL    HW140118   1.343   1.289   1.539 -0.3330 -2.9569  1.3096
 9552SOL    HW240119   1.483   1.261   1.500 -2.1886  0.6055 -1.4908
 9553SOL     OW40120   4.088   1.088   6.905  0.3712  0.0110  0.1492
 9553SOL    HW140121   4.046   1.113   6.987 -0.3812 -0.2163 -0.1712
 9553SOL    HW240122   4.092   0.994   6.918 -1.2822 -0.3468 -1.9837
 9554SOL     OW40123   0.277   1.544   4.878  0.1618 -0.2898  0.0225
 9554SOL    HW140124   0.360   1.588   4.858 -0.3679  0.1727 -1.1616
 9554SOL    HW240125   0.225   1.617   4.912  0.6626 -0.0158  0.2124
 9555SOL     OW40126   4.519   0.276   4.249 -0.3917 -0.1938  1.0386
 9555SOL    HW140127   4.480   0.359   4.220 -0.9857 -0.7869  0.1526
 9555SOL    HW240128   4.490   0.264   4.340 -2.6515 -0.2132  0.3156
 9556SOL     OW40129   0.537   3.661  12.221 -0.1487  0.5718  0.0700
 9556SOL    HW140130   0.520   3.755  12.229  0.8823  0.7554  0.0938
 9556SOL    HW240131   0.618   3.668  12.169 -1.3469  0.1547 -1.8758
 9557SOL     OW40132   1.022   4.094   8.213  0.0535  0.2433  0.6905
 9557SOL    HW140133   0.997   4.031   8.145  1.8301 -0.0549  0.3066
 9557SOL    HW240134   1.084   4.156   8.174  0.2140  1.1219  2.3444
 9558SOL     OW40135   1.808   2.593   9.193 -0.0652 -0.2235 -0.4863
 9558SOL    HW140136   1.839   2.664   9.250  0.7324 -1.3242  0.4466
 9558SOL    HW240137   1.746   2.542   9.244  1.1149 -1.7833 -0.6137
 9559SOL     OW40138   0.752   1.602  15.329  0.5265  0.2330  0.6279
 9559SOL    HW140139   0.797   1.528  15.287 -1.2092  2.2993 -4.7990
 9559SOL    HW240140   0.743   1.576  15.420  4.7010  0.9886  1.2859
 9560SOL     OW40141   2.766   1.893   6.328 -0.4777  0.0933 -0.0069
 9560SOL    HW140142   2.741   1.828   6.393  1.2309  0.6075  1.1722
 9560SOL    HW240143   2.679   1.924   6.307 -0.5351  0.7274  1.1748
 9561SOL     OW40144   1.953   2.398   6.254  0.9115 -0.1161  0.1596
 9561SOL    HW140145   1.860   2.416   6.265  0.5033 -2.0692 -0.0932
 9561SOL    HW240146   1.963   2.437   6.168  0.0043 -0.7918 -0.2486
 9562SOL     OW40147   3.292   4.437  17.110  0.3488 -0.9809 -0.3296
 9562SOL    HW140148   3.236   4.477  17.177 -1.1323 -0.7994 -1.6558
 9562SOL    HW240149   3.313   4.509  17.051 -0.8578 -0.6698 -0.3906
 9563SOL     OW40150   0.491   2.088   2.811 -0.6126  0.5106  0.0537
 9563SOL    HW140151   0.511   2.091   2.717 -1.1809 -0.3033 -0.0968
 9563SOL    HW240152   0.508   2.179   2.837  1.8823 -0.2796  1.1685
 9564SOL     OW40153   0.839   2.538  14.003 -0.1390  0.0190  0.7367
 9564SOL    HW140154   0.867   2.561  14.092 -1.7136  0.1705  1.1804
 9564SOL    HW240155   0.750   2.571  14.008  0.7741  2.3050  2.0421
 9565SOL     OW40156   3.932   3.326   4.483 -0.0144 -0.3338 -0.5587
 9565SOL    HW140157   3.896   3.306   4.397 -1.4183 -0.1861  0.0002
 9565SOL    HW240158   3.991   3.251   4.493 -0.0513 -0.2577  0.2327
 9566SOL     OW40159   1.740   1.761  10.399  0.0368 -0.0177 -0.4953
 9566SOL    HW140160   1.785   1.782  10.317 -0.6359 -2.2923 -1.4386
 9566SOL    HW240161   1.797   1.695  10.439 -0.0324 -0.2424 -0.7656
 9567SOL     OW40162   2.217   1.972   3.421  0.2253 -0.0087  0.0417
 9567SOL    HW140163   2.233   1.924   3.502  2.1705 -2.0396 -1.5334
 9567SOL    HW240164   2.282   2.041   3.432  1.0235 -0.5854 -0.9789
 9568SOL     OW40165   3.101   1.787  14.269  0.4281  0.4171  0.3936
 9568SOL    HW140166   3.173   1.736  14.232  1.1243  1.6824  0.0114
 9568SOL    HW240167   3.099   1.750  14.357 -0.0037 -0.2884  0.0899
   4.71810   4.71810  17.67556
